 *******************************************************************************
 ** Site#: 14399           For non-commercial use only        Version 13.159M **
 *******************************************************************************
 ** Cite this work as: MOPAC2012, James J. P. Stewart, Stewart Computational  **
 ** Chemistry, Version 13.159M web: HTTP://OpenMOPAC.net  Days remaining:   6 **
 *******************************************************************************
 **                                                                           **
 **                                MOPAC2012                                  **
 **                                                                           **
 *******************************************************************************

                            PM3 CALCULATION RESULTS


 *******************************************************************************
 *  CALCULATION DONE:                                Mon Jun  2 11:12:39 2014  *
 *  PM3      - The PM3 Hamiltonian to be used
 *  PRECISE  - CRITERIA TO BE INCREASED BY 100 TIMES
 *  NOSYM    - POINT-GROUP SYMMETRY SET TO C1
 *  T=       - A TIME OF 172800.0 SECONDS REQUESTED
 *  DUMP=N   - RESTART FILE WRITTEN EVERY  7200.000 SECONDS
 *******************************************************************************
pm3  precise nosym
 InChI=1S/C11H16/c1-2-3-4-5-8-11-9-6-7-10-11/h3-4,6-7,9-11H,2,5,8H2,1H3

   ATOM   CHEMICAL          X               Y               Z
  NUMBER   SYMBOL      (ANGSTROMS)     (ANGSTROMS)     (ANGSTROMS)
 
     1       C         -1.73760000  *   0.39420000  *  -0.29640000  *
     2       C         -1.12640000  *   1.43560000  *   0.65390000  *
     3       C          0.15640000  *   0.98390000  *   1.35980000  *
     4       C          2.96150000  *  -0.75160000  *  -0.70630000  *
     5       C          4.21660000  *  -1.22510000  *   0.01510000  *
     6       C         -2.26660000  *  -0.82000000  *   0.40660000  *
     7       C         -2.99770000  *   0.89880000  *  -0.93090000  *
     8       C          1.84640000  *  -0.48410000  *   0.26410000  *
     9       C          1.28250000  *   0.72390000  *   0.39820000  *
    10       C         -3.56740000  *  -0.95670000  *   0.21340000  *
    11       C         -4.02870000  *   0.12780000  *  -0.62940000  *
    12       H         -1.01740000  *   0.09800000  *  -1.09350000  *
    13       H         -1.87150000  *   1.71900000  *   1.43510000  *
    14       H         -0.90890000  *   2.36850000  *   0.08180000  *
    15       H          2.62560000  *  -1.54200000  *  -1.41560000  *
    16       H          3.21800000  *   0.14600000  *  -1.31650000  *
    17       H         -0.06150000  *   0.10520000  *   2.01050000  *
    18       H          0.48840000  *   1.79270000  *   2.05030000  *
    19       H          5.02170000  *  -1.43340000  *  -0.72550000  *
    20       H          4.02140000  *  -2.16340000  *   0.58360000  *
    21       H          4.58590000  *  -0.44340000  *   0.71780000  *
    22       H         -1.66900000  *  -1.51500000  *   0.98750000  *
    23       H         -3.06590000  *   1.77910000  *  -1.56230000  *
    24       H          1.48870000  *  -1.32070000  *   0.86440000  *
    25       H          1.63100000  *   1.55950000  *  -0.20850000  *
    26       H         -4.17860000  *  -1.75950000  *   0.61220000  *
    27       H         -5.04710000  *   0.28250000  *  -0.97020000  *
 


          CARTESIAN COORDINATES 

    NO.       ATOM         X         Y         Z

     1         C       -1.7376    0.3942   -0.2964
     2         C       -1.1264    1.4356    0.6539
     3         C        0.1564    0.9839    1.3598
     4         C        2.9615   -0.7516   -0.7063
     5         C        4.2166   -1.2251    0.0151
     6         C       -2.2666   -0.8200    0.4066
     7         C       -2.9977    0.8988   -0.9309
     8         C        1.8464   -0.4841    0.2641
     9         C        1.2825    0.7239    0.3982
    10         C       -3.5674   -0.9567    0.2134
    11         C       -4.0287    0.1278   -0.6294
    12         H       -1.0174    0.0980   -1.0935
    13         H       -1.8715    1.7190    1.4351
    14         H       -0.9089    2.3685    0.0818
    15         H        2.6256   -1.5420   -1.4156
    16         H        3.2180    0.1460   -1.3165
    17         H       -0.0615    0.1052    2.0105
    18         H        0.4884    1.7927    2.0503
    19         H        5.0217   -1.4334   -0.7255
    20         H        4.0214   -2.1634    0.5836
    21         H        4.5859   -0.4434    0.7178
    22         H       -1.6690   -1.5150    0.9875
    23         H       -3.0659    1.7791   -1.5623
    24         H        1.4887   -1.3207    0.8644
    25         H        1.6310    1.5595   -0.2085
    26         H       -4.1786   -1.7595    0.6122
    27         H       -5.0471    0.2825   -0.9702

  H: (PM3): J. J. P. STEWART, J. COMP. CHEM. 10, 209 (1989).
  C: (PM3): J. J. P. STEWART, J. COMP. CHEM. 10, 209 (1989).

           Empirical Formula: C11 H16  =    27 atoms



      MOLECULAR POINT GROUP   :   C1  


      RHF CALCULATION, NO. OF DOUBLY OCCUPIED LEVELS =   30

      Geometry optimization using EF

          DIAGONAL MATRIX USED AS START HESSIAN

 CYCLE:     1 TIME:   0.017 TIME LEFT:  2.00D  GRAD.:   113.272 HEAT: 31.72125
 CYCLE:     2 TIME:   0.032 TIME LEFT:  2.00D  GRAD.:    67.905 HEAT: 29.86026
 CYCLE:     3 TIME:   0.012 TIME LEFT:  2.00D  GRAD.:    33.528 HEAT: 28.63200
 CYCLE:     4 TIME:   0.019 TIME LEFT:  2.00D  GRAD.:    41.553 HEAT: 28.41425
 CYCLE:     5 TIME:   0.011 TIME LEFT:  2.00D  GRAD.:    30.266 HEAT: 28.04912
 CYCLE:     6 TIME:   0.019 TIME LEFT:  2.00D  GRAD.:    22.210 HEAT: 27.80091
 CYCLE:     7 TIME:   0.012 TIME LEFT:  2.00D  GRAD.:    28.689 HEAT: 27.64516
 CYCLE:     8 TIME:   0.010 TIME LEFT:  2.00D  GRAD.:    32.709 HEAT: 27.50844
 CYCLE:     9 TIME:   0.020 TIME LEFT:  2.00D  GRAD.:    24.378 HEAT: 27.38905
 CYCLE:    10 TIME:   0.019 TIME LEFT:  2.00D  GRAD.:     8.394 HEAT: 27.26330
 CYCLE:    11 TIME:   0.023 TIME LEFT:  2.00D  GRAD.:     7.158 HEAT: 27.24379
 CYCLE:    12 TIME:   0.010 TIME LEFT:  2.00D  GRAD.:     6.627 HEAT: 27.22191
 CYCLE:    13 TIME:   0.010 TIME LEFT:  2.00D  GRAD.:     8.506 HEAT: 27.20964
 CYCLE:    14 TIME:   0.010 TIME LEFT:  2.00D  GRAD.:     9.075 HEAT: 27.19294
 CYCLE:    15 TIME:   0.011 TIME LEFT:  2.00D  GRAD.:    11.918 HEAT: 27.18844
 CYCLE:    16 TIME:   0.012 TIME LEFT:  2.00D  GRAD.:    13.908 HEAT: 27.18807
 CYCLE:    17 TIME:   0.027 TIME LEFT:  2.00D  GRAD.:     6.764 HEAT: 27.14442
 CYCLE:    18 TIME:   0.027 TIME LEFT:  2.00D  GRAD.:     5.217 HEAT: 27.13384
 CYCLE:    19 TIME:   0.012 TIME LEFT:  2.00D  GRAD.:     4.722 HEAT: 27.12395
 CYCLE:    20 TIME:   0.010 TIME LEFT:  2.00D  GRAD.:     6.731 HEAT: 27.11789
 CYCLE:    21 TIME:   0.014 TIME LEFT:  2.00D  GRAD.:     6.475 HEAT: 27.10539
 CYCLE:    22 TIME:   0.011 TIME LEFT:  2.00D  GRAD.:     5.687 HEAT: 27.09144
 CYCLE:    23 TIME:   0.011 TIME LEFT:  2.00D  GRAD.:     3.874 HEAT: 27.06735
 CYCLE:    24 TIME:   0.010 TIME LEFT:  2.00D  GRAD.:     7.465 HEAT: 27.04957
 CYCLE:    25 TIME:   0.010 TIME LEFT:  2.00D  GRAD.:     7.809 HEAT: 27.03430
 CYCLE:    26 TIME:   0.011 TIME LEFT:  2.00D  GRAD.:     7.923 HEAT: 27.03076
 CYCLE:    27 TIME:   0.010 TIME LEFT:  2.00D  GRAD.:     6.172 HEAT: 27.01909
 CYCLE:    28 TIME:   0.011 TIME LEFT:  2.00D  GRAD.:     4.716 HEAT: 27.01142
 CYCLE:    29 TIME:   0.010 TIME LEFT:  2.00D  GRAD.:     4.179 HEAT: 27.00653
 CYCLE:    30 TIME:   0.010 TIME LEFT:  2.00D  GRAD.:     3.144 HEAT: 27.00104
 CYCLE:    31 TIME:   0.010 TIME LEFT:  2.00D  GRAD.:     2.169 HEAT: 26.99618
 CYCLE:    32 TIME:   0.011 TIME LEFT:  2.00D  GRAD.:     2.499 HEAT: 26.99259
 CYCLE:    33 TIME:   0.010 TIME LEFT:  2.00D  GRAD.:     2.145 HEAT: 26.98761
 CYCLE:    34 TIME:   0.012 TIME LEFT:  2.00D  GRAD.:     1.443 HEAT: 26.98409
 CYCLE:    35 TIME:   0.010 TIME LEFT:  2.00D  GRAD.:     1.946 HEAT: 26.98150
 CYCLE:    36 TIME:   0.014 TIME LEFT:  2.00D  GRAD.:     2.221 HEAT: 26.97735
 CYCLE:    37 TIME:   0.010 TIME LEFT:  2.00D  GRAD.:     2.705 HEAT: 26.97255
 CYCLE:    38 TIME:   0.011 TIME LEFT:  2.00D  GRAD.:     2.735 HEAT: 26.96843
 CYCLE:    39 TIME:   0.011 TIME LEFT:  2.00D  GRAD.:     2.373 HEAT: 26.96229
 CYCLE:    40 TIME:   0.012 TIME LEFT:  2.00D  GRAD.:     2.535 HEAT: 26.95306
 CYCLE:    41 TIME:   0.012 TIME LEFT:  2.00D  GRAD.:     3.002 HEAT: 26.94161
 CYCLE:    42 TIME:   0.011 TIME LEFT:  2.00D  GRAD.:     2.339 HEAT: 26.93191
 CYCLE:    43 TIME:   0.011 TIME LEFT:  2.00D  GRAD.:     2.145 HEAT: 26.92158
 CYCLE:    44 TIME:   0.011 TIME LEFT:  2.00D  GRAD.:     2.318 HEAT: 26.90684
 CYCLE:    45 TIME:   0.010 TIME LEFT:  2.00D  GRAD.:     1.979 HEAT: 26.89777
 CYCLE:    46 TIME:   0.015 TIME LEFT:  2.00D  GRAD.:     1.947 HEAT: 26.88868
 CYCLE:    47 TIME:   0.011 TIME LEFT:  2.00D  GRAD.:     2.484 HEAT: 26.87823
 CYCLE:    48 TIME:   0.012 TIME LEFT:  2.00D  GRAD.:     2.446 HEAT: 26.86764
 CYCLE:    49 TIME:   0.010 TIME LEFT:  2.00D  GRAD.:     2.142 HEAT: 26.85871
 CYCLE:    50 TIME:   0.010 TIME LEFT:  2.00D  GRAD.:     1.761 HEAT: 26.85175
 CYCLE:    51 TIME:   0.011 TIME LEFT:  2.00D  GRAD.:     1.966 HEAT: 26.84439
 CYCLE:    52 TIME:   0.010 TIME LEFT:  2.00D  GRAD.:     1.829 HEAT: 26.83681
 CYCLE:    53 TIME:   0.011 TIME LEFT:  2.00D  GRAD.:     1.467 HEAT: 26.82912
 CYCLE:    54 TIME:   0.011 TIME LEFT:  2.00D  GRAD.:     1.495 HEAT: 26.82281
 CYCLE:    55 TIME:   0.011 TIME LEFT:  2.00D  GRAD.:     1.697 HEAT: 26.81483
 CYCLE:    56 TIME:   0.010 TIME LEFT:  2.00D  GRAD.:     1.614 HEAT: 26.80706
 CYCLE:    57 TIME:   0.010 TIME LEFT:  2.00D  GRAD.:     1.327 HEAT: 26.80078
 CYCLE:    58 TIME:   0.011 TIME LEFT:  2.00D  GRAD.:     1.218 HEAT: 26.79636
 CYCLE:    59 TIME:   0.010 TIME LEFT:  2.00D  GRAD.:     1.000 HEAT: 26.79344
 CYCLE:    60 TIME:   0.011 TIME LEFT:  2.00D  GRAD.:     0.992 HEAT: 26.79122
 CYCLE:    61 TIME:   0.010 TIME LEFT:  2.00D  GRAD.:     0.802 HEAT: 26.78939
 CYCLE:    62 TIME:   0.012 TIME LEFT:  2.00D  GRAD.:     0.812 HEAT: 26.78757
 CYCLE:    63 TIME:   0.011 TIME LEFT:  2.00D  GRAD.:     0.851 HEAT: 26.78607
 CYCLE:    64 TIME:   0.010 TIME LEFT:  2.00D  GRAD.:     0.854 HEAT: 26.78442
 CYCLE:    65 TIME:   0.011 TIME LEFT:  2.00D  GRAD.:     0.839 HEAT: 26.78271
 CYCLE:    66 TIME:   0.012 TIME LEFT:  2.00D  GRAD.:     0.815 HEAT: 26.78085
 CYCLE:    67 TIME:   0.011 TIME LEFT:  2.00D  GRAD.:     0.782 HEAT: 26.77929
 CYCLE:    68 TIME:   0.011 TIME LEFT:  2.00D  GRAD.:     0.729 HEAT: 26.77804
 CYCLE:    69 TIME:   0.014 TIME LEFT:  2.00D  GRAD.:     0.729 HEAT: 26.77684
 CYCLE:    70 TIME:   0.012 TIME LEFT:  2.00D  GRAD.:     0.783 HEAT: 26.77536
 CYCLE:    71 TIME:   0.011 TIME LEFT:  2.00D  GRAD.:     0.877 HEAT: 26.77357
 CYCLE:    72 TIME:   0.011 TIME LEFT:  2.00D  GRAD.:     0.860 HEAT: 26.77207
 CYCLE:    73 TIME:   0.013 TIME LEFT:  2.00D  GRAD.:     0.944 HEAT: 26.76994
 CYCLE:    74 TIME:   0.011 TIME LEFT:  2.00D  GRAD.:     0.909 HEAT: 26.76855
 CYCLE:    75 TIME:   0.011 TIME LEFT:  2.00D  GRAD.:     1.319 HEAT: 26.76365
 CYCLE:    76 TIME:   0.010 TIME LEFT:  2.00D  GRAD.:     1.133 HEAT: 26.76168
 CYCLE:    77 TIME:   0.011 TIME LEFT:  2.00D  GRAD.:     1.582 HEAT: 26.75598
 CYCLE:    78 TIME:   0.012 TIME LEFT:  2.00D  GRAD.:     1.356 HEAT: 26.75313
 CYCLE:    79 TIME:   0.015 TIME LEFT:  2.00D  GRAD.:     1.848 HEAT: 26.74088
 CYCLE:    80 TIME:   0.014 TIME LEFT:  2.00D  GRAD.:     1.306 HEAT: 26.73774
 CYCLE:    81 TIME:   0.012 TIME LEFT:  2.00D  GRAD.:     1.001 HEAT: 26.73246
 CYCLE:    82 TIME:   0.010 TIME LEFT:  2.00D  GRAD.:     0.814 HEAT: 26.73027
 CYCLE:    83 TIME:   0.011 TIME LEFT:  2.00D  GRAD.:     1.498 HEAT: 26.72988
 CYCLE:    84 TIME:   0.011 TIME LEFT:  2.00D  GRAD.:     0.639 HEAT: 26.72747
 CYCLE:    85 TIME:   0.010 TIME LEFT:  2.00D  GRAD.:     0.427 HEAT: 26.72698
 CYCLE:    86 TIME:   0.012 TIME LEFT:  2.00D  GRAD.:     0.443 HEAT: 26.72634
 CYCLE:    87 TIME:   0.010 TIME LEFT:  2.00D  GRAD.:     0.690 HEAT: 26.72476
 CYCLE:    88 TIME:   0.010 TIME LEFT:  2.00D  GRAD.:     0.735 HEAT: 26.72387
 CYCLE:    89 TIME:   0.011 TIME LEFT:  2.00D  GRAD.:     0.758 HEAT: 26.72247
 CYCLE:    90 TIME:   0.011 TIME LEFT:  2.00D  GRAD.:     0.755 HEAT: 26.72120
 CYCLE:    91 TIME:   0.012 TIME LEFT:  2.00D  GRAD.:     1.020 HEAT: 26.71878
 CYCLE:    92 TIME:   0.012 TIME LEFT:  2.00D  GRAD.:     1.161 HEAT: 26.71696
 CYCLE:    93 TIME:   0.011 TIME LEFT:  2.00D  GRAD.:     1.231 HEAT: 26.71337
 CYCLE:    94 TIME:   0.011 TIME LEFT:  2.00D  GRAD.:     1.114 HEAT: 26.71077
 CYCLE:    95 TIME:   0.011 TIME LEFT:  2.00D  GRAD.:     1.114 HEAT: 26.70724
 CYCLE:    96 TIME:   0.011 TIME LEFT:  2.00D  GRAD.:     0.625 HEAT: 26.70621
 CYCLE:    97 TIME:   0.010 TIME LEFT:  2.00D  GRAD.:     0.377 HEAT: 26.70562
 CYCLE:    98 TIME:   0.011 TIME LEFT:  2.00D  GRAD.:     0.340 HEAT: 26.70510
 CYCLE:    99 TIME:   0.014 TIME LEFT:  2.00D  GRAD.:     0.297 HEAT: 26.70491
 CYCLE:   100 TIME:   0.014 TIME LEFT:  2.00D  GRAD.:     0.267 HEAT: 26.70472
 CYCLE:   101 TIME:   0.010 TIME LEFT:  2.00D  GRAD.:     0.332 HEAT: 26.70453
 CYCLE:   102 TIME:   0.017 TIME LEFT:  2.00D  GRAD.:     0.374 HEAT: 26.70432
 CYCLE:   103 TIME:   0.014 TIME LEFT:  2.00D  GRAD.:     0.380 HEAT: 26.70405
 CYCLE:   104 TIME:   0.012 TIME LEFT:  2.00D  GRAD.:     0.337 HEAT: 26.70381
 CYCLE:   105 TIME:   0.010 TIME LEFT:  2.00D  GRAD.:     0.314 HEAT: 26.70359
 CYCLE:   106 TIME:   0.010 TIME LEFT:  2.00D  GRAD.:     0.316 HEAT: 26.70335
 CYCLE:   107 TIME:   0.012 TIME LEFT:  2.00D  GRAD.:     0.330 HEAT: 26.70302
 CYCLE:   108 TIME:   0.016 TIME LEFT:  2.00D  GRAD.:     0.261 HEAT: 26.70286
 CYCLE:   109 TIME:   0.015 TIME LEFT:  2.00D  GRAD.:     0.219 HEAT: 26.70271
 CYCLE:   110 TIME:   0.012 TIME LEFT:  2.00D  GRAD.:     0.173 HEAT: 26.70265
 CYCLE:   111 TIME:   0.012 TIME LEFT:  2.00D  GRAD.:     0.371 HEAT: 26.70257
 CYCLE:   112 TIME:   0.010 TIME LEFT:  2.00D  GRAD.:     0.162 HEAT: 26.70245
 CYCLE:   113 TIME:   0.013 TIME LEFT:  2.00D  GRAD.:     0.099 HEAT: 26.70240
 CYCLE:   114 TIME:   0.013 TIME LEFT:  2.00D  GRAD.:     0.119 HEAT: 26.70234
 CYCLE:   115 TIME:   0.010 TIME LEFT:  2.00D  GRAD.:     0.126 HEAT: 26.70230
 CYCLE:   116 TIME:   0.012 TIME LEFT:  2.00D  GRAD.:     0.134 HEAT: 26.70224
 CYCLE:   117 TIME:   0.011 TIME LEFT:  2.00D  GRAD.:     0.101 HEAT: 26.70219
 CYCLE:   118 TIME:   0.010 TIME LEFT:  2.00D  GRAD.:     0.083 HEAT: 26.70216
 CYCLE:   119 TIME:   0.014 TIME LEFT:  2.00D  GRAD.:     0.077 HEAT: 26.70214
 CYCLE:   120 TIME:   0.010 TIME LEFT:  2.00D  GRAD.:     0.078 HEAT: 26.70212
 CYCLE:   121 TIME:   0.010 TIME LEFT:  2.00D  GRAD.:     0.094 HEAT: 26.70209
 CYCLE:   122 TIME:   0.012 TIME LEFT:  2.00D  GRAD.:     0.137 HEAT: 26.70203
 CYCLE:   123 TIME:   0.011 TIME LEFT:  2.00D  GRAD.:     0.242 HEAT: 26.70194
 CYCLE:   124 TIME:   0.010 TIME LEFT:  2.00D  GRAD.:     0.240 HEAT: 26.70182
 CYCLE:   125 TIME:   0.015 TIME LEFT:  2.00D  GRAD.:     0.569 HEAT: 26.70153
 CYCLE:   126 TIME:   0.011 TIME LEFT:  2.00D  GRAD.:     0.382 HEAT: 26.70118
 CYCLE:   127 TIME:   0.010 TIME LEFT:  2.00D  GRAD.:     0.246 HEAT: 26.70057
 CYCLE:   128 TIME:   0.010 TIME LEFT:  2.00D  GRAD.:     0.249 HEAT: 26.69976
 CYCLE:   129 TIME:   0.011 TIME LEFT:  2.00D  GRAD.:     1.237 HEAT: 26.69907
 CYCLE:   130 TIME:   0.012 TIME LEFT:  2.00D  GRAD.:     0.295 HEAT: 26.69823
 CYCLE:   131 TIME:   0.011 TIME LEFT:  2.00D  GRAD.:     0.262 HEAT: 26.69783
 CYCLE:   132 TIME:   0.011 TIME LEFT:  2.00D  GRAD.:     0.503 HEAT: 26.69755
 CYCLE:   133 TIME:   0.010 TIME LEFT:  2.00D  GRAD.:     0.168 HEAT: 26.69737
 CYCLE:   134 TIME:   0.010 TIME LEFT:  2.00D  GRAD.:     0.138 HEAT: 26.69731
 CYCLE:   135 TIME:   0.013 TIME LEFT:  2.00D  GRAD.:     0.107 HEAT: 26.69722
 CYCLE:   136 TIME:   0.012 TIME LEFT:  2.00D  GRAD.:     0.075 HEAT: 26.69720
 CYCLE:   137 TIME:   0.011 TIME LEFT:  2.00D  GRAD.:     0.071 HEAT: 26.69717
 CYCLE:   138 TIME:   0.014 TIME LEFT:  2.00D  GRAD.:     0.060 HEAT: 26.69716
 CYCLE:   139 TIME:   0.012 TIME LEFT:  2.00D  GRAD.:     0.129 HEAT: 26.69714
 CYCLE:   140 TIME:   0.014 TIME LEFT:  2.00D  GRAD.:     0.066 HEAT: 26.69712
 CYCLE:   141 TIME:   0.010 TIME LEFT:  2.00D  GRAD.:     0.240 HEAT: 26.69711
 CYCLE:   142 TIME:   0.010 TIME LEFT:  2.00D  GRAD.:     0.123 HEAT: 26.69708
 CYCLE:   143 TIME:   0.012 TIME LEFT:  2.00D  GRAD.:     0.156 HEAT: 26.69702
 CYCLE:   144 TIME:   0.011 TIME LEFT:  2.00D  GRAD.:     0.241 HEAT: 26.69692
 CYCLE:   145 TIME:   0.013 TIME LEFT:  2.00D  GRAD.:     0.693 HEAT: 26.69652
 CYCLE:   146 TIME:   0.011 TIME LEFT:  2.00D  GRAD.:     0.326 HEAT: 26.69607
 CYCLE:   147 TIME:   0.011 TIME LEFT:  2.00D  GRAD.:     0.466 HEAT: 26.69552
 CYCLE:   148 TIME:   0.011 TIME LEFT:  2.00D  GRAD.:     0.635 HEAT: 26.69497
 CYCLE:   149 TIME:   0.012 TIME LEFT:  2.00D  GRAD.:     0.694 HEAT: 26.69425
 CYCLE:   150 TIME:   0.012 TIME LEFT:  2.00D  GRAD.:     0.328 HEAT: 26.69395
 CYCLE:   151 TIME:   0.012 TIME LEFT:  2.00D  GRAD.:     0.187 HEAT: 26.69374
 CYCLE:   152 TIME:   0.011 TIME LEFT:  2.00D  GRAD.:     0.210 HEAT: 26.69360
 CYCLE:   153 TIME:   0.010 TIME LEFT:  2.00D  GRAD.:     0.208 HEAT: 26.69347
 CYCLE:   154 TIME:   0.014 TIME LEFT:  2.00D  GRAD.:     0.126 HEAT: 26.69342
 CYCLE:   155 TIME:   0.010 TIME LEFT:  2.00D  GRAD.:     0.087 HEAT: 26.69338
 CYCLE:   156 TIME:   0.010 TIME LEFT:  2.00D  GRAD.:     0.061 HEAT: 26.69338
 CYCLE:   157 TIME:   0.011 TIME LEFT:  2.00D  GRAD.:     0.045 HEAT: 26.69337

     RMS GRADIENT =  0.04520  IS LESS THAN CUTOFF =  0.05000



 -------------------------------------------------------------------------------
pm3  precise nosym
 InChI=1S/C11H16/c1-2-3-4-5-8-11-9-6-7-10-11/h3-4,6-7,9-11H,2,5,8H2,1H3



     GEOMETRY OPTIMISED USING EIGENVECTOR FOLLOWING (EF).     
     SCF FIELD WAS ACHIEVED                                   


                              PM3 CALCULATION
                                                       MOPAC2012 (Version: 13.159M)
                                                       Mon Jun  2 11:12:41 2014
                                                       No. of days left =   6




          FINAL HEAT OF FORMATION =         26.69337 KCAL/MOL =     111.68505 KJ/MOL


          TOTAL ENERGY            =      -1549.20990 EV
          ELECTRONIC ENERGY       =      -8786.39820 EV  POINT GROUP:     C1  
          CORE-CORE REPULSION     =       7237.18830 EV
          COSMO AREA              =        216.35 SQUARE ANGSTROMS
          COSMO VOLUME            =        220.20 CUBIC ANGSTROMS

          GRADIENT NORM           =          0.04520
          IONIZATION POTENTIAL    =          9.210985 EV
          HOMO LUMO ENERGIES (EV) =         -9.211  0.335
          NO. OF FILLED LEVELS    =         30
          MOLECULAR WEIGHT        =        148.247

          MOLECULAR DIMENSIONS (Angstroms)

            Atom       Atom       Distance
            H    19    H    27    10.32098
            H    15    H    18     4.47300
            H    26    H    23     4.18081


          SCF CALCULATIONS        =        167
          COMPUTATION TIME        =          1.897 SECONDS




   ATOM   CHEMICAL          X               Y               Z
  NUMBER   SYMBOL      (ANGSTROMS)     (ANGSTROMS)     (ANGSTROMS)
 
     1       C         -1.79384243  *   0.28966763  *  -0.17486694  *
     2       C         -1.12471230  *   1.34669226  *   0.69209086  *
     3       C          0.16296899  *   0.84315777  *   1.32968683  *
     4       C          3.07535948  *  -0.66879392  *  -0.71527598  *
     5       C          4.35566520  *  -1.12829193  *  -0.05124902  *
     6       C         -2.51298472  *  -0.77412463  *   0.62102135  *
     7       C         -2.90502435  *   0.86260292  *  -1.02317940  *
     8       C          1.99122075  *  -0.46543550  *   0.28338012  *
     9       C          1.24190600  *   0.63709990  *   0.32541847  *
    10       C         -3.81212590  *  -0.81615897  *   0.25396441  *
    11       C         -4.05639123  *   0.20341267  *  -0.77033770  *
    12       H         -1.03522114  *  -0.19493147  *  -0.83662760  *
    13       H         -1.82518302  *   1.67957643  *   1.48257717  *
    14       H         -0.91657288  *   2.24325172  *   0.07400178  *
    15       H          2.73335013  *  -1.42448685  *  -1.45104994  *
    16       H          3.26119114  *   0.25500033  *  -1.29912130  *
    17       H         -0.03628616  *  -0.08571380  *   1.90242248  *
    18       H          0.52251778  *   1.58433868  *   2.07179775  *
    19       H          5.14560276  *  -1.30451129  *  -0.79240370  *
    20       H          4.21190907  *  -2.06409730  *   0.50509721  *
    21       H          4.73217295  *  -0.38135697  *   0.65948515  *
    22       H         -2.00648146  *  -1.38703078  *   1.36391535  *
    23       H         -2.74111475  *   1.68302755  *  -1.71845656  *
    24       H          1.83491427  *  -1.28633535  *   0.99524002  *
    25       H          1.39960277  *   1.45806212  *  -0.38626958  *
    26       H         -4.58636175  *  -1.48137237  *   0.63090158  *
    27       H         -5.02948268  *   0.36888051  *  -1.22826458  *

           Empirical Formula: C11 H16  =    27 atoms



      MOLECULAR POINT GROUP   :   C1  


                  EIGENVALUES  
 -40.91083 -37.56087 -34.11610 -29.16981 -27.30755 -25.77938 -22.82851 -20.81086
 -19.87233 -18.97121 -18.45197 -17.93904 -16.37634 -15.92252 -15.00660 -14.93204
 -14.74414 -13.90975 -13.71554 -13.52584 -13.26436 -12.95937 -12.67853 -12.37417
 -12.11473 -11.96657 -11.71703 -10.98607  -9.79904  -9.21098   0.33517   1.03808
   2.04118   3.20713   3.32025   3.39495   3.56175   3.71912   3.75387   3.80018
   3.86184   3.91167   4.00275   4.10048   4.12173   4.19384   4.30349   4.38209
   4.55647   4.66230   4.69603   4.78045   4.83817   4.87031   4.93957   5.64785
   5.80980   5.83322   5.91800   6.17770


              NET ATOMIC CHARGES AND DIPOLE CONTRIBUTIONS

  ATOM NO.   TYPE          CHARGE      No. of ELECS.   s-Pop       p-Pop       
    1          C          -0.041074        4.0411     1.16638     2.87470
    2          C          -0.068573        4.0686     1.15626     2.91232
    3          C          -0.067835        4.0678     1.14976     2.91807
    4          C          -0.061734        4.0617     1.14575     2.91598
    5          C          -0.105840        4.1058     1.13763     2.96821
    6          C          -0.155883        4.1559     1.20927     2.94661
    7          C          -0.158959        4.1590     1.20995     2.94901
    8          C          -0.149830        4.1498     1.19774     2.95209
    9          C          -0.155057        4.1551     1.19743     2.95763
   10          C          -0.121129        4.1211     1.19246     2.92867
   11          C          -0.119308        4.1193     1.19238     2.92693
   12          H           0.098489        0.9015     0.90151
   13          H           0.056744        0.9433     0.94326
   14          H           0.052757        0.9472     0.94724
   15          H           0.053341        0.9467     0.94666
   16          H           0.051279        0.9487     0.94872
   17          H           0.056672        0.9433     0.94333
   18          H           0.056313        0.9437     0.94369
   19          H           0.037118        0.9629     0.96288
   20          H           0.037969        0.9620     0.96203
   21          H           0.039943        0.9601     0.96006
   22          H           0.117061        0.8829     0.88294
   23          H           0.116204        0.8838     0.88380
   24          H           0.101975        0.8980     0.89803
   25          H           0.102644        0.8974     0.89736
   26          H           0.113361        0.8866     0.88664
   27          H           0.113350        0.8867     0.88665
 DIPOLE           X         Y         Z       TOTAL
 POINT-CHG.     0.533     0.134     0.046     0.552
 HYBRID         0.000    -0.057    -0.038     0.068
 SUM            0.533     0.077     0.007     0.538


          ATOMIC ORBITAL ELECTRON POPULATIONS

    Atom      s        px        py        pz   
    1  C   1.16638   0.96891   0.94877   0.95702
    2  C   1.15626   0.95782   0.96567   0.98882
    3  C   1.14976   0.93884   1.01488   0.96435
    4  C   1.14575   0.94209   1.01091   0.96298
    5  C   1.13763   0.96424   1.00458   0.99939
    6  C   1.20927   0.96104   0.99283   0.99274
    7  C   1.20995   0.95598   0.99433   0.99869
    8  C   1.19774   0.97794   0.97911   0.99505
    9  C   1.19743   0.98036   0.98054   0.99673
   10  C   1.19246   0.96297   0.98529   0.98041
   11  C   1.19238   0.97342   0.97166   0.98186
   12  H   0.90151
   13  H   0.94326
   14  H   0.94724
   15  H   0.94666
   16  H   0.94872
   17  H   0.94333
   18  H   0.94369
   19  H   0.96288
   20  H   0.96203
   21  H   0.96006
   22  H   0.88294
   23  H   0.88380
   24  H   0.89803
   25  H   0.89736
   26  H   0.88664
   27  H   0.88665
 *******************************************************************************
 ** Site#: 14399           For non-commercial use only        Version 13.159M **
 *******************************************************************************
 ** Cite this work as: MOPAC2012, James J. P. Stewart, Stewart Computational  **
 ** Chemistry, Version 13.159M web: HTTP://OpenMOPAC.net  Days remaining:   6 **
 *******************************************************************************
 **                                                                           **
 **                                MOPAC2012                                  **
 **                                                                           **
 *******************************************************************************

                            PM3 CALCULATION RESULTS


 *******************************************************************************
 *  CALCULATION DONE:                                Mon Jun  2 11:12:41 2014  *
 *  PM3      - The PM3 Hamiltonian to be used
 *  OLDGEO   - PREVIOUS GEOMETRY TO BE USED
 *  PRECISE  - CRITERIA TO BE INCREASED BY 100 TIMES
 *  NOSYM    - POINT-GROUP SYMMETRY SET TO C1
 *  T=       - A TIME OF 172800.0 SECONDS REQUESTED
 *  DUMP=N   - RESTART FILE WRITTEN EVERY  7200.000 SECONDS
 *  THERMO   - THERMODYNAMIC QUANTITIES TO BE CALCULATED
 *******************************************************************************
oldgeo thermo nosym precise  pm3

   ATOM   CHEMICAL          X               Y               Z
  NUMBER   SYMBOL      (ANGSTROMS)     (ANGSTROMS)     (ANGSTROMS)
 
     1       C         -1.79384243  *   0.28966763  *  -0.17486694  *
     2       C         -1.12471230  *   1.34669226  *   0.69209086  *
     3       C          0.16296899  *   0.84315777  *   1.32968683  *
     4       C          3.07535948  *  -0.66879392  *  -0.71527598  *
     5       C          4.35566520  *  -1.12829193  *  -0.05124902  *
     6       C         -2.51298472  *  -0.77412463  *   0.62102135  *
     7       C         -2.90502435  *   0.86260292  *  -1.02317940  *
     8       C          1.99122075  *  -0.46543550  *   0.28338012  *
     9       C          1.24190600  *   0.63709990  *   0.32541847  *
    10       C         -3.81212590  *  -0.81615897  *   0.25396441  *
    11       C         -4.05639123  *   0.20341267  *  -0.77033770  *
    12       H         -1.03522114  *  -0.19493147  *  -0.83662760  *
    13       H         -1.82518302  *   1.67957643  *   1.48257717  *
    14       H         -0.91657288  *   2.24325172  *   0.07400178  *
    15       H          2.73335013  *  -1.42448685  *  -1.45104994  *
    16       H          3.26119114  *   0.25500033  *  -1.29912130  *
    17       H         -0.03628616  *  -0.08571380  *   1.90242248  *
    18       H          0.52251778  *   1.58433868  *   2.07179775  *
    19       H          5.14560276  *  -1.30451129  *  -0.79240370  *
    20       H          4.21190907  *  -2.06409730  *   0.50509721  *
    21       H          4.73217295  *  -0.38135697  *   0.65948515  *
    22       H         -2.00648146  *  -1.38703078  *   1.36391535  *
    23       H         -2.74111475  *   1.68302755  *  -1.71845656  *
    24       H          1.83491427  *  -1.28633535  *   0.99524002  *
    25       H          1.39960277  *   1.45806212  *  -0.38626958  *
    26       H         -4.58636175  *  -1.48137237  *   0.63090158  *
    27       H         -5.02948268  *   0.36888051  *  -1.22826458  *
 


          CARTESIAN COORDINATES 

    NO.       ATOM         X         Y         Z

     1         C       -1.7938    0.2897   -0.1749
     2         C       -1.1247    1.3467    0.6921
     3         C        0.1630    0.8432    1.3297
     4         C        3.0754   -0.6688   -0.7153
     5         C        4.3557   -1.1283   -0.0512
     6         C       -2.5130   -0.7741    0.6210
     7         C       -2.9050    0.8626   -1.0232
     8         C        1.9912   -0.4654    0.2834
     9         C        1.2419    0.6371    0.3254
    10         C       -3.8121   -0.8162    0.2540
    11         C       -4.0564    0.2034   -0.7703
    12         H       -1.0352   -0.1949   -0.8366
    13         H       -1.8252    1.6796    1.4826
    14         H       -0.9166    2.2433    0.0740
    15         H        2.7334   -1.4245   -1.4510
    16         H        3.2612    0.2550   -1.2991
    17         H       -0.0363   -0.0857    1.9024
    18         H        0.5225    1.5843    2.0718
    19         H        5.1456   -1.3045   -0.7924
    20         H        4.2119   -2.0641    0.5051
    21         H        4.7322   -0.3814    0.6595
    22         H       -2.0065   -1.3870    1.3639
    23         H       -2.7411    1.6830   -1.7185
    24         H        1.8349   -1.2863    0.9952
    25         H        1.3996    1.4581   -0.3863
    26         H       -4.5864   -1.4814    0.6309
    27         H       -5.0295    0.3689   -1.2283

  H: (PM3): J. J. P. STEWART, J. COMP. CHEM. 10, 209 (1989).
  C: (PM3): J. J. P. STEWART, J. COMP. CHEM. 10, 209 (1989).

           Empirical Formula: C11 H16  =    27 atoms



      MOLECULAR POINT GROUP   :   C1  


      RHF CALCULATION, NO. OF DOUBLY OCCUPIED LEVELS =   30



          HEAT OF FORMATION =      26.693367 KCALS/MOLE


          INTERNAL COORDINATE DERIVATIVES

   NUMBER  ATOM       BOND         ANGLE      DIHEDRAL

     1       C      0.007423     0.001432    -0.001250
     2       C      0.002395    -0.004086    -0.003113
     3       C     -0.005545     0.003790    -0.000500
     4       C      0.009344    -0.005104     0.000186
     5       C      0.008267     0.017100     0.004251
     6       C      0.003954     0.009569     0.001655
     7       C      0.001080     0.001428     0.011758
     8       C     -0.000875     0.000406    -0.003465
     9       C      0.004966     0.002591    -0.000838
    10       C     -0.001218    -0.007666     0.001525
    11       C     -0.002554     0.003919    -0.006269
    12       H      0.005162     0.002181     0.002181
    13       H      0.005492     0.008207     0.011231
    14       H     -0.003178    -0.004953    -0.005395
    15       H     -0.012266    -0.002320    -0.001461
    16       H     -0.000438    -0.011637    -0.002121
    17       H     -0.004903    -0.009874     0.001306
    18       H      0.000887    -0.000033     0.003329
    19       H      0.003374     0.005504     0.000327
    20       H     -0.005624    -0.001507    -0.002526
    21       H     -0.001561    -0.001384    -0.000167
    22       H     -0.006317     0.002994     0.000934
    23       H     -0.003240    -0.004395    -0.005528
    24       H      0.000308    -0.000083     0.000145
    25       H      0.001128    -0.000906     0.003547
    26       H     -0.006051    -0.008830    -0.010419
    27       H     -0.000009     0.003657     0.000679


          GRADIENT NORM =   0.04747


          TIME FOR SCF CALCULATION =    0.01

          TIME FOR DERIVATIVES     =    0.01

          MOLECULAR WEIGHT =  148.25



          ROTATIONAL CONSTANTS IN CM(-1)

          A =    0.09062687   B =    0.01368833   C =    0.01334988



           PRINCIPAL MOMENTS OF INERTIA IN UNITS OF 10**(-40)*GRAM-CM**2

          A =      308.8794   B =     2045.0101   C =     2096.8560


          ORIENTATION OF MOLECULE IN FORCE CALCULATION

    NO.       ATOM         X         Y         Z

     1          C      -0.5726   -1.2500   -0.4397
     2          C       0.9495   -1.2500   -0.4397
     3          C       1.5290    0.1579   -0.4397
     4          C       0.5946    2.8209    2.2033
     5          C       1.2165    4.2008    2.1927
     6          C      -1.1742   -0.9192   -1.7854
     7          C      -1.1464   -2.6192   -0.1589
     8          C       0.8280    2.1127    0.9156
     9          C       1.2882    0.8627    0.8488
    10          C      -1.9836   -1.9254   -2.1813
    11          C      -1.9663   -2.9844   -1.1681
    12          H      -0.9526   -0.5262    0.3218
    13          H       1.3230   -1.8055   -1.3219
    14          H       1.3115   -1.8093    0.4465
    15          H      -0.4997    2.8956    2.3658
    16          H       0.9853    2.2352    3.0595
    17          H       1.1226    0.7346   -1.2958
    18          H       2.6245    0.1068   -0.6029
    19          H       1.0193    4.7319    3.1326
    20          H       0.8203    4.8191    1.3761
    21          H       2.3056    4.1516    2.0650
    22          H      -0.9540    0.0090   -2.3089
    23          H      -0.9006   -3.1787    0.7410
    24          H       0.5947    2.6818    0.0063
    25          H       1.5223    0.2947    1.7587
    26          H      -2.5712   -1.9830   -3.0953
    27          H      -2.5401   -3.9048   -1.2563


    FIRST DERIVATIVES WILL BE USED IN THE CALCULATION OF SECOND DERIVATIVES

          ESTIMATED TIME TO COMPLETE CALCULATION =        5.11 SECONDS

    FOR POINT-GROUP C1   THERE ARE   1 UNIQUE SYMMETRY FUNCTIONS.

 STEP:   1 TIME =     0.05 SECS, INTEGRAL =      0.05 TIME LEFT: 172799.93
 STEP:   2 TIME =     0.06 SECS, INTEGRAL =      0.11 TIME LEFT: 172799.88
 STEP:   3 TIME =     0.05 SECS, INTEGRAL =      0.16 TIME LEFT: 172799.83
 STEP:   4 TIME =     0.06 SECS, INTEGRAL =      0.22 TIME LEFT: 172799.77
 STEP:   5 TIME =     0.05 SECS, INTEGRAL =      0.26 TIME LEFT: 172799.72
 STEP:   6 TIME =     0.05 SECS, INTEGRAL =      0.31 TIME LEFT: 172799.67
 STEP:   7 TIME =     0.05 SECS, INTEGRAL =      0.36 TIME LEFT: 172799.63
 STEP:   8 TIME =     0.05 SECS, INTEGRAL =      0.40 TIME LEFT: 172799.58
 STEP:   9 TIME =     0.05 SECS, INTEGRAL =      0.45 TIME LEFT: 172799.53
 STEP:  10 TIME =     0.05 SECS, INTEGRAL =      0.50 TIME LEFT: 172799.49
 STEP:  11 TIME =     0.05 SECS, INTEGRAL =      0.55 TIME LEFT: 172799.44
 STEP:  12 TIME =     0.05 SECS, INTEGRAL =      0.59 TIME LEFT: 172799.39
 STEP:  13 TIME =     0.05 SECS, INTEGRAL =      0.64 TIME LEFT: 172799.34
 STEP:  14 TIME =     0.05 SECS, INTEGRAL =      0.69 TIME LEFT: 172799.29
 STEP:  15 TIME =     0.05 SECS, INTEGRAL =      0.74 TIME LEFT: 172799.25
 STEP:  16 TIME =     0.05 SECS, INTEGRAL =      0.79 TIME LEFT: 172799.20
 STEP:  17 TIME =     0.05 SECS, INTEGRAL =      0.83 TIME LEFT: 172799.15
 STEP:  18 TIME =     0.05 SECS, INTEGRAL =      0.88 TIME LEFT: 172799.10
 STEP:  19 TIME =     0.05 SECS, INTEGRAL =      0.93 TIME LEFT: 172799.05
 STEP:  20 TIME =     0.05 SECS, INTEGRAL =      0.99 TIME LEFT: 172799.00
 STEP:  21 TIME =     0.05 SECS, INTEGRAL =      1.04 TIME LEFT: 172798.94
 STEP:  22 TIME =     0.06 SECS, INTEGRAL =      1.10 TIME LEFT: 172798.89
 STEP:  23 TIME =     0.05 SECS, INTEGRAL =      1.15 TIME LEFT: 172798.84
 STEP:  24 TIME =     0.05 SECS, INTEGRAL =      1.20 TIME LEFT: 172798.79
 STEP:  25 TIME =     0.05 SECS, INTEGRAL =      1.25 TIME LEFT: 172798.74
 STEP:  26 TIME =     0.05 SECS, INTEGRAL =      1.29 TIME LEFT: 172798.69
 STEP:  27 TIME =     0.05 SECS, INTEGRAL =      1.34 TIME LEFT: 172798.64
 STEP:  28 TIME =     0.05 SECS, INTEGRAL =      1.39 TIME LEFT: 172798.59
 STEP:  29 TIME =     0.05 SECS, INTEGRAL =      1.44 TIME LEFT: 172798.55
 STEP:  30 TIME =     0.05 SECS, INTEGRAL =      1.48 TIME LEFT: 172798.50
 STEP:  31 TIME =     0.05 SECS, INTEGRAL =      1.53 TIME LEFT: 172798.45
 STEP:  32 TIME =     0.05 SECS, INTEGRAL =      1.58 TIME LEFT: 172798.41
 STEP:  33 TIME =     0.05 SECS, INTEGRAL =      1.62 TIME LEFT: 172798.36
 STEP:  34 TIME =     0.05 SECS, INTEGRAL =      1.67 TIME LEFT: 172798.31
 STEP:  35 TIME =     0.05 SECS, INTEGRAL =      1.72 TIME LEFT: 172798.26
 STEP:  36 TIME =     0.05 SECS, INTEGRAL =      1.77 TIME LEFT: 172798.21
 STEP:  37 TIME =     0.05 SECS, INTEGRAL =      1.82 TIME LEFT: 172798.16
 STEP:  38 TIME =     0.05 SECS, INTEGRAL =      1.87 TIME LEFT: 172798.12
 STEP:  39 TIME =     0.05 SECS, INTEGRAL =      1.91 TIME LEFT: 172798.07
 STEP:  40 TIME =     0.05 SECS, INTEGRAL =      1.96 TIME LEFT: 172798.02
 STEP:  41 TIME =     0.05 SECS, INTEGRAL =      2.01 TIME LEFT: 172797.98
 STEP:  42 TIME =     0.05 SECS, INTEGRAL =      2.05 TIME LEFT: 172797.93
 STEP:  43 TIME =     0.04 SECS, INTEGRAL =      2.10 TIME LEFT: 172797.89
 STEP:  44 TIME =     0.05 SECS, INTEGRAL =      2.14 TIME LEFT: 172797.84
 STEP:  45 TIME =     0.05 SECS, INTEGRAL =      2.19 TIME LEFT: 172797.79
 STEP:  46 TIME =     0.05 SECS, INTEGRAL =      2.24 TIME LEFT: 172797.74
 STEP:  47 TIME =     0.05 SECS, INTEGRAL =      2.29 TIME LEFT: 172797.69
 STEP:  48 TIME =     0.05 SECS, INTEGRAL =      2.34 TIME LEFT: 172797.65
 STEP:  49 TIME =     0.05 SECS, INTEGRAL =      2.38 TIME LEFT: 172797.60
 STEP:  50 TIME =     0.05 SECS, INTEGRAL =      2.43 TIME LEFT: 172797.55
 STEP:  51 TIME =     0.05 SECS, INTEGRAL =      2.48 TIME LEFT: 172797.51
 STEP:  52 TIME =     0.04 SECS, INTEGRAL =      2.52 TIME LEFT: 172797.47
 STEP:  53 TIME =     0.05 SECS, INTEGRAL =      2.57 TIME LEFT: 172797.42
 STEP:  54 TIME =     0.05 SECS, INTEGRAL =      2.61 TIME LEFT: 172797.37
 STEP:  55 TIME =     0.05 SECS, INTEGRAL =      2.66 TIME LEFT: 172797.32
 STEP:  56 TIME =     0.05 SECS, INTEGRAL =      2.70 TIME LEFT: 172797.28
 STEP:  57 TIME =     0.04 SECS, INTEGRAL =      2.75 TIME LEFT: 172797.24
 STEP:  58 TIME =     0.05 SECS, INTEGRAL =      2.80 TIME LEFT: 172797.19
 STEP:  59 TIME =     0.05 SECS, INTEGRAL =      2.85 TIME LEFT: 172797.14
 STEP:  60 TIME =     0.05 SECS, INTEGRAL =      2.89 TIME LEFT: 172797.09
 STEP:  61 TIME =     0.04 SECS, INTEGRAL =      2.94 TIME LEFT: 172797.05
 STEP:  62 TIME =     0.05 SECS, INTEGRAL =      2.98 TIME LEFT: 172797.00
 STEP:  63 TIME =     0.05 SECS, INTEGRAL =      3.03 TIME LEFT: 172796.95
 STEP:  64 TIME =     0.05 SECS, INTEGRAL =      3.08 TIME LEFT: 172796.90
 STEP:  65 TIME =     0.05 SECS, INTEGRAL =      3.13 TIME LEFT: 172796.86
 STEP:  66 TIME =     0.05 SECS, INTEGRAL =      3.18 TIME LEFT: 172796.81
 STEP:  67 TIME =     0.05 SECS, INTEGRAL =      3.22 TIME LEFT: 172796.76
 STEP:  68 TIME =     0.05 SECS, INTEGRAL =      3.27 TIME LEFT: 172796.72
 STEP:  69 TIME =     0.04 SECS, INTEGRAL =      3.31 TIME LEFT: 172796.67
 STEP:  70 TIME =     0.05 SECS, INTEGRAL =      3.36 TIME LEFT: 172796.62
 STEP:  71 TIME =     0.05 SECS, INTEGRAL =      3.41 TIME LEFT: 172796.58
 STEP:  72 TIME =     0.04 SECS, INTEGRAL =      3.45 TIME LEFT: 172796.53
 STEP:  73 TIME =     0.05 SECS, INTEGRAL =      3.50 TIME LEFT: 172796.48
 STEP:  74 TIME =     0.05 SECS, INTEGRAL =      3.55 TIME LEFT: 172796.44
 STEP:  75 TIME =     0.04 SECS, INTEGRAL =      3.59 TIME LEFT: 172796.39
 STEP:  76 TIME =     0.05 SECS, INTEGRAL =      3.64 TIME LEFT: 172796.35
 STEP:  77 TIME =     0.05 SECS, INTEGRAL =      3.68 TIME LEFT: 172796.30
 STEP:  78 TIME =     0.05 SECS, INTEGRAL =      3.73 TIME LEFT: 172796.25
 STEP:  79 TIME =     0.05 SECS, INTEGRAL =      3.78 TIME LEFT: 172796.21
 STEP:  80 TIME =     0.04 SECS, INTEGRAL =      3.82 TIME LEFT: 172796.16
 STEP:  81 TIME =     0.05 SECS, INTEGRAL =      3.87 TIME LEFT: 172796.11

(To convert to Hartree/Bohr^2, multiply by (10^(-21) x N x a0^2)/(4.184 x 627.51) = 0.0642)


           FORCE MATRIX IN MILLIDYNES/ANGSTROM


                  C  1       C  2       C  3       C  4       C  5       C  6
 ------------------------------------------------------------------------------
     C    1  14.864884
     C    2   4.027580  14.264188
     C    3   0.621590   4.081336  14.626067
     C    4   0.001395   0.018781   0.141396  14.697082
     C    5   0.001189   0.001670   0.019298   4.408265  14.349289
     C    6   4.132351   0.596864   0.038642   0.001332   0.000766  17.894386
     C    7   4.130537   0.608569   0.047476   0.001197   0.000628   1.096377
     C    8   0.007849   0.041248   0.822046   4.965637   0.717426   0.002921
     C    9   0.051300   0.689489   4.945236   0.823346   0.040377   0.003293
     C   10   1.209978   0.052328   0.008290   0.001631   0.000888   9.780337
     C   11   1.208015   0.049929   0.009525   0.001498   0.000982   1.575552
     H   12   4.198595   0.445570   0.036929   0.001455   0.000612   0.387900
     H   13   0.442477   4.489170   0.429819   0.003196   0.000339   0.023314
     H   14   0.439680   4.437330   0.445789   0.000986   0.000458   0.044656
     H   15   0.000621   0.003397   0.018796   4.422242   0.445661   0.000497
     H   16   0.000216   0.001002   0.002861   4.441758   0.434878   0.000330
     H   17   0.023354   0.441444   4.414090   0.003042   0.001154   0.011611
     H   18   0.050169   0.434106   4.427103   0.018757   0.003390   0.003354
     H   19   0.000292   0.000242   0.003292   0.449515   4.751381   0.000324
     H   20   0.000457   0.000305   0.000763   0.463935   4.725852   0.000440
     H   21   0.000344   0.000231   0.000757   0.460860   4.748634   0.000479
     H   22   0.403798   0.009168   0.012794   0.000772   0.000216   5.061702
     H   23   0.403605   0.014324   0.001844   0.000287   0.000311   0.042075
     H   24   0.001180   0.008233   0.083484   0.430273   0.026508   0.001758
     H   25   0.003724   0.027036   0.429999   0.083203   0.008098   0.001356
     H   26   0.111971   0.015802   0.000775   0.000262   0.000322   0.446401
     H   27   0.111994   0.015930   0.002705   0.000391   0.000215   0.049230


                  C  7       C  8       C  9       C 10       C 11       H 12
 ------------------------------------------------------------------------------
     C    7  17.914294
     C    8   0.001969  18.192891
     C    9   0.005158  10.692050  18.168141
     C   10   1.576716   0.002020   0.003188  18.321221
     C   11   9.785891   0.001328   0.003478   5.157492  18.327590
     H   12   0.388296   0.007726   0.015791   0.050210   0.050161   4.678342
     H   13   0.011927   0.006823   0.049874   0.005751   0.004669   0.042474
     H   14   0.040903   0.002029   0.033215   0.007287   0.005831   0.017925
     H   15   0.000516   0.408503   0.032158   0.000413   0.000384   0.000424
     H   16   0.000304   0.459356   0.050070   0.000207   0.000294   0.000253
     H   17   0.001058   0.049821   0.458510   0.001810   0.000852   0.003495
     H   18   0.008427   0.031535   0.405716   0.001582   0.001859   0.002844
     H   19   0.000287   0.052319   0.006910   0.000453   0.000233   0.000253
     H   20   0.000262   0.027369   0.001919   0.000398   0.000566   0.000146
     H   21   0.000304   0.016058   0.002406   0.000451   0.000403   0.000167
     H   22   0.042581   0.001307   0.001787   0.442816   0.100284   0.011157
     H   23   5.075045   0.000704   0.000750   0.099850   0.443272   0.011279
     H   24   0.000991   4.761422   0.468652   0.000864   0.000796   0.001290
     H   25   0.001925   0.468677   4.756290   0.001589   0.001476   0.002621
     H   26   0.049399   0.000444   0.000985   5.070597   0.418945   0.014141
     H   27   0.447003   0.000371   0.000988   0.418672   5.071686   0.014095


                  H 13       H 14       H 15       H 16       H 17       H 18
 ------------------------------------------------------------------------------
     H   13   5.088579
     H   14   0.561296   5.051395
     H   15   0.000718   0.000242   5.019320
     H   16   0.000186   0.000186   0.565730   5.052910
     H   17   0.024773   0.044716   0.000301   0.000559   5.028266
     H   18   0.037575   0.024445   0.002193   0.000266   0.559432   5.016370
     H   19   0.000067   0.000104   0.028641   0.030132   0.000236   0.000735
     H   20   0.000097   0.000095   0.023986   0.047422   0.000234   0.000214
     H   21   0.000120   0.000130   0.048797   0.024649   0.000166   0.000181
     H   22   0.002796   0.001812   0.000364   0.000203   0.020955   0.000945
     H   23   0.001793   0.013419   0.000194   0.000093   0.000703   0.000472
     H   24   0.001524   0.000664   0.017642   0.038259   0.030019   0.009942
     H   25   0.002072   0.025644   0.009918   0.030052   0.037760   0.017559
     H   26   0.000913   0.002555   0.000060   0.000062   0.000440   0.000160
     H   27   0.000385   0.000655   0.000116   0.000061   0.000162   0.000566


                  H 19       H 20       H 21       H 22       H 23       H 24
 ------------------------------------------------------------------------------
     H   19   5.488643
     H   20   0.571623   5.470793
     H   21   0.574161   0.577130   5.485957
     H   22   0.000119   0.000181   0.000148   5.463069
     H   23   0.000098   0.000057   0.000110   0.010289   5.475736
     H   24   0.001995   0.020205   0.002520   0.000867   0.000337   5.142660
     H   25   0.001580   0.000574   0.000485   0.000754   0.000550   0.104674
     H   26   0.000093   0.000079   0.000064   0.040941   0.005397   0.000256
     H   27   0.000078   0.000066   0.000089   0.005335   0.041197   0.000331


                  H 25       H 26       H 27
 ------------------------------------------
     H   25   5.139159
     H   26   0.000330   5.461973
     H   27   0.000289   0.009629   5.462558


          HEAT OF FORMATION =      26.693367 KCALS/MOLE

          ZERO POINT ENERGY     149.080 KCAL/MOL


           NORMAL COORDINATE ANALYSIS (Total motion = 1 Angstrom)


   Root No.       1         2         3         4         5         6         7         8

                 1 A       2 A       3 A       4 A       5 A       6 A       7 A       8 A   

                  35.0      56.9      60.0      98.1     140.2     175.1     183.1     223.6
  
           1   -0.0111   -0.0145   -0.0005    0.0061   -0.0188   -0.0210    0.0029   -0.0096
           2   -0.0061   -0.0051    0.0249   -0.0068    0.0046    0.0277   -0.0093    0.0030
           3   -0.0082   -0.0059   -0.0241   -0.0069    0.0222    0.0072   -0.0098   -0.0154
           4   -0.0112   -0.0145   -0.0003    0.0061   -0.0181   -0.0196    0.0026   -0.0089
           5    0.0110    0.0004    0.0115   -0.0068   -0.0014    0.0088    0.0037    0.0092
           6    0.0026    0.0076   -0.0143   -0.0177    0.0272   -0.0225    0.0054    0.0119
           7   -0.0268   -0.0176    0.0092    0.0067   -0.0079    0.0089   -0.0019    0.0244
           8    0.0173    0.0016    0.0078   -0.0069   -0.0047   -0.0053    0.0064   -0.0040
           9    0.0020    0.0053   -0.0114    0.0020   -0.0234    0.0086    0.0009    0.0184
          10    0.0023    0.0502   -0.0006    0.0012    0.0037   -0.0024    0.0019   -0.0168
          11    0.0239    0.0047   -0.0173    0.0063   -0.0116   -0.0022    0.0062    0.0109
          12    0.0057    0.0261    0.0109   -0.0133   -0.0127   -0.0017    0.0058   -0.0104
          13    0.0578   -0.0201   -0.0114   -0.0207   -0.0107    0.0017   -0.0015   -0.0024
          14   -0.0009    0.0362   -0.0125    0.0161   -0.0059   -0.0038    0.0080    0.0044
          15    0.0235   -0.0132    0.0199    0.0309    0.0297   -0.0164   -0.0020    0.0081
          16   -0.0053   -0.0040    0.0124   -0.0053   -0.0027   -0.0312   -0.0012   -0.0243
          17   -0.0210   -0.0108   -0.0251   -0.0058    0.0069    0.0178   -0.0086   -0.0058
          18   -0.0145   -0.0121   -0.0422   -0.0013    0.0154    0.0091   -0.0079   -0.0116
          19    0.0015   -0.0109   -0.0157    0.0047   -0.0157    0.0022    0.0038    0.0096
          20   -0.0105   -0.0074    0.0423   -0.0049    0.0000    0.0183   -0.0105   -0.0069
          21   -0.0036   -0.0085    0.0289   -0.0006    0.0087    0.0102   -0.0113   -0.0159
          22   -0.0052    0.0242   -0.0003    0.0530    0.0164    0.0094   -0.0002    0.0156
          23    0.0232    0.0049   -0.0054    0.0201    0.0120   -0.0149   -0.0038    0.0014
          24    0.0047    0.0213    0.0044   -0.0116   -0.0239    0.0086    0.0112    0.0008
          25   -0.0272    0.0044    0.0156   -0.0245    0.0262    0.0005    0.0261    0.0439
          26    0.0152   -0.0019    0.0011   -0.0091    0.0160   -0.0182    0.0060    0.0106
          27    0.0031    0.0114   -0.0065   -0.0024   -0.0293    0.0143    0.0073    0.0147
          28    0.0071    0.0043    0.0055   -0.0148    0.0210    0.0132   -0.0169   -0.0284
          29   -0.0315   -0.0154   -0.0338   -0.0021   -0.0029   -0.0125    0.0001   -0.0084
          30   -0.0132   -0.0174   -0.0060    0.0084   -0.0076   -0.0048    0.0013    0.0009
          31    0.0113    0.0001   -0.0122   -0.0088    0.0127    0.0366   -0.0131   -0.0008
          32   -0.0250   -0.0133    0.0082   -0.0014   -0.0071   -0.0134   -0.0017   -0.0132
          33   -0.0064   -0.0152    0.0383    0.0090   -0.0118   -0.0057   -0.0009   -0.0050
          34   -0.0246   -0.0241    0.0006    0.0126   -0.0223   -0.0063   -0.0068   -0.0237
          35   -0.0057   -0.0052    0.0594   -0.0064    0.0022    0.0286   -0.0127   -0.0008
          36   -0.0154   -0.0109   -0.0563   -0.0037    0.0218    0.0121   -0.0110   -0.0189
          37    0.0008   -0.0060    0.0011    0.0010   -0.0202   -0.0461    0.0146    0.0026
          38    0.0124   -0.0026    0.0075    0.0075   -0.0359    0.0279    0.0002    0.0020
          39    0.0067    0.0130   -0.0112   -0.0288    0.0480   -0.0460    0.0126    0.0211
          40   -0.0110   -0.0201   -0.0097    0.0117   -0.0236   -0.0111   -0.0029   -0.0316
          41    0.0173    0.0050    0.0100   -0.0211    0.0276   -0.0227    0.0116    0.0085
          42    0.0065    0.0128   -0.0114   -0.0289    0.0478   -0.0456    0.0126    0.0213
          43    0.0028    0.0539   -0.0006   -0.0062    0.0010   -0.0040    0.0008   -0.0214
          44    0.0664   -0.0484   -0.0272   -0.0114   -0.0256    0.0029    0.0066    0.0232
          45   -0.0104    0.0763    0.0154   -0.0539   -0.0232   -0.0147   -0.0007   -0.0468
          46   -0.0340    0.1191    0.0070   -0.0230   -0.0010   -0.0129   -0.0019   -0.0516
          47    0.0031    0.0308   -0.0211    0.0012   -0.0266    0.0074    0.0140    0.0088
          48    0.0081    0.0124    0.0049   -0.0057   -0.0205    0.0094    0.0125    0.0041
          49   -0.0360   -0.0313    0.0093    0.0275   -0.0274    0.0349   -0.0216    0.0411
          50    0.0137    0.0044    0.0136   -0.0038   -0.0190    0.0146    0.0073    0.0041
          51    0.0040    0.0137   -0.0074   -0.0057   -0.0235    0.0095    0.0108    0.0160
          52   -0.0268   -0.0199    0.0083    0.0106   -0.0129    0.0106   -0.0053    0.0234
          53    0.0289    0.0038    0.0022   -0.0077   -0.0156   -0.0261    0.0094   -0.0353
          54   -0.0021   -0.0118   -0.0150    0.0284   -0.0524    0.0266   -0.0234    0.0199
          55    0.0683   -0.0050   -0.0172   -0.0724   -0.0473   -0.0401   -0.1474    0.0565
          56   -0.0001    0.0338   -0.0194    0.0016   -0.0239    0.0265    0.0765   -0.0303
          57    0.0252   -0.0087    0.0226    0.0284    0.0323   -0.0423   -0.0711    0.0400
          58    0.0919   -0.0878   -0.0148    0.0064    0.0093    0.0410    0.1215   -0.0419
          59    0.0210    0.0098   -0.0109    0.0198    0.0035   -0.0283   -0.0527    0.0399
          60    0.0236   -0.0004    0.0228    0.0205    0.0272   -0.0541   -0.1078    0.0544
          61    0.0573   -0.0232   -0.0108   -0.0141   -0.0061    0.0074    0.0181   -0.0101
          62   -0.0437    0.0905   -0.0032    0.0357    0.0081   -0.0109    0.0028   -0.0027
          63    0.0355   -0.0613    0.0215    0.0802    0.0647    0.0352    0.1689   -0.0555
          64   -0.0113   -0.0041    0.0257   -0.0050   -0.0085   -0.0630    0.0037   -0.0359
          65   -0.0221   -0.0107   -0.0487   -0.0077    0.0142    0.0305   -0.0121   -0.0050
          66   -0.0190   -0.0120   -0.0784   -0.0045    0.0259    0.0186   -0.0121   -0.0150
          67    0.0016   -0.0166   -0.0272    0.0127   -0.0318   -0.0001    0.0140    0.0312
          68   -0.0024   -0.0044    0.0772   -0.0059    0.0011    0.0317   -0.0164   -0.0096
          69    0.0014   -0.0051    0.0537   -0.0034    0.0138    0.0192   -0.0177   -0.0233
          70    0.0111    0.0207   -0.0153    0.1499    0.0032    0.0268   -0.0344    0.0015
          71    0.0309    0.0103   -0.0030    0.0505    0.0156   -0.0171   -0.0188   -0.0157
          72    0.0054    0.0255    0.0098   -0.0173   -0.0178    0.0023    0.0100   -0.0063
          73   -0.0437    0.0066    0.0317   -0.1181    0.0465   -0.0158    0.0656    0.0690
          74    0.0079   -0.0087   -0.0001   -0.0375    0.0247   -0.0259    0.0156    0.0275
          75    0.0028    0.0065   -0.0112    0.0041   -0.0285    0.0132    0.0028    0.0185
          76    0.0133    0.0125    0.0109   -0.0247    0.0413    0.0271   -0.0285   -0.0464
          77   -0.0432   -0.0198   -0.0662   -0.0001   -0.0063   -0.0325    0.0068   -0.0082
          78   -0.0164   -0.0225   -0.0074    0.0147   -0.0204   -0.0124    0.0084    0.0124
          79    0.0208    0.0052   -0.0200   -0.0143    0.0262    0.0716   -0.0210    0.0104
          80   -0.0311   -0.0162    0.0098    0.0014   -0.0139   -0.0342    0.0027   -0.0206
          81   -0.0041   -0.0187    0.0726    0.0162   -0.0284   -0.0156    0.0045   -0.0009


   Root No.       9        10        11        12        13        14        15        16

                 9 A      10 A      11 A      12 A      13 A      14 A      15 A      16 A   

                 294.4     331.9     405.7     478.4     504.6     516.0     540.9     731.8
  
           1    0.0015    0.0018   -0.0084    0.0125   -0.0137   -0.0224    0.0039   -0.0002
           2   -0.0099    0.0156   -0.0077   -0.0072    0.0092    0.0068   -0.0059    0.0273
           3    0.0101   -0.0113    0.0125   -0.0083    0.0065    0.0189    0.0052    0.0301
           4    0.0020   -0.0006   -0.0059    0.0182   -0.0189   -0.0311    0.0116    0.0241
           5    0.0040    0.0051    0.0334   -0.0225    0.0067    0.0048    0.0362   -0.0098
           6   -0.0161    0.0354    0.0030    0.0004    0.0035   -0.0107    0.0096    0.0111
           7   -0.0258   -0.0179    0.0260    0.0191    0.0127   -0.0021    0.0253    0.0155
           8    0.0165    0.0076    0.0240   -0.0128   -0.0085   -0.0076    0.0314   -0.0010
           9   -0.0132   -0.0096   -0.0004   -0.0267   -0.0268   -0.0089   -0.0171    0.0005
          10   -0.0231   -0.0057   -0.0092   -0.0183   -0.0025   -0.0046    0.0127   -0.0027
          11    0.0097   -0.0152   -0.0211    0.0150    0.0155    0.0041    0.0045    0.0017
          12   -0.0038    0.0023    0.0185    0.0332    0.0058    0.0082   -0.0222    0.0008
          13   -0.0028   -0.0021   -0.0022    0.0017    0.0029    0.0003    0.0028    0.0006
          14    0.0011   -0.0182   -0.0274    0.0112    0.0192    0.0036    0.0119    0.0018
          15   -0.0088   -0.0178   -0.0233   -0.0029    0.0074   -0.0002    0.0084    0.0006
          16    0.0111   -0.0007    0.0008   -0.0120   -0.0005    0.0471    0.0017   -0.0119
          17   -0.0025    0.0056   -0.0088    0.0006    0.0054   -0.0175   -0.0106   -0.0201
          18    0.0078   -0.0132    0.0094    0.0037    0.0011   -0.0148    0.0070    0.0135
          19   -0.0127    0.0228   -0.0089   -0.0227    0.0289    0.0009   -0.0253   -0.0088
          20   -0.0049    0.0112   -0.0169    0.0099   -0.0123   -0.0065   -0.0009    0.0220
          21    0.0059   -0.0052   -0.0041    0.0076   -0.0119    0.0080    0.0048   -0.0179
          22    0.0297    0.0179    0.0143    0.0030   -0.0061    0.0018   -0.0123   -0.0053
          23   -0.0123   -0.0054    0.0202    0.0060   -0.0203    0.0003   -0.0323   -0.0003
          24    0.0205    0.0045    0.0020    0.0317    0.0195    0.0084   -0.0010   -0.0013
          25    0.0257   -0.0117    0.0015    0.0003   -0.0068    0.0019   -0.0107    0.0008
          26   -0.0135   -0.0136    0.0191    0.0067   -0.0193    0.0010   -0.0308    0.0004
          27    0.0156    0.0013   -0.0070   -0.0302   -0.0182   -0.0113    0.0083   -0.0007
          28    0.0144   -0.0134    0.0059   -0.0095    0.0176   -0.0197   -0.0113   -0.0205
          29    0.0005    0.0070   -0.0072   -0.0006   -0.0063    0.0235    0.0008   -0.0094
          30   -0.0043    0.0082   -0.0053    0.0000   -0.0055    0.0234    0.0031   -0.0085
          31   -0.0103    0.0159   -0.0201    0.0091   -0.0171    0.0210    0.0011   -0.0176
          32    0.0043    0.0034   -0.0031   -0.0106    0.0139   -0.0070   -0.0139    0.0009
          33    0.0001    0.0041   -0.0013   -0.0116    0.0170   -0.0077   -0.0143   -0.0076
          34    0.0075   -0.0167   -0.0249    0.0368   -0.0310   -0.0445   -0.0061    0.0367
          35   -0.0133    0.0206   -0.0243    0.0095   -0.0118    0.0185   -0.0040    0.0415
          36    0.0161   -0.0244    0.0194   -0.0112    0.0170   -0.0053   -0.0008    0.0334
          37   -0.0085    0.0301   -0.0092    0.0288   -0.0284   -0.0717    0.0296   -0.0139
          38    0.0225   -0.0440    0.0350   -0.0536   -0.0328    0.0200    0.0037    0.0086
          39   -0.0324    0.0803    0.0004    0.0254    0.0244   -0.0393    0.0391   -0.0166
          40    0.0297   -0.0329    0.0026    0.0022   -0.0292   -0.0036    0.0065    0.0523
          41   -0.0026    0.0516    0.0344    0.0040    0.0299   -0.0201    0.0767   -0.0360
          42   -0.0325    0.0793    0.0005    0.0241    0.0239   -0.0385    0.0383   -0.0186
          43   -0.0311   -0.0076   -0.0082   -0.0202   -0.0041   -0.0056    0.0134    0.0003
          44    0.0302   -0.0163   -0.0297    0.0368    0.0350    0.0108    0.0093   -0.0010
          45   -0.0651   -0.0115    0.0250    0.0107   -0.0113   -0.0013   -0.0179    0.0198
          46   -0.0779   -0.0144    0.0002   -0.0436   -0.0224   -0.0144    0.0158    0.0130
          47    0.0201   -0.0103   -0.0212    0.0271    0.0262    0.0076    0.0078    0.0019
          48    0.0273    0.0093    0.0138    0.0512    0.0212    0.0145   -0.0209   -0.0058
          49   -0.0902   -0.0573    0.0731    0.0307    0.0509    0.0356    0.0427   -0.0523
          50    0.0268   -0.0045    0.0332   -0.0323   -0.0053    0.0039    0.0476   -0.0228
          51    0.0231    0.0008   -0.0152   -0.0437   -0.0412   -0.0184   -0.0137    0.0163
          52   -0.0351   -0.0224    0.0309    0.0214    0.0156   -0.0004    0.0283    0.0090
          53    0.0465    0.0321   -0.0099   -0.0178   -0.0423   -0.0481    0.0339    0.0531
          54   -0.0824   -0.0427    0.0388   -0.0100    0.0013    0.0120    0.0007   -0.0525
          55    0.0307    0.0058    0.0120    0.0252    0.0039    0.0063   -0.0181    0.0031
          56   -0.0020   -0.0018    0.0116    0.0440    0.0140    0.0115   -0.0240    0.0023
          57   -0.0002   -0.0259   -0.0434   -0.0169    0.0111   -0.0035    0.0254    0.0010
          58   -0.0145   -0.0037   -0.0018    0.0016    0.0021    0.0000    0.0026    0.0053
          59    0.0128   -0.0298   -0.0550   -0.0055    0.0251   -0.0004    0.0339    0.0050
          60    0.0056   -0.0261   -0.0452   -0.0160    0.0124   -0.0032    0.0260    0.0009
          61   -0.0070   -0.0030   -0.0037   -0.0009    0.0027   -0.0004    0.0051    0.0007
          62   -0.0160   -0.0262   -0.0460   -0.0117    0.0214   -0.0018    0.0354   -0.0038
          63   -0.0385   -0.0240   -0.0326   -0.0181    0.0069   -0.0042    0.0227    0.0020
          64    0.0208   -0.0075    0.0141   -0.0396    0.0096    0.1446    0.0066    0.0522
          65   -0.0030    0.0019   -0.0108    0.0148    0.0003   -0.0664   -0.0109   -0.0691
          66    0.0107   -0.0226    0.0115    0.0173   -0.0038   -0.0608    0.0086   -0.0461
          67   -0.0287    0.0472   -0.0127   -0.0641    0.0852    0.0201   -0.0713    0.0829
          68   -0.0060    0.0113   -0.0268    0.0306   -0.0391   -0.0203    0.0123   -0.0470
          69    0.0095   -0.0117   -0.0094    0.0317   -0.0438   -0.0058    0.0253   -0.0859
          70    0.0478    0.0639    0.0599    0.0154   -0.0085   -0.0001   -0.0082    0.0131
          71   -0.0181    0.0118    0.0522    0.0331   -0.0191    0.0065   -0.0514    0.0068
          72    0.0108    0.0031    0.0104    0.0446    0.0202    0.0125   -0.0142   -0.0016
          73    0.0339   -0.0495   -0.0462   -0.0112   -0.0095    0.0054   -0.0290   -0.0292
          74   -0.0298   -0.0352    0.0019   -0.0147   -0.0410   -0.0049   -0.0549   -0.0074
          75    0.0019   -0.0025   -0.0049   -0.0397   -0.0305   -0.0157   -0.0024    0.0021
          76    0.0310   -0.0384    0.0287   -0.0310    0.0635   -0.0716   -0.0328    0.0626
          77    0.0013    0.0077   -0.0081    0.0128   -0.0358    0.0589    0.0259   -0.0391
          78   -0.0150    0.0241   -0.0199    0.0128   -0.0331    0.0547    0.0153   -0.0604
          79   -0.0247    0.0314   -0.0415    0.0321   -0.0600    0.0812    0.0222    0.0745
          80    0.0134   -0.0064    0.0098   -0.0238    0.0382   -0.0399   -0.0254   -0.0541
          81   -0.0015    0.0075    0.0017   -0.0242    0.0439   -0.0556   -0.0342   -0.0343


   Root No.      17        18        19        20        21        22        23        24

                17 A      18 A      19 A      20 A      21 A      22 A      23 A      24 A   

                 794.4     803.5     813.5     823.7     854.8     903.2     921.5     944.1
  
           1   -0.0040   -0.0024   -0.0011   -0.0002    0.0085    0.0013    0.0028   -0.0161
           2    0.0044   -0.0076    0.0013   -0.0387    0.0103   -0.0051   -0.0017    0.0080
           3    0.0077   -0.0209   -0.0097    0.0067    0.0096   -0.0057   -0.0015    0.0078
           4   -0.0032   -0.0038   -0.0015   -0.0022    0.0003    0.0094    0.0009    0.0098
           5    0.0000   -0.0035    0.0009    0.0008   -0.0011    0.0067    0.0021   -0.0054
           6    0.0084   -0.0152   -0.0029   -0.0023   -0.0091    0.0339    0.0075   -0.0088
           7    0.0141    0.0040    0.0000   -0.0048   -0.0250   -0.0049   -0.0060    0.0240
           8   -0.0050    0.0002    0.0040    0.0047    0.0025    0.0030    0.0006    0.0010
           9   -0.0017   -0.0018   -0.0009   -0.0033   -0.0049    0.0000   -0.0001    0.0007
          10   -0.0158   -0.0159    0.0007   -0.0080   -0.0114   -0.0025    0.0000    0.0016
          11    0.0076    0.0074   -0.0003    0.0037    0.0058    0.0017   -0.0026    0.0005
          12   -0.0017   -0.0031   -0.0007   -0.0034   -0.0053   -0.0040   -0.0003    0.0022
          13   -0.0007   -0.0021    0.0001   -0.0019   -0.0064   -0.0050    0.0088   -0.0043
          14    0.0057    0.0033   -0.0004    0.0012    0.0003    0.0017   -0.0004    0.0019
          15    0.0011    0.0005   -0.0003   -0.0005   -0.0014   -0.0031   -0.0024    0.0038
          16    0.0063   -0.0038    0.0318   -0.0185    0.0045   -0.0025    0.0009   -0.0120
          17   -0.0078    0.0249   -0.0025   -0.0225   -0.0155    0.0150    0.0010    0.0141
          18   -0.0045   -0.0016   -0.0129   -0.0104    0.0148   -0.0155   -0.0015   -0.0101
          19    0.0066   -0.0094   -0.0347    0.0068    0.0023   -0.0014    0.0009   -0.0113
          20   -0.0009   -0.0106    0.0068   -0.0084    0.0161   -0.0058    0.0011   -0.0154
          21   -0.0037    0.0066    0.0125    0.0538   -0.0154    0.0007   -0.0023    0.0176
          22   -0.0101   -0.0045    0.0002    0.0013    0.0151    0.0130   -0.0340    0.0092
          23   -0.0042   -0.0004   -0.0001   -0.0017    0.0017   -0.0038   -0.0144    0.0058
          24   -0.0022   -0.0026    0.0002    0.0009    0.0038    0.0083    0.0014   -0.0035
          25    0.0114    0.0099    0.0001    0.0040   -0.0081   -0.0100   -0.0074   -0.0269
          26   -0.0005    0.0004    0.0001   -0.0012   -0.0057   -0.0059   -0.0042   -0.0089
          27    0.0006    0.0083    0.0009    0.0032    0.0035   -0.0156   -0.0021    0.0036
          28    0.0033    0.0057    0.0307   -0.0288   -0.0009   -0.0018   -0.0020    0.0112
          29   -0.0043    0.0092   -0.0084    0.0095   -0.0069    0.0042    0.0011   -0.0038
          30   -0.0077    0.0232    0.0081   -0.0538   -0.0036    0.0099    0.0027   -0.0043
          31    0.0055   -0.0076   -0.0294    0.0265   -0.0030   -0.0042   -0.0021    0.0122
          32    0.0005   -0.0104   -0.0063    0.0656   -0.0049   -0.0017   -0.0002   -0.0019
          33   -0.0037    0.0081    0.0130    0.0091   -0.0065    0.0043    0.0009   -0.0047
          34   -0.0276    0.0130   -0.0037   -0.0026    0.0414   -0.0513   -0.0057   -0.0042
          35    0.0025   -0.0128    0.0471   -0.0189    0.0187   -0.0220   -0.0030    0.0156
          36   -0.0029   -0.0081   -0.0544   -0.0132    0.0192   -0.0167   -0.0042    0.0046
          37   -0.0413    0.0361    0.0040    0.0156    0.0178   -0.0268   -0.0045    0.0042
          38    0.0182   -0.0382    0.0042   -0.0070   -0.0313    0.1017    0.0263   -0.0390
          39   -0.0204    0.0248   -0.0026    0.0105    0.0181   -0.0437   -0.0108    0.0118
          40    0.0158   -0.0463   -0.0023    0.0123   -0.0029    0.0718    0.0185   -0.0068
          41   -0.0309    0.0291    0.0026    0.0282    0.0374   -0.0700   -0.0119    0.0136
          42   -0.0202    0.0240   -0.0018    0.0102    0.0183   -0.0430   -0.0093    0.0095
          43   -0.0032   -0.0043    0.0003   -0.0030   -0.0086   -0.0060    0.0091   -0.0040
          44   -0.0287   -0.0394    0.0005   -0.0272   -0.0642   -0.0473    0.0652   -0.0326
          45    0.0859    0.0822   -0.0028    0.0367    0.0339   -0.0111    0.0337   -0.0224
          46    0.0702    0.0735   -0.0013    0.0395    0.0574    0.0234   -0.0119   -0.0004
          47    0.0173    0.0182   -0.0008    0.0129    0.0293    0.0289   -0.0307    0.0095
          48   -0.0318   -0.0337   -0.0002   -0.0173   -0.0184    0.0034   -0.0144    0.0093
          49   -0.0425   -0.0065    0.0086    0.0328    0.0633    0.0112    0.0124   -0.0343
          50   -0.0117    0.0156    0.0073    0.0180    0.0144   -0.0404   -0.0077   -0.0153
          51    0.0189    0.0134   -0.0025   -0.0108   -0.0361   -0.0367   -0.0138    0.0161
          52    0.0033   -0.0001    0.0012   -0.0009   -0.0113    0.0039   -0.0030    0.0244
          53    0.0054   -0.0061   -0.0002   -0.0224   -0.0339    0.0233   -0.0115    0.0965
          54   -0.0698   -0.0248    0.0078    0.0251    0.0889    0.0453    0.0198   -0.0199
          55    0.0201    0.0220   -0.0015    0.0118    0.0262    0.0136   -0.0343    0.0241
          56    0.0030    0.0005   -0.0017   -0.0038   -0.0046   -0.0120   -0.0201    0.0277
          57    0.0072    0.0072    0.0002    0.0052    0.0077    0.0085    0.0009   -0.0059
          58    0.0374    0.0403   -0.0008    0.0246    0.0464    0.0344   -0.0304    0.0106
          59    0.0347    0.0348   -0.0005    0.0228    0.0396    0.0374   -0.0137   -0.0032
          60    0.0062    0.0056    0.0001    0.0042    0.0050    0.0067    0.0050   -0.0071
          61   -0.0007   -0.0022    0.0002   -0.0018   -0.0069   -0.0048    0.0116   -0.0066
          62   -0.0440   -0.0540    0.0017   -0.0337   -0.0761   -0.0494    0.0785   -0.0393
          63    0.0107    0.0102    0.0002    0.0063    0.0079    0.0076    0.0050   -0.0074
          64   -0.0474    0.0591   -0.1762    0.0021   -0.0012   -0.0266   -0.0088    0.0299
          65    0.0222   -0.0142    0.1117    0.0086   -0.0117    0.0149    0.0048   -0.0252
          66    0.0263   -0.0454    0.1018    0.0546    0.0198   -0.0262    0.0012   -0.0627
          67   -0.0269    0.0193    0.1875    0.0455    0.0031   -0.0180   -0.0067    0.0264
          68    0.0125   -0.0055   -0.1016   -0.0906    0.0170    0.0082    0.0088   -0.0698
          69    0.0138    0.0020   -0.1156   -0.0067   -0.0155    0.0140    0.0045   -0.0262
          70    0.0564    0.0468   -0.0004    0.0203    0.0031   -0.0310    0.2796   -0.0048
          71    0.0108    0.0051   -0.0012   -0.0040   -0.0163   -0.0169    0.0905    0.0034
          72   -0.0096   -0.0120   -0.0003   -0.0053   -0.0041    0.0113   -0.0134   -0.0015
          73   -0.0545   -0.0220    0.0019    0.0091    0.0946    0.0502    0.1881    0.1150
          74   -0.0238   -0.0080   -0.0010   -0.0057    0.0164   -0.0148    0.0528    0.0559
          75    0.0028    0.0112   -0.0003   -0.0007   -0.0088   -0.0364   -0.0167    0.0073
          76   -0.0655    0.0857   -0.0671   -0.0122   -0.0197    0.0364    0.0161   -0.0691
          77    0.0345   -0.0426    0.0609   -0.0487    0.0340   -0.0475   -0.0107    0.0008
          78    0.0339   -0.0245    0.0670   -0.0620    0.0061   -0.0116   -0.0082    0.0465
          79   -0.0519    0.0419    0.0874    0.1153   -0.0158    0.0212    0.0112   -0.0723
          80    0.0323   -0.0359   -0.0702    0.0158   -0.0003   -0.0148   -0.0080    0.0501
          81    0.0368   -0.0513   -0.0841   -0.0378    0.0306   -0.0271   -0.0050   -0.0032


   Root No.      25        26        27        28        29        30        31        32

                25 A      26 A      27 A      28 A      29 A      30 A      31 A      32 A   

                 963.0     976.1     980.4     999.2    1023.1    1030.6    1048.8    1053.1
  
           1    0.0000    0.0044    0.0013    0.0015   -0.0010   -0.0114   -0.0143    0.0133
           2    0.0014   -0.0046    0.0012   -0.0177    0.0132   -0.0049    0.0082    0.0024
           3    0.0003   -0.0005   -0.0050   -0.0222   -0.0031   -0.0025    0.0056   -0.0025
           4   -0.0042    0.0043    0.0010   -0.0070    0.0015    0.0042   -0.0027   -0.0108
           5    0.0070    0.0022   -0.0006    0.0119   -0.0004   -0.0101   -0.0038    0.0237
           6   -0.0054    0.0110    0.0040    0.0053    0.0007   -0.0023   -0.0120    0.0025
           7    0.0130   -0.0155   -0.0061    0.0083   -0.0057    0.0070   -0.0021    0.0046
           8   -0.0071    0.0030    0.0039   -0.0069    0.0019    0.0050    0.0055   -0.0142
           9   -0.0004   -0.0040   -0.0021    0.0068    0.0020   -0.0055    0.0096    0.0061
          10   -0.0021   -0.0075   -0.0027    0.0042   -0.0049   -0.0159    0.0024   -0.0115
          11    0.0005    0.0013    0.0005   -0.0034    0.0018    0.0116   -0.0051    0.0065
          12    0.0066    0.0027    0.0004    0.0019   -0.0017   -0.0030   -0.0022    0.0009
          13   -0.0027    0.0026    0.0009   -0.0028    0.0022    0.0064   -0.0002    0.0035
          14    0.0095    0.0090    0.0032    0.0058   -0.0009   -0.0142    0.0076   -0.0065
          15    0.0188    0.0209    0.0077    0.0012    0.0014   -0.0035    0.0038   -0.0032
          16    0.0137   -0.0115    0.0080   -0.0101   -0.0148    0.0014    0.0131    0.0040
          17   -0.0127    0.0130   -0.0110   -0.0018   -0.0032    0.0009   -0.0086   -0.0064
          18    0.0006   -0.0031    0.0061    0.0268    0.0211    0.0006   -0.0063    0.0014
          19    0.0137   -0.0083   -0.0139   -0.0063    0.0191   -0.0006    0.0002   -0.0041
          20   -0.0029    0.0065   -0.0022    0.0173   -0.0255    0.0051    0.0000    0.0017
          21   -0.0095    0.0021    0.0147    0.0032   -0.0003   -0.0007    0.0012    0.0036
          22    0.0070   -0.0002    0.0002   -0.0022    0.0030    0.0199   -0.0088    0.0170
          23    0.0024   -0.0058   -0.0022   -0.0037   -0.0018    0.0096   -0.0095    0.0042
          24   -0.0168   -0.0152   -0.0052   -0.0008    0.0013    0.0033    0.0022    0.0006
          25   -0.0163    0.0124    0.0049   -0.0071    0.0058   -0.0058    0.0169   -0.0149
          26   -0.0118   -0.0047   -0.0015   -0.0037    0.0007   -0.0023    0.0055   -0.0084
          27    0.0047    0.0016    0.0004   -0.0109   -0.0050    0.0059   -0.0133   -0.0091
          28   -0.0098    0.0106   -0.0230    0.0062    0.0166   -0.0023   -0.0078   -0.0018
          29    0.0049   -0.0064    0.0154   -0.0007   -0.0092    0.0035    0.0043   -0.0015
          30    0.0038   -0.0043    0.0151   -0.0136   -0.0079   -0.0043    0.0018    0.0055
          31   -0.0111    0.0014    0.0267    0.0011   -0.0168   -0.0003    0.0046    0.0057
          32    0.0060   -0.0015   -0.0167   -0.0078    0.0127   -0.0055    0.0002    0.0046
          33    0.0060   -0.0004   -0.0185    0.0019    0.0087    0.0023   -0.0004   -0.0043
          34   -0.0348    0.0174   -0.0033   -0.0429    0.0078   -0.0722    0.0127    0.0876
          35   -0.0051   -0.0382    0.1306   -0.0207    0.1481   -0.0349   -0.0539   -0.0136
          36   -0.0107    0.0379   -0.1299   -0.0392   -0.1265   -0.0050    0.0783    0.0515
          37   -0.0215    0.0090    0.0035    0.0357    0.0327   -0.0214    0.0970    0.0655
          38   -0.0154    0.0321    0.0191    0.0660    0.0277   -0.0326    0.0285    0.0867
          39    0.0016   -0.0066   -0.0078   -0.0114   -0.0036    0.0012    0.0117   -0.0049
          40   -0.0141    0.0395    0.0077   -0.0471   -0.0450    0.0123   -0.1233   -0.0863
          41    0.0163   -0.0052   -0.0125   -0.0309   -0.0354   -0.0048   -0.0485   -0.0233
          42    0.0043   -0.0078   -0.0071   -0.0062   -0.0033   -0.0028    0.0091    0.0039
          43   -0.0038    0.0001    0.0000   -0.0026    0.0006    0.0038   -0.0016    0.0010
          44   -0.0138    0.0255    0.0082   -0.0292    0.0195    0.0781   -0.0222    0.0504
          45   -0.0013    0.0396    0.0137   -0.0338    0.0274    0.1036   -0.0251    0.0685
          46   -0.0101   -0.0046   -0.0011   -0.0065    0.0055    0.0219   -0.0040    0.0111
          47   -0.0213   -0.0490   -0.0187    0.0143   -0.0155   -0.0306   -0.0087   -0.0113
          48   -0.0054   -0.0336   -0.0136    0.0182   -0.0181   -0.0476   -0.0024   -0.0208
          49   -0.0259    0.0315    0.0143   -0.0305   -0.0031    0.0027   -0.0239   -0.0328
          50   -0.0018    0.0018    0.0035   -0.0142   -0.0321   -0.0230   -0.0702   -0.0252
          51    0.0201   -0.0261   -0.0118    0.0185   -0.0222   -0.0221   -0.0309    0.0146
          52    0.0068   -0.0102   -0.0032    0.0018    0.0020    0.0153    0.0169   -0.0074
          53    0.0138   -0.0341   -0.0055    0.0005    0.0418    0.0759    0.1468   -0.0595
          54   -0.0443    0.0353    0.0178   -0.0388    0.0423    0.0295    0.1010   -0.0612
          55    0.0583    0.0463    0.0172    0.0179   -0.0039   -0.0421    0.0189   -0.0235
          56    0.1106    0.1124    0.0414    0.0172    0.0029   -0.0439    0.0295   -0.0276
          57   -0.0281   -0.0305   -0.0112   -0.0012   -0.0020    0.0042   -0.0051    0.0040
          58   -0.0129   -0.0335   -0.0122    0.0161   -0.0100   -0.0350    0.0069   -0.0146
          59   -0.0568   -0.0768   -0.0284    0.0143   -0.0122   -0.0302    0.0016   -0.0079
          60   -0.0283   -0.0295   -0.0110   -0.0011   -0.0018    0.0035   -0.0043    0.0042
          61   -0.0096   -0.0038   -0.0015   -0.0039    0.0022    0.0091   -0.0016    0.0053
          62   -0.0389    0.0012   -0.0002   -0.0275    0.0156    0.0609   -0.0114    0.0327
          63   -0.0301   -0.0312   -0.0116   -0.0017   -0.0016    0.0056   -0.0053    0.0055
          64   -0.0496    0.0346   -0.0227    0.1103    0.0289    0.0282   -0.0293   -0.0361
          65    0.0313   -0.0236    0.0172   -0.0146   -0.0373    0.0160    0.0179   -0.0147
          66    0.0523   -0.0485    0.0427    0.0539   -0.0214    0.0378    0.0230   -0.0290
          67   -0.0549    0.0300    0.0542    0.0917   -0.0704    0.0360   -0.0047   -0.0197
          68    0.0427   -0.0139   -0.0490    0.0534   -0.0106    0.0428   -0.0032   -0.0473
          69    0.0374   -0.0210   -0.0332   -0.0006    0.0330    0.0133    0.0009   -0.0229
          70   -0.0116    0.0147    0.0040    0.0046    0.0013   -0.0370    0.0318   -0.0373
          71   -0.0213   -0.0441   -0.0180    0.0178   -0.0187   -0.0485   -0.0021   -0.0196
          72   -0.0268   -0.0426   -0.0159    0.0107   -0.0087   -0.0179   -0.0034   -0.0002
          73    0.0588   -0.0248   -0.0091    0.0201   -0.0047    0.0301   -0.0234    0.0375
          74    0.0347   -0.0363   -0.0180    0.0097   -0.0311   -0.0157   -0.0501    0.0012
          75    0.0141   -0.0083   -0.0063   -0.0097   -0.0218   -0.0114   -0.0371   -0.0164
          76    0.0524   -0.0531    0.1136   -0.0072   -0.0335    0.0089    0.0147    0.0055
          77   -0.0079    0.0015   -0.0250    0.0910    0.0698    0.0210   -0.0070   -0.0133
          78   -0.0351    0.0359   -0.0698   -0.0100    0.0196   -0.0125   -0.0120    0.0017
          79    0.0585   -0.0066   -0.1298    0.0111    0.0292    0.0095   -0.0018   -0.0132
          80   -0.0343    0.0026    0.0745   -0.0186   -0.0064   -0.0147    0.0023    0.0176
          81   -0.0241    0.0093    0.0438    0.0576   -0.0950    0.0363    0.0211   -0.0157


   Root No.      33        34        35        36        37        38        39        40

                33 A      34 A      35 A      36 A      37 A      38 A      39 A      40 A   

                1085.8    1091.9    1102.0    1115.6    1125.8    1130.3    1144.6    1172.0
  
           1    0.0005    0.0042   -0.0027    0.0005    0.0114   -0.0183   -0.0219    0.0071
           2   -0.0040   -0.0007   -0.0058   -0.0003   -0.0043    0.0068    0.0139   -0.0052
           3    0.0013   -0.0012   -0.0044   -0.0009   -0.0074    0.0111    0.0137   -0.0017
           4   -0.0052    0.0020   -0.0195   -0.0011   -0.0069    0.0109    0.0215   -0.0066
           5   -0.0053    0.0030   -0.0190    0.0019   -0.0004    0.0164   -0.0229    0.0136
           6    0.0033   -0.0035    0.0209    0.0003    0.0004   -0.0049   -0.0011   -0.0055
           7    0.0033   -0.0016    0.0123   -0.0004    0.0036   -0.0059   -0.0020    0.0007
           8    0.0070   -0.0031    0.0271   -0.0001    0.0045   -0.0195    0.0103   -0.0172
           9   -0.0011   -0.0004   -0.0088   -0.0051   -0.0081    0.0027   -0.0002    0.0264
          10   -0.0004    0.0010    0.0037    0.0550    0.0023   -0.0036    0.0025    0.0022
          11    0.0003    0.0001    0.0043    0.0284    0.0286    0.0075    0.0126    0.0153
          12   -0.0015    0.0008   -0.0065    0.0012   -0.0127    0.0024   -0.0122   -0.0265
          13    0.0002   -0.0004   -0.0010   -0.0584    0.0063    0.0042   -0.0018   -0.0036
          14    0.0000   -0.0005   -0.0041   -0.0312   -0.0295   -0.0089   -0.0110   -0.0100
          15    0.0005   -0.0001    0.0031    0.0030    0.0149    0.0038    0.0071    0.0103
          16    0.0026   -0.0032   -0.0002    0.0003   -0.0001    0.0007    0.0013   -0.0008
          17    0.0173    0.0051    0.0034   -0.0002   -0.0044    0.0083    0.0004    0.0013
          18   -0.0053   -0.0042   -0.0144    0.0007    0.0108   -0.0183   -0.0067   -0.0001
          19   -0.0016   -0.0025    0.0041   -0.0002   -0.0013    0.0008    0.0032   -0.0013
          20    0.0036   -0.0052   -0.0154    0.0003    0.0099   -0.0178   -0.0065    0.0010
          21   -0.0164    0.0087    0.0049   -0.0002   -0.0021    0.0036    0.0012   -0.0003
[...]
 FREQ.      1422.98        C 10 --  C 11          +13.3% ( 57.5%)   100.0%
 T-DIPOLE    0.0759        C  1 --  C  7           +8.4% ( 45.6%)    68.5%
 TRAVEL      0.0715        C  1 --  C  2           +8.2% ( 45.3%)    77.3%
 RED. MASS   1.1844        C  1 --  C  6           +7.8% ( 44.0%)    57.6%
 EFF. MASS   9.2622

 VIBRATION   56   56A       ATOM PAIR        ENERGY CONTRIBUTION    RADIAL
 FREQ.      1430.89        C  4 --  C  5          +13.1% ( 54.2%)    83.0%
 T-DIPOLE    0.1030        C  4 --  C  8          +11.1% ( 49.9%)    82.5%
 TRAVEL      0.0746        C  4 --  H 16           +8.5% ( 43.6%)     0.0%
 RED. MASS   1.1858        C  3 --  C  9           +8.2% ( 42.9%)    90.3%
 EFF. MASS   8.4695

 VIBRATION   57   57A       ATOM PAIR        ENERGY CONTRIBUTION    RADIAL
 FREQ.      1731.31        C  6 --  C 10          +18.4% ( 73.0%)    99.9%
 T-DIPOLE    0.4450        C  7 --  C 11          +18.0% ( 72.3%)    99.9%
 TRAVEL      0.0569        C  7 --  C 10          +10.7% ( 55.7%)    25.8%
 RED. MASS   2.7220        C  6 --  C 11          +10.7% ( 55.7%)    26.2%
 EFF. MASS  12.0247

 VIBRATION   58   58A       ATOM PAIR        ENERGY CONTRIBUTION    RADIAL
 FREQ.      1788.98        C  7 --  C 11          +18.1% ( 70.5%)    99.8%
 T-DIPOLE    0.3061        C  6 --  C 10          +17.7% ( 69.7%)    99.8%
 TRAVEL      0.0565        C 10 --  C 11          +12.1% ( 57.8%)     0.0%
 RED. MASS   2.6864        C  7 --  C 10          +10.9% ( 54.7%)    67.6%
 EFF. MASS  11.7988        C  6 --  C 11          +10.9% ( 54.7%)    64.5%

 VIBRATION   59   59A       ATOM PAIR        ENERGY CONTRIBUTION    RADIAL
 FREQ.      1888.99        C  8 --  C  9          +43.9% ( 97.7%)    96.6%
 T-DIPOLE    0.0504        C  4 --  C  8          +14.3% ( 55.7%)    54.8%
 TRAVEL      0.0550        C  3 --  C  9          +14.2% ( 55.5%)    54.5%
 RED. MASS   5.3809        C  8 --  H 24          +13.3% ( 53.8%)     3.6%
 EFF. MASS  11.7966        C  9 --  H 25          +13.2% ( 53.7%)     3.7%

 VIBRATION   60   60A       ATOM PAIR        ENERGY CONTRIBUTION    RADIAL
 FREQ.      2881.16        C  1 --  H 12          +96.6% ( 99.9%)   100.0%
 T-DIPOLE    0.2697        C  1 --  C  2           +1.0% ( 10.3%)     9.3%
 TRAVEL      0.1276        C  1 --  C  7           +1.0% ( 10.2%)    10.7%
 RED. MASS   0.9245        C  1 --  C  6           +1.0% ( 10.2%)    10.6%
 EFF. MASS   1.4363

 VIBRATION   61   61A       ATOM PAIR        ENERGY CONTRIBUTION    RADIAL
 FREQ.      2941.91        C  3 --  H 17          +48.4% ( 72.3%)    96.7%
 T-DIPOLE    0.0358        C  3 --  H 18          +45.3% ( 69.9%)    96.3%
 TRAVEL      0.1217        C  2 --  H 14           +2.8% ( 17.5%)    98.3%
 RED. MASS   0.4790        C  2 --  C  3           +1.2% ( 11.4%)     0.1%
 EFF. MASS   1.5482

 VIBRATION   62   62A       ATOM PAIR        ENERGY CONTRIBUTION    RADIAL
 FREQ.      2945.14        C  4 --  H 15          +52.2% ( 75.1%)    96.8%
 T-DIPOLE    0.0198        C  4 --  H 16          +45.0% ( 69.7%)    96.1%
 TRAVEL      0.1218        C  4 --  C  5           +1.2% ( 11.2%)     0.0%
 RED. MASS   0.5163        C  4 --  C  8           +1.2% ( 11.1%)     0.2%
 EFF. MASS   1.5439

 VIBRATION   63   63A       ATOM PAIR        ENERGY CONTRIBUTION    RADIAL
 FREQ.      2956.41        C  2 --  H 14          +53.6% ( 76.0%)    97.3%
 T-DIPOLE    0.0384        C  2 --  H 13          +40.0% ( 65.6%)    95.6%
 TRAVEL      0.1216        C  3 --  H 18           +2.9% ( 17.7%)    98.6%
 RED. MASS   0.4864        C  2 --  C  3           +1.1% ( 11.1%)     0.3%
 EFF. MASS   1.5423

 VIBRATION   64   64A       ATOM PAIR        ENERGY CONTRIBUTION    RADIAL
 FREQ.      3019.21        C  3 --  H 18          +47.8% ( 68.2%)    97.8%
 T-DIPOLE    0.0519        C  3 --  H 17          +47.0% ( 67.6%)    97.6%
 TRAVEL      0.1322        C  2 --  H 14           +2.2% ( 14.5%)    99.0%
 RED. MASS   0.4475        C  2 --  H 13           +0.8% (  8.7%)    93.3%
 EFF. MASS   1.2777

 VIBRATION   65   65A       ATOM PAIR        ENERGY CONTRIBUTION    RADIAL
 FREQ.      3024.45        C  4 --  H 16          +51.1% ( 70.5%)    98.1%
 T-DIPOLE    0.0432        C  4 --  H 15          +44.6% ( 65.9%)    97.3%
 TRAVEL      0.1317        C  8 --  H 24           +1.6% ( 12.5%)    99.8%
 RED. MASS   0.4596        C  4 --  C  8           +0.7% (  8.1%)    29.4%
 EFF. MASS   1.2854

 VIBRATION   66   66A       ATOM PAIR        ENERGY CONTRIBUTION    RADIAL
 FREQ.      3033.01        C  2 --  H 13          +45.1% ( 66.6%)    98.6%
 T-DIPOLE    0.1691        C  2 --  H 14          +30.4% ( 54.6%)    96.2%
 TRAVEL      0.1299        C  9 --  H 25          +20.2% ( 44.6%)   100.0%
 RED. MASS   0.3355        C  3 --  H 18           +1.4% ( 11.7%)    99.7%
 EFF. MASS   1.3166

 VIBRATION   67   67A       ATOM PAIR        ENERGY CONTRIBUTION    RADIAL
 FREQ.      3035.13        C  9 --  H 25          +52.6% ( 72.9%)   100.0%
 T-DIPOLE    0.2914        C  8 --  H 24          +27.8% ( 53.0%)   100.0%
 TRAVEL      0.1257        C  2 --  H 13           +9.9% ( 31.5%)    98.5%
 RED. MASS   0.3517        C  2 --  H 14           +6.9% ( 26.3%)    96.5%
 EFF. MASS   1.4056

 VIBRATION   68   68A       ATOM PAIR        ENERGY CONTRIBUTION    RADIAL
 FREQ.      3037.20        C  8 --  H 24          +66.6% ( 82.8%)   100.0%
 T-DIPOLE    0.0848        C  9 --  H 25          +24.7% ( 50.5%)    99.9%
 TRAVEL      0.1191        C  8 --  C  9           +2.0% ( 14.5%)    39.8%
 RED. MASS   0.5018        C  4 --  H 16           +1.7% ( 13.2%)    99.5%
 EFF. MASS   1.5647

 VIBRATION   69   69A       ATOM PAIR        ENERGY CONTRIBUTION    RADIAL
 FREQ.      3081.50        C  5 --  H 20          +64.7% ( 83.0%)    98.8%
 T-DIPOLE    0.0086        C  5 --  H 21          +26.9% ( 53.5%)    91.5%
 TRAVEL      0.1207        C  5 --  H 19           +7.1% ( 27.5%)    65.4%
 RED. MASS   0.5241        C  4 --  C  5           +1.0% ( 10.2%)     0.0%
 EFF. MASS   1.5014

 VIBRATION   70   70A       ATOM PAIR        ENERGY CONTRIBUTION    RADIAL
 FREQ.      3086.20        C  5 --  H 19          +57.5% ( 78.2%)    98.2%
 T-DIPOLE    0.0105        C  5 --  H 21          +37.8% ( 63.5%)    94.9%
 TRAVEL      0.1205        C  5 --  H 20           +3.3% ( 18.6%)    39.5%
 RED. MASS   0.5033        C  4 --  C  5           +1.0% ( 10.3%)     0.1%
 EFF. MASS   1.5042

 VIBRATION   71   71A       ATOM PAIR        ENERGY CONTRIBUTION    RADIAL
 FREQ.      3130.67        C 10 --  H 26          +44.0% ( 67.9%)   100.0%
 T-DIPOLE    0.2520        C  6 --  H 22          +39.1% ( 64.0%)   100.0%
 TRAVEL      0.1207        C 11 --  H 27           +9.1% ( 31.0%)   100.0%
 RED. MASS   0.3609        C  7 --  H 23           +3.5% ( 19.3%)   100.0%
 EFF. MASS   1.4776

 VIBRATION   72   72A       ATOM PAIR        ENERGY CONTRIBUTION    RADIAL
 FREQ.      3133.13        C 11 --  H 27          +49.2% ( 71.8%)    99.9%
 T-DIPOLE    0.4492        C  7 --  H 23          +33.2% ( 58.9%)   100.0%
 TRAVEL      0.1208        C  6 --  H 22          +10.2% ( 32.7%)   100.0%
 RED. MASS   0.3678        C 10 --  H 26           +3.3% ( 18.5%)    99.9%
 EFF. MASS   1.4743

 VIBRATION   73   73A       ATOM PAIR        ENERGY CONTRIBUTION    RADIAL
 FREQ.      3144.33        C  6 --  H 22          +29.4% ( 55.7%)    99.9%
 T-DIPOLE    0.5302        C  7 --  H 23          +28.1% ( 54.5%)   100.0%
 TRAVEL      0.1157        C 10 --  H 26          +26.5% ( 53.0%)    99.9%
 RED. MASS   0.2583        C 11 --  H 27          +10.3% ( 32.9%)    99.9%
 EFF. MASS   1.6008

 VIBRATION   74   74A       ATOM PAIR        ENERGY CONTRIBUTION    RADIAL
 FREQ.      3154.77        C  7 --  H 23          +29.9% ( 56.3%)    99.9%
 T-DIPOLE    0.2324        C 11 --  H 27          +26.3% ( 52.8%)   100.0%
 TRAVEL      0.1121        C 10 --  H 26          +21.0% ( 47.1%)   100.0%
 RED. MASS   0.2463        C  6 --  H 22          +16.1% ( 41.4%)    99.9%
 EFF. MASS   1.7001

 VIBRATION   75   75A       ATOM PAIR        ENERGY CONTRIBUTION    RADIAL
 FREQ.      3183.20        C  5 --  H 21          +34.5% ( 56.5%)    97.3%
 T-DIPOLE    0.0231        C  5 --  H 19          +34.4% ( 56.4%)    97.3%
 TRAVEL      0.1366        C  5 --  H 20          +30.7% ( 53.3%)    96.7%
 RED. MASS   0.3278        C  4 --  C  5           +0.3% (  5.1%)    99.7%
 EFF. MASS   1.1361

 SYMMETRY NUMBER FOR POINT-GROUP C1  =  1


          SYSTEM IS A GROUND STATE


    NULL



          MOLECULE IS NOT LINEAR

          THERE ARE 75 GENUINE VIBRATIONS IN THIS SYSTEM
          THIS THERMODYNAMICS CALCULATION IS LIMITED TO
          MOLECULES WHICH HAVE NO INTERNAL ROTATIONS




                    CALCULATED THERMODYNAMIC PROPERTIES
                                          *
   TEMP. (K)   PARTITION FUNCTION   H.O.F.    ENTHALPY  HEAT CAPACITY ENTROPY
                                   KCAL/MOL   CAL/MOLE    CAL/K/MOL  CAL/K/MOL


 298.00  VIB.     0.9516D+04                  5548.4107    37.5703    36.8231
         ROT.     0.1298D+07                   888.2813     2.9808    30.9538
         INT.     0.1235D+11                  6436.6920    40.5511    67.7769
         TRA.     0.1745D+28                  1480.4688     4.9680    40.8894
         TOT.                       26.693    7917.1609    45.5191   108.6662

 200.00  VIB.     0.4289D+03                  2557.1447    24.0000    24.8308
         ROT.     0.7138D+06                   596.1620     2.9808    29.7651
         INT.     0.3062D+09                  3153.3067    26.9808    54.5959
         TRA.     0.9595D+27                   993.6033     4.9680    38.9082
         TOT.                       22.923    4146.9099    31.9488    93.5041

 210.00  VIB.     0.5911D+03                  2803.2072    25.2201    26.0311
         ROT.     0.7680D+06                   625.9700     2.9808    29.9106
         INT.     0.4540D+09                  3429.1772    28.2009    55.9416
         TRA.     0.1032D+28                  1043.2834     4.9680    39.1506
         TOT.                       23.249    4472.4606    33.1689    95.0923

 220.00  VIB.     0.8133D+03                  3061.6965    26.4852    27.2333
         ROT.     0.8235D+06                   655.7781     2.9808    30.0492
         INT.     0.6698D+09                  3717.4747    29.4660    57.2826
         TRA.     0.1107D+28                  1092.9636     4.9680    39.3817
         TOT.                       23.587    4810.4383    34.4340    96.6643

 230.00  VIB.     0.1117D+04                  3333.0563    27.7938    28.4394
         ROT.     0.8803D+06                   685.5862     2.9808    30.1817
         INT.     0.9837D+09                  4018.6426    30.7746    58.6211
         TRA.     0.1183D+28                  1142.6437     4.9680    39.6026
         TOT.                       23.937    5161.2863    35.7426    98.2237

 240.00  VIB.     0.1534D+04                  3617.7092    29.1433    29.6506
         ROT.     0.9383D+06                   715.3943     2.9808    30.3086
         INT.     0.1439D+10                  4333.1036    32.1241    59.9592
         TRA.     0.1261D+28                  1192.3239     4.9680    39.8140
         TOT.                       24.302    5525.4275    37.0921    99.7732

 250.00  VIB.     0.2103D+04                  3916.0473    30.5302    30.8683
         ROT.     0.9976D+06                   745.2024     2.9808    30.4303
         INT.     0.2098D+10                  4661.2497    33.5110    61.2986
         TRA.     0.1341D+28                  1242.0041     4.9680    40.0168
         TOT.                       24.679    5903.2538    38.4790   101.3154

 260.00  VIB.     0.2881D+04                  4228.4248    31.9505    32.0933
         ROT.     0.1058D+07                   775.0105     2.9808    30.5472
         INT.     0.3049D+10                  5003.4353    34.9313    62.6405
         TRA.     0.1422D+28                  1291.6842     4.9680    40.2117
         TOT.                       25.071    6295.1195    39.8993   102.8522

 270.00  VIB.     0.3947D+04                  4555.1528    33.3996    33.3262
         ROT.     0.1120D+07                   804.8186     2.9808    30.6597
         INT.     0.4419D+10                  5359.9715    36.3804    63.9859
         TRA.     0.1505D+28                  1341.3644     4.9680    40.3992
         TOT.                       25.478    6701.3358    41.3484   104.3851

 280.00  VIB.     0.5404D+04                  4896.4965    34.8728    34.5674
         ROT.     0.1182D+07                   834.6267     2.9808    30.7681
         INT.     0.6390D+10                  5731.1233    37.8536    65.3355
         TRA.     0.1589D+28                  1391.0445     4.9680    40.5798
         TOT.                       25.898    7122.1678    42.8216   105.9154

 290.00  VIB.     0.7400D+04                  5252.6735    36.3654    35.8172
         ROT.     0.1246D+07                   864.4348     2.9808    30.8727
         INT.     0.9223D+10                  6117.1083    39.3462    66.6899
         TRA.     0.1675D+28                  1440.7247     4.9680    40.7542
         TOT.                       26.334    7557.8330    44.3142   107.4440

 300.00  VIB.     0.1013D+05                  5623.8536    37.8727    37.0754
         ROT.     0.1311D+07                   894.2429     2.9808    30.9738
         INT.     0.1329D+11                  6518.0965    40.8535    68.0491
         TRA.     0.1763D+28                  1490.4049     4.9680    40.9226
         TOT.                       26.785    8008.5014    45.8215   108.9717

 310.00  VIB.     0.1388D+05                  6010.1603    39.3900    38.3419
         ROT.     0.1377D+07                   924.0510     2.9808    31.0715
         INT.     0.1912D+11                  6934.2114    42.3708    69.4134
         TRA.     0.1851D+28                  1540.0850     4.9680    41.0855
         TOT.                       27.251    8474.2964    47.3388   110.4989

 320.00  VIB.     0.1902D+05                  6411.6726    40.9131    39.6165
         ROT.     0.1445D+07                   953.8591     2.9808    31.1661
         INT.     0.2747D+11                  7365.5318    43.8939    70.7827
         TRA.     0.1942D+28                  1589.7652     4.9680    41.2432
         TOT.                       27.732    8955.2970    48.8619   112.0259

 330.00  VIB.     0.2607D+05                  6828.4273    42.4378    40.8988
         ROT.     0.1513D+07                   983.6672     2.9808    31.2579
         INT.     0.3943D+11                  7812.0945    45.4186    72.1567
         TRA.     0.2034D+28                  1639.4454     4.9680    41.3961
         TOT.                       28.228    9451.5399    50.3866   113.5528

 340.00  VIB.     0.3574D+05                  7260.4221    43.9605    42.1884
         ROT.     0.1582D+07                  1013.4753     2.9808    31.3468
         INT.     0.5656D+11                  8273.8974    46.9413    73.5352
         TRA.     0.2127D+28                  1689.1255     4.9680    41.5444
         TOT.                       28.739    9963.0230    51.9093   115.0796

 350.00  VIB.     0.4904D+05                  7707.6192    45.4777    43.4846
         ROT.     0.1653D+07                  1043.2834     2.9808    31.4332
         INT.     0.8105D+11                  8750.9026    48.4585    74.9178
         TRA.     0.2221D+28                  1738.8057     4.9680    41.6884
         TOT.                       29.266   10489.7083    53.4266   116.6062

 360.00  VIB.     0.6733D+05                  8169.9482    46.9864    44.7869
         ROT.     0.1724D+07                  1073.0915     2.9808    31.5172
         INT.     0.1161D+12                  9243.0397    49.9672    76.3041
         TRA.     0.2317D+28                  1788.4859     4.9680    41.8284
         TOT.                       29.808   11031.5255    54.9352   118.1325

 370.00  VIB.     0.9250D+05                  8647.3098    48.4838    46.0947
         ROT.     0.1796D+07                  1102.8996     2.9808    31.5989
         INT.     0.1661D+12                  9750.2094    51.4646    77.6936
         TRA.     0.2414D+28                  1838.1660     4.9680    41.9645
         TOT.                       30.365   11588.3754    56.4327   119.6581

 380.00  VIB.     0.1272D+06                  9139.5794    49.9676    47.4074
         ROT.     0.1869D+07                  1132.7077     2.9808    31.6784
         INT.     0.2377D+12                 10272.2871    52.9484    79.0858
         TRA.     0.2513D+28                  1887.8462     4.9680    42.0970
         TOT.                       30.936   12160.1332    57.9164   121.1828

 390.00  VIB.     0.1749D+06                  9646.6098    51.4357    48.7244
         ROT.     0.1944D+07                  1162.5158     2.9808    31.7558
         INT.     0.3400D+12                 10809.1256    54.4165    80.4802
         TRA.     0.2613D+28                  1937.5263     4.9680    42.2260
         TOT.                       31.523   12746.6519    59.3845   122.7062

 400.00  VIB.     0.2407D+06                 10168.2349    52.8863    50.0450
         ROT.     0.2019D+07                  1192.3239     2.9808    31.8313
         INT.     0.4860D+12                 11360.5588    55.8671    81.8762
         TRA.     0.2714D+28                  1987.2065     4.9680    42.3518
         TOT.                       32.124   13347.7653    60.8351   124.2280

   *: NOTE: HEATS OF FORMATION ARE RELATIVE TO THE
            ELEMENTS IN THEIR STANDARD STATE AT 298K
              (=  Standard Enthalpy of Formation).

            Hvib:  Zero-point energy is not included.
                   frequencies of less than zero cm-1 are not included.
            Hrot = (3/2)RT
            Htra = (3/2)RT + pV = (5/2)RT

            Heat capacity is Cp, not Cv

           For more information, see: HTTP://OpenMOPAC.net/Manual/thermochemistry.html


           FORCE CONSTANT IN CARTESIAN COORDINATES (Millidynes/A)

    ATOM   CHEMICAL       X               Y               Z
   NUMBER   SYMBOL  FORCE CONSTANT  FORCE CONSTANT  FORCE CONSTANT

      1       C        8.751080        8.467582        8.348286
      2       C        8.071538        8.260015        8.371025
      3       C        8.135855        8.331619        8.840780
      4       C        8.013993        8.539189        8.874717
      5       C        8.207353        8.293182        8.350814
      6       C        6.727084       12.404964        7.639000
      7       C        6.829750        7.854623       12.106281
      8       C        3.931461       13.953199        9.313755
      9       C        3.923270       13.930203        9.296752
     10       C        7.485886        9.767364       10.203645
     11       C        7.477880       10.369455        9.618878
     12       H        1.129064        2.269122        2.454384
     13       H        1.179546        1.719435        3.511253
     14       H        1.151863        1.747355        3.499969
     15       H        4.837466        0.715724        0.725010
     16       H        1.285149        1.915826        3.199181
     17       H        1.325802        1.875822        3.178272
     18       H        4.846292        0.705174        0.720929
     19       H        0.854264        1.737207        4.202869
     20       H        1.346564        2.123791        3.315809
     21       H        5.312773        0.738653        0.732496
     22       H        0.677118        4.048626        1.729703
     23       H        0.721175        1.898233        3.842132
     24       H        0.597858        1.877105        3.741349
     25       H        0.598422        1.873901        3.743159
     26       H        1.865231        0.646646        3.951449
     27       H        1.801174        4.008826        0.653402



 TOTAL CPU TIME:             5.81 SECONDS

 == MOPAC DONE ==
