 *******************************************************************************
 ** Site#: 14399           For non-commercial use only        Version 13.159M **
 *******************************************************************************
 ** Cite this work as: MOPAC2012, James J. P. Stewart, Stewart Computational  **
 ** Chemistry, Version 13.159M web: HTTP://OpenMOPAC.net  Days remaining:   6 **
 *******************************************************************************
 **                                                                           **
 **                                MOPAC2012                                  **
 **                                                                           **
 *******************************************************************************

                            PM3 CALCULATION RESULTS


 *******************************************************************************
 *  CALCULATION DONE:                                Mon Jun  2 11:06:57 2014  *
 *  PM3      - The PM3 Hamiltonian to be used
 *  PRECISE  - CRITERIA TO BE INCREASED BY 100 TIMES
 *  NOSYM    - POINT-GROUP SYMMETRY SET TO C1
 *  T=       - A TIME OF 172800.0 SECONDS REQUESTED
 *  DUMP=N   - RESTART FILE WRITTEN EVERY  7200.000 SECONDS
 *******************************************************************************
pm3  precise nosym
 InChI=1S/C11H18/c1-4-6-7-11-8-10(5-2)9(11)3/h5-7,9-11H,2,4,8H2,1,3H3

   ATOM   CHEMICAL          X               Y               Z
  NUMBER   SYMBOL      (ANGSTROMS)     (ANGSTROMS)     (ANGSTROMS)
 
     1       C         -1.07420000  *  -0.46350000  *  -0.40190000  *
     2       C         -2.17760000  *   0.40130000  *   0.29370000  *
     3       C         -0.31910000  *  -0.48500000  *   0.92970000  *
     4       C         -1.22840000  *   0.56660000  *   1.47950000  *
     5       C          3.48480000  *  -0.57600000  *   0.14250000  *
     6       C         -1.55250000  *  -1.82550000  *  -0.90130000  *
     7       C          3.74090000  *   0.58920000  *  -0.80730000  *
     8       C          1.13590000  *  -0.10700000  *   0.82880000  *
     9       C         -2.53570000  *   1.66630000  *  -0.43910000  *
    10       C          2.02740000  *  -0.92330000  *   0.25060000  *
    11       C         -3.23310000  *   1.63580000  *  -1.57650000  *
    12       H         -0.53290000  *   0.09320000  *  -1.20630000  *
    13       H         -3.08710000  *  -0.17700000  *   0.58730000  *
    14       H         -0.43960000  *  -1.44040000  *   1.49680000  *
    15       H         -0.77040000  *   1.58230000  *   1.54970000  *
    16       H         -1.69700000  *   0.27760000  *   2.44930000  *
    17       H          4.03680000  *  -1.46520000  *  -0.24050000  *
    18       H          3.89680000  *  -0.34510000  *   1.15200000  *
    19       H          3.35190000  *   0.36150000  *  -1.82610000  *
    20       H          4.83580000  *   0.77560000  *  -0.88720000  *
    21       H          3.26220000  *   1.52420000  *  -0.43720000  *
    22       H         -2.10300000  *  -2.39230000  *  -0.11580000  *
    23       H         -2.22960000  *  -1.68730000  *  -1.77400000  *
    24       H         -0.67950000  *  -2.43360000  *  -1.22900000  *
    25       H         -2.23980000  *   2.63380000  *  -0.03560000  *
    26       H          1.70060000  *  -1.88460000  *  -0.14570000  *
    27       H          1.47340000  *   0.84130000  *   1.24690000  *
    28       H         -3.48780000  *   2.56280000  *  -2.08670000  *
    29       H         -3.55900000  *   0.69420000  *  -2.01580000  *
 


          CARTESIAN COORDINATES 

    NO.       ATOM         X         Y         Z

     1         C       -1.0742   -0.4635   -0.4019
     2         C       -2.1776    0.4013    0.2937
     3         C       -0.3191   -0.4850    0.9297
     4         C       -1.2284    0.5666    1.4795
     5         C        3.4848   -0.5760    0.1425
     6         C       -1.5525   -1.8255   -0.9013
     7         C        3.7409    0.5892   -0.8073
     8         C        1.1359   -0.1070    0.8288
     9         C       -2.5357    1.6663   -0.4391
    10         C        2.0274   -0.9233    0.2506
    11         C       -3.2331    1.6358   -1.5765
    12         H       -0.5329    0.0932   -1.2063
    13         H       -3.0871   -0.1770    0.5873
    14         H       -0.4396   -1.4404    1.4968
    15         H       -0.7704    1.5823    1.5497
    16         H       -1.6970    0.2776    2.4493
    17         H        4.0368   -1.4652   -0.2405
    18         H        3.8968   -0.3451    1.1520
    19         H        3.3519    0.3615   -1.8261
    20         H        4.8358    0.7756   -0.8872
    21         H        3.2622    1.5242   -0.4372
    22         H       -2.1030   -2.3923   -0.1158
    23         H       -2.2296   -1.6873   -1.7740
    24         H       -0.6795   -2.4336   -1.2290
    25         H       -2.2398    2.6338   -0.0356
    26         H        1.7006   -1.8846   -0.1457
    27         H        1.4734    0.8413    1.2469
    28         H       -3.4878    2.5628   -2.0867
    29         H       -3.5590    0.6942   -2.0158

  H: (PM3): J. J. P. STEWART, J. COMP. CHEM. 10, 209 (1989).
  C: (PM3): J. J. P. STEWART, J. COMP. CHEM. 10, 209 (1989).

           Empirical Formula: C11 H18  =    29 atoms



      MOLECULAR POINT GROUP   :   C1  


      RHF CALCULATION, NO. OF DOUBLY OCCUPIED LEVELS =   31

      Geometry optimization using EF

          DIAGONAL MATRIX USED AS START HESSIAN

 CYCLE:     1 TIME:   0.017 TIME LEFT:  2.00D  GRAD.:   108.202 HEAT: 18.61839
 CYCLE:     2 TIME:   0.021 TIME LEFT:  2.00D  GRAD.:   116.590 HEAT: 17.89330
 CYCLE:     3 TIME:   0.012 TIME LEFT:  2.00D  GRAD.:   132.999 HEAT: 17.50862
 CYCLE:     4 TIME:   0.021 TIME LEFT:  2.00D  GRAD.:    56.560 HEAT: 14.91960
 CYCLE:     5 TIME:   0.020 TIME LEFT:  2.00D  GRAD.:    35.479 HEAT: 14.24543
 CYCLE:     6 TIME:   0.020 TIME LEFT:  2.00D  GRAD.:    24.441 HEAT: 14.03119
 CYCLE:     7 TIME:   0.011 TIME LEFT:  2.00D  GRAD.:    15.295 HEAT: 13.85924
 CYCLE:     8 TIME:   0.011 TIME LEFT:  2.00D  GRAD.:    15.593 HEAT: 13.69953
 CYCLE:     9 TIME:   0.011 TIME LEFT:  2.00D  GRAD.:    19.565 HEAT: 13.60838
 CYCLE:    10 TIME:   0.011 TIME LEFT:  2.00D  GRAD.:    21.390 HEAT: 13.59951
 CYCLE:    11 TIME:   0.021 TIME LEFT:  2.00D  GRAD.:     9.789 HEAT: 13.49392
 CYCLE:    12 TIME:   0.020 TIME LEFT:  2.00D  GRAD.:     7.127 HEAT: 13.47134
 CYCLE:    13 TIME:   0.011 TIME LEFT:  2.00D  GRAD.:     5.563 HEAT: 13.45199
 CYCLE:    14 TIME:   0.020 TIME LEFT:  2.00D  GRAD.:     6.094 HEAT: 13.44060
 CYCLE:    15 TIME:   0.011 TIME LEFT:  2.00D  GRAD.:     6.577 HEAT: 13.43152
 CYCLE:    16 TIME:   0.011 TIME LEFT:  2.00D  GRAD.:     9.020 HEAT: 13.42991
 CYCLE:    17 TIME:   0.011 TIME LEFT:  2.00D  GRAD.:     7.183 HEAT: 13.41688
 CYCLE:    18 TIME:   0.011 TIME LEFT:  2.00D  GRAD.:     7.051 HEAT: 13.40885
 CYCLE:    19 TIME:   0.020 TIME LEFT:  2.00D  GRAD.:     3.196 HEAT: 13.39632
 CYCLE:    20 TIME:   0.011 TIME LEFT:  2.00D  GRAD.:     6.528 HEAT: 13.40176
 CYCLE:    21 TIME:   0.011 TIME LEFT:  2.00D  GRAD.:     3.052 HEAT: 13.38829
 CYCLE:    22 TIME:   0.011 TIME LEFT:  2.00D  GRAD.:     4.585 HEAT: 13.38680
 CYCLE:    23 TIME:   0.011 TIME LEFT:  2.00D  GRAD.:     3.891 HEAT: 13.37954
 CYCLE:    24 TIME:   0.020 TIME LEFT:  2.00D  GRAD.:     5.185 HEAT: 13.37689
 CYCLE:    25 TIME:   0.011 TIME LEFT:  2.00D  GRAD.:     3.133 HEAT: 13.36630
 CYCLE:    26 TIME:   0.011 TIME LEFT:  2.00D  GRAD.:     3.703 HEAT: 13.35910
 CYCLE:    27 TIME:   0.011 TIME LEFT:  2.00D  GRAD.:     3.477 HEAT: 13.35096
 CYCLE:    28 TIME:   0.011 TIME LEFT:  2.00D  GRAD.:     4.290 HEAT: 13.34668
 CYCLE:    29 TIME:   0.010 TIME LEFT:  2.00D  GRAD.:     3.673 HEAT: 13.34155
 CYCLE:    30 TIME:   0.011 TIME LEFT:  2.00D  GRAD.:     2.966 HEAT: 13.33533
 CYCLE:    31 TIME:   0.011 TIME LEFT:  2.00D  GRAD.:     3.884 HEAT: 13.33088
 CYCLE:    32 TIME:   0.011 TIME LEFT:  2.00D  GRAD.:     2.774 HEAT: 13.31741
 CYCLE:    33 TIME:   0.011 TIME LEFT:  2.00D  GRAD.:     3.403 HEAT: 13.29816
 CYCLE:    34 TIME:   0.011 TIME LEFT:  2.00D  GRAD.:     4.902 HEAT: 13.28429
 CYCLE:    35 TIME:   0.012 TIME LEFT:  2.00D  GRAD.:     5.272 HEAT: 13.26543
 CYCLE:    36 TIME:   0.011 TIME LEFT:  2.00D  GRAD.:     4.654 HEAT: 13.23581
 CYCLE:    37 TIME:   0.012 TIME LEFT:  2.00D  GRAD.:     6.445 HEAT: 13.18896
 CYCLE:    38 TIME:   0.011 TIME LEFT:  2.00D  GRAD.:     5.994 HEAT: 13.15178
 CYCLE:    39 TIME:   0.012 TIME LEFT:  2.00D  GRAD.:     7.387 HEAT: 13.10214
 CYCLE:    40 TIME:   0.012 TIME LEFT:  2.00D  GRAD.:     8.068 HEAT: 13.03587
 CYCLE:    41 TIME:   0.012 TIME LEFT:  2.00D  GRAD.:     9.582 HEAT: 12.99205
 CYCLE:    42 TIME:   0.011 TIME LEFT:  2.00D  GRAD.:     6.199 HEAT: 12.94071
 CYCLE:    43 TIME:   0.021 TIME LEFT:  2.00D  GRAD.:     9.717 HEAT: 12.92329
 CYCLE:    44 TIME:   0.011 TIME LEFT:  2.00D  GRAD.:     5.180 HEAT: 12.87188
 CYCLE:    45 TIME:   0.011 TIME LEFT:  2.00D  GRAD.:     4.287 HEAT: 12.83286
 CYCLE:    46 TIME:   0.011 TIME LEFT:  2.00D  GRAD.:     4.063 HEAT: 12.78592
 CYCLE:    47 TIME:   0.011 TIME LEFT:  2.00D  GRAD.:     3.719 HEAT: 12.72818
 CYCLE:    48 TIME:   0.012 TIME LEFT:  2.00D  GRAD.:     4.521 HEAT: 12.67205
 CYCLE:    49 TIME:   0.012 TIME LEFT:  2.00D  GRAD.:     7.190 HEAT: 12.60282
 CYCLE:    50 TIME:   0.012 TIME LEFT:  2.00D  GRAD.:     6.915 HEAT: 12.54592
 CYCLE:    51 TIME:   0.012 TIME LEFT:  2.00D  GRAD.:    15.061 HEAT: 12.52493
 CYCLE:    52 TIME:   0.011 TIME LEFT:  2.00D  GRAD.:     8.533 HEAT: 12.43169
 CYCLE:    53 TIME:   0.011 TIME LEFT:  2.00D  GRAD.:     5.238 HEAT: 12.37814
 CYCLE:    54 TIME:   0.012 TIME LEFT:  2.00D  GRAD.:     5.602 HEAT: 12.33299
 CYCLE:    55 TIME:   0.013 TIME LEFT:  2.00D  GRAD.:     6.187 HEAT: 12.29476
 CYCLE:    56 TIME:   0.011 TIME LEFT:  2.00D  GRAD.:     4.135 HEAT: 12.26338
 CYCLE:    57 TIME:   0.012 TIME LEFT:  2.00D  GRAD.:     3.552 HEAT: 12.24310
 CYCLE:    58 TIME:   0.012 TIME LEFT:  2.00D  GRAD.:     3.533 HEAT: 12.22625
 CYCLE:    59 TIME:   0.012 TIME LEFT:  2.00D  GRAD.:     3.129 HEAT: 12.21612
 CYCLE:    60 TIME:   0.016 TIME LEFT:  2.00D  GRAD.:     3.778 HEAT: 12.20539
 CYCLE:    61 TIME:   0.011 TIME LEFT:  2.00D  GRAD.:     2.545 HEAT: 12.19454
 CYCLE:    62 TIME:   0.012 TIME LEFT:  2.00D  GRAD.:     2.219 HEAT: 12.18154
 CYCLE:    63 TIME:   0.011 TIME LEFT:  2.00D  GRAD.:     2.074 HEAT: 12.17401
 CYCLE:    64 TIME:   0.011 TIME LEFT:  2.00D  GRAD.:     1.736 HEAT: 12.16593
 CYCLE:    65 TIME:   0.011 TIME LEFT:  2.00D  GRAD.:     1.797 HEAT: 12.15845
 CYCLE:    66 TIME:   0.011 TIME LEFT:  2.00D  GRAD.:     2.083 HEAT: 12.15015
 CYCLE:    67 TIME:   0.011 TIME LEFT:  2.00D  GRAD.:     1.885 HEAT: 12.14240
 CYCLE:    68 TIME:   0.011 TIME LEFT:  2.00D  GRAD.:     1.862 HEAT: 12.13650
 CYCLE:    69 TIME:   0.011 TIME LEFT:  2.00D  GRAD.:     1.420 HEAT: 12.13183
 CYCLE:    70 TIME:   0.011 TIME LEFT:  2.00D  GRAD.:     1.473 HEAT: 12.12739
 CYCLE:    71 TIME:   0.011 TIME LEFT:  2.00D  GRAD.:     1.531 HEAT: 12.12232
 CYCLE:    72 TIME:   0.011 TIME LEFT:  2.00D  GRAD.:     1.466 HEAT: 12.11734
 CYCLE:    73 TIME:   0.011 TIME LEFT:  2.00D  GRAD.:     1.396 HEAT: 12.11288
 CYCLE:    74 TIME:   0.011 TIME LEFT:  2.00D  GRAD.:     1.459 HEAT: 12.10793
 CYCLE:    75 TIME:   0.011 TIME LEFT:  2.00D  GRAD.:     1.505 HEAT: 12.10263
 CYCLE:    76 TIME:   0.012 TIME LEFT:  2.00D  GRAD.:     1.462 HEAT: 12.09732
 CYCLE:    77 TIME:   0.011 TIME LEFT:  2.00D  GRAD.:     1.235 HEAT: 12.09294
 CYCLE:    78 TIME:   0.012 TIME LEFT:  2.00D  GRAD.:     1.052 HEAT: 12.08978
 CYCLE:    79 TIME:   0.011 TIME LEFT:  2.00D  GRAD.:     1.072 HEAT: 12.08742
 CYCLE:    80 TIME:   0.012 TIME LEFT:  2.00D  GRAD.:     0.855 HEAT: 12.08554
 CYCLE:    81 TIME:   0.015 TIME LEFT:  2.00D  GRAD.:     0.672 HEAT: 12.08413
 CYCLE:    82 TIME:   0.013 TIME LEFT:  2.00D  GRAD.:     0.554 HEAT: 12.08312
 CYCLE:    83 TIME:   0.011 TIME LEFT:  2.00D  GRAD.:     0.529 HEAT: 12.08232
 CYCLE:    84 TIME:   0.011 TIME LEFT:  2.00D  GRAD.:     0.533 HEAT: 12.08149
 CYCLE:    85 TIME:   0.011 TIME LEFT:  2.00D  GRAD.:     0.563 HEAT: 12.08071
 CYCLE:    86 TIME:   0.011 TIME LEFT:  2.00D  GRAD.:     0.699 HEAT: 12.07964
 CYCLE:    87 TIME:   0.011 TIME LEFT:  2.00D  GRAD.:     0.778 HEAT: 12.07850
 CYCLE:    88 TIME:   0.012 TIME LEFT:  2.00D  GRAD.:     0.811 HEAT: 12.07693
 CYCLE:    89 TIME:   0.011 TIME LEFT:  2.00D  GRAD.:     0.766 HEAT: 12.07551
 CYCLE:    90 TIME:   0.011 TIME LEFT:  2.00D  GRAD.:     0.734 HEAT: 12.07409
 CYCLE:    91 TIME:   0.011 TIME LEFT:  2.00D  GRAD.:     0.741 HEAT: 12.07286
 CYCLE:    92 TIME:   0.011 TIME LEFT:  2.00D  GRAD.:     0.747 HEAT: 12.07163
 CYCLE:    93 TIME:   0.011 TIME LEFT:  2.00D  GRAD.:     0.728 HEAT: 12.07036
 CYCLE:    94 TIME:   0.011 TIME LEFT:  2.00D  GRAD.:     0.688 HEAT: 12.06920
 CYCLE:    95 TIME:   0.011 TIME LEFT:  2.00D  GRAD.:     0.694 HEAT: 12.06800
 CYCLE:    96 TIME:   0.011 TIME LEFT:  2.00D  GRAD.:     0.782 HEAT: 12.06673
 CYCLE:    97 TIME:   0.011 TIME LEFT:  2.00D  GRAD.:     0.921 HEAT: 12.06502
 CYCLE:    98 TIME:   0.012 TIME LEFT:  2.00D  GRAD.:     1.068 HEAT: 12.06267
 CYCLE:    99 TIME:   0.012 TIME LEFT:  2.00D  GRAD.:     1.100 HEAT: 12.05999
 CYCLE:   100 TIME:   0.012 TIME LEFT:  2.00D  GRAD.:     1.177 HEAT: 12.05659
 CYCLE:   101 TIME:   0.011 TIME LEFT:  2.00D  GRAD.:     1.128 HEAT: 12.05442
 CYCLE:   102 TIME:   0.012 TIME LEFT:  2.00D  GRAD.:     1.638 HEAT: 12.04783
 CYCLE:   103 TIME:   0.011 TIME LEFT:  2.00D  GRAD.:     1.481 HEAT: 12.04474
 CYCLE:   104 TIME:   0.012 TIME LEFT:  2.00D  GRAD.:     1.552 HEAT: 12.03819
 CYCLE:   105 TIME:   0.011 TIME LEFT:  2.00D  GRAD.:     0.891 HEAT: 12.03585
 CYCLE:   106 TIME:   0.011 TIME LEFT:  2.00D  GRAD.:     0.693 HEAT: 12.03432
 CYCLE:   107 TIME:   0.011 TIME LEFT:  2.00D  GRAD.:     0.828 HEAT: 12.03197
 CYCLE:   108 TIME:   0.012 TIME LEFT:  2.00D  GRAD.:     1.033 HEAT: 12.02978
 CYCLE:   109 TIME:   0.012 TIME LEFT:  2.00D  GRAD.:     1.133 HEAT: 12.02749
 CYCLE:   110 TIME:   0.012 TIME LEFT:  2.00D  GRAD.:     1.576 HEAT: 12.02236
 CYCLE:   111 TIME:   0.011 TIME LEFT:  2.00D  GRAD.:     1.501 HEAT: 12.01866
 CYCLE:   112 TIME:   0.012 TIME LEFT:  2.00D  GRAD.:     1.934 HEAT: 12.00994
 CYCLE:   113 TIME:   0.011 TIME LEFT:  2.00D  GRAD.:     1.838 HEAT: 12.00417
 CYCLE:   114 TIME:   0.012 TIME LEFT:  2.00D  GRAD.:     2.657 HEAT: 11.99114
 CYCLE:   115 TIME:   0.012 TIME LEFT:  2.00D  GRAD.:     2.527 HEAT: 11.97818
 CYCLE:   116 TIME:   0.012 TIME LEFT:  2.00D  GRAD.:     4.410 HEAT: 11.96999
 CYCLE:   117 TIME:   0.011 TIME LEFT:  2.00D  GRAD.:     2.405 HEAT: 11.95794
 CYCLE:   118 TIME:   0.012 TIME LEFT:  2.00D  GRAD.:     2.183 HEAT: 11.95122
 CYCLE:   119 TIME:   0.012 TIME LEFT:  2.00D  GRAD.:     2.294 HEAT: 11.94534
 CYCLE:   120 TIME:   0.012 TIME LEFT:  2.00D  GRAD.:     1.967 HEAT: 11.93969
 CYCLE:   121 TIME:   0.012 TIME LEFT:  2.00D  GRAD.:     2.169 HEAT: 11.93517
 CYCLE:   122 TIME:   0.012 TIME LEFT:  2.00D  GRAD.:     2.314 HEAT: 11.92479
 CYCLE:   123 TIME:   0.012 TIME LEFT:  2.00D  GRAD.:     2.582 HEAT: 11.91978
 CYCLE:   124 TIME:   0.012 TIME LEFT:  2.00D  GRAD.:     4.407 HEAT: 11.91529
 CYCLE:   125 TIME:   0.011 TIME LEFT:  2.00D  GRAD.:     1.870 HEAT: 11.90579
 CYCLE:   126 TIME:   0.012 TIME LEFT:  2.00D  GRAD.:     1.486 HEAT: 11.89986
 CYCLE:   127 TIME:   0.012 TIME LEFT:  2.00D  GRAD.:     4.575 HEAT: 11.89210
 CYCLE:   128 TIME:   0.011 TIME LEFT:  2.00D  GRAD.:     2.204 HEAT: 11.88670
 CYCLE:   129 TIME:   0.012 TIME LEFT:  2.00D  GRAD.:     1.792 HEAT: 11.88127
 CYCLE:   130 TIME:   0.012 TIME LEFT:  2.00D  GRAD.:     2.291 HEAT: 11.86750
 CYCLE:   131 TIME:   0.012 TIME LEFT:  2.00D  GRAD.:     6.107 HEAT: 11.86027
 CYCLE:   132 TIME:   0.011 TIME LEFT:  2.00D  GRAD.:     2.888 HEAT: 11.84641
 CYCLE:   133 TIME:   0.012 TIME LEFT:  2.00D  GRAD.:     2.440 HEAT: 11.83448
 CYCLE:   134 TIME:   0.012 TIME LEFT:  2.00D  GRAD.:     8.048 HEAT: 11.82444
 CYCLE:   135 TIME:   0.011 TIME LEFT:  2.00D  GRAD.:     3.335 HEAT: 11.80779
 CYCLE:   136 TIME:   0.012 TIME LEFT:  2.00D  GRAD.:     4.353 HEAT: 11.79867
 CYCLE:   137 TIME:   0.012 TIME LEFT:  2.00D  GRAD.:     2.577 HEAT: 11.78276
 CYCLE:   138 TIME:   0.011 TIME LEFT:  2.00D  GRAD.:     2.206 HEAT: 11.77623
 CYCLE:   139 TIME:   0.012 TIME LEFT:  2.00D  GRAD.:     1.908 HEAT: 11.77073
 CYCLE:   140 TIME:   0.011 TIME LEFT:  2.00D  GRAD.:     1.362 HEAT: 11.76808
 CYCLE:   141 TIME:   0.012 TIME LEFT:  2.00D  GRAD.:     1.363 HEAT: 11.76561
 CYCLE:   142 TIME:   0.012 TIME LEFT:  2.00D  GRAD.:     1.802 HEAT: 11.76357
 CYCLE:   143 TIME:   0.011 TIME LEFT:  2.00D  GRAD.:     1.447 HEAT: 11.76086
 CYCLE:   144 TIME:   0.012 TIME LEFT:  2.00D  GRAD.:     1.198 HEAT: 11.75867
 CYCLE:   145 TIME:   0.016 TIME LEFT:  2.00D  GRAD.:     1.576 HEAT: 11.75690
 CYCLE:   146 TIME:   0.012 TIME LEFT:  2.00D  GRAD.:     1.230 HEAT: 11.75485
 CYCLE:   147 TIME:   0.012 TIME LEFT:  2.00D  GRAD.:     0.903 HEAT: 11.75271
 CYCLE:   148 TIME:   0.012 TIME LEFT:  2.00D  GRAD.:     1.073 HEAT: 11.75133
 CYCLE:   149 TIME:   0.012 TIME LEFT:  2.00D  GRAD.:     1.237 HEAT: 11.74977
 CYCLE:   150 TIME:   0.012 TIME LEFT:  2.00D  GRAD.:     1.483 HEAT: 11.74841
 CYCLE:   151 TIME:   0.012 TIME LEFT:  2.00D  GRAD.:     1.273 HEAT: 11.74631
 CYCLE:   152 TIME:   0.011 TIME LEFT:  2.00D  GRAD.:     1.208 HEAT: 11.74480
 CYCLE:   153 TIME:   0.012 TIME LEFT:  2.00D  GRAD.:     0.928 HEAT: 11.74192
 CYCLE:   154 TIME:   0.012 TIME LEFT:  2.00D  GRAD.:     0.826 HEAT: 11.74049
 CYCLE:   155 TIME:   0.012 TIME LEFT:  2.00D  GRAD.:     0.877 HEAT: 11.73827
 CYCLE:   156 TIME:   0.012 TIME LEFT:  2.00D  GRAD.:     1.434 HEAT: 11.73638
 CYCLE:   157 TIME:   0.012 TIME LEFT:  2.00D  GRAD.:     1.506 HEAT: 11.73404
 CYCLE:   158 TIME:   0.011 TIME LEFT:  2.00D  GRAD.:     1.435 HEAT: 11.73175
 CYCLE:   159 TIME:   0.011 TIME LEFT:  2.00D  GRAD.:     1.077 HEAT: 11.72949
 CYCLE:   160 TIME:   0.012 TIME LEFT:  2.00D  GRAD.:     0.906 HEAT: 11.72725
 CYCLE:   161 TIME:   0.012 TIME LEFT:  2.00D  GRAD.:     1.166 HEAT: 11.72485
 CYCLE:   162 TIME:   0.012 TIME LEFT:  2.00D  GRAD.:     1.495 HEAT: 11.72151
 CYCLE:   163 TIME:   0.012 TIME LEFT:  2.00D  GRAD.:     1.525 HEAT: 11.71747
 CYCLE:   164 TIME:   0.012 TIME LEFT:  2.00D  GRAD.:     1.393 HEAT: 11.71304
 CYCLE:   165 TIME:   0.012 TIME LEFT:  2.00D  GRAD.:     1.033 HEAT: 11.71162
 CYCLE:   166 TIME:   0.012 TIME LEFT:  2.00D  GRAD.:     0.967 HEAT: 11.71030
 CYCLE:   167 TIME:   0.011 TIME LEFT:  2.00D  GRAD.:     0.622 HEAT: 11.70966
 CYCLE:   168 TIME:   0.011 TIME LEFT:  2.00D  GRAD.:     0.472 HEAT: 11.70907
 CYCLE:   169 TIME:   0.011 TIME LEFT:  2.00D  GRAD.:     0.629 HEAT: 11.70863
 CYCLE:   170 TIME:   0.011 TIME LEFT:  2.00D  GRAD.:     0.561 HEAT: 11.70829
 CYCLE:   171 TIME:   0.012 TIME LEFT:  2.00D  GRAD.:     0.576 HEAT: 11.70776
 CYCLE:   172 TIME:   0.012 TIME LEFT:  2.00D  GRAD.:     0.502 HEAT: 11.70731
 CYCLE:   173 TIME:   0.012 TIME LEFT:  2.00D  GRAD.:     0.422 HEAT: 11.70691
 CYCLE:   174 TIME:   0.011 TIME LEFT:  2.00D  GRAD.:     0.357 HEAT: 11.70664
 CYCLE:   175 TIME:   0.011 TIME LEFT:  2.00D  GRAD.:     0.371 HEAT: 11.70639
 CYCLE:   176 TIME:   0.011 TIME LEFT:  2.00D  GRAD.:     0.401 HEAT: 11.70614
 CYCLE:   177 TIME:   0.011 TIME LEFT:  2.00D  GRAD.:     0.404 HEAT: 11.70590
 CYCLE:   178 TIME:   0.011 TIME LEFT:  2.00D  GRAD.:     0.450 HEAT: 11.70546
 CYCLE:   179 TIME:   0.011 TIME LEFT:  2.00D  GRAD.:     0.582 HEAT: 11.70488
 CYCLE:   180 TIME:   0.012 TIME LEFT:  2.00D  GRAD.:     0.819 HEAT: 11.70411
 CYCLE:   181 TIME:   0.011 TIME LEFT:  2.00D  GRAD.:     0.871 HEAT: 11.70308
 CYCLE:   182 TIME:   0.012 TIME LEFT:  2.00D  GRAD.:     1.514 HEAT: 11.70125
 CYCLE:   183 TIME:   0.012 TIME LEFT:  2.00D  GRAD.:     0.960 HEAT: 11.69963
 CYCLE:   184 TIME:   0.012 TIME LEFT:  2.00D  GRAD.:     0.659 HEAT: 11.69820
 CYCLE:   185 TIME:   0.012 TIME LEFT:  2.00D  GRAD.:     0.683 HEAT: 11.69630
 CYCLE:   186 TIME:   0.012 TIME LEFT:  2.00D  GRAD.:     0.609 HEAT: 11.69552
 CYCLE:   187 TIME:   0.012 TIME LEFT:  2.00D  GRAD.:     0.482 HEAT: 11.69489
 CYCLE:   188 TIME:   0.012 TIME LEFT:  2.00D  GRAD.:     0.267 HEAT: 11.69443
 CYCLE:   189 TIME:   0.011 TIME LEFT:  2.00D  GRAD.:     0.198 HEAT: 11.69430
 CYCLE:   190 TIME:   0.011 TIME LEFT:  2.00D  GRAD.:     0.173 HEAT: 11.69419
 CYCLE:   191 TIME:   0.011 TIME LEFT:  2.00D  GRAD.:     0.182 HEAT: 11.69412
 CYCLE:   192 TIME:   0.012 TIME LEFT:  2.00D  GRAD.:     0.239 HEAT: 11.69393
 CYCLE:   193 TIME:   0.012 TIME LEFT:  2.00D  GRAD.:     0.213 HEAT: 11.69381
 CYCLE:   194 TIME:   0.016 TIME LEFT:  2.00D  GRAD.:     0.332 HEAT: 11.69355
 CYCLE:   195 TIME:   0.012 TIME LEFT:  2.00D  GRAD.:     0.416 HEAT: 11.69339
 CYCLE:   196 TIME:   0.012 TIME LEFT:  2.00D  GRAD.:     0.558 HEAT: 11.69306
 CYCLE:   197 TIME:   0.012 TIME LEFT:  2.00D  GRAD.:     0.662 HEAT: 11.69238
 CYCLE:   198 TIME:   0.012 TIME LEFT:  2.00D  GRAD.:     0.742 HEAT: 11.69127
 CYCLE:   199 TIME:   0.012 TIME LEFT:  2.00D  GRAD.:     0.984 HEAT: 11.68972
 CYCLE:   200 TIME:   0.012 TIME LEFT:  2.00D  GRAD.:     1.231 HEAT: 11.68873
 CYCLE:   201 TIME:   0.012 TIME LEFT:  2.00D  GRAD.:     0.944 HEAT: 11.68720
 CYCLE:   202 TIME:   0.012 TIME LEFT:  2.00D  GRAD.:     0.481 HEAT: 11.68650
 CYCLE:   203 TIME:   0.012 TIME LEFT:  2.00D  GRAD.:     0.294 HEAT: 11.68623
 CYCLE:   204 TIME:   0.011 TIME LEFT:  2.00D  GRAD.:     0.151 HEAT: 11.68618
 CYCLE:   205 TIME:   0.011 TIME LEFT:  2.00D  GRAD.:     0.109 HEAT: 11.68616
 CYCLE:   206 TIME:   0.011 TIME LEFT:  2.00D  GRAD.:     0.166 HEAT: 11.68614
 CYCLE:   207 TIME:   0.011 TIME LEFT:  2.00D  GRAD.:     0.111 HEAT: 11.68614
 CYCLE:   208 TIME:   0.012 TIME LEFT:  2.00D  GRAD.:     0.087 HEAT: 11.68612
 CYCLE:   209 TIME:   0.014 TIME LEFT:  2.00D  GRAD.:     0.075 HEAT: 11.68610
 CYCLE:   210 TIME:   0.011 TIME LEFT:  2.00D  GRAD.:     0.093 HEAT: 11.68609
 CYCLE:   211 TIME:   0.011 TIME LEFT:  2.00D  GRAD.:     0.072 HEAT: 11.68608
 CYCLE:   212 TIME:   0.011 TIME LEFT:  2.00D  GRAD.:     0.061 HEAT: 11.68606
 CYCLE:   213 TIME:   0.011 TIME LEFT:  2.00D  GRAD.:     0.059 HEAT: 11.68605
 CYCLE:   214 TIME:   0.011 TIME LEFT:  2.00D  GRAD.:     0.052 HEAT: 11.68605
 CYCLE:   215 TIME:   0.011 TIME LEFT:  2.00D  GRAD.:     0.171 HEAT: 11.68604
 CYCLE:   216 TIME:   0.011 TIME LEFT:  2.00D  GRAD.:     0.086 HEAT: 11.68602
 CYCLE:   217 TIME:   0.011 TIME LEFT:  2.00D  GRAD.:     0.106 HEAT: 11.68600
 CYCLE:   218 TIME:   0.011 TIME LEFT:  2.00D  GRAD.:     0.080 HEAT: 11.68598
 CYCLE:   219 TIME:   0.011 TIME LEFT:  2.00D  GRAD.:     0.090 HEAT: 11.68593
 CYCLE:   220 TIME:   0.011 TIME LEFT:  2.00D  GRAD.:     0.080 HEAT: 11.68588
 CYCLE:   221 TIME:   0.011 TIME LEFT:  2.00D  GRAD.:     0.056 HEAT: 11.68585
 CYCLE:   222 TIME:   0.011 TIME LEFT:  2.00D  GRAD.:     0.034 HEAT: 11.68583

     RMS GRADIENT =  0.03352  IS LESS THAN CUTOFF =  0.05000



 -------------------------------------------------------------------------------
pm3  precise nosym
 InChI=1S/C11H18/c1-4-6-7-11-8-10(5-2)9(11)3/h5-7,9-11H,2,4,8H2,1,3H3



     GEOMETRY OPTIMISED USING EIGENVECTOR FOLLOWING (EF).     
     SCF FIELD WAS ACHIEVED                                   


                              PM3 CALCULATION
                                                       MOPAC2012 (Version: 13.159M)
                                                       Mon Jun  2 11:07:00 2014
                                                       No. of days left =   6




          FINAL HEAT OF FORMATION =         11.68583 KCAL/MOL =      48.89352 KJ/MOL


          TOTAL ENERGY            =      -1580.52605 EV
          ELECTRONIC ENERGY       =      -9417.64438 EV  POINT GROUP:     C1  
          CORE-CORE REPULSION     =       7837.11833 EV
          COSMO AREA              =        223.03 SQUARE ANGSTROMS
          COSMO VOLUME            =        231.94 CUBIC ANGSTROMS

          GRADIENT NORM           =          0.03352
          IONIZATION POTENTIAL    =          9.692009 EV
          HOMO LUMO ENERGIES (EV) =         -9.692  1.093
          NO. OF FILLED LEVELS    =         31
          MOLECULAR WEIGHT        =        150.263

          MOLECULAR DIMENSIONS (Angstroms)

            Atom       Atom       Distance
            H    20    H    29     9.34949
            H    22    H    28     5.55488
            H    16    H    23     4.50584


          SCF CALCULATIONS        =        233
          COMPUTATION TIME        =          2.680 SECONDS




   ATOM   CHEMICAL          X               Y               Z
  NUMBER   SYMBOL      (ANGSTROMS)     (ANGSTROMS)     (ANGSTROMS)
 
     1       C         -1.03224193  *  -0.64219963  *  -0.43795318  *
     2       C         -2.15141311  *   0.30670836  *   0.08183048  *
     3       C         -0.36567370  *  -0.61702981  *   0.96867714  *
     4       C         -1.43365125  *   0.39332332  *   1.45054368  *
     5       C          3.40300047  *  -0.13117755  *   0.28499353  *
     6       C         -1.50189648  *  -1.99640487  *  -0.89607700  *
     7       C          3.92838795  *   0.28320476  *  -1.07276758  *
     8       C          1.03598472  *  -0.13705291  *   1.02706439  *
     9       C         -2.24014088  *   1.59765654  *  -0.64481889  *
    10       C          1.98685222  *  -0.57896626  *   0.20257511  *
    11       C         -3.37353699  *   2.05844473  *  -1.16115337  *
    12       H         -0.39726873  *  -0.17231271  *  -1.22060479  *
    13       H         -3.14409334  *  -0.19028933  *   0.14157864  *
    14       H         -0.42559136  *  -1.59555807  *   1.49386254  *
    15       H         -1.04228547  *   1.39235999  *   1.70072902  *
    16       H         -2.03562091  *   0.05416528  *   2.30614908  *
    17       H          4.00902413  *  -0.96603891  *   0.69127795  *
    18       H          3.51863392  *   0.70198268  *   1.00700528  *
    19       H          3.86129769  *  -0.53538568  *  -1.80168215  *
    20       H          4.98144906  *   0.58665546  *  -1.01498864  *
    21       H          3.36374178  *   1.13075895  *  -1.48225636  *
    22       H         -2.12686835  *  -2.49472454  *  -0.14246628  *
    23       H         -2.09599168  *  -1.91778801  *  -1.81551638  *
    24       H         -0.64817602  *  -2.65512225  *  -1.10350900  *
    25       H         -1.30378148  *   2.16262653  *  -0.73544966  *
    26       H          1.75514571  *  -1.31035288  *  -0.58321768  *
    27       H          1.25850750  *   0.59851748  *   1.81094779  *
    28       H         -3.43226424  *   3.00368377  *  -1.69197398  *
    29       H         -4.32011680  *   1.52895938  *  -1.09233356  *

           Empirical Formula: C11 H18  =    29 atoms



      MOLECULAR POINT GROUP   :   C1  


                  EIGENVALUES  
 -41.68138 -36.68788 -32.97333 -30.64796 -28.99975 -24.67585 -23.01307 -21.66136
 -20.07555 -19.43095 -18.64565 -16.89475 -16.37103 -15.89735 -15.45577 -15.05806
 -14.77748 -14.38522 -14.01059 -13.58428 -13.32023 -13.03853 -12.56807 -12.43609
 -12.28824 -11.94443 -11.69342 -11.51384 -11.37313 -10.12231  -9.69201   1.09256
   1.11319   3.20430   3.27111   3.36557   3.60271   3.66444   3.76786   3.80287
   3.88682   3.95446   3.99136   4.08187   4.12112   4.14812   4.19202   4.23045
   4.27551   4.49021   4.64732   4.64899   4.74150   4.75663   4.83519   4.87103
   5.15393   5.38482   5.67871   5.85579   5.95175   5.99316


              NET ATOMIC CHARGES AND DIPOLE CONTRIBUTIONS

  ATOM NO.   TYPE          CHARGE      No. of ELECS.   s-Pop       p-Pop       
    1          C          -0.085979        4.0860     1.19323     2.89275
    2          C          -0.065288        4.0653     1.18174     2.88355
    3          C          -0.062141        4.0621     1.18005     2.88209
    4          C          -0.101814        4.1018     1.17639     2.92542
    5          C          -0.059349        4.0593     1.14528     2.91407
    6          C          -0.102681        4.1027     1.13740     2.96529
    7          C          -0.106061        4.1061     1.13772     2.96834
    8          C          -0.139211        4.1392     1.19447     2.94474
    9          C          -0.127618        4.1276     1.19390     2.93372
   10          C          -0.155559        4.1556     1.19639     2.95917
   11          C          -0.161245        4.1612     1.18299     2.97825
   12          H           0.081878        0.9181     0.91812
   13          H           0.077561        0.9224     0.92244
   14          H           0.080228        0.9198     0.91977
   15          H           0.064129        0.9359     0.93587
   16          H           0.055371        0.9446     0.94463
   17          H           0.052609        0.9474     0.94739
   18          H           0.050666        0.9493     0.94933
   19          H           0.037834        0.9622     0.96217
   20          H           0.036685        0.9633     0.96332
   21          H           0.039685        0.9603     0.96031
   22          H           0.040375        0.9596     0.95963
   23          H           0.041954        0.9580     0.95805
   24          H           0.040051        0.9599     0.95995
   25          H           0.100523        0.8995     0.89948
   26          H           0.104271        0.8957     0.89573
   27          H           0.103529        0.8965     0.89647
   28          H           0.078548        0.9215     0.92145
   29          H           0.081052        0.9189     0.91895
 DIPOLE           X         Y         Z       TOTAL
 POINT-CHG.     0.164    -0.140     0.021     0.217
 HYBRID        -0.023     0.001    -0.015     0.028
 SUM            0.141    -0.138     0.006     0.198


          ATOMIC ORBITAL ELECTRON POPULATIONS

    Atom      s        px        py        pz   
    1  C   1.19323   0.97018   0.95924   0.96333
    2  C   1.18174   0.98120   0.94672   0.95564
    3  C   1.18005   0.92477   0.98903   0.96829
    4  C   1.17639   0.97372   0.99393   0.95777
    5  C   1.14528   0.94185   1.00202   0.97020
    6  C   1.13740   1.00269   0.95767   1.00493
    7  C   1.13772   0.99839   1.00642   0.96354
    8  C   1.19447   0.94880   1.00036   0.99558
    9  C   1.19390   0.98165   0.96818   0.98389
   10  C   1.19639   0.95477   1.00548   0.99893
   11  C   1.18299   0.97242   1.00359   1.00224
   12  H   0.91812
   13  H   0.92244
   14  H   0.91977
   15  H   0.93587
   16  H   0.94463
   17  H   0.94739
   18  H   0.94933
   19  H   0.96217
   20  H   0.96332
   21  H   0.96031
   22  H   0.95963
   23  H   0.95805
   24  H   0.95995
   25  H   0.89948
   26  H   0.89573
   27  H   0.89647
   28  H   0.92145
   29  H   0.91895
 *******************************************************************************
 ** Site#: 14399           For non-commercial use only        Version 13.159M **
 *******************************************************************************
 ** Cite this work as: MOPAC2012, James J. P. Stewart, Stewart Computational  **
 ** Chemistry, Version 13.159M web: HTTP://OpenMOPAC.net  Days remaining:   6 **
 *******************************************************************************
 **                                                                           **
 **                                MOPAC2012                                  **
 **                                                                           **
 *******************************************************************************

                            PM3 CALCULATION RESULTS


 *******************************************************************************
 *  CALCULATION DONE:                                Mon Jun  2 11:07:00 2014  *
 *  PM3      - The PM3 Hamiltonian to be used
 *  OLDGEO   - PREVIOUS GEOMETRY TO BE USED
 *  PRECISE  - CRITERIA TO BE INCREASED BY 100 TIMES
 *  NOSYM    - POINT-GROUP SYMMETRY SET TO C1
 *  T=       - A TIME OF 172800.0 SECONDS REQUESTED
 *  DUMP=N   - RESTART FILE WRITTEN EVERY  7200.000 SECONDS
 *  THERMO   - THERMODYNAMIC QUANTITIES TO BE CALCULATED
 *******************************************************************************
oldgeo thermo nosym precise  pm3

   ATOM   CHEMICAL          X               Y               Z
  NUMBER   SYMBOL      (ANGSTROMS)     (ANGSTROMS)     (ANGSTROMS)
 
     1       C         -1.03224193  *  -0.64219963  *  -0.43795318  *
     2       C         -2.15141311  *   0.30670836  *   0.08183048  *
     3       C         -0.36567370  *  -0.61702981  *   0.96867714  *
     4       C         -1.43365125  *   0.39332332  *   1.45054368  *
     5       C          3.40300047  *  -0.13117755  *   0.28499353  *
     6       C         -1.50189648  *  -1.99640487  *  -0.89607700  *
     7       C          3.92838795  *   0.28320476  *  -1.07276758  *
     8       C          1.03598472  *  -0.13705291  *   1.02706439  *
     9       C         -2.24014088  *   1.59765654  *  -0.64481889  *
    10       C          1.98685222  *  -0.57896626  *   0.20257511  *
    11       C         -3.37353699  *   2.05844473  *  -1.16115337  *
    12       H         -0.39726873  *  -0.17231271  *  -1.22060479  *
    13       H         -3.14409334  *  -0.19028933  *   0.14157864  *
    14       H         -0.42559136  *  -1.59555807  *   1.49386254  *
    15       H         -1.04228547  *   1.39235999  *   1.70072902  *
    16       H         -2.03562091  *   0.05416528  *   2.30614908  *
    17       H          4.00902413  *  -0.96603891  *   0.69127795  *
    18       H          3.51863392  *   0.70198268  *   1.00700528  *
    19       H          3.86129769  *  -0.53538568  *  -1.80168215  *
    20       H          4.98144906  *   0.58665546  *  -1.01498864  *
    21       H          3.36374178  *   1.13075895  *  -1.48225636  *
    22       H         -2.12686835  *  -2.49472454  *  -0.14246628  *
    23       H         -2.09599168  *  -1.91778801  *  -1.81551638  *
    24       H         -0.64817602  *  -2.65512225  *  -1.10350900  *
    25       H         -1.30378148  *   2.16262653  *  -0.73544966  *
    26       H          1.75514571  *  -1.31035288  *  -0.58321768  *
    27       H          1.25850750  *   0.59851748  *   1.81094779  *
    28       H         -3.43226424  *   3.00368377  *  -1.69197398  *
    29       H         -4.32011680  *   1.52895938  *  -1.09233356  *
 


          CARTESIAN COORDINATES 

    NO.       ATOM         X         Y         Z

     1         C       -1.0322   -0.6422   -0.4380
     2         C       -2.1514    0.3067    0.0818
     3         C       -0.3657   -0.6170    0.9687
     4         C       -1.4337    0.3933    1.4505
     5         C        3.4030   -0.1312    0.2850
     6         C       -1.5019   -1.9964   -0.8961
     7         C        3.9284    0.2832   -1.0728
     8         C        1.0360   -0.1371    1.0271
     9         C       -2.2401    1.5977   -0.6448
    10         C        1.9869   -0.5790    0.2026
    11         C       -3.3735    2.0584   -1.1612
    12         H       -0.3973   -0.1723   -1.2206
    13         H       -3.1441   -0.1903    0.1416
    14         H       -0.4256   -1.5956    1.4939
    15         H       -1.0423    1.3924    1.7007
    16         H       -2.0356    0.0542    2.3061
    17         H        4.0090   -0.9660    0.6913
    18         H        3.5186    0.7020    1.0070
    19         H        3.8613   -0.5354   -1.8017
    20         H        4.9814    0.5867   -1.0150
    21         H        3.3637    1.1308   -1.4823
    22         H       -2.1269   -2.4947   -0.1425
    23         H       -2.0960   -1.9178   -1.8155
    24         H       -0.6482   -2.6551   -1.1035
    25         H       -1.3038    2.1626   -0.7354
    26         H        1.7551   -1.3104   -0.5832
    27         H        1.2585    0.5985    1.8109
    28         H       -3.4323    3.0037   -1.6920
    29         H       -4.3201    1.5290   -1.0923

  H: (PM3): J. J. P. STEWART, J. COMP. CHEM. 10, 209 (1989).
  C: (PM3): J. J. P. STEWART, J. COMP. CHEM. 10, 209 (1989).

           Empirical Formula: C11 H18  =    29 atoms



      MOLECULAR POINT GROUP   :   C1  


      RHF CALCULATION, NO. OF DOUBLY OCCUPIED LEVELS =   31



          HEAT OF FORMATION =      11.685831 KCALS/MOLE


          INTERNAL COORDINATE DERIVATIVES

   NUMBER  ATOM       BOND         ANGLE      DIHEDRAL

     1       C      0.000738     0.000867    -0.000288
     2       C      0.000639    -0.002570    -0.001108
     3       C     -0.002124     0.000872     0.000824
     4       C      0.000803    -0.000724     0.002447
     5       C     -0.004718    -0.006632     0.002991
     6       C      0.000969     0.004364     0.000780
     7       C     -0.002827     0.010164    -0.000212
     8       C     -0.001555    -0.002171    -0.002696
     9       C      0.002705    -0.010318    -0.003297
    10       C      0.002262     0.001312     0.001963
    11       C     -0.003320     0.007390     0.004070
    12       H      0.001572    -0.000512     0.001248
    13       H      0.000002    -0.001567    -0.001729
    14       H      0.001885    -0.001196    -0.002190
    15       H     -0.002538     0.000370    -0.000739
    16       H      0.000080     0.000601    -0.000084
    17       H      0.008110    -0.001365     0.001875
    18       H     -0.003874     0.004662     0.002264
    19       H      0.002230    -0.006215    -0.004763
    20       H     -0.000539     0.001726     0.007810
    21       H     -0.001988     0.001165     0.000294
    22       H      0.002911     0.001997    -0.003946
    23       H      0.004974    -0.005336     0.002056
    24       H     -0.008319     0.002384    -0.003504
    25       H      0.003273     0.007720     0.002356
    26       H      0.000196    -0.002429    -0.003919
    27       H     -0.000426    -0.000724    -0.000280
    28       H      0.001021    -0.002130    -0.002875
    29       H     -0.002141    -0.001704     0.000653


          GRADIENT NORM =   0.03210


          TIME FOR SCF CALCULATION =    0.01

          TIME FOR DERIVATIVES     =    0.01

          MOLECULAR WEIGHT =  150.26



          ROTATIONAL CONSTANTS IN CM(-1)

          A =    0.05590293   B =    0.01712219   C =    0.01617645



           PRINCIPAL MOMENTS OF INERTIA IN UNITS OF 10**(-40)*GRAM-CM**2

          A =      500.7389   B =     1634.8825   C =     1730.4650


          ORIENTATION OF MOLECULE IN FORCE CALCULATION

    NO.       ATOM         X         Y         Z

     1          C       0.1026   -0.7588   -0.9242
     2          C       1.6592   -0.7588   -0.9242
     3          C       0.1083    0.7979   -0.9242
     4          C       1.6530    0.7866   -0.8372
     5          C      -2.5333    1.8115    1.7027
     6          C      -0.5383   -1.3934   -2.1288
     7          C      -3.1118    0.8185    2.6879
     8          C      -0.5873    1.4612    0.2048
     9          C       2.2673   -1.4348    0.2487
    10          C      -1.8156    1.1208    0.5979
    11          C       3.1906   -2.3826    0.1366
    12          H      -0.3289   -1.1849    0.0079
    13          H       2.0899   -1.1395   -1.8758
    14          H      -0.2697    1.2324   -1.8756
    15          H       2.0641    1.1949    0.0999
    16          H       2.1647    1.2946   -1.6676
    17          H      -3.3423    2.4276    1.2608
    18          H      -1.8675    2.5244    2.2293
    19          H      -3.8060    0.1205    2.2012
    20          H      -3.6647    1.3286    3.4870
    21          H      -2.3259    0.2175    3.1633
    22          H      -0.1411   -0.9896   -3.0701
    23          H      -0.3702   -2.4779   -2.1398
    24          H      -1.6229   -1.2219   -2.1287
    25          H       1.9082   -1.1053    1.2319
    26          H      -2.3573    0.3018    0.1061
    27          H      -0.0372    2.2746    0.6955
    28          H       3.6318   -2.8737    0.9985
    29          H       3.5714   -2.7357   -0.8181


    FIRST DERIVATIVES WILL BE USED IN THE CALCULATION OF SECOND DERIVATIVES

          ESTIMATED TIME TO COMPLETE CALCULATION =        5.32 SECONDS

    FOR POINT-GROUP C1   THERE ARE   1 UNIQUE SYMMETRY FUNCTIONS.

 STEP:   1 TIME =     0.05 SECS, INTEGRAL =      0.05 TIME LEFT: 172799.94
 STEP:   2 TIME =     0.05 SECS, INTEGRAL =      0.10 TIME LEFT: 172799.89
 STEP:   3 TIME =     0.05 SECS, INTEGRAL =      0.15 TIME LEFT: 172799.84
 STEP:   4 TIME =     0.05 SECS, INTEGRAL =      0.20 TIME LEFT: 172799.79
 STEP:   5 TIME =     0.05 SECS, INTEGRAL =      0.25 TIME LEFT: 172799.74
 STEP:   6 TIME =     0.05 SECS, INTEGRAL =      0.30 TIME LEFT: 172799.69
 STEP:   7 TIME =     0.05 SECS, INTEGRAL =      0.35 TIME LEFT: 172799.64
 STEP:   8 TIME =     0.05 SECS, INTEGRAL =      0.40 TIME LEFT: 172799.59
 STEP:   9 TIME =     0.05 SECS, INTEGRAL =      0.44 TIME LEFT: 172799.54
 STEP:  10 TIME =     0.05 SECS, INTEGRAL =      0.49 TIME LEFT: 172799.49
 STEP:  11 TIME =     0.05 SECS, INTEGRAL =      0.54 TIME LEFT: 172799.44
 STEP:  12 TIME =     0.05 SECS, INTEGRAL =      0.59 TIME LEFT: 172799.39
 STEP:  13 TIME =     0.05 SECS, INTEGRAL =      0.64 TIME LEFT: 172799.35
 STEP:  14 TIME =     0.05 SECS, INTEGRAL =      0.69 TIME LEFT: 172799.30
 STEP:  15 TIME =     0.05 SECS, INTEGRAL =      0.74 TIME LEFT: 172799.25
 STEP:  16 TIME =     0.05 SECS, INTEGRAL =      0.79 TIME LEFT: 172799.20
 STEP:  17 TIME =     0.05 SECS, INTEGRAL =      0.83 TIME LEFT: 172799.15
 STEP:  18 TIME =     0.05 SECS, INTEGRAL =      0.88 TIME LEFT: 172799.10
 STEP:  19 TIME =     0.05 SECS, INTEGRAL =      0.93 TIME LEFT: 172799.06
 STEP:  20 TIME =     0.05 SECS, INTEGRAL =      0.98 TIME LEFT: 172799.01
 STEP:  21 TIME =     0.05 SECS, INTEGRAL =      1.03 TIME LEFT: 172798.96
 STEP:  22 TIME =     0.05 SECS, INTEGRAL =      1.08 TIME LEFT: 172798.91
 STEP:  23 TIME =     0.05 SECS, INTEGRAL =      1.13 TIME LEFT: 172798.86
 STEP:  24 TIME =     0.05 SECS, INTEGRAL =      1.18 TIME LEFT: 172798.80
 STEP:  25 TIME =     0.05 SECS, INTEGRAL =      1.23 TIME LEFT: 172798.75
 STEP:  26 TIME =     0.05 SECS, INTEGRAL =      1.28 TIME LEFT: 172798.70
 STEP:  27 TIME =     0.05 SECS, INTEGRAL =      1.33 TIME LEFT: 172798.66
 STEP:  28 TIME =     0.05 SECS, INTEGRAL =      1.38 TIME LEFT: 172798.61
 STEP:  29 TIME =     0.05 SECS, INTEGRAL =      1.43 TIME LEFT: 172798.56
 STEP:  30 TIME =     0.05 SECS, INTEGRAL =      1.48 TIME LEFT: 172798.51
 STEP:  31 TIME =     0.05 SECS, INTEGRAL =      1.53 TIME LEFT: 172798.46
 STEP:  32 TIME =     0.05 SECS, INTEGRAL =      1.58 TIME LEFT: 172798.40
 STEP:  33 TIME =     0.05 SECS, INTEGRAL =      1.63 TIME LEFT: 172798.35
 STEP:  34 TIME =     0.05 SECS, INTEGRAL =      1.68 TIME LEFT: 172798.30
 STEP:  35 TIME =     0.05 SECS, INTEGRAL =      1.73 TIME LEFT: 172798.25
 STEP:  36 TIME =     0.05 SECS, INTEGRAL =      1.78 TIME LEFT: 172798.20
 STEP:  37 TIME =     0.05 SECS, INTEGRAL =      1.83 TIME LEFT: 172798.15
 STEP:  38 TIME =     0.05 SECS, INTEGRAL =      1.88 TIME LEFT: 172798.10
 STEP:  39 TIME =     0.05 SECS, INTEGRAL =      1.93 TIME LEFT: 172798.05
 STEP:  40 TIME =     0.05 SECS, INTEGRAL =      1.98 TIME LEFT: 172798.00
 STEP:  41 TIME =     0.05 SECS, INTEGRAL =      2.04 TIME LEFT: 172797.95
 STEP:  42 TIME =     0.06 SECS, INTEGRAL =      2.09 TIME LEFT: 172797.89
 STEP:  43 TIME =     0.05 SECS, INTEGRAL =      2.14 TIME LEFT: 172797.84
 STEP:  44 TIME =     0.05 SECS, INTEGRAL =      2.19 TIME LEFT: 172797.79
 STEP:  45 TIME =     0.05 SECS, INTEGRAL =      2.24 TIME LEFT: 172797.74
 STEP:  46 TIME =     0.05 SECS, INTEGRAL =      2.29 TIME LEFT: 172797.69
 STEP:  47 TIME =     0.05 SECS, INTEGRAL =      2.34 TIME LEFT: 172797.64
 STEP:  48 TIME =     0.05 SECS, INTEGRAL =      2.39 TIME LEFT: 172797.59
 STEP:  49 TIME =     0.05 SECS, INTEGRAL =      2.44 TIME LEFT: 172797.54
 STEP:  50 TIME =     0.05 SECS, INTEGRAL =      2.49 TIME LEFT: 172797.49
 STEP:  51 TIME =     0.05 SECS, INTEGRAL =      2.54 TIME LEFT: 172797.44
 STEP:  52 TIME =     0.05 SECS, INTEGRAL =      2.59 TIME LEFT: 172797.39
 STEP:  53 TIME =     0.05 SECS, INTEGRAL =      2.64 TIME LEFT: 172797.34
 STEP:  54 TIME =     0.05 SECS, INTEGRAL =      2.69 TIME LEFT: 172797.29
 STEP:  55 TIME =     0.05 SECS, INTEGRAL =      2.74 TIME LEFT: 172797.24
 STEP:  56 TIME =     0.05 SECS, INTEGRAL =      2.79 TIME LEFT: 172797.19
 STEP:  57 TIME =     0.05 SECS, INTEGRAL =      2.84 TIME LEFT: 172797.14
 STEP:  58 TIME =     0.05 SECS, INTEGRAL =      2.89 TIME LEFT: 172797.10
 STEP:  59 TIME =     0.05 SECS, INTEGRAL =      2.94 TIME LEFT: 172797.04
 STEP:  60 TIME =     0.05 SECS, INTEGRAL =      2.99 TIME LEFT: 172797.00
 STEP:  61 TIME =     0.05 SECS, INTEGRAL =      3.04 TIME LEFT: 172796.95
 STEP:  62 TIME =     0.05 SECS, INTEGRAL =      3.09 TIME LEFT: 172796.90
 STEP:  63 TIME =     0.05 SECS, INTEGRAL =      3.14 TIME LEFT: 172796.84
 STEP:  64 TIME =     0.05 SECS, INTEGRAL =      3.19 TIME LEFT: 172796.79
 STEP:  65 TIME =     0.05 SECS, INTEGRAL =      3.24 TIME LEFT: 172796.74
 STEP:  66 TIME =     0.05 SECS, INTEGRAL =      3.29 TIME LEFT: 172796.70
 STEP:  67 TIME =     0.05 SECS, INTEGRAL =      3.34 TIME LEFT: 172796.65
 STEP:  68 TIME =     0.05 SECS, INTEGRAL =      3.39 TIME LEFT: 172796.60
 STEP:  69 TIME =     0.05 SECS, INTEGRAL =      3.44 TIME LEFT: 172796.55
 STEP:  70 TIME =     0.05 SECS, INTEGRAL =      3.48 TIME LEFT: 172796.50
 STEP:  71 TIME =     0.05 SECS, INTEGRAL =      3.53 TIME LEFT: 172796.45
 STEP:  72 TIME =     0.05 SECS, INTEGRAL =      3.58 TIME LEFT: 172796.40
 STEP:  73 TIME =     0.05 SECS, INTEGRAL =      3.63 TIME LEFT: 172796.35
 STEP:  74 TIME =     0.05 SECS, INTEGRAL =      3.68 TIME LEFT: 172796.30
 STEP:  75 TIME =     0.05 SECS, INTEGRAL =      3.73 TIME LEFT: 172796.25
 STEP:  76 TIME =     0.05 SECS, INTEGRAL =      3.78 TIME LEFT: 172796.20
 STEP:  77 TIME =     0.05 SECS, INTEGRAL =      3.83 TIME LEFT: 172796.15
 STEP:  78 TIME =     0.05 SECS, INTEGRAL =      3.88 TIME LEFT: 172796.10
 STEP:  79 TIME =     0.05 SECS, INTEGRAL =      3.93 TIME LEFT: 172796.05
 STEP:  80 TIME =     0.05 SECS, INTEGRAL =      3.98 TIME LEFT: 172796.01
 STEP:  81 TIME =     0.05 SECS, INTEGRAL =      4.03 TIME LEFT: 172795.96
 STEP:  82 TIME =     0.06 SECS, INTEGRAL =      4.08 TIME LEFT: 172795.90
 STEP:  83 TIME =     0.05 SECS, INTEGRAL =      4.14 TIME LEFT: 172795.85
 STEP:  84 TIME =     0.07 SECS, INTEGRAL =      4.20 TIME LEFT: 172795.78
 STEP:  85 TIME =     0.06 SECS, INTEGRAL =      4.26 TIME LEFT: 172795.72
 STEP:  86 TIME =     0.05 SECS, INTEGRAL =      4.32 TIME LEFT: 172795.67
 STEP:  87 TIME =     0.05 SECS, INTEGRAL =      4.36 TIME LEFT: 172795.62

(To convert to Hartree/Bohr^2, multiply by (10^(-21) x N x a0^2)/(4.184 x 627.51) = 0.0642)


           FORCE MATRIX IN MILLIDYNES/ANGSTROM


                  C  1       C  2       C  3       C  4       C  5       C  6
 ------------------------------------------------------------------------------
     C    1  14.365741
     C    2   3.157080  14.858594
     C    3   3.158251   1.784944  14.806256
     C    4   1.803306   3.442186   3.488229  14.326514
     C    5   0.008238   0.002218   0.138489   0.010595  14.703250
     C    6   4.643156   0.547303   0.544651   0.042143   0.000732  14.520931
     C    7   0.001059   0.000745   0.017774   0.002031   4.408676   0.000694
     C    8   0.547495   0.039779   5.078903   0.570842   0.823493   0.033445
     C    9   0.586399   5.056913   0.044670   0.590991   0.001102   0.033834
     C   10   0.053001   0.006018   0.826442   0.048351   4.978097   0.005875
     C   11   0.034479   0.855577   0.004650   0.036042   0.001032   0.005960
     H   12   4.384033   0.437062   0.436583   0.025120   0.001413   0.420399
     H   13   0.435944   4.386426   0.026551   0.426627   0.000219   0.032412
     H   14   0.442976   0.025898   4.357393   0.432344   0.016225   0.032547
     H   15   0.027636   0.453447   0.454327   4.651281   0.000921   0.001859
     H   16   0.031781   0.444351   0.439444   4.714866   0.001331   0.004192
     H   17   0.001502   0.000257   0.018752   0.001042   4.421277   0.000334
     H   18   0.000267   0.000353   0.003233   0.000449   4.440747   0.000289
     H   19   0.000244   0.000174   0.000625   0.000142   0.464172   0.000171
     H   20   0.000309   0.000223   0.002935   0.000396   0.449167   0.000379
     H   21   0.000330   0.000226   0.000701   0.000248   0.460930   0.000326
     H   22   0.469024   0.019918   0.020523   0.001814   0.000341   4.711157
     H   23   0.450912   0.011968   0.047293   0.003962   0.000436   4.750746
     H   24   0.450935   0.048103   0.012441   0.003513   0.000624   4.730856
     H   25   0.018710   0.436952   0.001621   0.018720   0.000453   0.001427
     H   26   0.016410   0.001597   0.083522   0.002902   0.429862   0.004734
     H   27   0.033381   0.002263   0.434178   0.030959   0.083415   0.004440
     H   28   0.016517   0.138559   0.001647   0.016615   0.000247   0.002093
     H   29   0.009823   0.099410   0.001267   0.009714   0.000223   0.001697


                  C  7       C  8       C  9       C 10       C 11       H 12
 ------------------------------------------------------------------------------
     C    7  14.351900
     C    8   0.040195  18.281208
     C    9   0.000546   0.006737  18.321818
     C   10   0.717773  10.677357   0.001812  18.187073
     C   11   0.000663   0.004164  11.070440   0.002643  18.040206
     H   12   0.000434   0.025339   0.037859   0.013850   0.003079   4.892508
     H   13   0.000237   0.001751   0.444794   0.000614   0.053225   0.028991
     H   14   0.001632   0.391287   0.002801   0.025054   0.000625   0.030049
     H   15   0.000330   0.027137   0.031351   0.003083   0.003295   0.002501
     H   16   0.000402   0.033130   0.031830   0.005339   0.004438   0.001038
     H   17   0.445391   0.032176   0.000205   0.408012   0.000541   0.000277
     H   18   0.434472   0.049784   0.000276   0.458913   0.000250   0.000422
     H   19   4.725786   0.001990   0.000439   0.027058   0.000329   0.000152
     H   20   4.750355   0.006793   0.000248   0.052276   0.000280   0.000187
     H   21   4.745433   0.002278   0.000432   0.015919   0.000287   0.000370
     H   22   0.000177   0.001357   0.000865   0.000767   0.000683   0.043893
     H   23   0.000289   0.005575   0.002370   0.000951   0.000688   0.029526
     H   24   0.000324   0.001662   0.006017   0.003014   0.000983   0.030767
     H   25   0.000301   0.002114   4.776814   0.001116   0.452994   0.020406
     H   26   0.025643   0.470626   0.001266   4.749776   0.000689   0.020954
     H   27   0.008534   4.758876   0.001571   0.470270   0.001092   0.002911
     H   28   0.000295   0.000717   0.460881   0.000639   5.106415   0.000975
     H   29   0.000283   0.000453   0.490754   0.000522   5.069860   0.000811


                  H 13       H 14       H 15       H 16       H 17       H 18
 ------------------------------------------------------------------------------
     H   13   4.888489
     H   14   0.002365   4.843804
     H   15   0.030773   0.032269   5.282699
     H   16   0.027340   0.026906   0.549437   5.331557
     H   17   0.000069   0.002651   0.000212   0.000077   5.019162
     H   18   0.000073   0.000678   0.000240   0.000083   0.565622   5.052056
     H   19   0.000120   0.000130   0.000102   0.000078   0.023964   0.047331
     H   20   0.000094   0.000232   0.000093   0.000124   0.028655   0.030180
     H   21   0.000078   0.000204   0.000118   0.000081   0.048710   0.024554
     H   22   0.021314   0.022093   0.000549   0.000675   0.000078   0.000073
     H   23   0.005149   0.002948   0.000434   0.000766   0.000146   0.000095
     H   24   0.002890   0.005127   0.000487   0.000730   0.000137   0.000205
     H   25   0.036816   0.000796   0.018801   0.001394   0.000187   0.000228
     H   26   0.000503   0.009433   0.000657   0.000642   0.017446   0.038631
     H   27   0.000629   0.014293   0.029192   0.001924   0.009751   0.030051
     H   28   0.002003   0.000290   0.001037   0.001839   0.000099   0.000141
     H   29   0.029710   0.000199   0.000780   0.001335   0.000087   0.000118


                  H 19       H 20       H 21       H 22       H 23       H 24
 ------------------------------------------------------------------------------
     H   19   5.470946
     H   20   0.572391   5.488050
     H   21   0.578046   0.573213   5.484315
     H   22   0.000107   0.000101   0.000093   5.450062
     H   23   0.000086   0.000106   0.000096   0.571022   5.473893
     H   24   0.000192   0.000101   0.000093   0.569498   0.564198   5.451067
     H   25   0.000154   0.000123   0.000177   0.000664   0.000463   0.000428
     H   26   0.019647   0.002027   0.002678   0.000799   0.000692   0.009251
     H   27   0.000603   0.001603   0.000515   0.000344   0.000944   0.000386
     H   28   0.000079   0.000086   0.000094   0.000155   0.000337   0.000378
     H   29   0.000150   0.000116   0.000091   0.000259   0.000321   0.000380


                  H 25       H 26       H 27       H 28       H 29
 ------------------------------------------------------------------
     H   25   5.147528
     H   26   0.000555   5.126760
     H   27   0.000933   0.103241   5.133793
     H   28   0.078340   0.000190   0.000215   5.494794
     H   29   0.117080   0.000282   0.000240   0.422679   5.466179


          HEAT OF FORMATION =      11.685831 KCALS/MOLE

          ZERO POINT ENERGY     162.631 KCAL/MOL


           NORMAL COORDINATE ANALYSIS (Total motion = 1 Angstrom)


   Root No.       1         2         3         4         5         6         7         8

                 1 A       2 A       3 A       4 A       5 A       6 A       7 A       8 A   

                  37.1      60.2      82.2      88.0     142.4     154.5     182.9     200.5
  
           1   -0.0053   -0.0044   -0.0119    0.0118    0.0039   -0.0027    0.0046    0.0039
           2    0.0045   -0.0025   -0.0088   -0.0091   -0.0137   -0.0015   -0.0038    0.0023
           3   -0.0193   -0.0090   -0.0140   -0.0136   -0.0006    0.0000   -0.0003    0.0006
           4   -0.0053   -0.0044   -0.0119    0.0123    0.0044   -0.0028    0.0052    0.0040
           5    0.0019   -0.0040   -0.0199    0.0109   -0.0023    0.0046    0.0023   -0.0022
           6    0.0036   -0.0077    0.0008   -0.0040   -0.0076    0.0119    0.0012   -0.0068
           7   -0.0032   -0.0034   -0.0011   -0.0085   -0.0080   -0.0086   -0.0019    0.0081
           8    0.0045   -0.0024   -0.0089   -0.0095   -0.0134   -0.0008   -0.0043    0.0013
           9   -0.0154   -0.0102    0.0048    0.0003    0.0176   -0.0083   -0.0005    0.0055
          10   -0.0036   -0.0023   -0.0018   -0.0081   -0.0061   -0.0094   -0.0022    0.0083
          11    0.0024   -0.0028   -0.0204    0.0098   -0.0020    0.0033    0.0026   -0.0016
          12   -0.0073   -0.0297    0.0141    0.0042   -0.0189    0.0215    0.0021   -0.0051
          13    0.0055    0.0347   -0.0013   -0.0007   -0.0117    0.0154   -0.0002   -0.0122
          14   -0.0122   -0.0049    0.0095    0.0060    0.0180    0.0099   -0.0008   -0.0078
          15    0.0012    0.0293   -0.0012    0.0056    0.0014    0.0152    0.0002   -0.0171
          16    0.0130   -0.0025   -0.0026    0.0349    0.0113    0.0196   -0.0018   -0.0167
          17    0.0093   -0.0016    0.0143   -0.0077    0.0000   -0.0203    0.0065    0.0163
          18   -0.0318   -0.0106   -0.0316   -0.0271   -0.0125   -0.0020   -0.0024    0.0045
          19    0.0520   -0.0331    0.0000   -0.0215    0.0104    0.0097    0.0002   -0.0007
          20   -0.0174   -0.0081    0.0232    0.0397    0.0006   -0.0065    0.0035    0.0073
          21    0.0233   -0.0137    0.0130    0.0266   -0.0031   -0.0043    0.0045    0.0042
          22   -0.0043    0.0138   -0.0012   -0.0125    0.0098   -0.0154   -0.0070    0.0025
          23    0.0020   -0.0045   -0.0108   -0.0150   -0.0330    0.0080   -0.0072   -0.0053
          24   -0.0143    0.0019    0.0057    0.0008    0.0407   -0.0180   -0.0023    0.0051
          25   -0.0263   -0.0091   -0.0175    0.0104    0.0114   -0.0032    0.0103    0.0028
          26    0.0106    0.0156   -0.0246    0.0077    0.0131   -0.0093    0.0055    0.0040
          27    0.0197    0.0064    0.0011   -0.0050   -0.0022    0.0037    0.0005   -0.0022
          28    0.0009    0.0181   -0.0034   -0.0036   -0.0264   -0.0156   -0.0080    0.0047
          29   -0.0063   -0.0026   -0.0034   -0.0236    0.0311    0.0184   -0.0047   -0.0192
          30   -0.0056    0.0172    0.0051    0.0213   -0.0169   -0.0111   -0.0029    0.0013
          31   -0.0316   -0.0040    0.0484   -0.0150   -0.0008    0.0040    0.0016    0.0000
          32    0.0027    0.0182    0.0392   -0.0168    0.0003   -0.0007   -0.0030    0.0000
          33    0.0437    0.0274    0.0044   -0.0078    0.0060   -0.0117   -0.0010    0.0096
          34   -0.0201   -0.0065   -0.0256    0.0100    0.0060   -0.0097    0.0039    0.0109
          35    0.0017   -0.0026   -0.0186   -0.0241   -0.0287    0.0039   -0.0049   -0.0015
          36   -0.0275   -0.0100   -0.0250   -0.0216   -0.0072   -0.0009   -0.0012    0.0023
          37    0.0092   -0.0022   -0.0065    0.0232    0.0045    0.0027    0.0089    0.0004
          38   -0.0068   -0.0202   -0.0158    0.0221   -0.0085    0.0166    0.0056   -0.0064
          39    0.0137   -0.0001    0.0016   -0.0036   -0.0050    0.0092    0.0016   -0.0062
          40    0.0007   -0.0169    0.0078   -0.0121   -0.0332    0.0056   -0.0026    0.0060
          41    0.0085   -0.0015    0.0043   -0.0076   -0.0053   -0.0075   -0.0083    0.0063
          42   -0.0150   -0.0042    0.0072    0.0024    0.0314   -0.0167   -0.0021    0.0083
          43   -0.0071    0.0111   -0.0047   -0.0157    0.0160   -0.0299   -0.0056    0.0157
          44    0.0090    0.0110   -0.0319    0.0106    0.0096   -0.0029    0.0040   -0.0027
          45   -0.0086   -0.0416    0.0203    0.0072   -0.0336    0.0334    0.0030   -0.0079
          46    0.0010   -0.0133    0.0070   -0.0127   -0.0315    0.0065   -0.0032    0.0030
          47   -0.0047   -0.0159   -0.0168    0.0209   -0.0055    0.0114    0.0056   -0.0021
          48   -0.0088   -0.0445    0.0218    0.0081   -0.0369    0.0364    0.0033   -0.0087
          49   -0.0193    0.0730   -0.0018    0.0104   -0.0211    0.0231    0.0009   -0.0193
          50   -0.0375    0.0506    0.0042    0.0072    0.0208    0.0422    0.0043   -0.0281
          51    0.0116    0.0363   -0.0077   -0.0134    0.0229    0.0467    0.0053   -0.0325
          52   -0.0020    0.0618   -0.0003    0.0057   -0.0060    0.0413    0.0072   -0.0230
          53    0.0103   -0.0559    0.0162    0.0092    0.0135   -0.0214   -0.0047    0.0129
          54   -0.0197    0.0641   -0.0114   -0.0067    0.0002    0.0250   -0.0036   -0.0310
          55    0.0588   -0.0577   -0.0005   -0.0277    0.0050   -0.0543   -0.0508   -0.1142
          56   -0.0392    0.0412    0.0164    0.0367    0.0050    0.0571    0.0436    0.0896
          57    0.0449   -0.0492    0.0234    0.0398   -0.0016   -0.0041    0.0199    0.0485
          58    0.0567   -0.0238    0.0008   -0.0204    0.0226    0.0791    0.0570    0.1285
          59   -0.0237   -0.0065    0.0343    0.0686   -0.0144   -0.0155    0.0106    0.0275
          60    0.0306   -0.0083    0.0065    0.0091    0.0149    0.0495    0.0392    0.0807
          61    0.0774   -0.0717    0.0005   -0.0336    0.0220    0.0002   -0.0048   -0.0062
          62    0.0066   -0.0615    0.0299    0.0413   -0.0031   -0.0746   -0.0403   -0.0825
          63    0.0116   -0.0173    0.0206    0.0485   -0.0269   -0.0747   -0.0423   -0.1003
          64    0.0268   -0.0005    0.0140    0.0326    0.0060    0.0080    0.1372   -0.0630
          65    0.0138   -0.0011    0.0236    0.0144    0.0228   -0.0059   -0.1289    0.0569
          66   -0.0240   -0.0096   -0.0207   -0.0187   -0.0050   -0.0008   -0.0019    0.0024
          67    0.0142   -0.0027   -0.0135    0.0613    0.0257    0.0575   -0.1802    0.0174
          68    0.0095   -0.0017    0.0128   -0.0035    0.0025   -0.0146   -0.0216    0.0220
          69   -0.0340   -0.0111   -0.0450   -0.0404   -0.0328   -0.0025    0.0916   -0.0337
          70    0.0129   -0.0024   -0.0009    0.0309    0.0091    0.0138    0.0260   -0.0222
          71    0.0082   -0.0014    0.0253   -0.0340   -0.0141   -0.0583    0.1854   -0.0179
          72   -0.0475   -0.0127   -0.0439   -0.0337   -0.0096   -0.0050   -0.0988    0.0485
          73   -0.0377   -0.0176   -0.0740    0.0290    0.0256   -0.0087    0.0218    0.0036
          74    0.0244    0.0285   -0.0788    0.0242    0.0353   -0.0289    0.0151    0.0142
          75    0.0109   -0.0010   -0.0013   -0.0038   -0.0044    0.0081    0.0015   -0.0051
          76    0.0025    0.0086   -0.0076    0.0003   -0.0657   -0.0308   -0.0123    0.0178
          77   -0.0104    0.0024   -0.0026   -0.0417    0.0938    0.0285   -0.0022   -0.0328
          78   -0.0004    0.0194    0.0087    0.0479   -0.0774   -0.0103   -0.0019    0.0096
          79   -0.0077    0.0228    0.0011   -0.0215    0.0508   -0.0103   -0.0075   -0.0089
          80    0.0073   -0.0085   -0.0122    0.0024   -0.0995    0.0050   -0.0082    0.0047
          81   -0.0191   -0.0015    0.0057   -0.0174    0.1052   -0.0179    0.0002    0.0010
          82   -0.0472   -0.0081    0.0512   -0.0189    0.0017    0.0064    0.0049   -0.0035
          83    0.0094    0.0330    0.0424   -0.0221    0.0109   -0.0133   -0.0009    0.0082
          84    0.0555    0.0380    0.0048   -0.0089    0.0107   -0.0202   -0.0015    0.0160
          85   -0.0209    0.0047    0.1049   -0.0341   -0.0146    0.0084   -0.0099    0.0007
          86   -0.0110    0.0059    0.0935   -0.0336   -0.0219    0.0196   -0.0130   -0.0116
          87    0.0530    0.0354    0.0068   -0.0092    0.0088   -0.0176   -0.0019    0.0142


   Root No.       9        10        11        12        13        14        15        16

                 9 A      10 A      11 A      12 A      13 A      14 A      15 A      16 A   

                 266.2     268.5     321.0     347.4     382.2     447.9     471.1     491.1
  
           1   -0.0136   -0.0079   -0.0113   -0.0147   -0.0134    0.0201    0.0128   -0.0002
           2   -0.0001   -0.0139    0.0119   -0.0085    0.0179   -0.0139   -0.0142    0.0234
           3    0.0124    0.0101    0.0136   -0.0148   -0.0127   -0.0266    0.0163   -0.0217
           4   -0.0151   -0.0054   -0.0147   -0.0144   -0.0134    0.0206    0.0022    0.0001
           5   -0.0088   -0.0173    0.0013    0.0027   -0.0145    0.0022   -0.0171   -0.0044
           6    0.0131    0.0153    0.0331   -0.0006   -0.0066    0.0163   -0.0292    0.0089
           7   -0.0062   -0.0070    0.0034   -0.0036    0.0140    0.0087    0.0266    0.0117
           8    0.0019   -0.0134    0.0095   -0.0061    0.0206   -0.0115   -0.0148    0.0192
           9    0.0070    0.0008   -0.0101    0.0042   -0.0090   -0.0167    0.0323   -0.0039
          10   -0.0050   -0.0084    0.0026   -0.0109    0.0159    0.0108    0.0334    0.0195
          11   -0.0080   -0.0163    0.0025   -0.0031   -0.0153    0.0003   -0.0256   -0.0012
          12   -0.0223    0.0043   -0.0099    0.0385    0.0057   -0.0024    0.0022   -0.0097
          13   -0.0209    0.0041    0.0214    0.0095   -0.0105   -0.0189   -0.0008   -0.0070
          14    0.0059    0.0053   -0.0201    0.0076   -0.0166    0.0005    0.0054    0.0321
          15   -0.0040    0.0062   -0.0129   -0.0141    0.0073    0.0124    0.0056    0.0084
          16    0.0289   -0.0105    0.0052   -0.0143    0.0029   -0.0229    0.0163   -0.0067
          17   -0.0059    0.0345    0.0121   -0.0203   -0.0159   -0.0087    0.0035   -0.0076
          18   -0.0086   -0.0165    0.0057   -0.0116   -0.0048   -0.0110    0.0090   -0.0030
          19   -0.0019    0.0025    0.0017    0.0127   -0.0159   -0.0133    0.0009    0.0100
          20   -0.0081   -0.0055    0.0114    0.0008    0.0007   -0.0056   -0.0014   -0.0014
          21   -0.0057   -0.0049    0.0041   -0.0222    0.0249    0.0166    0.0009   -0.0178
          22    0.0136   -0.0155    0.0039    0.0220    0.0029    0.0098   -0.0194   -0.0240
          23    0.0226    0.0122   -0.0218   -0.0097    0.0093   -0.0016    0.0045   -0.0253
          24    0.0100   -0.0211    0.0029    0.0175   -0.0017   -0.0126   -0.0094    0.0055
          25   -0.0031    0.0379   -0.0060    0.0003    0.0109   -0.0025   -0.0295    0.0052
          26   -0.0042    0.0120    0.0050    0.0278    0.0048    0.0072    0.0261   -0.0064
          27    0.0086    0.0116    0.0301    0.0035   -0.0081    0.0356    0.0002    0.0101
          28    0.0204   -0.0074   -0.0035    0.0233   -0.0037    0.0065   -0.0188   -0.0201
          29    0.0111    0.0060   -0.0262   -0.0102    0.0126    0.0262   -0.0010   -0.0191
          30    0.0211   -0.0019   -0.0234    0.0113   -0.0106    0.0064   -0.0063    0.0255
          31   -0.0004    0.0152   -0.0072   -0.0121    0.0069   -0.0077   -0.0304    0.0071
          32    0.0006   -0.0100    0.0096    0.0188   -0.0007    0.0074    0.0332   -0.0053
          33   -0.0161    0.0023   -0.0265   -0.0094    0.0056   -0.0148   -0.0190    0.0004
          34   -0.0284   -0.0148   -0.0303   -0.0159   -0.0264    0.0204    0.0262   -0.0133
          35   -0.0005   -0.0241    0.0252   -0.0127    0.0377   -0.0160   -0.0295    0.0394
          36    0.0043    0.0005    0.0108   -0.0170   -0.0095   -0.0266    0.0155   -0.0191
          37   -0.0236   -0.0138   -0.0195   -0.0065   -0.0251    0.0491   -0.0058    0.0015
          38   -0.0261   -0.0249   -0.0176    0.0174   -0.0237   -0.0006   -0.0349   -0.0183
          39    0.0148    0.0142    0.0369   -0.0025   -0.0083    0.0300   -0.0254    0.0146
          40   -0.0215    0.0007    0.0003    0.0052    0.0365    0.0141    0.0449    0.0245
          41   -0.0029   -0.0238    0.0127    0.0088    0.0368   -0.0126   -0.0200    0.0508
          42    0.0107   -0.0080   -0.0068    0.0084   -0.0095   -0.0191    0.0212    0.0060
          43    0.0182   -0.0115    0.0095   -0.0381    0.0142    0.0012    0.0625    0.0371
          44    0.0139   -0.0093    0.0287   -0.0336   -0.0346    0.0176   -0.0550    0.0134
          45   -0.0426    0.0028   -0.0248    0.0656    0.0154   -0.0058    0.0022   -0.0251
          46   -0.0201   -0.0057    0.0051    0.0159    0.0388    0.0151    0.0201    0.0165
          47   -0.0341   -0.0218   -0.0303    0.0266   -0.0183   -0.0092   -0.0121   -0.0292
          48   -0.0480    0.0026   -0.0288    0.0739    0.0182   -0.0059    0.0024   -0.0294
          49   -0.0362    0.0070    0.0352    0.0101   -0.0155   -0.0341    0.0037   -0.0040
          50   -0.0311    0.0177    0.0020   -0.0065   -0.0196   -0.0231    0.0269    0.0362
          51   -0.0277    0.0186   -0.0076   -0.0348    0.0113    0.0063    0.0284    0.0102
          52   -0.0563    0.0133    0.0459   -0.0048   -0.0128   -0.0429    0.0194   -0.0028
          53    0.0375   -0.0073   -0.0360    0.0208   -0.0139    0.0187   -0.0145    0.0288
          54   -0.0031    0.0115   -0.0206   -0.0145    0.0070    0.0165    0.0075    0.0066
          55   -0.0186    0.0172   -0.0058    0.0142   -0.0282   -0.0172    0.0069    0.0314
          56    0.0048   -0.0117    0.0104    0.0038    0.0013   -0.0050   -0.0039   -0.0039
          57   -0.0006   -0.0172    0.0169   -0.0292    0.0423    0.0216   -0.0043   -0.0462
          58    0.0222   -0.0141    0.0040    0.0127   -0.0052   -0.0082   -0.0049   -0.0054
          59   -0.0204   -0.0163    0.0421   -0.0098    0.0244   -0.0059   -0.0093   -0.0508
          60    0.0186   -0.0097   -0.0135   -0.0160    0.0180    0.0208    0.0019    0.0016
          61    0.0077    0.0035   -0.0118    0.0160   -0.0228   -0.0113    0.0033    0.0289
          62   -0.0216    0.0015    0.0116   -0.0022   -0.0005   -0.0061    0.0012    0.0020
          63   -0.0386    0.0024    0.0265   -0.0313    0.0343    0.0120    0.0004   -0.0435
          64    0.0649   -0.0163    0.0104   -0.0150    0.0075   -0.0582    0.0288   -0.0218
          65   -0.0089    0.0816    0.0218   -0.0309   -0.0371   -0.0131    0.0125   -0.0340
          66    0.0049    0.0007    0.0118   -0.0161   -0.0116   -0.0269    0.0177   -0.0200
          67    0.0353   -0.0094    0.0159   -0.0128    0.0218   -0.0440    0.0115    0.0040
          68   -0.0052    0.0357    0.0139   -0.0205   -0.0139   -0.0117    0.0028   -0.0067
          69    0.0032   -0.0721    0.0008    0.0011    0.0295   -0.0213   -0.0021    0.0312
          70    0.0285   -0.0107    0.0037   -0.0147    0.0002   -0.0209    0.0178   -0.0087
          71   -0.0114    0.0341    0.0023   -0.0231   -0.0355    0.0094    0.0101   -0.0203
          72   -0.0539   -0.0028   -0.0036   -0.0140   -0.0233    0.0377    0.0001    0.0044
          73    0.0088    0.1005    0.0165    0.0403    0.0486   -0.0054   -0.0326    0.0221
          74   -0.0092    0.0627   -0.0062    0.0650    0.0470   -0.0103    0.0491    0.0012
          75    0.0140    0.0173    0.0408    0.0055   -0.0081    0.0389   -0.0092    0.0134
          76    0.0440   -0.0032   -0.0194    0.0300   -0.0108    0.0008   -0.0126   -0.0305
          77   -0.0128   -0.0093    0.0002   -0.0162    0.0341    0.0339   -0.0208   -0.0391
          78    0.0331    0.0189   -0.0483    0.0133   -0.0384   -0.0015    0.0206    0.0704
          79    0.0106   -0.0239    0.0079    0.0264    0.0103    0.0287   -0.0467   -0.0438
          80    0.0396    0.0341   -0.0485   -0.0118   -0.0107   -0.0104    0.0382   -0.0092
          81   -0.0164   -0.0481    0.0429    0.0160    0.0233   -0.0188   -0.0346    0.0024
          82    0.0193    0.0567    0.0311    0.0266    0.0386    0.0099    0.0000    0.0313
          83   -0.0057    0.0221   -0.0149    0.0418    0.0465   -0.0419    0.0329    0.0050
          84   -0.0300   -0.0006   -0.0607   -0.0165    0.0165   -0.0529   -0.0364   -0.0061
          85   -0.0171   -0.0477   -0.0460   -0.0629   -0.0290   -0.0303   -0.0616   -0.0144
          86    0.0113   -0.0634    0.0380   -0.0131   -0.0536    0.0564    0.0423   -0.0145
          87   -0.0270   -0.0031   -0.0532   -0.0181    0.0111   -0.0430   -0.0354   -0.0051


   Root No.      17        18        19        20        21        22        23        24

                17 A      18 A      19 A      20 A      21 A      22 A      23 A      24 A   

                 583.3     651.4     732.7     819.9     878.6     888.4     915.4     926.4
  
           1   -0.0022    0.0262   -0.0258   -0.0019    0.0208    0.0088    0.0066    0.0010
           2   -0.0054   -0.0017   -0.0187   -0.0008   -0.0209    0.0177   -0.0041   -0.0016
           3   -0.0228   -0.0072    0.0180    0.0019   -0.0008   -0.0168    0.0002    0.0008
           4    0.0048    0.0078   -0.0200   -0.0021   -0.0150   -0.0059   -0.0124    0.0004
           5    0.0047    0.0039    0.0304    0.0024   -0.0002   -0.0052    0.0005   -0.0002
           6    0.0079   -0.0003    0.0234    0.0026    0.0163    0.0113    0.0080    0.0004
           7    0.0020   -0.0072    0.0289    0.0020   -0.0032   -0.0068    0.0025    0.0003
           8    0.0055   -0.0030   -0.0211   -0.0029    0.0229   -0.0168    0.0034    0.0006
           9    0.0475    0.0017    0.0091   -0.0105   -0.0107    0.0054   -0.0037    0.0011
          10   -0.0006   -0.0087    0.0329    0.0023   -0.0011   -0.0126    0.0073    0.0023
          11    0.0062    0.0199    0.0334    0.0034   -0.0107   -0.0154    0.0094    0.0002
          12   -0.0020   -0.0016    0.0089   -0.0042    0.0066    0.0221   -0.0184   -0.0020
          13    0.0112    0.0016   -0.0021   -0.0344   -0.0017    0.0007    0.0014   -0.0016
          14   -0.0134   -0.0028    0.0034    0.0038    0.0009   -0.0022    0.0021   -0.0015
          15   -0.0100   -0.0016    0.0042   -0.0158    0.0012   -0.0029    0.0009    0.0021
          16   -0.0177    0.0077   -0.0143   -0.0002    0.0144    0.0135    0.0071    0.0009
          17   -0.0223    0.0044   -0.0118    0.0000   -0.0146    0.0189   -0.0061   -0.0024
          18   -0.0212    0.0072   -0.0129    0.0006   -0.0007    0.0072   -0.0022   -0.0011
          19    0.0048    0.0001   -0.0034   -0.0105   -0.0003    0.0001    0.0048   -0.0073
          20    0.0035    0.0001   -0.0028   -0.0013    0.0037   -0.0039   -0.0020    0.0070
          21   -0.0020   -0.0001    0.0044    0.0012   -0.0018    0.0000    0.0046   -0.0031
          22   -0.0079    0.0018    0.0051    0.0160   -0.0094    0.0089    0.0117    0.0003
          23    0.0379    0.0043   -0.0199   -0.0073    0.0213   -0.0202   -0.0146   -0.0040
          24    0.0201    0.0016   -0.0187    0.0086    0.0014   -0.0028    0.0224    0.0061
          25    0.0076   -0.0451   -0.0040   -0.0002   -0.0043   -0.0039   -0.0010    0.0019
          26   -0.0025   -0.0451   -0.0025   -0.0003    0.0034    0.0032   -0.0007    0.0021
          27    0.0096    0.0016   -0.0226   -0.0009   -0.0120   -0.0099    0.0002   -0.0001
          28   -0.0088    0.0021    0.0029    0.0040    0.0000    0.0026   -0.0085    0.0142
          29   -0.0046    0.0026    0.0069    0.0040   -0.0106    0.0123    0.0072   -0.0269
          30   -0.0205   -0.0022   -0.0010   -0.0034    0.0071   -0.0044   -0.0141    0.0272
          31    0.0054    0.0038   -0.0002    0.0000   -0.0057   -0.0047   -0.0005    0.0003
          32   -0.0059    0.0022    0.0002   -0.0001    0.0066    0.0063    0.0002    0.0007
          33    0.0016    0.0002   -0.0032   -0.0005   -0.0138   -0.0126   -0.0048   -0.0007
          34   -0.0014    0.0427   -0.0485   -0.0046    0.0213   -0.0094   -0.0077   -0.0108
          35   -0.0350   -0.0145   -0.0267    0.0050   -0.0226    0.0120   -0.0032    0.0106
          36   -0.0358   -0.0040    0.0027    0.0033   -0.0016   -0.0253   -0.0057    0.0007
          37    0.0216    0.0433   -0.0414   -0.0066   -0.0063    0.0106   -0.0368   -0.0028
          38    0.0089    0.0319    0.0534    0.0003    0.0020    0.0059   -0.0349   -0.0044
          39    0.0139    0.0047    0.0039    0.0014    0.0174    0.0133    0.0109    0.0006
          40   -0.0083   -0.0277    0.0564   -0.0107    0.0168    0.0002   -0.0519   -0.0036
          41    0.0216   -0.0142   -0.0397   -0.0032    0.0196    0.0129    0.0109   -0.0007
          42    0.0577    0.0043   -0.0112   -0.0052   -0.0186    0.0151    0.0230    0.0021
          43    0.0546   -0.0073    0.0734   -0.0251    0.0061    0.0325   -0.0655   -0.0065
          44    0.0344    0.0413    0.0891   -0.0020    0.0231    0.0472   -0.0262   -0.0011
          45   -0.0405   -0.0129   -0.0350    0.0112   -0.0123   -0.0284    0.0321    0.0023
          46   -0.0548   -0.0295    0.0050    0.0281    0.0329   -0.0632    0.0824    0.0086
          47   -0.0130    0.0166   -0.0093    0.0084   -0.0828   -0.0728    0.0289    0.0005
          48   -0.0494   -0.0168   -0.0381    0.0156   -0.0177   -0.0462    0.0434    0.0024
          49    0.0264    0.0021   -0.0124    0.0532    0.0130   -0.0054   -0.0377    0.0486
          50    0.0241   -0.0019   -0.0111    0.1650    0.0098   -0.0028   -0.0140    0.0116
          51    0.0160   -0.0013    0.0022    0.0598   -0.0127    0.0076    0.0482   -0.0697
          52    0.0463    0.0022   -0.0149    0.0699    0.0009    0.0011    0.0091   -0.0167
          53   -0.0455   -0.0038    0.0146   -0.1430   -0.0041   -0.0054    0.0163   -0.0105
          54   -0.0078   -0.0008    0.0037    0.0601    0.0057    0.0005   -0.0290    0.0338
          55   -0.0010   -0.0020   -0.0031    0.0020    0.0076   -0.0093   -0.0019    0.0133
          56    0.0013    0.0004   -0.0003   -0.0774   -0.0030   -0.0043    0.0286   -0.0275
          57    0.0103    0.0025    0.0000    0.0994   -0.0031    0.0144   -0.0324    0.0199
          58    0.0089    0.0014   -0.0060    0.0337    0.0006    0.0055   -0.0147    0.0091
          59    0.0259    0.0054   -0.0072   -0.0129   -0.0132    0.0192    0.0067   -0.0326
          60   -0.0131   -0.0025    0.0056    0.0391    0.0089   -0.0102   -0.0136    0.0317
          61   -0.0018   -0.0021   -0.0060    0.0859    0.0159   -0.0088   -0.0392    0.0558
          62    0.0059   -0.0003   -0.0060    0.0807    0.0115   -0.0037   -0.0358    0.0458
          63    0.0120    0.0030    0.0042   -0.0473   -0.0174    0.0143    0.0315   -0.0540
          64   -0.0339   -0.0127    0.0129    0.0036   -0.0260   -0.0373   -0.0189   -0.0037
          65   -0.0449    0.0000    0.0129    0.0058    0.0214   -0.0432    0.0019    0.0023
          66   -0.0365   -0.0029    0.0083    0.0045   -0.0022   -0.0384   -0.0094   -0.0010
          67   -0.0190   -0.0089   -0.0122   -0.0015   -0.0661    0.0284   -0.0287   -0.0080
          68   -0.0235    0.0022   -0.0111    0.0001   -0.0247    0.0198   -0.0107   -0.0035
          69    0.0000    0.0031   -0.0415   -0.0060   -0.0818    0.0882   -0.0295   -0.0112
          70   -0.0188    0.0101   -0.0151    0.0001    0.0251    0.0115    0.0115    0.0019
          71   -0.0269    0.0220   -0.0173    0.0020    0.0648    0.0077    0.0283    0.0058
          72   -0.0094    0.0410   -0.0486   -0.0024    0.0858    0.0612    0.0425    0.0073
          73    0.0085    0.0109    0.0070    0.0004    0.0255    0.0345    0.0157   -0.0163
          74   -0.0108    0.0089   -0.0141   -0.0039    0.0041    0.0258   -0.0111   -0.0153
          75    0.0123    0.0038   -0.0138    0.0006   -0.0007   -0.0032    0.0101   -0.0009
          76    0.0249    0.0078   -0.0106    0.0568    0.0013    0.0047    0.0149   -0.1297
          77   -0.0249    0.0016    0.0064   -0.0527    0.0010    0.0015   -0.0231    0.2100
          78   -0.0218   -0.0068    0.0140    0.0335   -0.0133    0.0105    0.0106   -0.2080
          79   -0.0458    0.0033    0.0066    0.0128    0.0096    0.0053   -0.0598   -0.0805
          80    0.0747    0.0063   -0.0104    0.0168   -0.0410    0.0314    0.0932    0.1276
          81    0.0009   -0.0034   -0.0359   -0.0275    0.0841   -0.0846   -0.0761   -0.1222
          82    0.0007    0.2276   -0.0181   -0.0012   -0.0642   -0.0623   -0.0191   -0.0021
          83   -0.0234    0.2122    0.0536    0.0047    0.0456    0.0314    0.0158    0.0025
          84   -0.0058    0.0052    0.0376    0.0030    0.0394    0.0318    0.0144    0.0015
          85    0.0073   -0.1422    0.0250    0.0019    0.0523    0.0526    0.0220   -0.0089
          86    0.0067   -0.1330   -0.0485   -0.0048   -0.0322   -0.0174   -0.0158   -0.0123
          87   -0.0026   -0.0082    0.0264    0.0021    0.0257    0.0207    0.0108    0.0005


   Root No.      25        26        27        28        29        30        31        32

                25 A      26 A      27 A      28 A      29 A      30 A      31 A      32 A   

                 933.1     948.7     962.4     969.9     999.3    1028.7    1031.1    1048.4
  
           1    0.0045   -0.0045    0.0040   -0.0003    0.0012   -0.0076    0.0010   -0.0085
           2   -0.0027   -0.0057   -0.0025    0.0004    0.0009    0.0029    0.0020    0.0154
           3    0.0005    0.0004   -0.0010    0.0007   -0.0033    0.0029   -0.0001   -0.0041
           4   -0.0133    0.0125   -0.0201    0.0067    0.0000    0.0054   -0.0006    0.0002
           5   -0.0080    0.0010   -0.0061    0.0038   -0.0115    0.0116   -0.0017    0.0249
           6   -0.0088   -0.0057   -0.0069    0.0023   -0.0009    0.0022   -0.0014    0.0040
           7    0.0060    0.0024    0.0049   -0.0054    0.0133   -0.0063   -0.0040   -0.0308
[...]
 T-DIPOLE    0.1296        C  1 --  C  3          +10.1% ( 54.5%)    52.9%
 TRAVEL      0.0669        C  3 --  C  8           +8.7% ( 50.5%)    94.5%
 RED. MASS   1.5398        C  1 --  C  2           +7.9% ( 48.3%)    53.1%
 EFF. MASS  10.1990

 VIBRATION   62   62A       ATOM PAIR        ENERGY CONTRIBUTION    RADIAL
 FREQ.      1863.58        C  9 --  C 11          +44.8% ( 99.0%)    98.8%
 T-DIPOLE    0.1590        C  2 --  C  9          +17.0% ( 61.0%)    55.8%
 TRAVEL      0.0554        C  9 --  H 25          +15.5% ( 58.2%)     3.8%
 RED. MASS   5.2766        C 11 --  H 29          +10.7% ( 48.5%)    10.8%
 EFF. MASS  11.7917        C 11 --  H 28          +10.5% ( 48.0%)    12.9%

 VIBRATION   63   63A       ATOM PAIR        ENERGY CONTRIBUTION    RADIAL
 FREQ.      1889.73        C  8 --  C 10          +43.5% ( 97.5%)    96.3%
 T-DIPOLE    0.0647        C  3 --  C  8          +14.4% ( 56.1%)    56.5%
 TRAVEL      0.0549        C  5 --  C 10          +14.1% ( 55.5%)    55.1%
 RED. MASS   5.3651        C  8 --  H 27          +13.2% ( 53.8%)     3.5%
 EFF. MASS  11.8193        C 10 --  H 26          +13.2% ( 53.6%)     3.5%

 VIBRATION   64   64A       ATOM PAIR        ENERGY CONTRIBUTION    RADIAL
 FREQ.      2928.56        C  3 --  H 14          +87.1% ( 95.4%)   100.0%
 T-DIPOLE    0.0879        C  1 --  H 12           +8.4% ( 29.5%)   100.0%
 TRAVEL      0.1262        C  1 --  C  3           +1.1% ( 10.7%)    16.2%
 RED. MASS   0.7771        C  3 --  C  4           +0.9% (  9.9%)    14.0%
 EFF. MASS   1.4447

 VIBRATION   65   65A       ATOM PAIR        ENERGY CONTRIBUTION    RADIAL
 FREQ.      2936.45        C  2 --  H 13          +62.3% ( 80.8%)   100.0%
 T-DIPOLE    0.0643        C  1 --  H 12          +29.4% ( 55.5%)   100.0%
 TRAVEL      0.1259        C  3 --  H 14           +3.6% ( 19.4%)   100.0%
 RED. MASS   0.4843        C  1 --  C  2           +1.1% ( 11.0%)    16.3%
 EFF. MASS   1.4496

 VIBRATION   66   66A       ATOM PAIR        ENERGY CONTRIBUTION    RADIAL
 FREQ.      2943.73        C  1 --  H 12          +57.8% ( 77.6%)   100.0%
 T-DIPOLE    0.1553        C  2 --  H 13          +32.8% ( 58.4%)   100.0%
 TRAVEL      0.1260        C  3 --  H 14           +4.7% ( 22.0%)    99.9%
 RED. MASS   0.4495        C  1 --  C  2           +0.9% (  9.6%)     1.7%
 EFF. MASS   1.4430

 VIBRATION   67   67A       ATOM PAIR        ENERGY CONTRIBUTION    RADIAL
 FREQ.      2944.90        C  5 --  H 17          +52.1% ( 75.0%)    96.8%
 T-DIPOLE    0.0221        C  5 --  H 18          +45.0% ( 69.7%)    96.1%
 TRAVEL      0.1218        C  5 --  C  7           +1.2% ( 11.2%)     0.0%
 RED. MASS   0.5152        C  5 --  C 10           +1.2% ( 11.1%)     0.2%
 EFF. MASS   1.5437

 VIBRATION   68   68A       ATOM PAIR        ENERGY CONTRIBUTION    RADIAL
 FREQ.      3024.11        C  5 --  H 18          +49.4% ( 69.4%)    98.0%
 T-DIPOLE    0.0449        C  5 --  H 17          +44.0% ( 65.5%)    97.4%
 TRAVEL      0.1313        C 10 --  H 26           +3.9% ( 19.5%)    99.9%
 RED. MASS   0.4394        C  8 --  H 27           +0.8% (  8.8%)    99.6%
 EFF. MASS   1.2936

 VIBRATION   69   69A       ATOM PAIR        ENERGY CONTRIBUTION    RADIAL
 FREQ.      3031.88        C 10 --  H 26          +81.0% ( 91.0%)   100.0%
 T-DIPOLE    0.3237        C  8 --  H 27          +12.8% ( 36.2%)   100.0%
 TRAVEL      0.1237        C  5 --  H 18           +1.7% ( 13.2%)    99.3%
 RED. MASS   0.6537        C  4 --  H 15           +1.1% ( 10.7%)    98.3%
 EFF. MASS   1.4532

 VIBRATION   70   70A       ATOM PAIR        ENERGY CONTRIBUTION    RADIAL
 FREQ.      3033.92        C  8 --  H 27          +42.8% ( 67.2%)   100.0%
 T-DIPOLE    0.1260        C  4 --  H 15          +26.2% ( 52.6%)    98.1%
 TRAVEL      0.1193        C  4 --  H 16          +15.1% ( 39.9%)    94.8%
 RED. MASS   0.2975        C 10 --  H 26          +10.7% ( 33.6%)    99.8%
 EFF. MASS   1.5616

 VIBRATION   71   71A       ATOM PAIR        ENERGY CONTRIBUTION    RADIAL
 FREQ.      3034.92        C  8 --  H 27          +38.6% ( 64.0%)   100.0%
 T-DIPOLE    0.1197        C  4 --  H 15          +33.9% ( 59.9%)    97.9%
 TRAVEL      0.1202        C  4 --  H 16          +21.7% ( 47.9%)    95.3%
 RED. MASS   0.3273        C 10 --  H 26           +1.7% ( 13.3%)    99.4%
 EFF. MASS   1.5366

 VIBRATION   72   72A       ATOM PAIR        ENERGY CONTRIBUTION    RADIAL
 FREQ.      3038.30        C  9 --  H 25          +96.2% ( 99.5%)   100.0%
 T-DIPOLE    0.2436        C  9 --  C 11           +1.4% ( 12.1%)    31.1%
 TRAVEL      0.1215        C  2 --  C  9           +1.3% ( 11.8%)    14.6%
 RED. MASS   0.9105        C 11 --  H 28           +0.9% (  9.4%)    95.1%
 EFF. MASS   1.5039

 VIBRATION   73   73A       ATOM PAIR        ENERGY CONTRIBUTION    RADIAL
 FREQ.      3075.46        C  6 --  H 22          +62.3% ( 81.5%)    98.6%
 T-DIPOLE    0.0087        C  6 --  H 24          +30.8% ( 57.2%)    92.9%
 TRAVEL      0.1207        C  6 --  H 23           +5.7% ( 24.6%)    58.0%
 RED. MASS   0.5153        C  1 --  C  6           +1.0% ( 10.4%)     0.0%
 EFF. MASS   1.5053

 VIBRATION   74   74A       ATOM PAIR        ENERGY CONTRIBUTION    RADIAL
 FREQ.      3081.24        C  7 --  H 19          +63.2% ( 82.0%)    98.6%
 T-DIPOLE    0.0091        C  7 --  H 21          +30.1% ( 56.6%)    92.8%
 TRAVEL      0.1207        C  7 --  H 20           +5.5% ( 24.1%)    57.5%
 RED. MASS   0.5204        C  5 --  C  7           +1.0% ( 10.2%)     0.0%
 EFF. MASS   1.5012

 VIBRATION   75   75A       ATOM PAIR        ENERGY CONTRIBUTION    RADIAL
 FREQ.      3082.43        C  6 --  H 23          +57.1% ( 77.9%)    98.3%
 T-DIPOLE    0.0238        C  6 --  H 24          +36.6% ( 62.4%)    94.5%
 TRAVEL      0.1205        C  6 --  H 22           +5.3% ( 23.8%)    54.8%
 RED. MASS   0.4922        C  1 --  C  6           +1.0% ( 10.4%)     0.0%
 EFF. MASS   1.5078

 VIBRATION   76   76A       ATOM PAIR        ENERGY CONTRIBUTION    RADIAL
 FREQ.      3085.97        C  7 --  H 20          +59.2% ( 79.4%)    98.4%
 T-DIPOLE    0.0106        C  7 --  H 21          +34.8% ( 60.9%)    94.1%
 TRAVEL      0.1205        C  7 --  H 19           +4.6% ( 22.1%)    51.3%
 RED. MASS   0.5019        C  5 --  C  7           +1.0% ( 10.3%)     0.1%
 EFF. MASS   1.5041

 VIBRATION   77   77A       ATOM PAIR        ENERGY CONTRIBUTION    RADIAL
 FREQ.      3101.12        C  4 --  H 16          +61.7% ( 78.0%)    98.5%
 T-DIPOLE    0.0784        C  4 --  H 15          +36.2% ( 59.7%)    94.8%
 TRAVEL      0.1300        C  1 --  C  4           +0.7% (  8.3%)    98.0%
 RED. MASS   0.5120        C  2 --  C  4           +0.7% (  8.2%)    47.6%
 EFF. MASS   1.2865

 VIBRATION   78   78A       ATOM PAIR        ENERGY CONTRIBUTION    RADIAL
 FREQ.      3134.82        C 11 --  H 29          +90.8% ( 97.1%)    99.9%
 T-DIPOLE    0.1956        C 11 --  H 28           +7.8% ( 28.4%)    74.2%
 TRAVEL      0.1181        C  9 --  C 11           +1.3% ( 11.7%)    20.6%
 RED. MASS   0.8400
 EFF. MASS   1.5421

 VIBRATION   79   79A       ATOM PAIR        ENERGY CONTRIBUTION    RADIAL
 FREQ.      3146.98        C 11 --  H 28          +90.9% ( 95.9%)    99.6%
 T-DIPOLE    0.2582        C 11 --  H 29           +6.7% ( 26.1%)    47.2%
 TRAVEL      0.1211        C  9 --  C 11           +1.6% ( 12.7%)    74.9%
 RED. MASS   0.8042        C  9 --  H 25           +0.7% (  8.6%)    94.4%
 EFF. MASS   1.4617

 VIBRATION   80   80A       ATOM PAIR        ENERGY CONTRIBUTION    RADIAL
 FREQ.      3175.12        C  6 --  H 23          +36.9% ( 58.5%)    97.6%
 T-DIPOLE    0.0321        C  6 --  H 24          +31.6% ( 54.1%)    96.8%
 TRAVEL      0.1367        C  6 --  H 22          +31.2% ( 53.8%)    96.7%
 RED. MASS   0.3287        C  1 --  C  6           +0.3% (  5.2%)    99.4%
 EFF. MASS   1.1370

 VIBRATION   81   81A       ATOM PAIR        ENERGY CONTRIBUTION    RADIAL
 FREQ.      3183.02        C  7 --  H 20          +34.4% ( 56.4%)    97.3%
 T-DIPOLE    0.0183        C  7 --  H 21          +34.3% ( 56.4%)    97.3%
 TRAVEL      0.1366        C  7 --  H 19          +31.0% ( 53.5%)    96.7%
 RED. MASS   0.3276        C  5 --  C  7           +0.3% (  5.1%)    99.8%
 EFF. MASS   1.1360

 SYMMETRY NUMBER FOR POINT-GROUP C1  =  1


          SYSTEM IS A GROUND STATE


    NULL



          MOLECULE IS NOT LINEAR

          THERE ARE 81 GENUINE VIBRATIONS IN THIS SYSTEM
          THIS THERMODYNAMICS CALCULATION IS LIMITED TO
          MOLECULES WHICH HAVE NO INTERNAL ROTATIONS




                    CALCULATED THERMODYNAMIC PROPERTIES
                                          *
   TEMP. (K)   PARTITION FUNCTION   H.O.F.    ENTHALPY  HEAT CAPACITY ENTROPY
                                   KCAL/MOL   CAL/MOLE    CAL/K/MOL  CAL/K/MOL


 298.00  VIB.     0.1563D+05                  6153.3496    41.1580    39.8396
         ROT.     0.1343D+07                   888.2813     2.9808    31.0206
         INT.     0.2099D+11                  7041.6309    44.1388    70.8603
         TRA.     0.1781D+28                  1480.4688     4.9680    40.9296
         TOT.                       11.686    8522.0997    49.1068   111.7899

 200.00  VIB.     0.4998D+03                  2833.5761    27.0988    26.5168
         ROT.     0.7382D+06                   596.1620     2.9808    29.8320
         INT.     0.3690D+09                  3429.7380    30.0796    56.3488
         TRA.     0.9791D+27                   993.6033     4.9680    38.9485
         TOT.                        7.587    4423.3413    35.0477    95.2973

 210.00  VIB.     0.7133D+03                  3110.9474    28.3816    27.8699
         ROT.     0.7943D+06                   625.9700     2.9808    29.9774
         INT.     0.5666D+09                  3736.9175    31.3624    57.8473
         TRA.     0.1053D+28                  1043.2834     4.9680    39.1909
         TOT.                        7.944    4780.2009    36.3304    97.0381

 220.00  VIB.     0.1017D+04                  3401.3333    29.7020    29.2205
         ROT.     0.8517D+06                   655.7781     2.9808    30.1161
         INT.     0.8658D+09                  4057.1115    32.6828    59.3366
         TRA.     0.1130D+28                  1092.9636     4.9680    39.4220
         TOT.                        8.314    5150.0751    37.6508    98.7586

 230.00  VIB.     0.1447D+04                  3705.1158    31.0609    30.5707
         ROT.     0.9104D+06                   685.5862     2.9808    30.2486
         INT.     0.1317D+10                  4390.7020    34.0417    60.8192
         TRA.     0.1207D+28                  1142.6437     4.9680    39.6428
         TOT.                        8.697    5533.3458    39.0097   100.4620

 240.00  VIB.     0.2057D+04                  4022.6766    32.4575    31.9220
         ROT.     0.9704D+06                   715.3943     2.9808    30.3754
         INT.     0.1997D+10                  4738.0710    35.4383    62.2974
         TRA.     0.1287D+28                  1192.3239     4.9680    39.8543
         TOT.                        9.094    5930.3949    40.4063   102.1517

 250.00  VIB.     0.2923D+04                  4354.3846    33.8899    33.2759
         ROT.     0.1032D+07                   745.2024     2.9808    30.4971
         INT.     0.3015D+10                  5099.5870    36.8707    63.7730
         TRA.     0.1368D+28                  1242.0041     4.9680    40.0571
         TOT.                        9.505    6341.5911    41.8387   103.8300

 260.00  VIB.     0.4148D+04                  4700.5846    35.3553    34.6335
         ROT.     0.1094D+07                   775.0105     2.9808    30.6140
         INT.     0.4539D+10                  5475.5952    38.3362    65.2475
         TRA.     0.1451D+28                  1291.6842     4.9680    40.2519
         TOT.                        9.931    6767.2794    43.3042   105.4994

 270.00  VIB.     0.5885D+04                  5061.5898    36.8503    35.9958
         ROT.     0.1158D+07                   804.8186     2.9808    30.7265
         INT.     0.6814D+10                  5866.4084    39.8311    66.7223
         TRA.     0.1536D+28                  1341.3644     4.9680    40.4394
         TOT.                       10.372    7207.7728    44.7991   107.1617

 280.00  VIB.     0.8344D+04                  5437.6752    38.3707    37.3633
         ROT.     0.1223D+07                   834.6267     2.9808    30.8349
         INT.     0.1020D+11                  6272.3019    41.3515    68.1983
         TRA.     0.1622D+28                  1391.0445     4.9680    40.6201
         TOT.                       10.827    7663.3465    46.3195   108.8183

 290.00  VIB.     0.1183D+05                  5829.0747    39.9124    38.7366
         ROT.     0.1289D+07                   864.4348     2.9808    30.9395
         INT.     0.1525D+11                  6693.5095    42.8932    69.6762
         TRA.     0.1710D+28                  1440.7247     4.9680    40.7944
         TOT.                       11.298    8134.2342    47.8612   110.4706

 300.00  VIB.     0.1676D+05                  6235.9782    41.4708    40.1160
         ROT.     0.1356D+07                   894.2429     2.9808    31.0406
         INT.     0.2273D+11                  7130.2212    44.4516    71.1565
         TRA.     0.1799D+28                  1490.4049     4.9680    40.9628
         TOT.                       11.784    8620.6260    49.4196   112.1194

 310.00  VIB.     0.2376D+05                  6658.5318    43.0416    41.5014
         ROT.     0.1425D+07                   924.0510     2.9808    31.1383
         INT.     0.3384D+11                  7582.5828    46.0224    72.6397
         TRA.     0.1889D+28                  1540.0850     4.9680    41.1257
         TOT.                       12.286    9122.6678    50.9904   113.7654

 320.00  VIB.     0.3367D+05                  7096.8377    44.6206    42.8928
         ROT.     0.1494D+07                   953.8591     2.9808    31.2330
         INT.     0.5030D+11                  8050.6968    47.6014    74.1258
         TRA.     0.1982D+28                  1589.7652     4.9680    41.2835
         TOT.                       12.804    9640.4620    52.5694   115.4092

 330.00  VIB.     0.4772D+05                  7550.9561    46.2035    44.2901
         ROT.     0.1565D+07                   983.6672     2.9808    31.3247
         INT.     0.7467D+11                  8534.6234    49.1843    75.6148
         TRA.     0.2075D+28                  1639.4454     4.9680    41.4364
         TOT.                       13.338   10174.0687    54.1523   117.0511

 340.00  VIB.     0.6765D+05                  8020.9077    47.7865    45.6929
         ROT.     0.1636D+07                  1013.4753     2.9808    31.4137
         INT.     0.1107D+12                  9034.3830    50.7674    77.1066
         TRA.     0.2170D+28                  1689.1255     4.9680    41.5847
         TOT.                       13.887   10723.5085    55.7354   118.6912

 350.00  VIB.     0.9594D+05                  8506.6756    49.3662    47.1009
         ROT.     0.1709D+07                  1043.2834     2.9808    31.5001
         INT.     0.1640D+12                  9549.9590    52.3470    78.6010
         TRA.     0.2267D+28                  1738.8057     4.9680    41.7287
         TOT.                       14.452   11288.7647    57.3150   120.3297

 360.00  VIB.     0.1361D+06                  9008.2090    50.9391    48.5137
         ROT.     0.1783D+07                  1073.0915     2.9808    31.5840
         INT.     0.2426D+12                 10081.3005    53.9199    80.0977
         TRA.     0.2364D+28                  1788.4859     4.9680    41.8686
         TOT.                       15.034   11869.7864    58.8880   121.9663

 370.00  VIB.     0.1931D+06                  9525.4263    52.5025    49.9307
         ROT.     0.1858D+07                  1102.8996     2.9808    31.6657
         INT.     0.3587D+12                 10628.3259    55.4833    81.5964
         TRA.     0.2464D+28                  1838.1660     4.9680    42.0047
         TOT.                       15.630   12466.4919    60.4513   123.6012

 380.00  VIB.     0.2741D+06                 10058.2179    54.0536    51.3515
         ROT.     0.1933D+07                  1132.7077     2.9808    31.7452
         INT.     0.5300D+12                 11190.9256    57.0344    83.0967
         TRA.     0.2564D+28                  1887.8462     4.9680    42.1372
         TOT.                       16.243   13078.7718    62.0024   125.2339

 390.00  VIB.     0.3893D+06                 10606.4501    55.5902    52.7754
         ROT.     0.2010D+07                  1162.5158     2.9808    31.8226
         INT.     0.7825D+12                 11768.9659    58.5710    84.5981
         TRA.     0.2666D+28                  1937.5263     4.9680    42.2663
         TOT.                       16.870   13706.4922    63.5391   126.8644

 400.00  VIB.     0.5530D+06                 11169.9677    57.1104    54.2021
         ROT.     0.2088D+07                  1192.3239     2.9808    31.8981
         INT.     0.1155D+13                 12362.2916    60.0912    86.1002
         TRA.     0.2769D+28                  1987.2065     4.9680    42.3921
         TOT.                       17.513   14349.4981    65.0592   128.4922

   *: NOTE: HEATS OF FORMATION ARE RELATIVE TO THE
            ELEMENTS IN THEIR STANDARD STATE AT 298K
              (=  Standard Enthalpy of Formation).

            Hvib:  Zero-point energy is not included.
                   frequencies of less than zero cm-1 are not included.
            Hrot = (3/2)RT
            Htra = (3/2)RT + pV = (5/2)RT

            Heat capacity is Cp, not Cv

           For more information, see: HTTP://OpenMOPAC.net/Manual/thermochemistry.html


           FORCE CONSTANT IN CARTESIAN COORDINATES (Millidynes/A)

    ATOM   CHEMICAL       X               Y               Z
   NUMBER   SYMBOL  FORCE CONSTANT  FORCE CONSTANT  FORCE CONSTANT

      1       C        7.820065        7.744185        8.905426
      2       C        7.785815        8.089401        9.287282
      3       C        8.401312        7.889665        8.904907
      4       C        7.878726        7.852979        8.634251
      5       C        8.380964        8.451126        8.605703
      6       C        8.370954        8.406431        8.371860
      7       C        8.261029        8.223874        8.370884
      8       C       13.494487        6.769388        7.116144
      9       C        8.891706        9.269407        9.220165
     10       C       13.353972        6.720181        7.137924
     11       C        8.531117        8.933692        9.049809
     12       H        1.364742        1.338070        3.547950
     13       H        1.361864        1.204539        3.683143
     14       H        1.170200        1.335203        3.606331
     15       H        1.322086        1.308710        3.990879
     16       H        1.648006        1.632267        3.356038
     17       H        2.995975        1.899536        1.384255
     18       H        2.324421        2.350022        1.725537
     19       H        2.542782        2.524743        1.718260
     20       H        1.849604        1.818559        3.125230
     21       H        3.217348        2.044689        1.521831
     22       H        1.348536        1.371526        4.047276
     23       H        0.787682        5.262002        0.701281
     24       H        5.235152        0.791037        0.699678
     25       H        1.010454        0.949437        4.251953
     26       H        1.750060        2.980187        1.468957
     27       H        1.793470        2.957548        1.453799
     28       H        1.284407        1.481331        3.716563
     29       H        1.093437        1.023436        4.351448



 TOTAL CPU TIME:             7.09 SECONDS

 == MOPAC DONE ==
