 *******************************************************************************
 ** Site#: 14399           For non-commercial use only        Version 13.159M **
 *******************************************************************************
 ** Cite this work as: MOPAC2012, James J. P. Stewart, Stewart Computational  **
 ** Chemistry, Version 13.159M web: HTTP://OpenMOPAC.net  Days remaining:   6 **
 *******************************************************************************
 **                                                                           **
 **                                MOPAC2012                                  **
 **                                                                           **
 *******************************************************************************

                            PM3 CALCULATION RESULTS


 *******************************************************************************
 *  CALCULATION DONE:                                Mon Jun  2 14:11:00 2014  *
 *  PM3      - The PM3 Hamiltonian to be used
 *  PRECISE  - CRITERIA TO BE INCREASED BY 100 TIMES
 *  NOSYM    - POINT-GROUP SYMMETRY SET TO C1
 *  T=       - A TIME OF 172800.0 SECONDS REQUESTED
 *  DUMP=N   - RESTART FILE WRITTEN EVERY  7200.000 SECONDS
 *******************************************************************************
pm3  precise nosym
 InChI=1S/C6H10O/c1-3-5-6(4-2)7-5/h3,5-6H,1,4H2,2H3

   ATOM   CHEMICAL          X               Y               Z
  NUMBER   SYMBOL      (ANGSTROMS)     (ANGSTROMS)     (ANGSTROMS)
 
     1       C         -0.36110000  *   0.07450000  *   0.72080000  *
     2       C          0.85470000  *  -0.29390000  *   0.02050000  *
     3       C         -1.63430000  *  -0.70780000  *   0.40750000  *
     4       C         -2.48250000  *   0.02220000  *  -0.62500000  *
     5       C          1.91940000  *   0.75860000  *  -0.04100000  *
     6       C          3.20340000  *   0.46950000  *   0.17830000  *
     7       O          0.72670000  *  -0.82790000  *   1.30110000  *
     8       H         -0.42510000  *   1.04360000  *   1.26810000  *
     9       H         -2.21860000  *  -0.81400000  *   1.34990000  *
    10       H         -1.42100000  *  -1.73940000  *   0.04050000  *
    11       H          0.83160000  *  -1.08140000  *  -0.76710000  *
    12       H         -2.76750000  *   1.03590000  *  -0.26120000  *
    13       H         -1.92970000  *   0.12340000  *  -1.58700000  *
    14       H         -3.41700000  *  -0.55110000  *  -0.82010000  *
    15       H          1.64100000  *   1.77940000  *  -0.30000000  *
    16       H          3.52200000  *  -0.54250000  *   0.42390000  *
    17       H          3.95800000  *   1.25090000  *   0.11320000  *
 


          CARTESIAN COORDINATES 

    NO.       ATOM         X         Y         Z

     1         C       -0.3611    0.0745    0.7208
     2         C        0.8547   -0.2939    0.0205
     3         C       -1.6343   -0.7078    0.4075
     4         C       -2.4825    0.0222   -0.6250
     5         C        1.9194    0.7586   -0.0410
     6         C        3.2034    0.4695    0.1783
     7         O        0.7267   -0.8279    1.3011
     8         H       -0.4251    1.0436    1.2681
     9         H       -2.2186   -0.8140    1.3499
    10         H       -1.4210   -1.7394    0.0405
    11         H        0.8316   -1.0814   -0.7671
    12         H       -2.7675    1.0359   -0.2612
    13         H       -1.9297    0.1234   -1.5870
    14         H       -3.4170   -0.5511   -0.8201
    15         H        1.6410    1.7794   -0.3000
    16         H        3.5220   -0.5425    0.4239
    17         H        3.9580    1.2509    0.1132

  H: (PM3): J. J. P. STEWART, J. COMP. CHEM. 10, 209 (1989).
  C: (PM3): J. J. P. STEWART, J. COMP. CHEM. 10, 209 (1989).
  O: (PM3): J. J. P. STEWART, J. COMP. CHEM. 10, 209 (1989).

           Empirical Formula: C6 H10 O  =    17 atoms



      MOLECULAR POINT GROUP   :   C1  


      RHF CALCULATION, NO. OF DOUBLY OCCUPIED LEVELS =   20

      Geometry optimization using EF

          DIAGONAL MATRIX USED AS START HESSIAN

 CYCLE:     1 TIME:   0.007 TIME LEFT:  2.00D  GRAD.:   105.232 HEAT: 4.284270
 CYCLE:     2 TIME:   0.010 TIME LEFT:  2.00D  GRAD.:   100.243 HEAT:0.9882090
 CYCLE:     3 TIME:   0.004 TIME LEFT:  2.00D  GRAD.:   100.403 HEAT:0.4804282
 CYCLE:     4 TIME:   0.004 TIME LEFT:  2.00D  GRAD.:    81.466 HEAT:-.6237945
 CYCLE:     5 TIME:   0.007 TIME LEFT:  2.00D  GRAD.:    52.733 HEAT:-1.980632
 CYCLE:     6 TIME:   0.007 TIME LEFT:  2.00D  GRAD.:    39.690 HEAT:-2.320719
 CYCLE:     7 TIME:   0.004 TIME LEFT:  2.00D  GRAD.:    26.924 HEAT:-2.571621
 CYCLE:     8 TIME:   0.004 TIME LEFT:  2.00D  GRAD.:    28.386 HEAT:-2.716132
 CYCLE:     9 TIME:   0.007 TIME LEFT:  2.00D  GRAD.:    17.045 HEAT:-2.903144
 CYCLE:    10 TIME:   0.007 TIME LEFT:  2.00D  GRAD.:    12.140 HEAT:-2.998882
 CYCLE:    11 TIME:   0.004 TIME LEFT:  2.00D  GRAD.:    14.055 HEAT:-3.076699
 CYCLE:    12 TIME:   0.004 TIME LEFT:  2.00D  GRAD.:    16.430 HEAT:-3.163457
 CYCLE:    13 TIME:   0.004 TIME LEFT:  2.00D  GRAD.:    12.031 HEAT:-3.266964
 CYCLE:    14 TIME:   0.004 TIME LEFT:  2.00D  GRAD.:    11.956 HEAT:-3.316616
 CYCLE:    15 TIME:   0.004 TIME LEFT:  2.00D  GRAD.:    11.999 HEAT:-3.340709
 CYCLE:    16 TIME:   0.004 TIME LEFT:  2.00D  GRAD.:    10.636 HEAT:-3.384770
 CYCLE:    17 TIME:   0.004 TIME LEFT:  2.00D  GRAD.:    11.554 HEAT:-3.415178
 CYCLE:    18 TIME:   0.004 TIME LEFT:  2.00D  GRAD.:     4.849 HEAT:-3.465556
 CYCLE:    19 TIME:   0.004 TIME LEFT:  2.00D  GRAD.:     7.667 HEAT:-3.481861
 CYCLE:    20 TIME:   0.004 TIME LEFT:  2.00D  GRAD.:     6.517 HEAT:-3.502383
 CYCLE:    21 TIME:   0.004 TIME LEFT:  2.00D  GRAD.:     5.786 HEAT:-3.509824
 CYCLE:    22 TIME:   0.004 TIME LEFT:  2.00D  GRAD.:     3.122 HEAT:-3.523929
 CYCLE:    23 TIME:   0.004 TIME LEFT:  2.00D  GRAD.:     2.850 HEAT:-3.533413
 CYCLE:    24 TIME:   0.004 TIME LEFT:  2.00D  GRAD.:     3.087 HEAT:-3.546929
 CYCLE:    25 TIME:   0.004 TIME LEFT:  2.00D  GRAD.:     3.161 HEAT:-3.569858
 CYCLE:    26 TIME:   0.004 TIME LEFT:  2.00D  GRAD.:     3.183 HEAT:-3.582399
 CYCLE:    27 TIME:   0.004 TIME LEFT:  2.00D  GRAD.:     3.776 HEAT:-3.605568
 CYCLE:    28 TIME:   0.004 TIME LEFT:  2.00D  GRAD.:     3.364 HEAT:-3.626752
 CYCLE:    29 TIME:   0.004 TIME LEFT:  2.00D  GRAD.:     2.123 HEAT:-3.638690
 CYCLE:    30 TIME:   0.004 TIME LEFT:  2.00D  GRAD.:     1.947 HEAT:-3.650100
 CYCLE:    31 TIME:   0.004 TIME LEFT:  2.00D  GRAD.:     1.689 HEAT:-3.656244
 CYCLE:    32 TIME:   0.004 TIME LEFT:  2.00D  GRAD.:     1.058 HEAT:-3.659515
 CYCLE:    33 TIME:   0.004 TIME LEFT:  2.00D  GRAD.:     1.019 HEAT:-3.661882
 CYCLE:    34 TIME:   0.004 TIME LEFT:  2.00D  GRAD.:     1.232 HEAT:-3.664662
 CYCLE:    35 TIME:   0.004 TIME LEFT:  2.00D  GRAD.:     0.981 HEAT:-3.666915
 CYCLE:    36 TIME:   0.004 TIME LEFT:  2.00D  GRAD.:     0.761 HEAT:-3.668555
 CYCLE:    37 TIME:   0.004 TIME LEFT:  2.00D  GRAD.:     0.817 HEAT:-3.670214
 CYCLE:    38 TIME:   0.004 TIME LEFT:  2.00D  GRAD.:     1.074 HEAT:-3.672474
 CYCLE:    39 TIME:   0.004 TIME LEFT:  2.00D  GRAD.:     1.168 HEAT:-3.675127
 CYCLE:    40 TIME:   0.004 TIME LEFT:  2.00D  GRAD.:     1.070 HEAT:-3.678199
 CYCLE:    41 TIME:   0.004 TIME LEFT:  2.00D  GRAD.:     0.975 HEAT:-3.680202
 CYCLE:    42 TIME:   0.004 TIME LEFT:  2.00D  GRAD.:     1.263 HEAT:-3.684154
 CYCLE:    43 TIME:   0.004 TIME LEFT:  2.00D  GRAD.:     1.137 HEAT:-3.686390
 CYCLE:    44 TIME:   0.004 TIME LEFT:  2.00D  GRAD.:     1.059 HEAT:-3.689875
 CYCLE:    45 TIME:   0.004 TIME LEFT:  2.00D  GRAD.:     0.950 HEAT:-3.691757
 CYCLE:    46 TIME:   0.004 TIME LEFT:  2.00D  GRAD.:     1.397 HEAT:-3.697871
 CYCLE:    47 TIME:   0.004 TIME LEFT:  2.00D  GRAD.:     1.536 HEAT:-3.702179
 CYCLE:    48 TIME:   0.004 TIME LEFT:  2.00D  GRAD.:     2.543 HEAT:-3.709562
 CYCLE:    49 TIME:   0.004 TIME LEFT:  2.00D  GRAD.:     2.093 HEAT:-3.713535
 CYCLE:    50 TIME:   0.004 TIME LEFT:  2.00D  GRAD.:     1.590 HEAT:-3.719395
 CYCLE:    51 TIME:   0.004 TIME LEFT:  2.00D  GRAD.:     5.627 HEAT:-3.728454
 CYCLE:    52 TIME:   0.004 TIME LEFT:  2.00D  GRAD.:     2.142 HEAT:-3.738752
 CYCLE:    53 TIME:   0.004 TIME LEFT:  2.00D  GRAD.:     1.841 HEAT:-3.748791
 CYCLE:    54 TIME:   0.004 TIME LEFT:  2.00D  GRAD.:     7.553 HEAT:-3.767850
 CYCLE:    55 TIME:   0.004 TIME LEFT:  2.00D  GRAD.:     1.760 HEAT:-3.780892
 CYCLE:    56 TIME:   0.004 TIME LEFT:  2.00D  GRAD.:     1.664 HEAT:-3.790719
 CYCLE:    57 TIME:   0.004 TIME LEFT:  2.00D  GRAD.:     7.761 HEAT:-3.792202
 CYCLE:    58 TIME:   0.004 TIME LEFT:  2.00D  GRAD.:     2.433 HEAT:-3.807582
 CYCLE:    59 TIME:   0.004 TIME LEFT:  2.00D  GRAD.:     2.165 HEAT:-3.816134
 CYCLE:    60 TIME:   0.004 TIME LEFT:  2.00D  GRAD.:     8.076 HEAT:-3.843516
 CYCLE:    61 TIME:   0.004 TIME LEFT:  2.00D  GRAD.:     2.948 HEAT:-3.861331
 CYCLE:    62 TIME:   0.004 TIME LEFT:  2.00D  GRAD.:     2.572 HEAT:-3.875888
 CYCLE:    63 TIME:   0.007 TIME LEFT:  2.00D  GRAD.:     4.505 HEAT:-3.890629
 CYCLE:    64 TIME:   0.004 TIME LEFT:  2.00D  GRAD.:     4.448 HEAT:-3.903477
 CYCLE:    65 TIME:   0.004 TIME LEFT:  2.00D  GRAD.:     3.972 HEAT:-3.906455
 CYCLE:    66 TIME:   0.004 TIME LEFT:  2.00D  GRAD.:     2.267 HEAT:-3.920643
 CYCLE:    67 TIME:   0.004 TIME LEFT:  2.00D  GRAD.:     2.611 HEAT:-3.923857
 CYCLE:    68 TIME:   0.004 TIME LEFT:  2.00D  GRAD.:     3.068 HEAT:-3.929312
 CYCLE:    69 TIME:   0.004 TIME LEFT:  2.00D  GRAD.:     2.591 HEAT:-3.936099
 CYCLE:    70 TIME:   0.004 TIME LEFT:  2.00D  GRAD.:     1.309 HEAT:-3.939314
 CYCLE:    71 TIME:   0.004 TIME LEFT:  2.00D  GRAD.:     1.444 HEAT:-3.945052
 CYCLE:    72 TIME:   0.004 TIME LEFT:  2.00D  GRAD.:     4.568 HEAT:-3.950748
 CYCLE:    73 TIME:   0.004 TIME LEFT:  2.00D  GRAD.:     1.609 HEAT:-3.959279
 CYCLE:    74 TIME:   0.004 TIME LEFT:  2.00D  GRAD.:     1.331 HEAT:-3.964956
 CYCLE:    75 TIME:   0.004 TIME LEFT:  2.00D  GRAD.:     2.840 HEAT:-3.973335
 CYCLE:    76 TIME:   0.004 TIME LEFT:  2.00D  GRAD.:     1.447 HEAT:-3.977524
 CYCLE:    77 TIME:   0.004 TIME LEFT:  2.00D  GRAD.:     1.452 HEAT:-3.980615
 CYCLE:    78 TIME:   0.004 TIME LEFT:  2.00D  GRAD.:     0.978 HEAT:-3.982633
 CYCLE:    79 TIME:   0.004 TIME LEFT:  2.00D  GRAD.:     0.767 HEAT:-3.983666
 CYCLE:    80 TIME:   0.004 TIME LEFT:  2.00D  GRAD.:     1.264 HEAT:-3.984407
 CYCLE:    81 TIME:   0.004 TIME LEFT:  2.00D  GRAD.:     0.587 HEAT:-3.985367
 CYCLE:    82 TIME:   0.004 TIME LEFT:  2.00D  GRAD.:     0.387 HEAT:-3.985939
 CYCLE:    83 TIME:   0.004 TIME LEFT:  2.00D  GRAD.:     0.353 HEAT:-3.986390
 CYCLE:    84 TIME:   0.004 TIME LEFT:  2.00D  GRAD.:     0.473 HEAT:-3.986680
 CYCLE:    85 TIME:   0.004 TIME LEFT:  2.00D  GRAD.:     0.322 HEAT:-3.986868
 CYCLE:    86 TIME:   0.004 TIME LEFT:  2.00D  GRAD.:     0.278 HEAT:-3.987046
 CYCLE:    87 TIME:   0.004 TIME LEFT:  2.00D  GRAD.:     0.221 HEAT:-3.987123
 CYCLE:    88 TIME:   0.004 TIME LEFT:  2.00D  GRAD.:     0.230 HEAT:-3.987224
 CYCLE:    89 TIME:   0.006 TIME LEFT:  2.00D  GRAD.:     0.169 HEAT:-3.987259
 CYCLE:    90 TIME:   0.004 TIME LEFT:  2.00D  GRAD.:     0.161 HEAT:-3.987305
 CYCLE:    91 TIME:   0.004 TIME LEFT:  2.00D  GRAD.:     0.474 HEAT:-3.987344
 CYCLE:    92 TIME:   0.004 TIME LEFT:  2.00D  GRAD.:     0.254 HEAT:-3.987537
 CYCLE:    93 TIME:   0.004 TIME LEFT:  2.00D  GRAD.:     0.290 HEAT:-3.987733
 CYCLE:    94 TIME:   0.004 TIME LEFT:  2.00D  GRAD.:     0.559 HEAT:-3.988072
 CYCLE:    95 TIME:   0.004 TIME LEFT:  2.00D  GRAD.:     0.763 HEAT:-3.988529
 CYCLE:    96 TIME:   0.004 TIME LEFT:  2.00D  GRAD.:     0.855 HEAT:-3.989379
 CYCLE:    97 TIME:   0.004 TIME LEFT:  2.00D  GRAD.:     0.412 HEAT:-3.990277
 CYCLE:    98 TIME:   0.004 TIME LEFT:  2.00D  GRAD.:     0.256 HEAT:-3.990545
 CYCLE:    99 TIME:   0.004 TIME LEFT:  2.00D  GRAD.:     0.208 HEAT:-3.990626
 CYCLE:   100 TIME:   0.004 TIME LEFT:  2.00D  GRAD.:     0.144 HEAT:-3.990667
 CYCLE:   101 TIME:   0.004 TIME LEFT:  2.00D  GRAD.:     0.095 HEAT:-3.990691
 CYCLE:   102 TIME:   0.004 TIME LEFT:  2.00D  GRAD.:     0.082 HEAT:-3.990713
 CYCLE:   103 TIME:   0.004 TIME LEFT:  2.00D  GRAD.:     0.089 HEAT:-3.990729
 CYCLE:   104 TIME:   0.004 TIME LEFT:  2.00D  GRAD.:     0.102 HEAT:-3.990746
 CYCLE:   105 TIME:   0.004 TIME LEFT:  2.00D  GRAD.:     0.141 HEAT:-3.990760
 CYCLE:   106 TIME:   0.004 TIME LEFT:  2.00D  GRAD.:     0.142 HEAT:-3.990788
 CYCLE:   107 TIME:   0.008 TIME LEFT:  2.00D  GRAD.:     0.947 HEAT:-3.986281
 CYCLE:   108 TIME:   0.004 TIME LEFT:  2.00D  GRAD.:     0.139 HEAT:-3.990868
 CYCLE:   109 TIME:   0.004 TIME LEFT:  2.00D  GRAD.:     0.124 HEAT:-3.990896
 CYCLE:   110 TIME:   0.004 TIME LEFT:  2.00D  GRAD.:     0.326 HEAT:-3.990996
 CYCLE:   111 TIME:   0.004 TIME LEFT:  2.00D  GRAD.:     0.174 HEAT:-3.991081
 CYCLE:   112 TIME:   0.004 TIME LEFT:  2.00D  GRAD.:     0.151 HEAT:-3.991161
 CYCLE:   113 TIME:   0.004 TIME LEFT:  2.00D  GRAD.:     0.332 HEAT:-3.991175
 CYCLE:   114 TIME:   0.004 TIME LEFT:  2.00D  GRAD.:     0.168 HEAT:-3.991271
 CYCLE:   115 TIME:   0.004 TIME LEFT:  2.00D  GRAD.:     0.134 HEAT:-3.991175
 CYCLE:   116 TIME:   0.004 TIME LEFT:  2.00D  GRAD.:     0.059 HEAT:-3.991294
 CYCLE:   117 TIME:   0.004 TIME LEFT:  2.00D  GRAD.:     0.209 HEAT:-3.991202
 CYCLE:   118 TIME:   0.004 TIME LEFT:  2.00D  GRAD.:     0.081 HEAT:-3.991316
 CYCLE:   119 TIME:   0.004 TIME LEFT:  2.00D  GRAD.:     0.032 HEAT:-3.991327

     RMS GRADIENT =  0.03232  IS LESS THAN CUTOFF =  0.05000



 -------------------------------------------------------------------------------
pm3  precise nosym
 InChI=1S/C6H10O/c1-3-5-6(4-2)7-5/h3,5-6H,1,4H2,2H3



     GEOMETRY OPTIMISED USING EIGENVECTOR FOLLOWING (EF).     
     SCF FIELD WAS ACHIEVED                                   


                              PM3 CALCULATION
                                                       MOPAC2012 (Version: 13.159M)
                                                       Mon Jun  2 14:11:00 2014
                                                       No. of days left =   6




          FINAL HEAT OF FORMATION =         -3.99133 KCAL/MOL =     -16.69971 KJ/MOL


          TOTAL ENERGY            =      -1157.26729 EV
          ELECTRONIC ENERGY       =      -4959.86371 EV  POINT GROUP:     C1  
          CORE-CORE REPULSION     =       3802.59641 EV
          COSMO AREA              =        151.98 SQUARE ANGSTROMS
          COSMO VOLUME            =        142.97 CUBIC ANGSTROMS

          GRADIENT NORM           =          0.03232
          IONIZATION POTENTIAL    =         10.304851 EV
          HOMO LUMO ENERGIES (EV) =        -10.305  0.900
          NO. OF FILLED LEVELS    =         20
          MOLECULAR WEIGHT        =         98.144

          MOLECULAR DIMENSIONS (Angstroms)

            Atom       Atom       Distance
            H    17    H    14     7.55277
            H    12    H    11     3.35669
            H    15    H     9     3.27278


          SCF CALCULATIONS        =        127
          COMPUTATION TIME        =          0.500 SECONDS




   ATOM   CHEMICAL          X               Y               Z
  NUMBER   SYMBOL      (ANGSTROMS)     (ANGSTROMS)     (ANGSTROMS)
 
     1       C         -0.30107203  *  -0.07383675  *   0.68651014  *
     2       C          0.92654296  *  -0.43348882  *  -0.08625750  *
     3       C         -1.63150817  *  -0.72209894  *   0.38664460  *
     4       C         -2.49135910  *   0.19220624  *  -0.45652837  *
     5       C          1.98929309  *   0.56495536  *  -0.33130412  *
     6       C          3.06420891  *   0.71706954  *   0.43192646  *
     7       O          0.71818537  *  -0.91324227  *   1.25214984  *
     8       H         -0.38623516  *   0.93012788  *   1.14695059  *
     9       H         -2.14034146  *  -0.95785800  *   1.34224940  *
    10       H         -1.49162699  *  -1.69571316  *  -0.12434604  *
    11       H          0.88280953  *  -1.21435859  *  -0.87182143  *
    12       H         -2.67523345  *   1.15285109  *   0.04297182  *
    13       H         -2.02102856  *   0.41199684  *  -1.42386393  *
    14       H         -3.46849955  *  -0.26305323  *  -0.66213061  *
    15       H          1.82890281  *   1.17471309  *  -1.22849320  *
    16       H          3.24807369  *   0.12780305  *   1.32646937  *
    17       H          3.83574122  *   1.44858823  *   0.21118009  *

           Empirical Formula: C6 H10 O  =    17 atoms



      MOLECULAR POINT GROUP   :   C1  


                  EIGENVALUES  
 -41.07213 -34.34657 -32.67280 -25.85244 -24.04808 -21.00618 -19.79842 -17.45673
 -17.11277 -15.92338 -15.39827 -15.22615 -13.96398 -13.50468 -12.98191 -12.49495
 -12.27877 -11.71162 -11.27953 -10.30485   0.90008   2.40475   2.88580   3.01092
   3.46901   3.64512   3.72549   3.80454   3.84740   4.04953   4.23936   4.30783
   4.40729   4.71101   4.80735   4.91338   5.43779   5.68971


              NET ATOMIC CHARGES AND DIPOLE CONTRIBUTIONS

  ATOM NO.   TYPE          CHARGE      No. of ELECS.   s-Pop       p-Pop       
    1          C           0.006693        3.9933     1.18257     2.81073
    2          C           0.033530        3.9665     1.16715     2.79932
    3          C          -0.097327        4.0973     1.15552     2.94181
    4          C          -0.105057        4.1051     1.13635     2.96870
    5          C          -0.158797        4.1588     1.18999     2.96880
    6          C          -0.124306        4.1243     1.17996     2.94434
    7          O          -0.261734        6.2617     1.89624     4.36550
    8          H           0.095224        0.9048     0.90478
    9          H           0.061856        0.9381     0.93814
   10          H           0.059987        0.9400     0.94001
   11          H           0.096723        0.9033     0.90328
   12          H           0.039536        0.9605     0.96046
   13          H           0.038944        0.9611     0.96106
   14          H           0.040951        0.9590     0.95905
   15          H           0.103504        0.8965     0.89650
   16          H           0.092477        0.9075     0.90752
   17          H           0.077797        0.9222     0.92220
 DIPOLE           X         Y         Z       TOTAL
 POINT-CHG.    -0.706     0.972    -1.370     1.822
 HYBRID         0.055    -0.029     0.052     0.081
 SUM           -0.651     0.943    -1.318     1.746


          ATOMIC ORBITAL ELECTRON POPULATIONS

    Atom      s        px        py        pz   
    1  C   1.18257   0.87472   0.95629   0.97972
    2  C   1.16715   0.95923   0.96810   0.87199
    3  C   1.15552   0.94897   0.98453   1.00830
    4  C   1.13635   0.98840   0.98895   0.99135
    5  C   1.18999   0.97016   0.99351   1.00513
    6  C   1.17996   0.96003   0.99639   0.98791
    7  O   1.89624   1.40058   1.68446   1.28046
    8  H   0.90478
    9  H   0.93814
   10  H   0.94001
   11  H   0.90328
   12  H   0.96046
   13  H   0.96106
   14  H   0.95905
   15  H   0.89650
   16  H   0.90752
   17  H   0.92220
 *******************************************************************************
 ** Site#: 14399           For non-commercial use only        Version 13.159M **
 *******************************************************************************
 ** Cite this work as: MOPAC2012, James J. P. Stewart, Stewart Computational  **
 ** Chemistry, Version 13.159M web: HTTP://OpenMOPAC.net  Days remaining:   6 **
 *******************************************************************************
 **                                                                           **
 **                                MOPAC2012                                  **
 **                                                                           **
 *******************************************************************************

                            PM3 CALCULATION RESULTS


 *******************************************************************************
 *  CALCULATION DONE:                                Mon Jun  2 14:11:00 2014  *
 *  PM3      - The PM3 Hamiltonian to be used
 *  OLDGEO   - PREVIOUS GEOMETRY TO BE USED
 *  PRECISE  - CRITERIA TO BE INCREASED BY 100 TIMES
 *  NOSYM    - POINT-GROUP SYMMETRY SET TO C1
 *  T=       - A TIME OF 172800.0 SECONDS REQUESTED
 *  DUMP=N   - RESTART FILE WRITTEN EVERY  7200.000 SECONDS
 *  THERMO   - THERMODYNAMIC QUANTITIES TO BE CALCULATED
 *******************************************************************************
oldgeo thermo nosym precise  pm3

   ATOM   CHEMICAL          X               Y               Z
  NUMBER   SYMBOL      (ANGSTROMS)     (ANGSTROMS)     (ANGSTROMS)
 
     1       C         -0.30107203  *  -0.07383675  *   0.68651014  *
     2       C          0.92654296  *  -0.43348882  *  -0.08625750  *
     3       C         -1.63150817  *  -0.72209894  *   0.38664460  *
     4       C         -2.49135910  *   0.19220624  *  -0.45652837  *
     5       C          1.98929309  *   0.56495536  *  -0.33130412  *
     6       C          3.06420891  *   0.71706954  *   0.43192646  *
     7       O          0.71818537  *  -0.91324227  *   1.25214984  *
     8       H         -0.38623516  *   0.93012788  *   1.14695059  *
     9       H         -2.14034146  *  -0.95785800  *   1.34224940  *
    10       H         -1.49162699  *  -1.69571316  *  -0.12434604  *
    11       H          0.88280953  *  -1.21435859  *  -0.87182143  *
    12       H         -2.67523345  *   1.15285109  *   0.04297182  *
    13       H         -2.02102856  *   0.41199684  *  -1.42386393  *
    14       H         -3.46849955  *  -0.26305323  *  -0.66213061  *
    15       H          1.82890281  *   1.17471309  *  -1.22849320  *
    16       H          3.24807369  *   0.12780305  *   1.32646937  *
    17       H          3.83574122  *   1.44858823  *   0.21118009  *
 


          CARTESIAN COORDINATES 

    NO.       ATOM         X         Y         Z

     1         C       -0.3011   -0.0738    0.6865
     2         C        0.9265   -0.4335   -0.0863
     3         C       -1.6315   -0.7221    0.3866
     4         C       -2.4914    0.1922   -0.4565
     5         C        1.9893    0.5650   -0.3313
     6         C        3.0642    0.7171    0.4319
     7         O        0.7182   -0.9132    1.2521
     8         H       -0.3862    0.9301    1.1470
     9         H       -2.1403   -0.9579    1.3422
    10         H       -1.4916   -1.6957   -0.1243
    11         H        0.8828   -1.2144   -0.8718
    12         H       -2.6752    1.1529    0.0430
    13         H       -2.0210    0.4120   -1.4239
    14         H       -3.4685   -0.2631   -0.6621
    15         H        1.8289    1.1747   -1.2285
    16         H        3.2481    0.1278    1.3265
    17         H        3.8357    1.4486    0.2112

  H: (PM3): J. J. P. STEWART, J. COMP. CHEM. 10, 209 (1989).
  C: (PM3): J. J. P. STEWART, J. COMP. CHEM. 10, 209 (1989).
  O: (PM3): J. J. P. STEWART, J. COMP. CHEM. 10, 209 (1989).

           Empirical Formula: C6 H10 O  =    17 atoms



      MOLECULAR POINT GROUP   :   C1  


      RHF CALCULATION, NO. OF DOUBLY OCCUPIED LEVELS =   20



          HEAT OF FORMATION =      -3.991327 KCALS/MOLE


          INTERNAL COORDINATE DERIVATIVES

   NUMBER  ATOM       BOND         ANGLE      DIHEDRAL

     1       C      0.004359    -0.004978    -0.003731
     2       C     -0.004355    -0.001740    -0.002443
     3       C      0.001376    -0.002509     0.002172
     4       C      0.010467     0.003057    -0.001779
     5       C      0.001005    -0.012905    -0.002358
     6       C     -0.005089     0.014129     0.005161
     7       O      0.002213     0.000843     0.004148
     8       H     -0.001955     0.004768    -0.003429
     9       H      0.002212    -0.000228     0.002733
    10       H     -0.000987    -0.001913     0.002063
    11       H      0.000537    -0.005272    -0.000692
    12       H     -0.007040    -0.000849     0.002909
    13       H     -0.006147     0.000481    -0.003085
    14       H      0.000479    -0.001406     0.000832
    15       H      0.007356     0.003285     0.000634
    16       H      0.001516    -0.000265    -0.004815
    17       H     -0.005946     0.005500     0.001679


          GRADIENT NORM =   0.03202


          TIME FOR SCF CALCULATION =    0.00

          TIME FOR DERIVATIVES     =    0.00

          MOLECULAR WEIGHT =   98.14



          ROTATIONAL CONSTANTS IN CM(-1)

          A =    0.22275878   B =    0.04649966   C =    0.04153255



           PRINCIPAL MOMENTS OF INERTIA IN UNITS OF 10**(-40)*GRAM-CM**2

          A =      125.6641   B =      601.9996   C =      673.9960


          ORIENTATION OF MOLECULE IN FORCE CALCULATION

    NO.       ATOM         X         Y         Z

     1          C      -0.6986    0.0672   -0.1258
     2          C       0.7959    0.0672   -0.1258
     3          C      -1.4804    1.3591   -0.1258
     4          C      -1.9708    1.6848    1.2669
     5          C       1.5553   -1.0118    0.5416
     6          C       2.0070   -2.0989   -0.0710
     7          O       0.0481   -0.2406   -1.3137
     8          H      -1.2483   -0.7883    0.3137
     9          H      -2.3358    1.2620   -0.8234
    10          H      -0.8670    2.1934   -0.5211
    11          H       1.3541    1.0242   -0.1631
    12          H      -2.6113    0.8886    1.6694
    13          H      -1.1371    1.8192    1.9686
    14          H      -2.5575    2.6122    1.2724
    15          H       1.7407   -0.8321    1.6073
    16          H       1.8373   -2.3029   -1.1250
    17          H       2.5788   -2.8632    0.4466


    FIRST DERIVATIVES WILL BE USED IN THE CALCULATION OF SECOND DERIVATIVES

          ESTIMATED TIME TO COMPLETE CALCULATION =        1.18 SECONDS

    FOR POINT-GROUP C1   THERE ARE   1 UNIQUE SYMMETRY FUNCTIONS.

 STEP:   1 TIME =     0.02 SECS, INTEGRAL =      0.02 TIME LEFT: 172799.98
 STEP:   2 TIME =     0.02 SECS, INTEGRAL =      0.03 TIME LEFT: 172799.96
 STEP:   3 TIME =     0.02 SECS, INTEGRAL =      0.05 TIME LEFT: 172799.94
 STEP:   4 TIME =     0.02 SECS, INTEGRAL =      0.07 TIME LEFT: 172799.93
 STEP:   5 TIME =     0.02 SECS, INTEGRAL =      0.09 TIME LEFT: 172799.91
 STEP:   6 TIME =     0.02 SECS, INTEGRAL =      0.10 TIME LEFT: 172799.89
 STEP:   7 TIME =     0.02 SECS, INTEGRAL =      0.12 TIME LEFT: 172799.87
 STEP:   8 TIME =     0.02 SECS, INTEGRAL =      0.14 TIME LEFT: 172799.86
 STEP:   9 TIME =     0.02 SECS, INTEGRAL =      0.15 TIME LEFT: 172799.84
 STEP:  10 TIME =     0.02 SECS, INTEGRAL =      0.17 TIME LEFT: 172799.82
 STEP:  11 TIME =     0.02 SECS, INTEGRAL =      0.19 TIME LEFT: 172799.81
 STEP:  12 TIME =     0.02 SECS, INTEGRAL =      0.20 TIME LEFT: 172799.79
 STEP:  13 TIME =     0.02 SECS, INTEGRAL =      0.22 TIME LEFT: 172799.77
 STEP:  14 TIME =     0.02 SECS, INTEGRAL =      0.24 TIME LEFT: 172799.76
 STEP:  15 TIME =     0.02 SECS, INTEGRAL =      0.25 TIME LEFT: 172799.74
 STEP:  16 TIME =     0.02 SECS, INTEGRAL =      0.27 TIME LEFT: 172799.72
 STEP:  17 TIME =     0.02 SECS, INTEGRAL =      0.29 TIME LEFT: 172799.71
 STEP:  18 TIME =     0.02 SECS, INTEGRAL =      0.31 TIME LEFT: 172799.69
 STEP:  19 TIME =     0.02 SECS, INTEGRAL =      0.32 TIME LEFT: 172799.67
 STEP:  20 TIME =     0.02 SECS, INTEGRAL =      0.34 TIME LEFT: 172799.65
 STEP:  21 TIME =     0.02 SECS, INTEGRAL =      0.36 TIME LEFT: 172799.63
 STEP:  22 TIME =     0.02 SECS, INTEGRAL =      0.38 TIME LEFT: 172799.62
 STEP:  23 TIME =     0.02 SECS, INTEGRAL =      0.39 TIME LEFT: 172799.60
 STEP:  24 TIME =     0.02 SECS, INTEGRAL =      0.41 TIME LEFT: 172799.58
 STEP:  25 TIME =     0.02 SECS, INTEGRAL =      0.43 TIME LEFT: 172799.57
 STEP:  26 TIME =     0.02 SECS, INTEGRAL =      0.44 TIME LEFT: 172799.55
 STEP:  27 TIME =     0.02 SECS, INTEGRAL =      0.46 TIME LEFT: 172799.53
 STEP:  28 TIME =     0.02 SECS, INTEGRAL =      0.48 TIME LEFT: 172799.52
 STEP:  29 TIME =     0.02 SECS, INTEGRAL =      0.49 TIME LEFT: 172799.50
 STEP:  30 TIME =     0.02 SECS, INTEGRAL =      0.51 TIME LEFT: 172799.48
 STEP:  31 TIME =     0.02 SECS, INTEGRAL =      0.53 TIME LEFT: 172799.46
 STEP:  32 TIME =     0.02 SECS, INTEGRAL =      0.55 TIME LEFT: 172799.45
 STEP:  33 TIME =     0.02 SECS, INTEGRAL =      0.57 TIME LEFT: 172799.43
 STEP:  34 TIME =     0.02 SECS, INTEGRAL =      0.58 TIME LEFT: 172799.41
 STEP:  35 TIME =     0.02 SECS, INTEGRAL =      0.60 TIME LEFT: 172799.39
 STEP:  36 TIME =     0.02 SECS, INTEGRAL =      0.62 TIME LEFT: 172799.38
 STEP:  37 TIME =     0.02 SECS, INTEGRAL =      0.63 TIME LEFT: 172799.36
 STEP:  38 TIME =     0.02 SECS, INTEGRAL =      0.65 TIME LEFT: 172799.34
 STEP:  39 TIME =     0.02 SECS, INTEGRAL =      0.67 TIME LEFT: 172799.33
 STEP:  40 TIME =     0.02 SECS, INTEGRAL =      0.68 TIME LEFT: 172799.31
 STEP:  41 TIME =     0.02 SECS, INTEGRAL =      0.70 TIME LEFT: 172799.29
 STEP:  42 TIME =     0.02 SECS, INTEGRAL =      0.72 TIME LEFT: 172799.28
 STEP:  43 TIME =     0.02 SECS, INTEGRAL =      0.74 TIME LEFT: 172799.26
 STEP:  44 TIME =     0.02 SECS, INTEGRAL =      0.75 TIME LEFT: 172799.24
 STEP:  45 TIME =     0.02 SECS, INTEGRAL =      0.77 TIME LEFT: 172799.22
 STEP:  46 TIME =     0.02 SECS, INTEGRAL =      0.79 TIME LEFT: 172799.21
 STEP:  47 TIME =     0.02 SECS, INTEGRAL =      0.80 TIME LEFT: 172799.19
 STEP:  48 TIME =     0.02 SECS, INTEGRAL =      0.82 TIME LEFT: 172799.17
 STEP:  49 TIME =     0.02 SECS, INTEGRAL =      0.84 TIME LEFT: 172799.16
 STEP:  50 TIME =     0.02 SECS, INTEGRAL =      0.86 TIME LEFT: 172799.14
 STEP:  51 TIME =     0.02 SECS, INTEGRAL =      0.87 TIME LEFT: 172799.12

(To convert to Hartree/Bohr^2, multiply by (10^(-21) x N x a0^2)/(4.184 x 627.51) = 0.0642)


           FORCE MATRIX IN MILLIDYNES/ANGSTROM


                  C  1       C  2       C  3       C  4       C  5       C  6
 ------------------------------------------------------------------------------
     C    1  15.240020
     C    2   5.353598  15.568764
     C    3   4.347228   0.515575  14.536006
     C    4   0.679787   0.022276   4.475596  14.388645
     C    5   0.550929   5.101985   0.044934   0.002849  18.346419
     C    6   0.050953   0.844371   0.007686   0.000727  11.103078  18.045112
     O    7   5.178379   5.157027   0.702245   0.071369   0.722768   0.038192
     H    8   4.460352   0.428801   0.416677   0.025280   0.019161   0.003684
     H    9   0.434555   0.046882   4.470804   0.441736   0.009301   0.001708
     H   10   0.464633   0.029327   4.458758   0.436140   0.001895   0.000917
     H   11   0.433820   4.422683   0.019399   0.002116   0.398646   0.031054
     H   12   0.029448   0.002983   0.463880   4.723665   0.000968   0.000197
     H   13   0.020240   0.004035   0.462818   4.737211   0.001140   0.000408
     H   14   0.050047   0.003989   0.451031   4.756725   0.000443   0.000245
     H   15   0.017933   0.407390   0.003364   0.000820   4.799827   0.461216
     H   16   0.015298   0.101471   0.002737   0.000560   0.491471   5.088005
     H   17   0.017908   0.147769   0.003239   0.000240   0.462652   5.100475


                  O  7       H  8       H  9       H 10       H 11       H 12
 ------------------------------------------------------------------------------
     O    7   8.901775
     H    8   0.392545   4.884701
     H    9   0.021679   0.019951   5.074350
     H   10   0.033629   0.039384   0.570901   5.076751
     H   11   0.392008   0.034986   0.002496   0.019209   4.839128
     H   12   0.003873   0.019612   0.023852   0.047712   0.000653   5.466510
     H   13   0.004050   0.002106   0.048836   0.024285   0.001254   0.576721
     H   14   0.012377   0.001717   0.029160   0.029951   0.000494   0.574061
     H   15   0.052778   0.002125   0.000635   0.000499   0.021291   0.000310
     H   16   0.019168   0.001205   0.000597   0.000275   0.010947   0.000213
     H   17   0.008268   0.000750   0.000711   0.000195   0.016137   0.000204


                  H 13       H 14       H 15       H 16       H 17
 ------------------------------------------------------------------
     H   13   5.475510
     H   14   0.574515   5.490870
     H   15   0.000355   0.000307   5.157317
     H   16   0.000250   0.000152   0.120343   5.462835
     H   17   0.000176   0.000067   0.082992   0.415363   5.480196


          HEAT OF FORMATION =      -3.991327 KCALS/MOLE

          ZERO POINT ENERGY      90.496 KCAL/MOL


           NORMAL COORDINATE ANALYSIS (Total motion = 1 Angstrom)


   Root No.       1         2         3         4         5         6         7         8

                 1 A       2 A       3 A       4 A       5 A       6 A       7 A       8 A   

                  49.9      56.5     138.7     174.4     272.2     294.5     400.0     477.1
  
           1   -0.0221   -0.0050   -0.0060    0.0077    0.0349   -0.0153   -0.0027   -0.0057
           2   -0.0091   -0.0144    0.0067    0.0141    0.0181   -0.0087    0.0565   -0.0221
           3   -0.0110   -0.0253   -0.0260   -0.0057    0.0189   -0.0076   -0.0007    0.0521
           4   -0.0226   -0.0048   -0.0071    0.0068    0.0355   -0.0110    0.0032   -0.0070
           5   -0.0165    0.0159   -0.0001   -0.0024    0.0165   -0.0262   -0.0088    0.0227
           6    0.0168    0.0099   -0.0337   -0.0213   -0.0273   -0.0035    0.0171    0.0102
           7   -0.0130   -0.0301    0.0128    0.0096   -0.0274   -0.0158   -0.0411    0.0293
           8   -0.0035   -0.0299    0.0172    0.0146   -0.0220   -0.0047    0.0386   -0.0145
           9   -0.0088   -0.0097    0.0075    0.0083    0.0053    0.0199   -0.0383   -0.0307
          10    0.0363    0.0458    0.0215   -0.0045   -0.0134   -0.0235    0.0087    0.0322
          11    0.0241   -0.0111   -0.0343   -0.0113    0.0081    0.0354   -0.0272   -0.0330
          12    0.0021    0.0127    0.0239    0.0102    0.0035    0.0077   -0.0039   -0.0409
          13   -0.0385   -0.0017   -0.0195   -0.0149   -0.0192    0.0265    0.0166   -0.0070
          14   -0.0282    0.0168    0.0159   -0.0053   -0.0130   -0.0184   -0.0200    0.0038
          15    0.0164    0.0076    0.0038   -0.0010   -0.0068   -0.0294   -0.0021   -0.0271
          16    0.0540   -0.0396    0.0100    0.0060   -0.0024    0.0457    0.0191    0.0046
          17    0.0273   -0.0051    0.0055   -0.0074   -0.0134   -0.0450   -0.0218   -0.0106
          18   -0.0136    0.0186    0.0455    0.0188    0.0066    0.0318   -0.0010    0.0082
          19   -0.0016    0.0290   -0.0146   -0.0083    0.0007   -0.0065   -0.0057   -0.0477
          20    0.0008    0.0277   -0.0070    0.0000    0.0115    0.0505   -0.0060    0.0536
          21   -0.0009   -0.0146   -0.0277   -0.0125   -0.0027   -0.0214    0.0236    0.0237
          22   -0.0353    0.0026   -0.0096    0.0088    0.0741   -0.0273   -0.0173    0.0110
          23   -0.0105   -0.0353    0.0102    0.0164    0.0109   -0.0254    0.0759   -0.0211
          24   -0.0306   -0.0567   -0.0235    0.0019    0.0571   -0.0569    0.0233    0.0735
          25   -0.0367   -0.0686    0.0116    0.0152   -0.0423   -0.0192   -0.0618    0.0542
          26   -0.0100   -0.0622    0.0590    0.0214   -0.0947   -0.0085   -0.0067   -0.0055
          27    0.0213    0.0422    0.0037    0.0003    0.0328    0.0235   -0.0064   -0.0619
          28   -0.0205   -0.0699    0.0276    0.0091   -0.0815   -0.0158   -0.0926    0.0643
          29   -0.0147   -0.0261    0.0218    0.0232   -0.0060   -0.0094    0.0616   -0.0359
          30   -0.0439   -0.0633    0.0406    0.0268   -0.0433    0.0086   -0.0637   -0.0254
          31   -0.0173   -0.0234   -0.0015    0.0218    0.0618   -0.0189    0.0326   -0.0252
          32   -0.0186    0.0279   -0.0038   -0.0121   -0.0020   -0.0182   -0.0265    0.0342
          33    0.0402    0.0432   -0.0514   -0.0358   -0.0533    0.0438   -0.0025    0.0412
          34    0.0474    0.0907   -0.0476    0.1573   -0.0517   -0.0440    0.0340    0.0471
          35    0.0338   -0.0185   -0.0097   -0.1114    0.0414    0.0592   -0.0571   -0.0515
          36    0.0389    0.0692   -0.0373    0.0705    0.0079    0.0210   -0.0204   -0.0521
          37    0.0613    0.0855    0.0243   -0.0063   -0.0081   -0.0308    0.0438    0.0402
          38    0.0338    0.0254   -0.1497    0.1782   -0.0264    0.0405   -0.0682   -0.0404
          39   -0.0295   -0.0413    0.0429   -0.0241    0.0038    0.0149   -0.0370   -0.0480
          40    0.0401    0.0229    0.0967   -0.1778    0.0306   -0.0061    0.0033    0.0219
          41    0.0265   -0.0257    0.0126   -0.1207    0.0361    0.0474   -0.0326   -0.0414
          42    0.0054    0.0280    0.0796   -0.0138   -0.0041   -0.0263    0.0841   -0.0172
          43   -0.1312    0.0317   -0.0565   -0.0528   -0.1000    0.0703    0.0619   -0.0352
          44   -0.0843    0.0353    0.0399   -0.0049   -0.0450    0.0333   -0.0098   -0.0077
          45    0.0419   -0.0013    0.0066    0.0057    0.0127   -0.0440   -0.0114   -0.0190
          46    0.1452   -0.0721    0.0488    0.0451    0.0811    0.0240   -0.0192    0.0616
          47    0.0843   -0.0247   -0.0207   -0.0104    0.0146   -0.1348   -0.0519   -0.0361
          48   -0.0391    0.0275    0.0445    0.0133   -0.0119    0.0535    0.0111    0.0050
          49    0.0430   -0.0392   -0.0025   -0.0149   -0.0722    0.0921    0.0631   -0.0355
          50    0.0184   -0.0044    0.0225   -0.0066   -0.0435    0.0188    0.0054   -0.0048
          51   -0.0146    0.0194    0.0846    0.0432    0.0396    0.0765   -0.0085    0.0628


   Root No.       9        10        11        12        13        14        15        16

                 9 A      10 A      11 A      12 A      13 A      14 A      15 A      16 A   

                 577.0     652.1     808.4     903.7     904.6     920.6     951.1     976.6
  
           1    0.0240   -0.0111   -0.0087    0.0288   -0.0032   -0.0014   -0.0057    0.0189
           2    0.0071   -0.0028   -0.0069    0.0235   -0.0050    0.0151   -0.0128   -0.0211
           3    0.0122   -0.0126    0.0007   -0.0134    0.0436   -0.0162   -0.0158   -0.0095
           4    0.0109    0.0069    0.0151   -0.0124   -0.0269    0.0065    0.0085    0.0220
           5   -0.0412   -0.0384    0.0058    0.0079   -0.0425   -0.0011    0.0377    0.0054
           6   -0.0164   -0.0011   -0.0127    0.0280   -0.0171    0.0112   -0.0023    0.0120
           7    0.0106   -0.0104   -0.0380    0.0019   -0.0043    0.0048   -0.0055   -0.0040
           8   -0.0137    0.0088   -0.0118   -0.0105    0.0104   -0.0138    0.0017    0.0042
           9   -0.0004   -0.0055   -0.0099    0.0027   -0.0052    0.0062   -0.0036   -0.0029
          10    0.0050   -0.0017   -0.0094   -0.0037   -0.0078    0.0074    0.0054   -0.0149
          11   -0.0071    0.0014    0.0004   -0.0119    0.0090   -0.0150    0.0082    0.0292
          12   -0.0104   -0.0018   -0.0003    0.0006    0.0004   -0.0031    0.0035    0.0012
          13   -0.0133    0.0799    0.0017   -0.0011   -0.0214   -0.0205   -0.0179    0.0002
          14   -0.0159    0.0141   -0.0053   -0.0037    0.0010   -0.0063   -0.0198   -0.0031
          15    0.0602    0.0375    0.0061    0.0049   -0.0044    0.0040    0.0055    0.0156
          16   -0.0044    0.0004    0.0027    0.0000   -0.0087   -0.0100    0.0071   -0.0144
          17    0.0231   -0.0033   -0.0040   -0.0005    0.0119    0.0080   -0.0244    0.0102
          18    0.0032    0.0078    0.0021   -0.0016   -0.0036   -0.0100    0.0186   -0.0149
          19   -0.0336   -0.0351    0.0063   -0.0214    0.0399   -0.0090   -0.0074   -0.0217
          20    0.0362    0.0185    0.0069   -0.0145    0.0058    0.0039   -0.0028   -0.0047
          21   -0.0267   -0.0117    0.0100   -0.0349   -0.0167    0.0202   -0.0007   -0.0076
          22    0.0350   -0.0429    0.0305    0.0568    0.0165   -0.0406    0.0666    0.0454
          23    0.0032   -0.0051   -0.0213    0.0584    0.0240   -0.0035   -0.0200   -0.0676
          24    0.0225   -0.0580    0.0202    0.0942    0.1295   -0.1027    0.0605   -0.0703
          25    0.0103   -0.0150    0.0433    0.0502    0.0188    0.0047   -0.0446    0.0036
          26   -0.0605    0.0149    0.1455   -0.0296   -0.0177   -0.0111    0.0674    0.0063
          27    0.0049   -0.0014   -0.1241   -0.0516   -0.0283    0.0048    0.0352   -0.0106
          28   -0.0147   -0.0113    0.0916   -0.0153    0.0038   -0.0025    0.0280    0.0188
          29   -0.0078    0.0087   -0.0243    0.0390   -0.0009    0.0014   -0.0332   -0.0218
          30   -0.0263   -0.0064    0.1520    0.0759   -0.0146    0.0253   -0.0254   -0.0205
          31    0.0689   -0.0203    0.0453   -0.0575   -0.0170    0.0847   -0.0146    0.0255
          32   -0.0770   -0.0232   -0.0152    0.0429   -0.0468   -0.0528    0.0521    0.0040
          33   -0.0494   -0.0218   -0.0635    0.1744    0.0093   -0.0979    0.0205    0.0361
          34   -0.0009    0.0045    0.0143   -0.0170    0.0240   -0.0239    0.0037    0.0439
          35   -0.0037   -0.0041    0.0422    0.0499   -0.0240    0.0332   -0.0240   -0.0526
          36   -0.0126   -0.0026    0.1117    0.0943   -0.0116    0.0381   -0.0584   -0.0617
          37   -0.0005    0.0072    0.0854    0.0343    0.0293   -0.0103   -0.0367    0.0267
          38   -0.0060   -0.0060   -0.0015    0.0177   -0.0307    0.0281    0.0023   -0.0488
          39   -0.0043   -0.0109   -0.1074   -0.0477   -0.0341    0.0088    0.0524   -0.0313
          40    0.0074   -0.0026    0.0348    0.0382   -0.0160    0.0289   -0.0232   -0.0458
          41   -0.0057    0.0005    0.0277    0.0161    0.0010    0.0010   -0.0096    0.0054
          42   -0.0221    0.0165    0.0360   -0.0517    0.0926   -0.1020    0.0113    0.1771
          43    0.0465    0.0223   -0.0102    0.0684    0.1248    0.1637    0.1239    0.0643
          44    0.0385   -0.0139   -0.0048   -0.0171    0.1311    0.0601    0.0630   -0.0589
          45    0.0395    0.0513    0.0077   -0.0040   -0.0519   -0.0388   -0.0334    0.0149
          46   -0.1665    0.1026   -0.0250    0.0397    0.1037    0.1244    0.0507    0.0670
          47    0.0523    0.1860    0.0099   -0.0063    0.0489   -0.0054    0.1237   -0.0727
          48    0.0219   -0.0467    0.0033   -0.0062   -0.0283   -0.0273   -0.0193   -0.0095
          49    0.1578   -0.2501    0.0250   -0.0183   -0.0577   -0.0299    0.0599    0.0011
          50    0.0595   -0.2098   -0.0076    0.0014    0.0057    0.0427   -0.0657    0.0837
          51   -0.1263   -0.0235   -0.0282    0.0231    0.0397    0.0651   -0.1017    0.0799


   Root No.      17        18        19        20        21        22        23        24

                17 A      18 A      19 A      20 A      21 A      22 A      23 A      24 A   

                 989.7    1036.5    1054.2    1106.3    1112.9    1123.8    1139.7    1171.7
  
           1   -0.0096   -0.0046    0.0111    0.0069   -0.0185    0.0088   -0.0176    0.0224
           2   -0.0018   -0.0003    0.0044    0.0205   -0.0262    0.0102   -0.0272   -0.0225
           3   -0.0115    0.0058    0.0079   -0.0158   -0.0388    0.0059   -0.0380    0.0199
           4   -0.0066    0.0030    0.0332   -0.0188    0.0194   -0.0162    0.0135   -0.0147
           5   -0.0048   -0.0153   -0.0290   -0.0055   -0.0034   -0.0006   -0.0115   -0.0053
           6    0.0115   -0.0084   -0.0278    0.0366   -0.0005    0.0191   -0.0033    0.0307
           7   -0.0127   -0.0051   -0.0228   -0.0050    0.0362    0.0036   -0.0075   -0.0010
           8   -0.0041    0.0046    0.0002   -0.0253    0.0158    0.0042    0.0053    0.0384
           9   -0.0058   -0.0033   -0.0063   -0.0020   -0.0101    0.0578    0.0187   -0.0291
          10    0.0137    0.0049    0.0123    0.0053   -0.0329   -0.0082    0.0209   -0.0027
          11   -0.0025   -0.0078   -0.0046    0.0156   -0.0111   -0.0077    0.0138   -0.0134
          12    0.0041    0.0007   -0.0012    0.0090    0.0116   -0.0608   -0.0196    0.0164
          13    0.0104    0.0368   -0.0080    0.0070    0.0008    0.0024    0.0012    0.0001
          14    0.0007    0.0169    0.0032    0.0168    0.0024    0.0063   -0.0028    0.0004
          15    0.0116    0.0017   -0.0064   -0.0308   -0.0048   -0.0119    0.0027   -0.0078
          16    0.0013   -0.0611   -0.0028   -0.0057   -0.0029   -0.0009   -0.0022    0.0000
          17    0.0112   -0.0253    0.0143   -0.0067    0.0025   -0.0034    0.0015   -0.0034
          18   -0.0137    0.0063   -0.0054    0.0112   -0.0018    0.0052   -0.0075   -0.0022
          19    0.0035    0.0042   -0.0073   -0.0054   -0.0059    0.0020   -0.0020   -0.0041
          20    0.0067    0.0035   -0.0050   -0.0042    0.0081   -0.0064    0.0080   -0.0032
          21   -0.0100   -0.0012    0.0166   -0.0030    0.0189   -0.0097    0.0240   -0.0107
          22    0.0784   -0.0171   -0.0060    0.0318    0.0021    0.0589    0.0846    0.1906
          23    0.0233    0.0222   -0.0198    0.0106    0.0421   -0.0350   -0.0212   -0.1792
          24    0.1539    0.0344   -0.0662   -0.0002    0.1253   -0.0187    0.1097   -0.0802
          25   -0.0610   -0.0201   -0.0665    0.0487   -0.0247   -0.1307    0.0493   -0.0166
          26    0.1028    0.0310    0.1201   -0.0443   -0.0209    0.1026   -0.0891    0.0566
          27    0.0385    0.0107    0.0299   -0.0635    0.0689    0.2101   -0.0372   -0.0136
          28    0.0453   -0.0065    0.0259    0.0584   -0.0001   -0.0021   -0.1575   -0.0643
          29   -0.0496    0.0083   -0.0266   -0.0667   -0.0099    0.0021    0.1932    0.0832
          30   -0.0138    0.0016    0.0104    0.0101   -0.1178    0.0458    0.1886   -0.0396
          31    0.0438   -0.0459    0.0230    0.1657    0.0924    0.0477   -0.0034   -0.0009
          32   -0.0386    0.0141   -0.0078   -0.1147   -0.0447   -0.0400   -0.0034   -0.0199
          33   -0.0469    0.0049    0.2571    0.0201    0.0565   -0.0166    0.0038   -0.0698
          34   -0.0131   -0.0135   -0.0108    0.0182   -0.0235    0.0318    0.0233   -0.0335
          35   -0.0061    0.0135    0.0006   -0.0297    0.0469   -0.0277   -0.0302    0.0449
          36   -0.0420    0.0125   -0.0268   -0.0558    0.1383   -0.0405   -0.1029    0.0774
          37   -0.0539   -0.0134   -0.0352   -0.0204    0.0442    0.0917   -0.0093   -0.0215
          38    0.0238    0.0158    0.0207   -0.0097   -0.0038   -0.0458   -0.0051    0.0353
          39    0.0760    0.0170    0.0478    0.0442   -0.0784   -0.1722    0.0193    0.0299
          40   -0.0078    0.0101    0.0021   -0.0248    0.0149    0.0182   -0.0108    0.0224
          41   -0.0140   -0.0030   -0.0089   -0.0055    0.0196    0.0067   -0.0058    0.0065
          42   -0.0593   -0.0499   -0.0617    0.0539    0.0397   -0.0131   -0.0072   -0.0491
          43    0.0129   -0.0754   -0.0430   -0.0956   -0.0360   -0.0282   -0.0445   -0.0587
          44   -0.0726   -0.0649    0.1137    0.0818    0.0607    0.0149    0.0815    0.0856
          45    0.0240    0.0351   -0.0184   -0.0238   -0.0078   -0.0081   -0.0032   -0.0116
          46   -0.0082    0.2144   -0.0203    0.0024   -0.0013   -0.0002    0.0033   -0.0007
          47   -0.0856    0.0745    0.0015    0.0701    0.0073    0.0261   -0.0134    0.0075
          48    0.0080   -0.0561    0.0004   -0.0057   -0.0028   -0.0010   -0.0054   -0.0047
          49   -0.0499    0.2108   -0.0285    0.0241   -0.0002    0.0079   -0.0045   -0.0003
          50    0.0251    0.1571    0.0225   -0.0095    0.0121   -0.0089    0.0150   -0.0013
          51    0.0663   -0.0237    0.0310   -0.0298    0.0075   -0.0136    0.0140    0.0000


   Root No.      25        26        27        28        29        30        31        32

                25 A      26 A      27 A      28 A      29 A      30 A      31 A      32 A   

                1181.7    1217.6    1263.1    1322.1    1357.0    1397.3    1406.9    1410.2
  
           1    0.0107   -0.0260    0.0303   -0.0057   -0.0213   -0.0095    0.0001   -0.0004
           2    0.0307    0.0364   -0.0031   -0.0123    0.0202    0.0182   -0.0009    0.0008
           3   -0.0232   -0.0193   -0.0154    0.0011    0.0117    0.0022   -0.0009    0.0003
           4    0.0030   -0.0109    0.0109    0.0127   -0.0185   -0.0175    0.0012   -0.0013
           5   -0.0147   -0.0232   -0.0344    0.0114    0.0210    0.0091   -0.0003    0.0006
           6    0.0126   -0.0291    0.0186    0.0080   -0.0183   -0.0140    0.0005   -0.0008
           7    0.0044    0.0046    0.0081   -0.0216    0.0210    0.0288   -0.0029    0.0041
           8   -0.0194    0.0060   -0.0196    0.0277   -0.0202   -0.0474    0.0004   -0.0068
           9    0.0057    0.0158   -0.0185    0.0239   -0.0213    0.0103    0.0059   -0.0002
          10   -0.0059   -0.0024   -0.0034    0.0024    0.0016   -0.0076   -0.0266   -0.0269
          11    0.0043   -0.0040    0.0066   -0.0049    0.0004    0.0078   -0.0298    0.0285
          12    0.0005    0.0003    0.0015    0.0055   -0.0165    0.0229   -0.0086   -0.0068
          13    0.0051   -0.0026   -0.0163    0.0087    0.0168    0.0082   -0.0004    0.0006
          14   -0.0151    0.0091    0.0066   -0.0214   -0.0181   -0.0058    0.0002   -0.0003
          15    0.0188   -0.0097   -0.0378   -0.0009    0.0171    0.0095   -0.0004    0.0005
          16    0.0001   -0.0017    0.0006    0.0051    0.0047    0.0019   -0.0001    0.0001
          17   -0.0077    0.0066    0.0083   -0.0122   -0.0156   -0.0070    0.0003   -0.0004
          18   -0.0233    0.0125    0.0187   -0.0091   -0.0138   -0.0059    0.0003   -0.0003
          19   -0.0035    0.0049   -0.0046   -0.0003    0.0035    0.0022    0.0001    0.0001
          20    0.0056    0.0021    0.0076   -0.0035   -0.0024    0.0000    0.0000    0.0001
          21    0.0136    0.0280    0.0141   -0.0115   -0.0020    0.0046   -0.0001    0.0002
          22    0.0554    0.2308   -0.0163   -0.0284    0.0335    0.0220   -0.0081   -0.0012
          23    0.0206   -0.1284    0.0451    0.0085   -0.0340   -0.0085    0.0069    0.0013
          24    0.0091   -0.0239    0.0194    0.0147   -0.0262   -0.0108    0.0053    0.0016
          25   -0.0003    0.0548   -0.0479    0.0502   -0.0479    0.0627    0.0101    0.0073
          26    0.0043   -0.0920    0.0763   -0.0436   -0.0258    0.2148    0.0034    0.0426
          27    0.0094   -0.0308    0.0370   -0.0567    0.0720   -0.0972   -0.0134   -0.0171
          28    0.0784    0.0651   -0.0295    0.0317    0.0089   -0.1973   -0.0090   -0.0395
          29   -0.0923   -0.0692    0.0341   -0.0502    0.0331    0.0709   -0.0046    0.0185
          30   -0.0363   -0.0519    0.0365   -0.0621    0.0863   -0.1417   -0.0154   -0.0243
          31   -0.2064   -0.0506   -0.1085    0.0033    0.0336    0.0208   -0.0005    0.0024
          32    0.1043    0.0022    0.0303    0.0166   -0.0069   -0.0124    0.0005   -0.0016
          33   -0.0987    0.0543   -0.0696   -0.0165    0.0294    0.0218   -0.0007    0.0013
          34    0.0093    0.0062   -0.0026    0.0017    0.0029   -0.0276    0.1067    0.2900
          35   -0.0111   -0.0093    0.0121   -0.0269    0.0394   -0.0240   -0.1390   -0.1516
          36   -0.0045   -0.0014    0.0185   -0.0494    0.0795   -0.0889   -0.0785    0.1562
          37    0.0098    0.0195   -0.0192    0.0375   -0.0583    0.0626   -0.0837   -0.0663
          38   -0.0127   -0.0087    0.0053   -0.0081    0.0083    0.0147    0.2943   -0.2529
          39   -0.0147   -0.0255    0.0231   -0.0423    0.0645   -0.0736    0.0289    0.1176
          40   -0.0068    0.0131   -0.0145    0.0149   -0.0105   -0.0139    0.3244    0.0898
          41    0.0019    0.0032    0.0020   -0.0013   -0.0015    0.0010    0.1996    0.0728
          42    0.0306   -0.0267    0.0580   -0.0921    0.1068   -0.0169    0.1158   -0.1544
          43   -0.1115    0.0663    0.0406   -0.0139   -0.0114   -0.0026    0.0002   -0.0003
          44    0.2137   -0.1390   -0.0931    0.0320    0.0265    0.0054   -0.0002    0.0001
          45    0.0019    0.0015   -0.0338   -0.0059    0.0155    0.0102   -0.0005    0.0007
          46    0.0264   -0.0160   -0.0830   -0.0996   -0.0488   -0.0108    0.0003   -0.0005
          47   -0.0672    0.0396    0.1472    0.1621    0.0807    0.0194   -0.0007    0.0010
          48   -0.0176    0.0096    0.0096   -0.0195   -0.0204   -0.0082    0.0004   -0.0005
          49   -0.0052   -0.0009   -0.0066   -0.0121   -0.0076   -0.0025    0.0001   -0.0002
          50    0.0105    0.0014    0.0449    0.1070    0.0652    0.0174   -0.0006    0.0008
          51    0.0113    0.0021    0.0688    0.1717    0.1130    0.0340   -0.0013    0.0018


   Root No.      33        34        35        36        37        38        39        40

                33 A      34 A      35 A      36 A      37 A      38 A      39 A      40 A   

                1424.8    1617.3    1865.1    2935.2    2947.9    2958.3    3036.6    3043.5
  
           1    0.0000   -0.1529   -0.0080    0.0098   -0.0185   -0.0100    0.0000    0.0001
           2    0.0034    0.0550    0.0007    0.0121   -0.0278   -0.0145    0.0010    0.0001
           3    0.0055    0.0549    0.0043   -0.0074    0.0141    0.0074   -0.0002   -0.0001
           4   -0.0082    0.1537    0.0326   -0.0274   -0.0065   -0.0006   -0.0001   -0.0009
           5    0.0033   -0.0264   -0.0354   -0.0442   -0.0118   -0.0024   -0.0004   -0.0013
           6   -0.0052    0.0794    0.0163    0.0013    0.0011    0.0004    0.0000   -0.0003
           7    0.0166    0.0293    0.0000   -0.0047    0.0168   -0.0351   -0.0075    0.0000
           8   -0.0089   -0.0311   -0.0002   -0.0031    0.0109   -0.0225    0.0210    0.0001
           9   -0.0508   -0.0107   -0.0004   -0.0006    0.0031   -0.0070   -0.0317   -0.0001
          10   -0.0234   -0.0012    0.0001    0.0002   -0.0009    0.0018    0.0023    0.0000
          11    0.0139    0.0005   -0.0001    0.0002   -0.0007    0.0011   -0.0039    0.0000
          12    0.0599    0.0027    0.0000    0.0001   -0.0002    0.0003    0.0011    0.0000
          13    0.0027   -0.0163   -0.1003    0.0002   -0.0001   -0.0001    0.0000   -0.0098
          14   -0.0018   -0.0002    0.2107    0.0000    0.0001    0.0001    0.0000   -0.0153
          15    0.0036   -0.0348    0.0684    0.0011    0.0003    0.0000    0.0001   -0.0679
          16    0.0007   -0.0090    0.0718   -0.0002   -0.0001    0.0000    0.0000    0.0016
          17   -0.0025    0.0279   -0.1694    0.0001    0.0000    0.0000    0.0000   -0.0004
          18   -0.0020    0.0178   -0.0911    0.0001    0.0000    0.0000    0.0000    0.0052
          19   -0.0001    0.0001   -0.0010    0.0001    0.0001    0.0001   -0.0001    0.0003
          20    0.0014   -0.0204    0.0009    0.0005    0.0002    0.0000    0.0002   -0.0002
          21    0.0017   -0.0775   -0.0051    0.0013   -0.0005   -0.0004    0.0000    0.0003
          22    0.0060    0.0377   -0.0005   -0.0971    0.2159    0.1100   -0.0037   -0.0001
          23   -0.0087   -0.1047   -0.0074   -0.1575    0.3345    0.1769   -0.0075   -0.0006
          24   -0.0105    0.0096    0.0050    0.0788   -0.1649   -0.0867    0.0028    0.0003
          25   -0.0900    0.0006   -0.0008    0.0270   -0.1148    0.2456    0.3447    0.0011
          26   -0.0735   -0.0035    0.0001    0.0033   -0.0127    0.0239    0.0597    0.0002
          27    0.1080    0.0142   -0.0004    0.0229   -0.0956    0.2044    0.2571    0.0008
          28    0.0685   -0.0485   -0.0022    0.0261   -0.0897    0.1742   -0.2521   -0.0009
          29    0.0281    0.0415    0.0015    0.0364   -0.1200    0.2454   -0.3165   -0.0012
          30    0.1411    0.0190    0.0007   -0.0179    0.0591   -0.1180    0.1292    0.0005
          31    0.0041   -0.0327    0.0032    0.3125    0.0848    0.0165    0.0018    0.0077
          32   -0.0033    0.0888   -0.0140    0.5293    0.1387    0.0240    0.0044    0.0158
          33    0.0046   -0.0460    0.0115   -0.0273   -0.0081   -0.0015   -0.0003   -0.0033
          34    0.0116   -0.0002   -0.0001   -0.0017    0.0059   -0.0087    0.0119    0.0002
          35   -0.0982   -0.0043    0.0000   -0.0018    0.0073   -0.0138    0.0129    0.0002
          36   -0.1487   -0.0060   -0.0001    0.0008   -0.0028    0.0032   -0.0055   -0.0001
          37    0.1121    0.0057    0.0000   -0.0019    0.0073   -0.0146   -0.0152    0.0001
          38   -0.0028    0.0001    0.0000   -0.0001    0.0006   -0.0013   -0.0038    0.0000
          39   -0.1187   -0.0054    0.0001   -0.0010    0.0044   -0.0084   -0.0115    0.0001
          40    0.0317   -0.0006    0.0002   -0.0002    0.0002    0.0007   -0.0220   -0.0002
          41    0.0360   -0.0008   -0.0001    0.0005   -0.0008   -0.0004    0.0361    0.0003
          42   -0.1431    0.0098   -0.0003    0.0001   -0.0002    0.0001   -0.0038    0.0000
          43   -0.0005   -0.0124    0.0516   -0.0026   -0.0007   -0.0001   -0.0003    0.1372
          44    0.0012    0.0220   -0.0376   -0.0046   -0.0011   -0.0002   -0.0003    0.1295
          45    0.0038   -0.0424    0.1234   -0.0130   -0.0030   -0.0003   -0.0016    0.7842
          46   -0.0025    0.0062   -0.0622    0.0006    0.0001    0.0000    0.0000    0.0006
          47    0.0045   -0.0172    0.0404    0.0004    0.0000    0.0000    0.0000    0.0034
          48   -0.0027    0.0254   -0.1435    0.0004   -0.0002   -0.0002   -0.0001    0.0094
          49   -0.0007    0.0011    0.0729   -0.0016   -0.0003    0.0000    0.0002   -0.0432
          50    0.0044   -0.0057   -0.0736    0.0009    0.0003    0.0000   -0.0003    0.0557
          51    0.0096   -0.0492    0.1134   -0.0004   -0.0001    0.0000    0.0002   -0.0436


   Root No.      41        42        43        44        45

                41 A      42 A      43 A      44 A      45 A   

                3080.1    3085.6    3135.6    3142.7    3182.3
  
           1    0.0000   -0.0002    0.0000    0.0000   -0.0001
           2    0.0001    0.0001   -0.0001    0.0000    0.0000
           3    0.0000    0.0003    0.0001    0.0000    0.0001
           4    0.0000    0.0000    0.0002    0.0000    0.0000
           5    0.0000    0.0000   -0.0004    0.0006    0.0000
           6    0.0000    0.0000   -0.0001    0.0001    0.0000
           7   -0.0022    0.0010    0.0000    0.0000    0.0002
           8   -0.0018   -0.0014    0.0000    0.0000   -0.0003
           9    0.0001    0.0026    0.0000   -0.0001   -0.0003
          10   -0.0383    0.0291    0.0000    0.0000    0.0082
          11   -0.0352   -0.0341    0.0000    0.0000   -0.0070
          12   -0.0046    0.0192    0.0000    0.0000   -0.0223
          13    0.0000    0.0000   -0.0020   -0.0012    0.0000
          14    0.0000    0.0000    0.0043    0.0063    0.0000
          15    0.0000    0.0000    0.0016    0.0087    0.0000
          16    0.0000    0.0000   -0.0134    0.0330    0.0000
          17    0.0000    0.0000   -0.0102   -0.0495    0.0000
          18    0.0000    0.0000   -0.0710    0.0184    0.0000
          19    0.0000    0.0000    0.0001    0.0000    0.0000
          20    0.0000    0.0000    0.0000    0.0000    0.0000
          21    0.0000    0.0000    0.0000   -0.0001    0.0000
          22   -0.0015    0.0002    0.0002    0.0000    0.0009
          23   -0.0005    0.0012    0.0004    0.0001    0.0009
          24    0.0011    0.0000   -0.0003   -0.0001   -0.0008
          25    0.0091   -0.0273    0.0001    0.0002   -0.0017
          26    0.0007   -0.0060    0.0001    0.0000   -0.0006
          27    0.0118   -0.0236    0.0001    0.0001   -0.0023
          28    0.0158    0.0179    0.0000   -0.0001    0.0020
          29    0.0192    0.0199    0.0000   -0.0001    0.0019
          30   -0.0129   -0.0092    0.0000    0.0000   -0.0018
          31   -0.0001   -0.0002    0.0001   -0.0015    0.0000
          32   -0.0005   -0.0004   -0.0004   -0.0027    0.0000
          33    0.0000    0.0000    0.0000    0.0003    0.0000
          34    0.2598    0.1069   -0.0001    0.0000   -0.1787
          35    0.3366    0.0991   -0.0002    0.0000   -0.2344
          36   -0.1686   -0.0446    0.0000    0.0000    0.0983
          37    0.2672   -0.2310    0.0002    0.0001    0.2554
          38    0.0253   -0.0549    0.0000    0.0000    0.0352
          39    0.2272   -0.1866    0.0001    0.0000    0.1913
          40   -0.0683   -0.2235    0.0000   -0.0002   -0.1763
          41    0.0588    0.3631    0.0000    0.0003    0.2840
          42   -0.0042    0.0010    0.0000   -0.0001   -0.0168
          43    0.0000    0.0000   -0.0006   -0.0103    0.0000
          44    0.0000    0.0000    0.0050   -0.0139    0.0000
          45   -0.0002    0.0000    0.0075   -0.0679   -0.0001
          46    0.0000    0.0000    0.1273    0.0253    0.0000
          47    0.0000    0.0000    0.1495    0.0054    0.0000
          48    0.0000    0.0001    0.7877    0.1056   -0.0002
          49    0.0000    0.0001    0.0527   -0.3908    0.0001
          50    0.0000   -0.0001   -0.0771    0.5186   -0.0001
          51    0.0000    0.0001    0.0327   -0.3614    0.0001


           MASS-WEIGHTED COORDINATE ANALYSIS (NORMAL COORDINATES)


   Root No.       1         2         3         4         5         6         7         8

                 1 A       2 A       3 A       4 A       5 A       6 A       7 A       8 A   

                  49.9      56.5     138.7     174.4     272.2     294.5     400.0     477.1
  
           1   -0.1690   -0.0400   -0.0488    0.0659    0.3099   -0.1073   -0.0214   -0.0378
           2   -0.0696   -0.1152    0.0548    0.1208    0.1611   -0.0610    0.4396   -0.1474
           3   -0.0844   -0.2032   -0.2126   -0.0493    0.1675   -0.0536   -0.0051    0.3474
           4   -0.1727   -0.0384   -0.0583    0.0583    0.3158   -0.0777    0.0246   -0.0470
           5   -0.1266    0.1273   -0.0004   -0.0210    0.1463   -0.1842   -0.0687    0.1516
           6    0.1290    0.0797   -0.2762   -0.1834   -0.2427   -0.0245    0.1331    0.0677
           7   -0.0998   -0.2413    0.1047    0.0824   -0.2431   -0.1111   -0.3196    0.1952
           8   -0.0272   -0.2398    0.1407    0.1252   -0.1955   -0.0327    0.3000   -0.0965
           9   -0.0675   -0.0778    0.0611    0.0715    0.0473    0.1399   -0.2977   -0.2043
          10    0.2776    0.3676    0.1765   -0.0388   -0.1186   -0.1651    0.0675    0.2148
          11    0.1847   -0.0887   -0.2813   -0.0971    0.0719    0.2489   -0.2118   -0.2201
          12    0.0160    0.1020    0.1955    0.0877    0.0314    0.0541   -0.0302   -0.2728
          13   -0.2951   -0.0138   -0.1597   -0.1282   -0.1706    0.1860    0.1288   -0.0465
          14   -0.2160    0.1351    0.1304   -0.0455   -0.1153   -0.1295   -0.1559    0.0251
          15    0.1260    0.0608    0.0314   -0.0086   -0.0608   -0.2070   -0.0160   -0.1803
          16    0.4135   -0.3174    0.0822    0.0514   -0.0211    0.3216    0.1483    0.0307
          17    0.2088   -0.0413    0.0451   -0.0634   -0.1188   -0.3161   -0.1694   -0.0707
          18   -0.1039    0.1493    0.3724    0.1619    0.0586    0.2234   -0.0077    0.0549
          19   -0.0140    0.2686   -0.1380   -0.0823    0.0072   -0.0528   -0.0515   -0.3671
          20    0.0071    0.2560   -0.0666    0.0004    0.1175    0.4098   -0.0537    0.4120
          21   -0.0077   -0.1350   -0.2622   -0.1242   -0.0276   -0.1733    0.2116    0.1823
          22   -0.0784    0.0060   -0.0227    0.0219    0.1908   -0.0555   -0.0391    0.0212
          23   -0.0232   -0.0820    0.0242    0.0409    0.0280   -0.0517    0.1712   -0.0407
          24   -0.0678   -0.1317   -0.0557    0.0048    0.1470   -0.1159    0.0526    0.1419
          25   -0.0815   -0.1594    0.0276    0.0380   -0.1087   -0.0391   -0.1393    0.1046
          26   -0.0221   -0.1445    0.1400    0.0532   -0.2438   -0.0173   -0.0152   -0.0107
          27    0.0472    0.0981    0.0088    0.0006    0.0845    0.0480   -0.0144   -0.1196
          28   -0.0454   -0.1623    0.0655    0.0226   -0.2098   -0.0321   -0.2088    0.1241
          29   -0.0326   -0.0606    0.0518    0.0579   -0.0154   -0.0192    0.1390   -0.0694
          30   -0.0974   -0.1471    0.0964    0.0667   -0.1115    0.0176   -0.1436   -0.0490
          31   -0.0384   -0.0543   -0.0035    0.0543    0.1591   -0.0386    0.0736   -0.0487
          32   -0.0413    0.0647   -0.0091   -0.0300   -0.0051   -0.0371   -0.0598    0.0661
          33    0.0892    0.1003   -0.1219   -0.0891   -0.1372    0.0893   -0.0056    0.0795
          34    0.1051    0.2108   -0.1130    0.3917   -0.1330   -0.0895    0.0767    0.0909
          35    0.0751   -0.0431   -0.0230   -0.2775    0.1065    0.1207   -0.1288   -0.0994
          36    0.0863    0.1608   -0.0885    0.1757    0.0203    0.0428   -0.0460   -0.1006
          37    0.1361    0.1986    0.0577   -0.0158   -0.0209   -0.0627    0.0988    0.0776
          38    0.0749    0.0590   -0.3553    0.4437   -0.0679    0.0825   -0.1538   -0.0780
          39   -0.0655   -0.0959    0.1017   -0.0600    0.0097    0.0304   -0.0834   -0.0927
          40    0.0889    0.0532    0.2294   -0.4427    0.0787   -0.0124    0.0074    0.0422
          41    0.0587   -0.0598    0.0300   -0.3006    0.0929    0.0965   -0.0734   -0.0799
          42    0.0121    0.0650    0.1890   -0.0345   -0.0104   -0.0537    0.1895   -0.0332
          43   -0.2911    0.0737   -0.1341   -0.1314   -0.2572    0.1432    0.1396   -0.0679
          44   -0.1871    0.0820    0.0947   -0.0121   -0.1157    0.0678   -0.0221   -0.0148
          45    0.0931   -0.0030    0.0156    0.0143    0.0326   -0.0897   -0.0256   -0.0366
          46    0.3221   -0.1675    0.1157    0.1123    0.2088    0.0489   -0.0433    0.1190
          47    0.1870   -0.0573   -0.0492   -0.0259    0.0376   -0.2746   -0.1170   -0.0698
          48   -0.0867    0.0640    0.1057    0.0332   -0.0307    0.1089    0.0249    0.0097
          49    0.0955   -0.0912   -0.0060   -0.0371   -0.1857    0.1875    0.1422   -0.0686
          50    0.0408   -0.0102    0.0534   -0.0165   -0.1119    0.0382    0.0121   -0.0093
          51   -0.0323    0.0450    0.2008    0.1075    0.1018    0.1559   -0.0191    0.1212


   Root No.       9        10        11        12        13        14        15        16

                 9 A      10 A      11 A      12 A      13 A      14 A      15 A      16 A   

                 577.0     652.1     808.4     903.7     904.6     920.6     951.1     976.6
  
           1    0.1669   -0.0683   -0.0781    0.2514   -0.0257   -0.0129   -0.0532    0.1735
           2    0.0495   -0.0173   -0.0613    0.2056   -0.0400    0.1424   -0.1207   -0.1932
           3    0.0848   -0.0777    0.0064   -0.1169    0.3471   -0.1527   -0.1491   -0.0868
           4    0.0762    0.0429    0.1350   -0.1081   -0.2138    0.0616    0.0798    0.2017
           5   -0.2865   -0.2371    0.0517    0.0690   -0.3382   -0.0103    0.3547    0.0498
           6   -0.1144   -0.0067   -0.1131    0.2445   -0.1362    0.1054   -0.0216    0.1098
           7    0.0735   -0.0642   -0.3392    0.0166   -0.0346    0.0448   -0.0517   -0.0367
           8   -0.0953    0.0541   -0.1058   -0.0916    0.0829   -0.1300    0.0159    0.0386
           9   -0.0031   -0.0341   -0.0884    0.0237   -0.0415    0.0587   -0.0334   -0.0267
          10    0.0346   -0.0108   -0.0836   -0.0324   -0.0624    0.0701    0.0508   -0.1361
          11   -0.0496    0.0084    0.0032   -0.1038    0.0712   -0.1416    0.0771    0.2676
          12   -0.0724   -0.0114   -0.0031    0.0055    0.0034   -0.0295    0.0327    0.0108
          13   -0.0929    0.4927    0.0149   -0.0096   -0.1702   -0.1929   -0.1684    0.0020
          14   -0.1108    0.0869   -0.0470   -0.0326    0.0080   -0.0596   -0.1860   -0.0280
          15    0.4191    0.2313    0.0547    0.0425   -0.0351    0.0375    0.0516    0.1427
          16   -0.0304    0.0025    0.0241   -0.0004   -0.0695   -0.0942    0.0670   -0.1321
          17    0.1607   -0.0202   -0.0360   -0.0043    0.0947    0.0757   -0.2292    0.0936
          18    0.0226    0.0481    0.0187   -0.0138   -0.0286   -0.0939    0.1750   -0.1367
          19   -0.2699   -0.2497    0.0655   -0.2158    0.3661   -0.0981   -0.0807   -0.2294
          20    0.2913    0.1319    0.0712   -0.1461    0.0528    0.0427   -0.0302   -0.0495
          21   -0.2144   -0.0832    0.1031   -0.3518   -0.1537    0.2198   -0.0079   -0.0807
          22    0.0705   -0.0768    0.0789    0.1438    0.0381   -0.1108    0.1816    0.1204
          23    0.0065   -0.0092   -0.0550    0.1478    0.0553   -0.0094   -0.0546   -0.1794
          24    0.0453   -0.1037    0.0524    0.2383    0.2985   -0.2803    0.1651   -0.1865
          25    0.0208   -0.0268    0.1121    0.1270    0.0433    0.0128   -0.1216    0.0095
          26   -0.1219    0.0266    0.3765   -0.0749   -0.0408   -0.0303    0.1837    0.0168
          27    0.0098   -0.0024   -0.3212   -0.1304   -0.0651    0.0132    0.0960   -0.0282
          28   -0.0297   -0.0203    0.2372   -0.0387    0.0087   -0.0067    0.0764    0.0498
          29   -0.0157    0.0156   -0.0628    0.0986   -0.0021    0.0038   -0.0904   -0.0580
          30   -0.0530   -0.0115    0.3934    0.1921   -0.0336    0.0690   -0.0693   -0.0543
          31    0.1389   -0.0363    0.1173   -0.1455   -0.0392    0.2312   -0.0398    0.0678
          32   -0.1552   -0.0415   -0.0393    0.1085   -0.1078   -0.1440    0.1420    0.0107
          33   -0.0997   -0.0390   -0.1643    0.4412    0.0214   -0.2673    0.0559    0.0958
          34   -0.0018    0.0080    0.0370   -0.0431    0.0554   -0.0653    0.0101    0.1166
          35   -0.0075   -0.0074    0.1093    0.1262   -0.0554    0.0906   -0.0654   -0.1394
          36   -0.0255   -0.0047    0.2891    0.2384   -0.0267    0.1041   -0.1592   -0.1637
          37   -0.0011    0.0128    0.2211    0.0868    0.0675   -0.0281   -0.1000    0.0709
          38   -0.0121   -0.0108   -0.0040    0.0448   -0.0708    0.0766    0.0062   -0.1294
          39   -0.0088   -0.0194   -0.2779   -0.1206   -0.0787    0.0240    0.1428   -0.0831
          40    0.0149   -0.0047    0.0901    0.0966   -0.0369    0.0789   -0.0631   -0.1215
          41   -0.0115    0.0010    0.0716    0.0407    0.0022    0.0027   -0.0263    0.0144
          42   -0.0446    0.0294    0.0932   -0.1307    0.2135   -0.2785    0.0309    0.4699
          43    0.0938    0.0398   -0.0263    0.1729    0.2876    0.4470    0.3378    0.1705
          44    0.0776   -0.0248   -0.0125   -0.0433    0.3022    0.1640    0.1717   -0.1563
          45    0.0796    0.0918    0.0200   -0.0101   -0.1197   -0.1060   -0.0912    0.0395
          46   -0.3358    0.1833   -0.0646    0.1006    0.2391    0.3395    0.1381    0.1777
          47    0.1055    0.3325    0.0257   -0.0158    0.1126   -0.0147    0.3371   -0.1928
          48    0.0442   -0.0835    0.0084   -0.0156   -0.0652   -0.0745   -0.0527   -0.0253
          49    0.3183   -0.4470    0.0647   -0.0462   -0.1329   -0.0815    0.1634    0.0029
          50    0.1201   -0.3750   -0.0195    0.0036    0.0131    0.1166   -0.1791    0.2221
          51   -0.2547   -0.0421   -0.0730    0.0584    0.0915    0.1778   -0.2772    0.2120


   Root No.      17        18        19        20        21        22        23        24

                17 A      18 A      19 A      20 A      21 A      22 A      23 A      24 A   

                 989.7    1036.5    1054.2    1106.3    1112.9    1123.8    1139.7    1171.7
  
           1   -0.0995   -0.0332    0.0924    0.0614   -0.1564    0.0631   -0.1312    0.1779
           2   -0.0188   -0.0021    0.0363    0.1821   -0.2214    0.0732   -0.2036   -0.1789
           3   -0.1191    0.0421    0.0653   -0.1398   -0.3276    0.0425   -0.2844    0.1576
           4   -0.0685    0.0220    0.2756   -0.1668    0.1639   -0.1168    0.1013   -0.1169
           5   -0.0494   -0.1113   -0.2408   -0.0487   -0.0283   -0.0042   -0.0858   -0.0417
           6    0.1184   -0.0616   -0.2310    0.3243   -0.0045    0.1377   -0.0246    0.2436
           7   -0.1307   -0.0371   -0.1892   -0.0443    0.3061    0.0259   -0.0557   -0.0079
           8   -0.0421    0.0335    0.0014   -0.2246    0.1336    0.0305    0.0393    0.3046
           9   -0.0595   -0.0239   -0.0521   -0.0180   -0.0850    0.4160    0.1397   -0.2308
          10    0.1412    0.0361    0.1023    0.0467   -0.2780   -0.0589    0.1565   -0.0213
          11   -0.0255   -0.0569   -0.0380    0.1387   -0.0937   -0.0554    0.1033   -0.1064
          12    0.0425    0.0055   -0.0096    0.0798    0.0976   -0.4379   -0.1463    0.1300
          13    0.1078    0.2684   -0.0662    0.0625    0.0068    0.0170    0.0089    0.0008
          14    0.0072    0.1230    0.0267    0.1490    0.0202    0.0455   -0.0207    0.0035
          15    0.1197    0.0123   -0.0529   -0.2731   -0.0406   -0.0859    0.0200   -0.0620
          16    0.0131   -0.4455   -0.0234   -0.0503   -0.0241   -0.0067   -0.0164    0.0002
          17    0.1152   -0.1845    0.1191   -0.0595    0.0213   -0.0247    0.0112   -0.0269
          18   -0.1420    0.0459   -0.0449    0.0993   -0.0154    0.0373   -0.0558   -0.0177
          19    0.0418    0.0350   -0.0696   -0.0556   -0.0574    0.0165   -0.0171   -0.0379
          20    0.0801    0.0294   -0.0479   -0.0430    0.0786   -0.0535    0.0694   -0.0292
          21   -0.1191   -0.0103    0.1588   -0.0303    0.1844   -0.0803    0.2070   -0.0981
          22    0.2347   -0.0362   -0.0145    0.0816    0.0051    0.1228    0.1831    0.4381
          23    0.0698    0.0468   -0.0476    0.0273    0.1032   -0.0729   -0.0460   -0.4120
          24    0.4605    0.0727   -0.1593   -0.0005    0.3068   -0.0390    0.2376   -0.1844
          25   -0.1826   -0.0425   -0.1602    0.1252   -0.0604   -0.2724    0.1067   -0.0382
          26    0.3077    0.0656    0.2891   -0.1138   -0.0513    0.2139   -0.1929    0.1300
          27    0.1151    0.0226    0.0720   -0.1632    0.1687    0.4380   -0.0806   -0.0313
          28    0.1355   -0.0138    0.0624    0.1499   -0.0002   -0.0044   -0.3411   -0.1478
          29   -0.1485    0.0176   -0.0641   -0.1713   -0.0241    0.0044    0.4185    0.1912
          30   -0.0414    0.0034    0.0250    0.0260   -0.2884    0.0954    0.4085   -0.0910
          31    0.1310   -0.0969    0.0554    0.4256    0.2263    0.0994   -0.0074   -0.0021
          32   -0.1156    0.0297   -0.0187   -0.2947   -0.1094   -0.0834   -0.0074   -0.0458
          33   -0.1402    0.0103    0.6190    0.0515    0.1384   -0.0345    0.0082   -0.1605
          34   -0.0391   -0.0286   -0.0259    0.0468   -0.0575    0.0663    0.0505   -0.0771
          35   -0.0181    0.0285    0.0015   -0.0764    0.1149   -0.0578   -0.0653    0.1032
          36   -0.1258    0.0265   -0.0646   -0.1433    0.3386   -0.0845   -0.2229    0.1780
          37   -0.1614   -0.0283   -0.0847   -0.0524    0.1082    0.1911   -0.0201   -0.0493
          38    0.0714    0.0333    0.0499   -0.0249   -0.0094   -0.0956   -0.0111    0.0812
          39    0.2273    0.0360    0.1150    0.1134   -0.1920   -0.3591    0.0418    0.0688
          40   -0.0233    0.0214    0.0051   -0.0638    0.0365    0.0380   -0.0234    0.0514
          41   -0.0419   -0.0063   -0.0214   -0.0141    0.0481    0.0140   -0.0125    0.0149
          42   -0.1774   -0.1055   -0.1484    0.1385    0.0972   -0.0273   -0.0157   -0.1129
          43    0.0387   -0.1594   -0.1036   -0.2456   -0.0882   -0.0589   -0.0964   -0.1348
          44   -0.2172   -0.1372    0.2739    0.2101    0.1486    0.0310    0.1766    0.1967
          45    0.0718    0.0742   -0.0443   -0.0611   -0.0192   -0.0169   -0.0069   -0.0266
          46   -0.0246    0.4531   -0.0489    0.0063   -0.0032   -0.0005    0.0072   -0.0017
          47   -0.2560    0.1575    0.0037    0.1802    0.0178    0.0544   -0.0291    0.0173
          48    0.0241   -0.1186    0.0010   -0.0145   -0.0069   -0.0020   -0.0118   -0.0107
          49   -0.1493    0.4455   -0.0686    0.0618   -0.0005    0.0164   -0.0098   -0.0006
          50    0.0752    0.3321    0.0541   -0.0243    0.0297   -0.0185    0.0324   -0.0030
          51    0.1985   -0.0502    0.0746   -0.0765    0.0184   -0.0284    0.0303   -0.0001


   Root No.      25        26        27        28        29        30        31        32

                25 A      26 A      27 A      28 A      29 A      30 A      31 A      32 A   

                1181.7    1217.6    1263.1    1322.1    1357.0    1397.3    1406.9    1410.2
  
           1    0.0834   -0.2034    0.2622   -0.0506   -0.1990   -0.0720    0.0008   -0.0029
           2    0.2396    0.2843   -0.0268   -0.1095    0.1884    0.1376   -0.0055    0.0052
           3   -0.1812   -0.1508   -0.1335    0.0098    0.1094    0.0167   -0.0058    0.0020
           4    0.0235   -0.0850    0.0945    0.1129   -0.1728   -0.1322    0.0072   -0.0086
           5   -0.1148   -0.1814   -0.2984    0.1014    0.1963    0.0692   -0.0021    0.0038
           6    0.0986   -0.2269    0.1609    0.0711   -0.1705   -0.1057    0.0029   -0.0051
           7    0.0342    0.0357    0.0703   -0.1917    0.1959    0.2183   -0.0181    0.0273
           8   -0.1510    0.0468   -0.1700    0.2459   -0.1886   -0.3586    0.0022   -0.0448
           9    0.0447    0.1233   -0.1600    0.2127   -0.1987    0.0779    0.0365   -0.0010
          10   -0.0463   -0.0187   -0.0291    0.0217    0.0147   -0.0572   -0.1645   -0.1767
          11    0.0337   -0.0310    0.0574   -0.0439    0.0034    0.0592   -0.1847    0.1878
          12    0.0041    0.0024    0.0134    0.0486   -0.1538    0.1735   -0.0530   -0.0447
          13    0.0400   -0.0205   -0.1412    0.0772    0.1565    0.0618   -0.0023    0.0037
          14   -0.1181    0.0707    0.0568   -0.1899   -0.1693   -0.0439    0.0014   -0.0017
          15    0.1465   -0.0759   -0.3276   -0.0076    0.1592    0.0723   -0.0025    0.0036
          16    0.0007   -0.0132    0.0054    0.0452    0.0439    0.0144   -0.0005    0.0007
          17   -0.0599    0.0512    0.0717   -0.1084   -0.1458   -0.0530    0.0021   -0.0028
          18   -0.1820    0.0973    0.1619   -0.0805   -0.1288   -0.0450    0.0016   -0.0022
          19   -0.0319    0.0438   -0.0459   -0.0031    0.0378    0.0189    0.0005    0.0010
          20    0.0501    0.0187    0.0764   -0.0361   -0.0254   -0.0001    0.0000    0.0010
          21    0.1222    0.2525    0.1413   -0.1181   -0.0210    0.0400   -0.0006    0.0013
          22    0.1251    0.5222   -0.0410   -0.0731    0.0906    0.0482   -0.0146   -0.0023
          23    0.0466   -0.2905    0.1132    0.0218   -0.0919   -0.0187    0.0123    0.0026
          24    0.0206   -0.0542    0.0486    0.0378   -0.0708   -0.0236    0.0095    0.0031
          25   -0.0007    0.1241   -0.1203    0.1292   -0.1294    0.1375    0.0181    0.0139
          26    0.0098   -0.2081    0.1914   -0.1120   -0.0697    0.4709    0.0060    0.0812
          27    0.0212   -0.0697    0.0928   -0.1458    0.1945   -0.2131   -0.0240   -0.0326
          28    0.1771    0.1473   -0.0741    0.0815    0.0240   -0.4324   -0.0162   -0.0754
          29   -0.2085   -0.1565    0.0856   -0.1291    0.0894    0.1555   -0.0082    0.0352
          30   -0.0821   -0.1175    0.0916   -0.1597    0.2333   -0.3106   -0.0275   -0.0463
          31   -0.4662   -0.1145   -0.2723    0.0084    0.0909    0.0456   -0.0008    0.0046
          32    0.2357    0.0050    0.0761    0.0426   -0.0185   -0.0271    0.0010   -0.0031
          33   -0.2230    0.1228   -0.1747   -0.0425    0.0795    0.0477   -0.0013    0.0025
          34    0.0211    0.0139   -0.0066    0.0043    0.0078   -0.0606    0.1914    0.5528
          35   -0.0251   -0.0211    0.0303   -0.0692    0.1066   -0.0527   -0.2493   -0.2890
          36   -0.0101   -0.0032    0.0465   -0.1272    0.2150   -0.1949   -0.1408    0.2978
[...]
 EFF. MASS   4.3194

 VIBRATION   24   24A       ATOM PAIR        ENERGY CONTRIBUTION    RADIAL
 FREQ.      1171.65        C  1 --  H  8          +23.7% ( 62.3%)     3.0%
 T-DIPOLE    0.0900        C  1 --  C  3          +16.0% ( 51.2%)    62.0%
 TRAVEL      0.1053        C  3 --  C  4          +10.8% ( 42.0%)    20.6%
 RED. MASS   0.5995        C  1 --  C  2           +7.5% ( 35.0%)    76.8%
 EFF. MASS   5.1886

 VIBRATION   25   25A       ATOM PAIR        ENERGY CONTRIBUTION    RADIAL
 FREQ.      1181.71        C  2 --  H 11          +23.1% ( 57.8%)     1.0%
 T-DIPOLE    0.1141        C  5 --  H 15          +22.1% ( 56.5%)     1.7%
 TRAVEL      0.1245        C  1 --  C  3           +9.3% ( 36.8%)    46.3%
 RED. MASS   0.3680        C  1 --  O  7           +8.0% ( 34.0%)    51.7%
 EFF. MASS   3.6785

 VIBRATION   26   26A       ATOM PAIR        ENERGY CONTRIBUTION    RADIAL
 FREQ.      1217.56        C  1 --  H  8          +31.0% ( 70.4%)     1.7%
 T-DIPOLE    0.2094        C  1 --  C  2          +10.4% ( 40.7%)     5.9%
 TRAVEL      0.1085        C  2 --  O  7          +10.1% ( 40.2%)    89.4%
 RED. MASS   0.5846        C  1 --  O  7           +9.1% ( 38.3%)     7.5%
 EFF. MASS   4.7064

 VIBRATION   27   27A       ATOM PAIR        ENERGY CONTRIBUTION    RADIAL
 FREQ.      1263.12        C  2 --  C  5          +15.2% ( 53.7%)    85.8%
 T-DIPOLE    0.1852        C  2 --  H 11          +11.0% ( 45.6%)     5.8%
 TRAVEL      0.0913        C  5 --  C  6           +9.0% ( 41.2%)    13.6%
 RED. MASS   0.6044        C  1 --  C  2           +9.0% ( 41.2%)    14.9%
 EFF. MASS   6.4083

 VIBRATION   28   28A       ATOM PAIR        ENERGY CONTRIBUTION    RADIAL
 FREQ.      1322.07        C  6 --  H 17          +16.8% ( 47.6%)     1.0%
 T-DIPOLE    0.1151        C  6 --  H 16          +15.0% ( 45.0%)     1.8%
 TRAVEL      0.1186        C  3 --  H 10          +11.9% ( 40.1%)     0.0%
 RED. MASS   0.4288        C  3 --  H  9          +11.9% ( 40.0%)     0.0%
 EFF. MASS   3.6245

 VIBRATION   29   29A       ATOM PAIR        ENERGY CONTRIBUTION    RADIAL
 FREQ.      1356.97        C  2 --  C  5          +11.6% ( 45.4%)    97.5%
 T-DIPOLE    0.1601        C  1 --  C  3          +10.6% ( 43.4%)    70.7%
 TRAVEL      0.0952        C  6 --  H 17           +8.1% ( 37.9%)     1.1%
 RED. MASS   0.5020        C  3 --  H 10           +7.6% ( 36.6%)     0.5%
 EFF. MASS   5.4865

 VIBRATION   30   30A       ATOM PAIR        ENERGY CONTRIBUTION    RADIAL
 FREQ.      1397.28        C  3 --  H 10          +26.0% ( 58.9%)     3.3%
 T-DIPOLE    0.1508        C  3 --  H  9          +24.0% ( 56.7%)     3.8%
 TRAVEL      0.1106        C  1 --  C  3          +12.4% ( 40.7%)    98.9%
 RED. MASS   0.6200        C  3 --  C  4          +10.6% ( 37.7%)    27.5%
 EFF. MASS   3.9441

 VIBRATION   31   31A       ATOM PAIR        ENERGY CONTRIBUTION    RADIAL
 FREQ.      1406.95        C  4 --  H 14          +50.7% ( 61.6%)     0.4%
 T-DIPOLE    0.0529        C  4 --  H 13          +30.6% ( 47.9%)     5.3%
 TRAVEL      0.1747        C  4 --  H 12          +12.7% ( 30.8%)    26.9%
 RED. MASS   0.4179        C  3 --  C  4           +5.2% ( 19.8%)     8.8%
 EFF. MASS   1.5708

 VIBRATION   32   32A       ATOM PAIR        ENERGY CONTRIBUTION    RADIAL
 FREQ.      1410.24        C  4 --  H 12          +47.4% ( 60.2%)     0.2%
 T-DIPOLE    0.0591        C  4 --  H 13          +30.3% ( 48.2%)     3.1%
 TRAVEL      0.1709        C  4 --  H 14          +14.1% ( 32.8%)    28.1%
 RED. MASS   0.3950        C  3 --  C  4           +5.9% ( 21.2%)     5.9%
 EFF. MASS   1.6363

 VIBRATION   33   33A       ATOM PAIR        ENERGY CONTRIBUTION    RADIAL
 FREQ.      1424.76        C  3 --  C  4          +21.6% ( 58.4%)    99.9%
 T-DIPOLE    0.0531        C  4 --  H 12          +16.8% ( 51.5%)     3.9%
 TRAVEL      0.0961        C  4 --  H 13          +15.6% ( 49.7%)     3.1%
 RED. MASS   1.0278        C  4 --  H 14          +14.6% ( 48.0%)     3.8%
 EFF. MASS   5.1254        C  3 --  H 10          +11.7% ( 43.1%)     3.8%
                           C  3 --  H  9          +11.7% ( 43.0%)     3.6%

 VIBRATION   34   34A       ATOM PAIR        ENERGY CONTRIBUTION    RADIAL
 FREQ.      1617.30        C  1 --  C  2          +26.5% ( 83.2%)    92.9%
 T-DIPOLE    0.6238        C  2 --  O  7          +14.2% ( 60.9%)    91.9%
 TRAVEL      0.0587        C  1 --  O  7          +13.6% ( 59.6%)    92.3%
 RED. MASS   3.9596        C  2 --  C  5          +11.2% ( 54.0%)    58.6%
 EFF. MASS  12.1002        C  1 --  C  3          +10.9% ( 53.3%)    62.8%
                           C  2 --  H 11          +10.1% ( 51.5%)     3.1%

 VIBRATION   35   35A       ATOM PAIR        ENERGY CONTRIBUTION    RADIAL
 FREQ.      1865.05        C  5 --  C  6          +44.6% ( 98.7%)    98.6%
 T-DIPOLE    0.2272        C  2 --  C  5          +17.4% ( 61.6%)    62.2%
 TRAVEL      0.0553        C  5 --  H 15          +15.4% ( 58.1%)     3.7%
 RED. MASS   5.2609        C  6 --  H 16          +10.6% ( 48.2%)    10.7%
 EFF. MASS  11.8336        C  6 --  H 17          +10.4% ( 47.7%)    13.4%

 VIBRATION   36   36A       ATOM PAIR        ENERGY CONTRIBUTION    RADIAL
 FREQ.      2935.22        C  2 --  H 11          +86.1% ( 94.6%)   100.0%
 T-DIPOLE    0.1444        C  1 --  H  8           +9.3% ( 31.1%)   100.0%
 TRAVEL      0.1244        C  1 --  C  2           +1.3% ( 11.8%)    29.8%
 RED. MASS   0.7534        C  2 --  O  7           +1.1% ( 10.5%)    21.1%
 EFF. MASS   1.4838

 VIBRATION   37   37A       ATOM PAIR        ENERGY CONTRIBUTION    RADIAL
 FREQ.      2947.95        C  1 --  H  8          +68.0% ( 84.3%)   100.0%
 T-DIPOLE    0.1932        C  3 --  H 10          +10.2% ( 32.6%)    96.7%
 TRAVEL      0.1245        C  2 --  H 11           +9.6% ( 31.7%)    99.9%
 RED. MASS   0.4968        C  3 --  H  9           +8.9% ( 30.5%)    95.9%
 EFF. MASS   1.4760

 VIBRATION   38   38A       ATOM PAIR        ENERGY CONTRIBUTION    RADIAL
 FREQ.      2958.28        C  3 --  H 10          +39.8% ( 65.2%)    96.6%
 T-DIPOLE    0.1656        C  3 --  H  9          +39.2% ( 64.7%)    96.5%
 TRAVEL      0.1223        C  1 --  H  8          +18.0% ( 43.9%)   100.0%
 RED. MASS   0.3675        C  1 --  C  3           +1.1% ( 10.6%)     4.2%
 EFF. MASS   1.5229

 VIBRATION   39   39A       ATOM PAIR        ENERGY CONTRIBUTION    RADIAL
 FREQ.      3036.58        C  3 --  H  9          +50.1% ( 69.8%)    97.8%
 T-DIPOLE    0.0952        C  3 --  H 10          +47.8% ( 68.1%)    97.5%
 TRAVEL      0.1319        C  3 --  C  4           +0.6% (  7.9%)    26.2%
 RED. MASS   0.4772        C  1 --  C  3           +0.6% (  7.7%)    30.6%
 EFF. MASS   1.2761

 VIBRATION   40   40A       ATOM PAIR        ENERGY CONTRIBUTION    RADIAL
 FREQ.      3043.54        C  5 --  H 15          +96.2% ( 99.5%)   100.0%
 T-DIPOLE    0.2901        C  5 --  C  6           +1.4% ( 12.1%)    31.0%
 TRAVEL      0.1213        C  2 --  C  5           +1.4% ( 11.9%)    12.8%
 RED. MASS   0.9105        C  6 --  H 17           +1.0% ( 10.1%)    95.9%
 EFF. MASS   1.5053

 VIBRATION   41   41A       ATOM PAIR        ENERGY CONTRIBUTION    RADIAL
 FREQ.      3080.14        C  4 --  H 12          +59.8% ( 79.8%)    98.3%
 T-DIPOLE    0.0094        C  4 --  H 13          +35.9% ( 61.8%)    94.6%
 TRAVEL      0.1208        C  4 --  H 14           +3.1% ( 18.1%)    38.1%
 RED. MASS   0.5150        C  3 --  C  4           +1.0% ( 10.2%)     0.0%
 EFF. MASS   1.5014

 VIBRATION   42   42A       ATOM PAIR        ENERGY CONTRIBUTION    RADIAL
 FREQ.      3085.57        C  4 --  H 14          +60.0% ( 79.9%)    98.6%
 T-DIPOLE    0.0230        C  4 --  H 13          +30.2% ( 56.7%)    92.5%
 TRAVEL      0.1206        C  4 --  H 12           +8.2% ( 29.6%)    68.4%
 RED. MASS   0.4860        C  3 --  C  4           +1.0% ( 10.3%)     0.0%
 EFF. MASS   1.5037

 VIBRATION   43   43A       ATOM PAIR        ENERGY CONTRIBUTION    RADIAL
 FREQ.      3135.65        C  6 --  H 16          +95.4% ( 99.2%)   100.0%
 T-DIPOLE    0.2678        C  6 --  H 17           +3.2% ( 18.1%)    50.8%
 TRAVEL      0.1188        C  5 --  C  6           +1.4% ( 11.9%)    30.7%
 RED. MASS   0.9058
 EFF. MASS   1.5236

 VIBRATION   44   44A       ATOM PAIR        ENERGY CONTRIBUTION    RADIAL
 FREQ.      3142.71        C  6 --  H 17          +94.9% ( 98.4%)    99.9%
 T-DIPOLE    0.2343        C  6 --  H 16           +2.5% ( 16.1%)     8.9%
 TRAVEL      0.1201        C  5 --  C  6           +1.6% ( 12.7%)    63.9%
 RED. MASS   0.8764        C  5 --  H 15           +0.9% (  9.5%)    95.5%
 EFF. MASS   1.4868

 VIBRATION   45   45A       ATOM PAIR        ENERGY CONTRIBUTION    RADIAL
 FREQ.      3182.26        C  4 --  H 14          +36.1% ( 57.8%)    97.5%
 T-DIPOLE    0.0316        C  4 --  H 13          +32.9% ( 55.2%)    97.1%
 TRAVEL      0.1365        C  4 --  H 12          +30.7% ( 53.3%)    96.7%
 RED. MASS   0.3282        C  3 --  C  4           +0.3% (  5.1%)    99.6%
 EFF. MASS   1.1366

 SYMMETRY NUMBER FOR POINT-GROUP C1  =  1


          SYSTEM IS A GROUND STATE


    NULL



          MOLECULE IS NOT LINEAR

          THERE ARE 45 GENUINE VIBRATIONS IN THIS SYSTEM
          THIS THERMODYNAMICS CALCULATION IS LIMITED TO
          MOLECULES WHICH HAVE NO INTERNAL ROTATIONS




                    CALCULATED THERMODYNAMIC PROPERTIES
                                          *
   TEMP. (K)   PARTITION FUNCTION   H.O.F.    ENTHALPY  HEAT CAPACITY ENTROPY
                                   KCAL/MOL   CAL/MOLE    CAL/K/MOL  CAL/K/MOL


 298.00  VIB.     0.2104D+03                  3315.3271    22.4913    21.7548
         ROT.     0.2547D+06                   888.2813     2.9808    27.7174
         INT.     0.5359D+08                  4203.6084    25.4721    49.4722
         TRA.     0.9400D+27                  1480.4688     4.9680    39.6599
         TOT.                       -3.991    5684.0773    30.4401    89.1322

 200.00  VIB.     0.3312D+02                  1520.0953    14.4442    14.5562
         ROT.     0.1401D+06                   596.1620     2.9808    26.5288
         INT.     0.4639D+07                  2116.2573    17.4250    41.0850
         TRA.     0.5168D+27                   993.6033     4.9680    37.6788
         TOT.                       -6.566    3109.8605    22.3931    78.7638

 210.00  VIB.     0.4009D+02                  1668.1598    15.1728    15.2785
         ROT.     0.1507D+06                   625.9700     2.9808    26.6742
         INT.     0.6040D+07                  2294.1298    18.1536    41.9527
         TRA.     0.5561D+27                  1043.2834     4.9680    37.9212
         TOT.                       -6.338    3337.4132    23.1216    79.8738

 220.00  VIB.     0.4847D+02                  1823.6332    15.9260    16.0016
         ROT.     0.1616D+06                   655.7781     2.9808    26.8129
         INT.     0.7832D+07                  2479.4113    18.9068    42.8144
         TRA.     0.5963D+27                  1092.9636     4.9680    38.1523
         TOT.                       -6.103    3572.3749    23.8748    80.9668

 230.00  VIB.     0.5857D+02                  1986.7608    16.7035    16.7266
         ROT.     0.1727D+06                   685.5862     2.9808    26.9454
         INT.     0.1012D+08                  2672.3470    19.6843    43.6720
         TRA.     0.6374D+27                  1142.6437     4.9680    38.3731
         TOT.                       -5.860    3814.9907    24.6523    82.0451

 240.00  VIB.     0.7074D+02                  2157.7793    17.5040    17.4543
         ROT.     0.1841D+06                   715.3943     2.9808    27.0722
         INT.     0.1302D+08                  2873.1737    20.4848    44.5265
         TRA.     0.6794D+27                  1192.3239     4.9680    38.5846
         TOT.                       -5.610    4065.4976    25.4528    83.1111

 250.00  VIB.     0.8540D+02                  2336.9108    18.3257    18.1854
         ROT.     0.1957D+06                   745.2024     2.9808    27.1939
         INT.     0.1672D+08                  3082.1133    21.3065    45.3794
         TRA.     0.7223D+27                  1242.0041     4.9680    38.7874
         TOT.                       -5.351    4324.1173    26.2746    84.1668

 260.00  VIB.     0.1031D+03                  2524.3576    19.1666    18.9205
         ROT.     0.2076D+06                   775.0105     2.9808    27.3108
         INT.     0.2140D+08                  3299.3681    22.1474    46.2313
         TRA.     0.7661D+27                  1291.6842     4.9680    38.9822
         TOT.                       -5.084    4591.0523    27.1154    85.2136

 270.00  VIB.     0.1244D+03                  2720.2986    20.0242    19.6599
         ROT.     0.2197D+06                   804.8186     2.9808    27.4233
         INT.     0.2732D+08                  3525.1172    23.0050    47.0832
         TRA.     0.8107D+27                  1341.3644     4.9680    39.1697
         TOT.                       -4.809    4866.4816    27.9730    86.2530

 280.00  VIB.     0.1500D+03                  2924.8874    20.8957    20.4039
         ROT.     0.2320D+06                   834.6267     2.9808    27.5317
         INT.     0.3481D+08                  3759.5141    23.8765    47.9356
         TRA.     0.8561D+27                  1391.0445     4.9680    39.3504
         TOT.                       -4.525    5150.5587    28.8446    87.2860

 290.00  VIB.     0.1810D+03                  3138.2508    21.7786    21.1525
         ROT.     0.2445D+06                   864.4348     2.9808    27.6363
         INT.     0.4427D+08                  4002.6857    24.7594    48.7888
         TRA.     0.9024D+27                  1440.7247     4.9680    39.5247
         TOT.                       -4.232    5443.4104    29.7274    88.3136

 300.00  VIB.     0.2184D+03                  3360.4885    22.6701    21.9058
         ROT.     0.2573D+06                   894.2429     2.9808    27.7374
         INT.     0.5621D+08                  4254.7314    25.6509    49.6432
         TRA.     0.9495D+27                  1490.4049     4.9680    39.6932
         TOT.                       -3.930    5745.1363    30.6190    89.3364

 310.00  VIB.     0.2636D+03                  3591.6732    23.5676    22.6638
         ROT.     0.2703D+06                   924.0510     2.9808    27.8351
         INT.     0.7125D+08                  4515.7242    26.5484    50.4989
         TRA.     0.9973D+27                  1540.0850     4.9680    39.8561
         TOT.                       -3.620    6055.8093    31.5164    90.3550

 320.00  VIB.     0.3182D+03                  3831.8521    24.4685    23.4262
         ROT.     0.2834D+06                   953.8591     2.9808    27.9298
         INT.     0.9020D+08                  4785.7112    27.4494    51.3560
         TRA.     0.1046D+28                  1589.7652     4.9680    40.0138
         TOT.                       -3.300    6375.4764    32.4174    91.3698

 330.00  VIB.     0.3842D+03                  4081.0477    25.3706    24.1930
         ROT.     0.2968D+06                   983.6672     2.9808    28.0215
         INT.     0.1140D+09                  5064.7149    28.3514    52.2145
         TRA.     0.1095D+28                  1639.4454     4.9680    40.1667
         TOT.                       -2.971    6704.1603    33.3194    92.3811

 340.00  VIB.     0.4640D+03                  4339.2596    26.2715    24.9638
         ROT.     0.3104D+06                  1013.4753     2.9808    28.1105
         INT.     0.1440D+09                  5352.7350    29.2523    53.0742
         TRA.     0.1146D+28                  1689.1255     4.9680    40.3150
         TOT.                       -2.634    7041.8605    34.2203    93.3892

 350.00  VIB.     0.5606D+03                  4606.4666    27.1692    25.7383
         ROT.     0.3242D+06                  1043.2834     2.9808    28.1969
         INT.     0.1818D+09                  5649.7500    30.1501    53.9351
         TRA.     0.1196D+28                  1738.8057     4.9680    40.4590
         TOT.                       -2.287    7388.5557    35.1181    94.3941

 360.00  VIB.     0.6775D+03                  4882.6280    28.0621    26.5162
         ROT.     0.3382D+06                  1073.0915     2.9808    28.2808
         INT.     0.2291D+09                  5955.7195    31.0429    54.7970
         TRA.     0.1248D+28                  1788.4859     4.9680    40.5990
         TOT.                       -1.931    7744.2054    36.0109    95.3960

 370.00  VIB.     0.8190D+03                  5167.6865    28.9484    27.2972
         ROT.     0.3524D+06                  1102.8996     2.9808    28.3625
         INT.     0.2886D+09                  6270.5861    31.9292    55.6597
         TRA.     0.1300D+28                  1838.1660     4.9680    40.7351
         TOT.                       -1.567    8108.7521    36.8972    96.3947

 380.00  VIB.     0.9906D+03                  5461.5693    29.8267    28.0808
         ROT.     0.3668D+06                  1132.7077     2.9808    28.4420
         INT.     0.3633D+09                  6594.2770    32.8075    56.5228
         TRA.     0.1354D+28                  1887.8462     4.9680    40.8676
         TOT.                       -1.193    8482.1231    37.7756    97.3904

 390.00  VIB.     0.1198D+04                  5764.1905    30.6959    28.8669
         ROT.     0.3814D+06                  1162.5158     2.9808    28.5194
         INT.     0.4571D+09                  6926.7063    33.6767    57.3863
         TRA.     0.1407D+28                  1937.5263     4.9680    40.9966
         TOT.                       -0.811    8864.2326    38.6447    98.3829

 400.00  VIB.     0.1451D+04                  6075.4529    31.5548    29.6549
         ROT.     0.3961D+06                  1192.3239     2.9808    28.5949
         INT.     0.5746D+09                  7267.7768    34.5356    58.2498
         TRA.     0.1462D+28                  1987.2065     4.9680    41.1224
         TOT.                       -0.420    9254.9833    39.5036    99.3722

   *: NOTE: HEATS OF FORMATION ARE RELATIVE TO THE
            ELEMENTS IN THEIR STANDARD STATE AT 298K
              (=  Standard Enthalpy of Formation).

            Hvib:  Zero-point energy is not included.
                   frequencies of less than zero cm-1 are not included.
            Hrot = (3/2)RT
            Htra = (3/2)RT + pV = (5/2)RT

            Heat capacity is Cp, not Cv

           For more information, see: HTTP://OpenMOPAC.net/Manual/thermochemistry.html


           FORCE CONSTANT IN CARTESIAN COORDINATES (Millidynes/A)

    ATOM   CHEMICAL       X               Y               Z
   NUMBER   SYMBOL  FORCE CONSTANT  FORCE CONSTANT  FORCE CONSTANT

      1       C       10.548035        8.305850        6.046554
      2       C       10.599219        8.743492        6.123675
      3       C        8.314821        8.377567        8.480686
      4       C        8.281474        8.374291        8.263656
      5       C        5.218985       12.061035       10.110182
      6       C        4.780899       11.811552        9.934402
      7       O        3.088417        1.746010        7.799045
      8       H        1.730199        3.196960        1.153270
      9       H        3.303479        0.734333        2.328757
     10       H        2.092825        3.138813        1.189524
     11       H        1.748163        3.681965        0.563521
     12       H        2.263297        3.228889        1.285233
     13       H        3.507521        0.733205        2.529443
     14       H        2.005688        4.063486        0.723922
     15       H        0.575462        0.763741        4.834635
     16       H        0.563377        0.777495        5.113640
     17       H        1.750426        2.933823        1.772386



 TOTAL CPU TIME:             1.39 SECONDS

 == MOPAC DONE ==
