 *******************************************************************************
 ** Site#: 14399           For non-commercial use only        Version 13.159M **
 *******************************************************************************
 ** Cite this work as: MOPAC2012, James J. P. Stewart, Stewart Computational  **
 ** Chemistry, Version 13.159M web: HTTP://OpenMOPAC.net  Days remaining:  93 **
 *******************************************************************************
 **                                                                           **
 **                                MOPAC2012                                  **
 **                                                                           **
 *******************************************************************************

                            PM3 CALCULATION RESULTS


 *******************************************************************************
 *  CALCULATION DONE:                                Fri Mar  7 16:08:42 2014  *
 *  PM3      - The PM3 Hamiltonian to be used
 *  PRECISE  - CRITERIA TO BE INCREASED BY 100 TIMES
 *  NOSYM    - POINT-GROUP SYMMETRY SET TO C1
 *  T=       - A TIME OF 172800.0 SECONDS REQUESTED
 *  DUMP=N   - RESTART FILE WRITTEN EVERY  7200.000 SECONDS
 *******************************************************************************
pm3  precise nosym
 InChI=1S/C12H20/c1-4-10-8-7-9-11(5-2)12(10)6-3/h4,7,9-12H,1,5-6,8H2,2-3H3

   ATOM   CHEMICAL          X               Y               Z
  NUMBER   SYMBOL      (ANGSTROMS)     (ANGSTROMS)     (ANGSTROMS)
 
     1       C          0.05910000  *  -0.10490000  *   0.33120000  *
     2       C         -1.18360000  *   0.31480000  *  -0.50970000  *
     3       C          1.30590000  *  -0.23500000  *  -0.58130000  *
     4       C          0.28700000  *   0.76070000  *   1.59420000  *
     5       C         -2.53260000  *   0.28570000  *   0.23940000  *
     6       C          1.05510000  *  -1.25350000  *  -1.70840000  *
     7       C          0.58110000  *   2.24090000  *   1.35900000  *
     8       C         -2.95910000  *  -1.07670000  *   0.78260000  *
     9       C         -1.29500000  *  -0.41890000  *  -1.82980000  *
    10       C          2.55250000  *  -0.64630000  *   0.16670000  *
    11       C         -0.28570000  *  -1.11210000  *  -2.37190000  *
    12       C          3.65390000  *   0.10780000  *   0.21310000  *
    13       H         -0.13280000  *  -1.13440000  *   0.71750000  *
    14       H          1.46490000  *   0.75410000  *  -1.07580000  *
    15       H         -1.04130000  *   1.37450000  *  -0.82390000  *
    16       H          1.12240000  *   0.33780000  *   2.19800000  *
    17       H         -0.58560000  *   0.67900000  *   2.28080000  *
    18       H         -3.33960000  *   0.65370000  *  -0.43740000  *
    19       H         -2.53140000  *   1.02140000  *   1.07530000  *
    20       H          1.84400000  *  -1.13510000  *  -2.48730000  *
    21       H          1.11660000  *  -2.30240000  *  -1.33430000  *
    22       H          0.78450000  *   2.73930000  *   2.33380000  *
    23       H         -0.28820000  *   2.76320000  *   0.90180000  *
    24       H          1.47960000  *   2.38330000  *   0.71850000  *
    25       H         -2.29260000  *  -1.41030000  *   1.60890000  *
    26       H         -2.96620000  *  -1.84830000  *  -0.02000000  *
    27       H         -3.98900000  *  -1.00790000  *   1.20080000  *
    28       H          2.55090000  *  -1.59700000  *   0.69910000  *
    29       H         -0.44690000  *  -1.62370000  *  -3.31980000  *
    30       H         -2.22280000  *  -0.34560000  *  -2.39700000  *
    31       H          3.71080000  *   1.06870000  *  -0.29530000  *
    32       H          4.52400000  *  -0.23280000  *   0.77100000  *
 


          CARTESIAN COORDINATES 

    NO.       ATOM         X         Y         Z

     1         C        0.0591   -0.1049    0.3312
     2         C       -1.1836    0.3148   -0.5097
     3         C        1.3059   -0.2350   -0.5813
     4         C        0.2870    0.7607    1.5942
     5         C       -2.5326    0.2857    0.2394
     6         C        1.0551   -1.2535   -1.7084
     7         C        0.5811    2.2409    1.3590
     8         C       -2.9591   -1.0767    0.7826
     9         C       -1.2950   -0.4189   -1.8298
    10         C        2.5525   -0.6463    0.1667
    11         C       -0.2857   -1.1121   -2.3719
    12         C        3.6539    0.1078    0.2131
    13         H       -0.1328   -1.1344    0.7175
    14         H        1.4649    0.7541   -1.0758
    15         H       -1.0413    1.3745   -0.8239
    16         H        1.1224    0.3378    2.1980
    17         H       -0.5856    0.6790    2.2808
    18         H       -3.3396    0.6537   -0.4374
    19         H       -2.5314    1.0214    1.0753
    20         H        1.8440   -1.1351   -2.4873
    21         H        1.1166   -2.3024   -1.3343
    22         H        0.7845    2.7393    2.3338
    23         H       -0.2882    2.7632    0.9018
    24         H        1.4796    2.3833    0.7185
    25         H       -2.2926   -1.4103    1.6089
    26         H       -2.9662   -1.8483   -0.0200
    27         H       -3.9890   -1.0079    1.2008
    28         H        2.5509   -1.5970    0.6991
    29         H       -0.4469   -1.6237   -3.3198
    30         H       -2.2228   -0.3456   -2.3970
    31         H        3.7108    1.0687   -0.2953
    32         H        4.5240   -0.2328    0.7710

  H: (PM3): J. J. P. STEWART, J. COMP. CHEM. 10, 209 (1989).
  C: (PM3): J. J. P. STEWART, J. COMP. CHEM. 10, 209 (1989).

           Empirical Formula: C12 H20  =    32 atoms



      MOLECULAR POINT GROUP   :   C1  


      RHF CALCULATION, NO. OF DOUBLY OCCUPIED LEVELS =   34

      Geometry optimization using EF

          DIAGONAL MATRIX USED AS START HESSIAN

 CYCLE:     1 TIME:   0.018 TIME LEFT:  2.00D  GRAD.:    60.928 HEAT: 2.762231
 CYCLE:     2 TIME:   0.036 TIME LEFT:  2.00D  GRAD.:    52.489 HEAT: 1.479547
 CYCLE:     3 TIME:   0.014 TIME LEFT:  2.00D  GRAD.:    55.805 HEAT:0.6831893
 CYCLE:     4 TIME:   0.025 TIME LEFT:  2.00D  GRAD.:    37.419 HEAT:0.2913703E-01
 CYCLE:     5 TIME:   0.014 TIME LEFT:  2.00D  GRAD.:    47.912 HEAT:-.2078798
 CYCLE:     6 TIME:   0.014 TIME LEFT:  2.00D  GRAD.:    35.896 HEAT:-.6747965
 CYCLE:     7 TIME:   0.025 TIME LEFT:  2.00D  GRAD.:    21.646 HEAT:-1.053490
 CYCLE:     8 TIME:   0.014 TIME LEFT:  2.00D  GRAD.:    31.567 HEAT:-1.126778
 CYCLE:     9 TIME:   0.013 TIME LEFT:  2.00D  GRAD.:    28.574 HEAT:-1.354226
 CYCLE:    10 TIME:   0.025 TIME LEFT:  2.00D  GRAD.:    18.963 HEAT:-1.540078
 CYCLE:    11 TIME:   0.024 TIME LEFT:  2.00D  GRAD.:    14.489 HEAT:-1.637098
 CYCLE:    12 TIME:   0.013 TIME LEFT:  2.00D  GRAD.:    21.235 HEAT:-1.656161
 CYCLE:    13 TIME:   0.013 TIME LEFT:  2.00D  GRAD.:    16.701 HEAT:-1.765793
 CYCLE:    14 TIME:   0.014 TIME LEFT:  2.00D  GRAD.:    23.625 HEAT:-1.780660
 CYCLE:    15 TIME:   0.014 TIME LEFT:  2.00D  GRAD.:    20.902 HEAT:-1.879137
 CYCLE:    16 TIME:   0.024 TIME LEFT:  2.00D  GRAD.:    11.686 HEAT:-2.001480
 CYCLE:    17 TIME:   0.025 TIME LEFT:  2.00D  GRAD.:    11.376 HEAT:-2.027751
 CYCLE:    18 TIME:   0.013 TIME LEFT:  2.00D  GRAD.:     7.716 HEAT:-2.072603
 CYCLE:    19 TIME:   0.013 TIME LEFT:  2.00D  GRAD.:    10.146 HEAT:-2.104292
 CYCLE:    20 TIME:   0.013 TIME LEFT:  2.00D  GRAD.:     9.264 HEAT:-2.160754
 CYCLE:    21 TIME:   0.014 TIME LEFT:  2.00D  GRAD.:    12.296 HEAT:-2.208070
 CYCLE:    22 TIME:   0.013 TIME LEFT:  2.00D  GRAD.:    12.357 HEAT:-2.253219
 CYCLE:    23 TIME:   0.024 TIME LEFT:  2.00D  GRAD.:    13.907 HEAT:-2.272501
 CYCLE:    24 TIME:   0.013 TIME LEFT:  2.00D  GRAD.:    11.950 HEAT:-2.298975
 CYCLE:    25 TIME:   0.013 TIME LEFT:  2.00D  GRAD.:     7.539 HEAT:-2.339503
 CYCLE:    26 TIME:   0.014 TIME LEFT:  2.00D  GRAD.:     8.097 HEAT:-2.359949
 CYCLE:    27 TIME:   0.013 TIME LEFT:  2.00D  GRAD.:     7.433 HEAT:-2.384947
 CYCLE:    28 TIME:   0.013 TIME LEFT:  2.00D  GRAD.:     5.838 HEAT:-2.407423
 CYCLE:    29 TIME:   0.014 TIME LEFT:  2.00D  GRAD.:     6.843 HEAT:-2.422894
 CYCLE:    30 TIME:   0.013 TIME LEFT:  2.00D  GRAD.:     4.966 HEAT:-2.443769
 CYCLE:    31 TIME:   0.013 TIME LEFT:  2.00D  GRAD.:     5.067 HEAT:-2.461268
 CYCLE:    32 TIME:   0.014 TIME LEFT:  2.00D  GRAD.:     8.909 HEAT:-2.463542
 CYCLE:    33 TIME:   0.013 TIME LEFT:  2.00D  GRAD.:     4.670 HEAT:-2.484758
 CYCLE:    34 TIME:   0.013 TIME LEFT:  2.00D  GRAD.:     5.165 HEAT:-2.495587
 CYCLE:    35 TIME:   0.013 TIME LEFT:  2.00D  GRAD.:     3.633 HEAT:-2.513035
 CYCLE:    36 TIME:   0.013 TIME LEFT:  2.00D  GRAD.:     8.005 HEAT:-2.534492
 CYCLE:    37 TIME:   0.013 TIME LEFT:  2.00D  GRAD.:     7.698 HEAT:-2.563546
 CYCLE:    38 TIME:   0.014 TIME LEFT:  2.00D  GRAD.:     6.471 HEAT:-2.594127
 CYCLE:    39 TIME:   0.013 TIME LEFT:  2.00D  GRAD.:     7.570 HEAT:-2.649632
 CYCLE:    40 TIME:   0.014 TIME LEFT:  2.00D  GRAD.:    10.966 HEAT:-2.729904
 CYCLE:    41 TIME:   0.014 TIME LEFT:  2.00D  GRAD.:    12.803 HEAT:-2.799057
 CYCLE:    42 TIME:   0.014 TIME LEFT:  2.00D  GRAD.:    11.181 HEAT:-2.834592
 CYCLE:    43 TIME:   0.013 TIME LEFT:  2.00D  GRAD.:    10.284 HEAT:-2.931887
 CYCLE:    44 TIME:   0.013 TIME LEFT:  2.00D  GRAD.:     9.153 HEAT:-2.986082
 CYCLE:    45 TIME:   0.013 TIME LEFT:  2.00D  GRAD.:     6.826 HEAT:-3.062323
 CYCLE:    46 TIME:   0.014 TIME LEFT:  2.00D  GRAD.:     8.329 HEAT:-3.170696
 CYCLE:    47 TIME:   0.013 TIME LEFT:  2.00D  GRAD.:     6.827 HEAT:-3.239819
 CYCLE:    48 TIME:   0.013 TIME LEFT:  2.00D  GRAD.:     5.348 HEAT:-3.307788
 CYCLE:    49 TIME:   0.013 TIME LEFT:  2.00D  GRAD.:     5.694 HEAT:-3.355940
 CYCLE:    50 TIME:   0.013 TIME LEFT:  2.00D  GRAD.:     5.989 HEAT:-3.381131
 CYCLE:    51 TIME:   0.013 TIME LEFT:  2.00D  GRAD.:     5.255 HEAT:-3.414807
 CYCLE:    52 TIME:   0.013 TIME LEFT:  2.00D  GRAD.:     4.829 HEAT:-3.465378
 CYCLE:    53 TIME:   0.014 TIME LEFT:  2.00D  GRAD.:     4.708 HEAT:-3.502792
 CYCLE:    54 TIME:   0.013 TIME LEFT:  2.00D  GRAD.:     3.508 HEAT:-3.530299
 CYCLE:    55 TIME:   0.014 TIME LEFT:  2.00D  GRAD.:     3.000 HEAT:-3.548605
 CYCLE:    56 TIME:   0.013 TIME LEFT:  2.00D  GRAD.:     2.973 HEAT:-3.567459
 CYCLE:    57 TIME:   0.013 TIME LEFT:  2.00D  GRAD.:     3.168 HEAT:-3.585983
 CYCLE:    58 TIME:   0.013 TIME LEFT:  2.00D  GRAD.:     3.346 HEAT:-3.604872
 CYCLE:    59 TIME:   0.013 TIME LEFT:  2.00D  GRAD.:     3.458 HEAT:-3.623791
 CYCLE:    60 TIME:   0.014 TIME LEFT:  2.00D  GRAD.:     3.166 HEAT:-3.645372
 CYCLE:    61 TIME:   0.013 TIME LEFT:  2.00D  GRAD.:     3.496 HEAT:-3.668537
 CYCLE:    62 TIME:   0.013 TIME LEFT:  2.00D  GRAD.:     3.569 HEAT:-3.686220
 CYCLE:    63 TIME:   0.014 TIME LEFT:  2.00D  GRAD.:     2.658 HEAT:-3.704199
 CYCLE:    64 TIME:   0.013 TIME LEFT:  2.00D  GRAD.:     2.380 HEAT:-3.722593
 CYCLE:    65 TIME:   0.014 TIME LEFT:  2.00D  GRAD.:     2.472 HEAT:-3.735061
 CYCLE:    66 TIME:   0.014 TIME LEFT:  2.00D  GRAD.:     2.587 HEAT:-3.753582
 CYCLE:    67 TIME:   0.014 TIME LEFT:  2.00D  GRAD.:     2.369 HEAT:-3.768475
 CYCLE:    68 TIME:   0.013 TIME LEFT:  2.00D  GRAD.:     2.302 HEAT:-3.781063
 CYCLE:    69 TIME:   0.013 TIME LEFT:  2.00D  GRAD.:     2.457 HEAT:-3.790619
 CYCLE:    70 TIME:   0.013 TIME LEFT:  2.00D  GRAD.:     2.384 HEAT:-3.801145
 CYCLE:    71 TIME:   0.013 TIME LEFT:  2.00D  GRAD.:     2.362 HEAT:-3.814360
 CYCLE:    72 TIME:   0.013 TIME LEFT:  2.00D  GRAD.:     2.507 HEAT:-3.828411
 CYCLE:    73 TIME:   0.013 TIME LEFT:  2.00D  GRAD.:     2.887 HEAT:-3.846082
 CYCLE:    74 TIME:   0.014 TIME LEFT:  2.00D  GRAD.:     3.403 HEAT:-3.869434
 CYCLE:    75 TIME:   0.013 TIME LEFT:  2.00D  GRAD.:     3.758 HEAT:-3.895296
 CYCLE:    76 TIME:   0.014 TIME LEFT:  2.00D  GRAD.:     3.568 HEAT:-3.920305
 CYCLE:    77 TIME:   0.013 TIME LEFT:  2.00D  GRAD.:     3.393 HEAT:-3.938653
 CYCLE:    78 TIME:   0.013 TIME LEFT:  2.00D  GRAD.:     2.785 HEAT:-3.952731
 CYCLE:    79 TIME:   0.014 TIME LEFT:  2.00D  GRAD.:     2.147 HEAT:-3.964660
 CYCLE:    80 TIME:   0.013 TIME LEFT:  2.00D  GRAD.:     2.112 HEAT:-3.980056
 CYCLE:    81 TIME:   0.014 TIME LEFT:  2.00D  GRAD.:     2.284 HEAT:-3.989071
 CYCLE:    82 TIME:   0.013 TIME LEFT:  2.00D  GRAD.:     3.195 HEAT:-4.015413
 CYCLE:    83 TIME:   0.013 TIME LEFT:  2.00D  GRAD.:     2.705 HEAT:-4.031205
 CYCLE:    84 TIME:   0.014 TIME LEFT:  2.00D  GRAD.:     3.311 HEAT:-4.063341
 CYCLE:    85 TIME:   0.013 TIME LEFT:  2.00D  GRAD.:     2.177 HEAT:-4.074556
 CYCLE:    86 TIME:   0.013 TIME LEFT:  2.00D  GRAD.:     1.649 HEAT:-4.088026
 CYCLE:    87 TIME:   0.014 TIME LEFT:  2.00D  GRAD.:     2.124 HEAT:-4.099838
 CYCLE:    88 TIME:   0.014 TIME LEFT:  2.00D  GRAD.:     2.027 HEAT:-4.110283
 CYCLE:    89 TIME:   0.013 TIME LEFT:  2.00D  GRAD.:     1.606 HEAT:-4.120520
 CYCLE:    90 TIME:   0.013 TIME LEFT:  2.00D  GRAD.:     1.463 HEAT:-4.128835
 CYCLE:    91 TIME:   0.013 TIME LEFT:  2.00D  GRAD.:     1.545 HEAT:-4.136426
 CYCLE:    92 TIME:   0.013 TIME LEFT:  2.00D  GRAD.:     1.441 HEAT:-4.142096
 CYCLE:    93 TIME:   0.013 TIME LEFT:  2.00D  GRAD.:     1.087 HEAT:-4.146970
 CYCLE:    94 TIME:   0.013 TIME LEFT:  2.00D  GRAD.:     0.791 HEAT:-4.148602
 CYCLE:    95 TIME:   0.013 TIME LEFT:  2.00D  GRAD.:     0.774 HEAT:-4.150211
 CYCLE:    96 TIME:   0.013 TIME LEFT:  2.00D  GRAD.:     0.590 HEAT:-4.150847
 CYCLE:    97 TIME:   0.013 TIME LEFT:  2.00D  GRAD.:     0.494 HEAT:-4.152072
 CYCLE:    98 TIME:   0.013 TIME LEFT:  2.00D  GRAD.:     0.463 HEAT:-4.152627
 CYCLE:    99 TIME:   0.013 TIME LEFT:  2.00D  GRAD.:     0.580 HEAT:-4.153653
 CYCLE:   100 TIME:   0.013 TIME LEFT:  2.00D  GRAD.:     0.501 HEAT:-4.154151
 CYCLE:   101 TIME:   0.013 TIME LEFT:  2.00D  GRAD.:     0.453 HEAT:-4.155277
 CYCLE:   102 TIME:   0.014 TIME LEFT:  2.00D  GRAD.:     0.559 HEAT:-4.156012
 CYCLE:   103 TIME:   0.013 TIME LEFT:  2.00D  GRAD.:     0.707 HEAT:-4.157189
 CYCLE:   104 TIME:   0.014 TIME LEFT:  2.00D  GRAD.:     0.669 HEAT:-4.158135
 CYCLE:   105 TIME:   0.014 TIME LEFT:  2.00D  GRAD.:     0.742 HEAT:-4.160311
 CYCLE:   106 TIME:   0.014 TIME LEFT:  2.00D  GRAD.:     0.649 HEAT:-4.161215
 CYCLE:   107 TIME:   0.014 TIME LEFT:  2.00D  GRAD.:     0.720 HEAT:-4.163241
 CYCLE:   108 TIME:   0.013 TIME LEFT:  2.00D  GRAD.:     0.512 HEAT:-4.163851
 CYCLE:   109 TIME:   0.014 TIME LEFT:  2.00D  GRAD.:     0.413 HEAT:-4.164725
 CYCLE:   110 TIME:   0.013 TIME LEFT:  2.00D  GRAD.:     0.419 HEAT:-4.165204
 CYCLE:   111 TIME:   0.014 TIME LEFT:  2.00D  GRAD.:     0.466 HEAT:-4.166090
 CYCLE:   112 TIME:   0.013 TIME LEFT:  2.00D  GRAD.:     0.361 HEAT:-4.166372
 CYCLE:   113 TIME:   0.013 TIME LEFT:  2.00D  GRAD.:     0.361 HEAT:-4.166892
 CYCLE:   114 TIME:   0.014 TIME LEFT:  2.00D  GRAD.:     0.254 HEAT:-4.167054
 CYCLE:   115 TIME:   0.013 TIME LEFT:  2.00D  GRAD.:     0.172 HEAT:-4.167278
 CYCLE:   116 TIME:   0.013 TIME LEFT:  2.00D  GRAD.:     0.147 HEAT:-4.167388
 CYCLE:   117 TIME:   0.013 TIME LEFT:  2.00D  GRAD.:     0.134 HEAT:-4.167484
 CYCLE:   118 TIME:   0.013 TIME LEFT:  2.00D  GRAD.:     0.099 HEAT:-4.167514
 CYCLE:   119 TIME:   0.013 TIME LEFT:  2.00D  GRAD.:     0.076 HEAT:-4.167540
 CYCLE:   120 TIME:   0.013 TIME LEFT:  2.00D  GRAD.:     0.059 HEAT:-4.167561
 CYCLE:   121 TIME:   0.013 TIME LEFT:  2.00D  GRAD.:     0.058 HEAT:-4.167576
 CYCLE:   122 TIME:   0.013 TIME LEFT:  2.00D  GRAD.:     0.062 HEAT:-4.167586
 CYCLE:   123 TIME:   0.013 TIME LEFT:  2.00D  GRAD.:     0.132 HEAT:-4.167598
 CYCLE:   124 TIME:   0.013 TIME LEFT:  2.00D  GRAD.:     0.078 HEAT:-4.167617
 CYCLE:   125 TIME:   0.013 TIME LEFT:  2.00D  GRAD.:     0.052 HEAT:-4.167636
 CYCLE:   126 TIME:   0.013 TIME LEFT:  2.00D  GRAD.:     0.056 HEAT:-4.167653
 CYCLE:   127 TIME:   0.012 TIME LEFT:  2.00D  GRAD.:     0.063 HEAT:-4.167664
 CYCLE:   128 TIME:   0.013 TIME LEFT:  2.00D  GRAD.:     0.063 HEAT:-4.167680
 CYCLE:   129 TIME:   0.013 TIME LEFT:  2.00D  GRAD.:     0.075 HEAT:-4.167699
 CYCLE:   130 TIME:   0.013 TIME LEFT:  2.00D  GRAD.:     0.059 HEAT:-4.167709
 CYCLE:   131 TIME:   0.013 TIME LEFT:  2.00D  GRAD.:     0.081 HEAT:-4.167724
 CYCLE:   132 TIME:   0.012 TIME LEFT:  2.00D  GRAD.:     0.055 HEAT:-4.167735
 CYCLE:   133 TIME:   0.012 TIME LEFT:  2.00D  GRAD.:     0.041 HEAT:-4.167746

     RMS GRADIENT =  0.04123  IS LESS THAN CUTOFF =  0.05000



 -------------------------------------------------------------------------------
pm3  precise nosym
 InChI=1S/C12H20/c1-4-10-8-7-9-11(5-2)12(10)6-3/h4,7,9-12H,1,5-6,8H2,2-3H3



     GEOMETRY OPTIMISED USING EIGENVECTOR FOLLOWING (EF).     
     SCF FIELD WAS ACHIEVED                                   


                              PM3 CALCULATION
                                                       MOPAC2012 (Version: 13.159M)
                                                       Fri Mar  7 16:08:44 2014
                                                       No. of days left =  93




          FINAL HEAT OF FORMATION =         -4.16775 KCAL/MOL =     -17.43785 KJ/MOL


          TOTAL ENERGY            =      -1730.51930 EV
          ELECTRONIC ENERGY       =     -11570.11279 EV  POINT GROUP:     C1  
          CORE-CORE REPULSION     =       9839.59349 EV
          COSMO AREA              =        216.16 SQUARE ANGSTROMS
          COSMO VOLUME            =        242.63 CUBIC ANGSTROMS

          GRADIENT NORM           =          0.04123
          IONIZATION POTENTIAL    =          9.598857 EV
          HOMO LUMO ENERGIES (EV) =         -9.599  1.107
          NO. OF FILLED LEVELS    =         34
          MOLECULAR WEIGHT        =        164.290

          MOLECULAR DIMENSIONS (Angstroms)

            Atom       Atom       Distance
            H    32    H    18     8.17248
            H    32    H    27     7.91203
            H    28    H    23     3.57739


          SCF CALCULATIONS        =        143
          COMPUTATION TIME        =          1.893 SECONDS




   ATOM   CHEMICAL          X               Y               Z
  NUMBER   SYMBOL      (ANGSTROMS)     (ANGSTROMS)     (ANGSTROMS)
 
     1       C          0.03037559  *  -0.07547303  *   0.36533064  *
     2       C         -1.19534618  *   0.39050661  *  -0.44291578  *
     3       C          1.25740797  *  -0.23143560  *  -0.54359709  *
     4       C          0.27534753  *   0.89340057  *   1.52671287  *
     5       C         -2.47076408  *   0.17863604  *   0.38094175  *
     6       C          0.97047230  *  -1.23861103  *  -1.65949877  *
     7       C          0.64937034  *   2.29202946  *   1.08710561  *
     8       C         -2.76928072  *  -1.28308854  *   0.62936070  *
     9       C         -1.30615315  *  -0.26620660  *  -1.77711940  *
    10       C          2.44143105  *  -0.70224094  *   0.24387657  *
    11       C         -0.32967665  *  -0.98533354  *  -2.33019580  *
    12       C          3.57454139  *  -0.01500718  *   0.32470631  *
    13       H         -0.21660346  *  -1.08308529  *   0.80291951  *
    14       H          1.47795377  *   0.76188433  *  -1.01001160  *
    15       H         -1.07558660  *   1.49470882  *  -0.63245448  *
    16       H          1.05932879  *   0.48196994  *   2.19143089  *
    17       H         -0.66181170  *   0.93372473  *   2.12824841  *
    18       H         -3.32859765  *   0.66521051  *  -0.12087254  *
    19       H         -2.33551206  *   0.70357743  *   1.35430340  *
    20       H          1.78994497  *  -1.21032684  *  -2.40418205  *
    21       H          0.96018751  *  -2.27344769  *  -1.25863117  *
    22       H          0.58896541  *   3.00292638  *   1.92001239  *
    23       H         -0.02900252  *   2.64389151  *   0.29103292  *
    24       H          1.67328586  *   2.33715555  *   0.69006056  *
    25       H         -1.88216647  *  -1.79119965  *   1.04471030  *
    26       H         -3.03797244  *  -1.80445160  *  -0.29882156  *
    27       H         -3.59687111  *  -1.41201887  *   1.33683048  *
    28       H          2.32092382  *  -1.66426156  *   0.75768886  *
    29       H         -0.46069760  *  -1.44031682  *  -3.31837468  *
    30       H         -2.25816781  *  -0.11622594  *  -2.30044055  *
    31       H          3.72418259  *   0.94531680  *  -0.16278148  *
    32       H          4.43226465  *  -0.36436170  *   0.89113735  *

           Empirical Formula: C12 H20  =    32 atoms



      MOLECULAR POINT GROUP   :   C1  


                  EIGENVALUES  
 -42.85952 -35.86010 -34.49650 -31.94900 -28.14952 -27.53818 -24.22636 -23.13813
 -21.34912 -19.71102 -19.23620 -17.79630 -16.88656 -16.52073 -16.15914 -15.29214
 -15.04523 -14.68958 -14.58930 -14.27763 -13.99768 -13.95210 -13.09754 -12.89960
 -12.88875 -12.56796 -12.38715 -11.97539 -11.88872 -11.40449 -11.24879 -11.04709
 -10.19416  -9.59886   1.10729   1.19716   3.22555   3.43386   3.50431   3.58862
   3.60744   3.63701   3.82725   3.90737   3.91462   3.94059   3.97113   4.07067
   4.11594   4.16701   4.21524   4.32632   4.43038   4.49951   4.54880   4.64920
   4.71263   4.82610   4.89862   4.96242   5.03434   5.12158   5.15166   5.26783
   5.58133   5.83431   5.89115   6.01911


              NET ATOMIC CHARGES AND DIPOLE CONTRIBUTIONS

  ATOM NO.   TYPE          CHARGE      No. of ELECS.   s-Pop       p-Pop       
    1          C          -0.081412        4.0814     1.18485     2.89657
    2          C          -0.052789        4.0528     1.17055     2.88224
    3          C          -0.047386        4.0474     1.16838     2.87901
    4          C          -0.104690        4.1047     1.16315     2.94154
    5          C          -0.097840        4.0978     1.16255     2.93529
    6          C          -0.055978        4.0560     1.14860     2.90738
    7          C          -0.121589        4.1216     1.14079     2.98080
    8          C          -0.119646        4.1196     1.14027     2.97937
    9          C          -0.141278        4.1413     1.19442     2.94686
   10          C          -0.132661        4.1327     1.19751     2.93515
   11          C          -0.150020        4.1500     1.19336     2.95666
   12          C          -0.164399        4.1644     1.18313     2.98127
   13          H           0.075716        0.9243     0.92428
   14          H           0.074882        0.9251     0.92512
   15          H           0.077746        0.9223     0.92225
   16          H           0.056078        0.9439     0.94392
   17          H           0.054547        0.9455     0.94545
   18          H           0.050186        0.9498     0.94981
   19          H           0.055041        0.9450     0.94496
   20          H           0.055829        0.9442     0.94417
   21          H           0.058196        0.9418     0.94180
   22          H           0.039038        0.9610     0.96096
   23          H           0.044909        0.9551     0.95509
   24          H           0.043014        0.9570     0.95699
   25          H           0.045354        0.9546     0.95465
   26          H           0.043038        0.9570     0.95696
   27          H           0.038349        0.9617     0.96165
   28          H           0.098400        0.9016     0.90160
   29          H           0.097536        0.9025     0.90246
   30          H           0.099879        0.9001     0.90012
   31          H           0.082769        0.9172     0.91723
   32          H           0.079182        0.9208     0.92082
 DIPOLE           X         Y         Z       TOTAL
 POINT-CHG.    -0.070     0.044     0.194     0.211
 HYBRID         0.003    -0.035    -0.034     0.049
 SUM           -0.067     0.009     0.160     0.173


          ATOMIC ORBITAL ELECTRON POPULATIONS

    Atom      s        px        py        pz   
    1  C   1.18485   0.94189   0.99884   0.95583
    2  C   1.17055   0.94797   1.00163   0.93264
    3  C   1.16838   0.93607   0.99235   0.95058
    4  C   1.16315   1.01510   0.95366   0.97278
    5  C   1.16255   0.96676   0.96918   0.99935
    6  C   1.14860   0.95512   0.98291   0.96935
    7  C   1.14079   1.01081   0.96229   1.00771
    8  C   1.14027   1.00669   0.96176   1.01092
    9  C   1.19442   0.98269   0.99486   0.96932
   10  C   1.19751   0.95623   0.99100   0.98792
   11  C   1.19336   0.96342   1.00225   0.99099
   12  C   1.18313   0.97080   0.99770   1.01277
   13  H   0.92428
   14  H   0.92512
   15  H   0.92225
   16  H   0.94392
   17  H   0.94545
   18  H   0.94981
   19  H   0.94496
   20  H   0.94417
   21  H   0.94180
   22  H   0.96096
   23  H   0.95509
   24  H   0.95699
   25  H   0.95465
   26  H   0.95696
   27  H   0.96165
   28  H   0.90160
   29  H   0.90246
   30  H   0.90012
   31  H   0.91723
   32  H   0.92082
 *******************************************************************************
 ** Site#: 14399           For non-commercial use only        Version 13.159M **
 *******************************************************************************
 ** Cite this work as: MOPAC2012, James J. P. Stewart, Stewart Computational  **
 ** Chemistry, Version 13.159M web: HTTP://OpenMOPAC.net  Days remaining:  93 **
 *******************************************************************************
 **                                                                           **
 **                                MOPAC2012                                  **
 **                                                                           **
 *******************************************************************************

                            PM3 CALCULATION RESULTS


 *******************************************************************************
 *  CALCULATION DONE:                                Fri Mar  7 16:08:44 2014  *
 *  PM3      - The PM3 Hamiltonian to be used
 *  OLDGEO   - PREVIOUS GEOMETRY TO BE USED
 *  PRECISE  - CRITERIA TO BE INCREASED BY 100 TIMES
 *  NOSYM    - POINT-GROUP SYMMETRY SET TO C1
 *  T=       - A TIME OF 172800.0 SECONDS REQUESTED
 *  DUMP=N   - RESTART FILE WRITTEN EVERY  7200.000 SECONDS
 *  THERMO   - THERMODYNAMIC QUANTITIES TO BE CALCULATED
 *******************************************************************************
oldgeo thermo nosym precise  pm3

   ATOM   CHEMICAL          X               Y               Z
  NUMBER   SYMBOL      (ANGSTROMS)     (ANGSTROMS)     (ANGSTROMS)
 
     1       C          0.03037559  *  -0.07547303  *   0.36533064  *
     2       C         -1.19534618  *   0.39050661  *  -0.44291578  *
     3       C          1.25740797  *  -0.23143560  *  -0.54359709  *
     4       C          0.27534753  *   0.89340057  *   1.52671287  *
     5       C         -2.47076408  *   0.17863604  *   0.38094175  *
     6       C          0.97047230  *  -1.23861103  *  -1.65949877  *
     7       C          0.64937034  *   2.29202946  *   1.08710561  *
     8       C         -2.76928072  *  -1.28308854  *   0.62936070  *
     9       C         -1.30615315  *  -0.26620660  *  -1.77711940  *
    10       C          2.44143105  *  -0.70224094  *   0.24387657  *
    11       C         -0.32967665  *  -0.98533354  *  -2.33019580  *
    12       C          3.57454139  *  -0.01500718  *   0.32470631  *
    13       H         -0.21660346  *  -1.08308529  *   0.80291951  *
    14       H          1.47795377  *   0.76188433  *  -1.01001160  *
    15       H         -1.07558660  *   1.49470882  *  -0.63245448  *
    16       H          1.05932879  *   0.48196994  *   2.19143089  *
    17       H         -0.66181170  *   0.93372473  *   2.12824841  *
    18       H         -3.32859765  *   0.66521051  *  -0.12087254  *
    19       H         -2.33551206  *   0.70357743  *   1.35430340  *
    20       H          1.78994497  *  -1.21032684  *  -2.40418205  *
    21       H          0.96018751  *  -2.27344769  *  -1.25863117  *
    22       H          0.58896541  *   3.00292638  *   1.92001239  *
    23       H         -0.02900252  *   2.64389151  *   0.29103292  *
    24       H          1.67328586  *   2.33715555  *   0.69006056  *
    25       H         -1.88216647  *  -1.79119965  *   1.04471030  *
    26       H         -3.03797244  *  -1.80445160  *  -0.29882156  *
    27       H         -3.59687111  *  -1.41201887  *   1.33683048  *
    28       H          2.32092382  *  -1.66426156  *   0.75768886  *
    29       H         -0.46069760  *  -1.44031682  *  -3.31837468  *
    30       H         -2.25816781  *  -0.11622594  *  -2.30044055  *
    31       H          3.72418259  *   0.94531680  *  -0.16278148  *
    32       H          4.43226465  *  -0.36436170  *   0.89113735  *
 


          CARTESIAN COORDINATES 

    NO.       ATOM         X         Y         Z

     1         C        0.0304   -0.0755    0.3653
     2         C       -1.1953    0.3905   -0.4429
     3         C        1.2574   -0.2314   -0.5436
     4         C        0.2753    0.8934    1.5267
     5         C       -2.4708    0.1786    0.3809
     6         C        0.9705   -1.2386   -1.6595
     7         C        0.6494    2.2920    1.0871
     8         C       -2.7693   -1.2831    0.6294
     9         C       -1.3062   -0.2662   -1.7771
    10         C        2.4414   -0.7022    0.2439
    11         C       -0.3297   -0.9853   -2.3302
    12         C        3.5745   -0.0150    0.3247
    13         H       -0.2166   -1.0831    0.8029
    14         H        1.4780    0.7619   -1.0100
    15         H       -1.0756    1.4947   -0.6325
    16         H        1.0593    0.4820    2.1914
    17         H       -0.6618    0.9337    2.1282
    18         H       -3.3286    0.6652   -0.1209
    19         H       -2.3355    0.7036    1.3543
    20         H        1.7899   -1.2103   -2.4042
    21         H        0.9602   -2.2734   -1.2586
    22         H        0.5890    3.0029    1.9200
    23         H       -0.0290    2.6439    0.2910
    24         H        1.6733    2.3372    0.6901
    25         H       -1.8822   -1.7912    1.0447
    26         H       -3.0380   -1.8045   -0.2988
    27         H       -3.5969   -1.4120    1.3368
    28         H        2.3209   -1.6643    0.7577
    29         H       -0.4607   -1.4403   -3.3184
    30         H       -2.2582   -0.1162   -2.3004
    31         H        3.7242    0.9453   -0.1628
    32         H        4.4323   -0.3644    0.8911

  H: (PM3): J. J. P. STEWART, J. COMP. CHEM. 10, 209 (1989).
  C: (PM3): J. J. P. STEWART, J. COMP. CHEM. 10, 209 (1989).

           Empirical Formula: C12 H20  =    32 atoms



      MOLECULAR POINT GROUP   :   C1  


      RHF CALCULATION, NO. OF DOUBLY OCCUPIED LEVELS =   34



          HEAT OF FORMATION =      -4.167746 KCALS/MOLE


          INTERNAL COORDINATE DERIVATIVES

   NUMBER  ATOM       BOND         ANGLE      DIHEDRAL

     1       C     -0.002890     0.002051    -0.000732
     2       C      0.000192     0.002627    -0.001753
     3       C     -0.000081    -0.003924    -0.002402
     4       C     -0.001020    -0.003005     0.001051
     5       C     -0.000064     0.004785     0.002633
     6       C      0.005563    -0.003889    -0.001301
     7       C     -0.003448    -0.003500    -0.003199
     8       C      0.000490     0.010758    -0.000593
     9       C      0.008349    -0.002092     0.002120
    10       C      0.002081    -0.001341    -0.000793
    11       C      0.003379    -0.004201     0.006464
    12       C     -0.003206    -0.007197    -0.002620
    13       H     -0.003809     0.004264    -0.005317
    14       H      0.007920    -0.004407     0.004222
    15       H     -0.008222     0.008333    -0.003560
    16       H     -0.002583    -0.000173     0.002649
    17       H     -0.003610     0.001365    -0.002639
    18       H      0.000059     0.001688     0.009092
    19       H     -0.000962     0.004556    -0.006074
    20       H      0.011654    -0.007061     0.002519
    21       H     -0.008465     0.005860    -0.000836
    22       H      0.001743    -0.002104    -0.005008
    23       H     -0.006643     0.004753    -0.002592
    24       H     -0.007610    -0.000384    -0.001206
    25       H     -0.001270     0.002892    -0.003438
    26       H     -0.001474     0.000133     0.002821
    27       H      0.003299     0.002535     0.000005
    28       H      0.002186    -0.000860     0.005412
    29       H      0.003103    -0.001034     0.002932
    30       H      0.007023    -0.007021     0.008651
    31       H     -0.000015    -0.004206    -0.001089
    32       H     -0.001666    -0.000201    -0.005418


          GRADIENT NORM =   0.04232


          TIME FOR SCF CALCULATION =    0.01

          TIME FOR DERIVATIVES     =    0.01

          MOLECULAR WEIGHT =  164.29



          ROTATIONAL CONSTANTS IN CM(-1)

          A =    0.04097046   B =    0.02523585   C =    0.01909488



           PRINCIPAL MOMENTS OF INERTIA IN UNITS OF 10**(-40)*GRAM-CM**2

          A =      683.2429   B =     1109.2462   C =     1465.9835


          ORIENTATION OF MOLECULE IN FORCE CALCULATION

    NO.       ATOM         X         Y         Z

     1          C      -0.2338   -0.4545   -0.0729
     2          C       1.3066   -0.4545   -0.0729
     3          C      -0.7804    0.9798   -0.0729
     4          C      -0.7450   -1.2811   -1.2574
     5          C       1.8251   -1.8470    0.3044
     6          C      -0.2713    1.7450    1.1507
     7          C      -0.3889   -0.6989   -2.6078
     8          C       1.4901   -2.2286    1.7290
     9          C       1.8962    0.5923    0.8104
    10          C      -2.2782    0.9741   -0.0544
    11          C       1.1918    1.5879    1.3482
    12          C      -3.0144    1.5369   -1.0052
    13          H      -0.5717   -0.9623    0.8735
    14          H      -0.4107    1.4969   -0.9942
    15          H       1.6448   -0.2231   -1.1225
    16          H      -1.8421   -1.4050   -1.1748
    17          H      -0.3027   -2.2998   -1.1663
    18          H       2.9182   -1.8992    0.1404
    19          H       1.3655   -2.5804   -0.3973
    20          H      -0.5241    2.8186    1.0481
    21          H      -0.7865    1.3984    2.0705
    22          H      -0.5628   -1.4220   -3.4138
    23          H       0.6751   -0.4075   -2.6372
    24          H      -0.9816    0.1978   -2.8371
    25          H       0.4126   -2.0883    1.9211
    26          H       2.0332   -1.6066    2.4527
    27          H       1.7384   -3.2762    1.9359
    28          H      -2.7429    0.4729    0.8040
    29          H       1.6769    2.3364    1.9847
    30          H       2.9737    0.5038    0.9944
    31          H      -2.5871    2.0322   -1.8737
    32          H      -4.0998    1.5360   -0.9831


    FIRST DERIVATIVES WILL BE USED IN THE CALCULATION OF SECOND DERIVATIVES

          ESTIMATED TIME TO COMPLETE CALCULATION =        8.11 SECONDS

    FOR POINT-GROUP C1   THERE ARE   1 UNIQUE SYMMETRY FUNCTIONS.

 STEP:   1 TIME =     0.07 SECS, INTEGRAL =      0.07 TIME LEFT: 172799.91
 STEP:   2 TIME =     0.06 SECS, INTEGRAL =      0.13 TIME LEFT: 172799.85
 STEP:   3 TIME =     0.06 SECS, INTEGRAL =      0.19 TIME LEFT: 172799.79
 STEP:   4 TIME =     0.06 SECS, INTEGRAL =      0.25 TIME LEFT: 172799.73
 STEP:   5 TIME =     0.06 SECS, INTEGRAL =      0.31 TIME LEFT: 172799.67
 STEP:   6 TIME =     0.06 SECS, INTEGRAL =      0.37 TIME LEFT: 172799.61
 STEP:   7 TIME =     0.06 SECS, INTEGRAL =      0.43 TIME LEFT: 172799.55
 STEP:   8 TIME =     0.06 SECS, INTEGRAL =      0.48 TIME LEFT: 172799.49
 STEP:   9 TIME =     0.06 SECS, INTEGRAL =      0.55 TIME LEFT: 172799.43
 STEP:  10 TIME =     0.06 SECS, INTEGRAL =      0.60 TIME LEFT: 172799.38
 STEP:  11 TIME =     0.06 SECS, INTEGRAL =      0.66 TIME LEFT: 172799.32
 STEP:  12 TIME =     0.06 SECS, INTEGRAL =      0.72 TIME LEFT: 172799.26
 STEP:  13 TIME =     0.06 SECS, INTEGRAL =      0.78 TIME LEFT: 172799.20
 STEP:  14 TIME =     0.06 SECS, INTEGRAL =      0.84 TIME LEFT: 172799.14
 STEP:  15 TIME =     0.06 SECS, INTEGRAL =      0.90 TIME LEFT: 172799.08
 STEP:  16 TIME =     0.06 SECS, INTEGRAL =      0.96 TIME LEFT: 172799.02
 STEP:  17 TIME =     0.06 SECS, INTEGRAL =      1.02 TIME LEFT: 172798.96
 STEP:  18 TIME =     0.06 SECS, INTEGRAL =      1.08 TIME LEFT: 172798.90
 STEP:  19 TIME =     0.06 SECS, INTEGRAL =      1.14 TIME LEFT: 172798.84
 STEP:  20 TIME =     0.06 SECS, INTEGRAL =      1.19 TIME LEFT: 172798.79
 STEP:  21 TIME =     0.06 SECS, INTEGRAL =      1.25 TIME LEFT: 172798.73
 STEP:  22 TIME =     0.06 SECS, INTEGRAL =      1.31 TIME LEFT: 172798.67
 STEP:  23 TIME =     0.06 SECS, INTEGRAL =      1.37 TIME LEFT: 172798.61
 STEP:  24 TIME =     0.06 SECS, INTEGRAL =      1.43 TIME LEFT: 172798.55
 STEP:  25 TIME =     0.06 SECS, INTEGRAL =      1.48 TIME LEFT: 172798.49
 STEP:  26 TIME =     0.06 SECS, INTEGRAL =      1.55 TIME LEFT: 172798.43
 STEP:  27 TIME =     0.06 SECS, INTEGRAL =      1.61 TIME LEFT: 172798.37
 STEP:  28 TIME =     0.06 SECS, INTEGRAL =      1.66 TIME LEFT: 172798.32
 STEP:  29 TIME =     0.06 SECS, INTEGRAL =      1.72 TIME LEFT: 172798.26
 STEP:  30 TIME =     0.06 SECS, INTEGRAL =      1.78 TIME LEFT: 172798.20
 STEP:  31 TIME =     0.06 SECS, INTEGRAL =      1.84 TIME LEFT: 172798.14
 STEP:  32 TIME =     0.06 SECS, INTEGRAL =      1.90 TIME LEFT: 172798.08
 STEP:  33 TIME =     0.06 SECS, INTEGRAL =      1.96 TIME LEFT: 172798.02
 STEP:  34 TIME =     0.06 SECS, INTEGRAL =      2.02 TIME LEFT: 172797.96
 STEP:  35 TIME =     0.06 SECS, INTEGRAL =      2.09 TIME LEFT: 172797.89
 STEP:  36 TIME =     0.06 SECS, INTEGRAL =      2.15 TIME LEFT: 172797.83
 STEP:  37 TIME =     0.06 SECS, INTEGRAL =      2.21 TIME LEFT: 172797.77
 STEP:  38 TIME =     0.06 SECS, INTEGRAL =      2.27 TIME LEFT: 172797.71
 STEP:  39 TIME =     0.06 SECS, INTEGRAL =      2.33 TIME LEFT: 172797.65
 STEP:  40 TIME =     0.06 SECS, INTEGRAL =      2.39 TIME LEFT: 172797.59
 STEP:  41 TIME =     0.06 SECS, INTEGRAL =      2.45 TIME LEFT: 172797.53
 STEP:  42 TIME =     0.06 SECS, INTEGRAL =      2.51 TIME LEFT: 172797.47
 STEP:  43 TIME =     0.06 SECS, INTEGRAL =      2.57 TIME LEFT: 172797.41
 STEP:  44 TIME =     0.06 SECS, INTEGRAL =      2.63 TIME LEFT: 172797.35
 STEP:  45 TIME =     0.06 SECS, INTEGRAL =      2.69 TIME LEFT: 172797.29
 STEP:  46 TIME =     0.06 SECS, INTEGRAL =      2.74 TIME LEFT: 172797.24
 STEP:  47 TIME =     0.06 SECS, INTEGRAL =      2.80 TIME LEFT: 172797.18
 STEP:  48 TIME =     0.06 SECS, INTEGRAL =      2.87 TIME LEFT: 172797.11
 STEP:  49 TIME =     0.06 SECS, INTEGRAL =      2.93 TIME LEFT: 172797.05
 STEP:  50 TIME =     0.06 SECS, INTEGRAL =      2.98 TIME LEFT: 172797.00
 STEP:  51 TIME =     0.06 SECS, INTEGRAL =      3.04 TIME LEFT: 172796.93
 STEP:  52 TIME =     0.06 SECS, INTEGRAL =      3.10 TIME LEFT: 172796.88
 STEP:  53 TIME =     0.06 SECS, INTEGRAL =      3.16 TIME LEFT: 172796.82
 STEP:  54 TIME =     0.06 SECS, INTEGRAL =      3.22 TIME LEFT: 172796.76
 STEP:  55 TIME =     0.06 SECS, INTEGRAL =      3.28 TIME LEFT: 172796.69
 STEP:  56 TIME =     0.06 SECS, INTEGRAL =      3.34 TIME LEFT: 172796.63
 STEP:  57 TIME =     0.06 SECS, INTEGRAL =      3.40 TIME LEFT: 172796.57
 STEP:  58 TIME =     0.06 SECS, INTEGRAL =      3.46 TIME LEFT: 172796.51
 STEP:  59 TIME =     0.06 SECS, INTEGRAL =      3.52 TIME LEFT: 172796.46
 STEP:  60 TIME =     0.06 SECS, INTEGRAL =      3.58 TIME LEFT: 172796.40
 STEP:  61 TIME =     0.06 SECS, INTEGRAL =      3.64 TIME LEFT: 172796.33
 STEP:  62 TIME =     0.06 SECS, INTEGRAL =      3.71 TIME LEFT: 172796.27
 STEP:  63 TIME =     0.06 SECS, INTEGRAL =      3.76 TIME LEFT: 172796.21
 STEP:  64 TIME =     0.06 SECS, INTEGRAL =      3.82 TIME LEFT: 172796.15
 STEP:  65 TIME =     0.06 SECS, INTEGRAL =      3.88 TIME LEFT: 172796.09
 STEP:  66 TIME =     0.06 SECS, INTEGRAL =      3.94 TIME LEFT: 172796.04
 STEP:  67 TIME =     0.06 SECS, INTEGRAL =      4.00 TIME LEFT: 172795.98
 STEP:  68 TIME =     0.07 SECS, INTEGRAL =      4.06 TIME LEFT: 172795.91
 STEP:  69 TIME =     0.06 SECS, INTEGRAL =      4.13 TIME LEFT: 172795.85
 STEP:  70 TIME =     0.06 SECS, INTEGRAL =      4.19 TIME LEFT: 172795.79
 STEP:  71 TIME =     0.06 SECS, INTEGRAL =      4.25 TIME LEFT: 172795.73
 STEP:  72 TIME =     0.06 SECS, INTEGRAL =      4.31 TIME LEFT: 172795.67
 STEP:  73 TIME =     0.06 SECS, INTEGRAL =      4.36 TIME LEFT: 172795.61
 STEP:  74 TIME =     0.06 SECS, INTEGRAL =      4.43 TIME LEFT: 172795.55
 STEP:  75 TIME =     0.06 SECS, INTEGRAL =      4.49 TIME LEFT: 172795.49
 STEP:  76 TIME =     0.06 SECS, INTEGRAL =      4.55 TIME LEFT: 172795.43
 STEP:  77 TIME =     0.06 SECS, INTEGRAL =      4.61 TIME LEFT: 172795.37
 STEP:  78 TIME =     0.06 SECS, INTEGRAL =      4.66 TIME LEFT: 172795.31
 STEP:  79 TIME =     0.06 SECS, INTEGRAL =      4.73 TIME LEFT: 172795.25
 STEP:  80 TIME =     0.06 SECS, INTEGRAL =      4.78 TIME LEFT: 172795.20
 STEP:  81 TIME =     0.06 SECS, INTEGRAL =      4.84 TIME LEFT: 172795.14
 STEP:  82 TIME =     0.06 SECS, INTEGRAL =      4.90 TIME LEFT: 172795.08
 STEP:  83 TIME =     0.06 SECS, INTEGRAL =      4.96 TIME LEFT: 172795.02
 STEP:  84 TIME =     0.06 SECS, INTEGRAL =      5.02 TIME LEFT: 172794.96
 STEP:  85 TIME =     0.06 SECS, INTEGRAL =      5.08 TIME LEFT: 172794.90
 STEP:  86 TIME =     0.06 SECS, INTEGRAL =      5.14 TIME LEFT: 172794.84
 STEP:  87 TIME =     0.06 SECS, INTEGRAL =      5.20 TIME LEFT: 172794.78
 STEP:  88 TIME =     0.06 SECS, INTEGRAL =      5.26 TIME LEFT: 172794.72
 STEP:  89 TIME =     0.06 SECS, INTEGRAL =      5.32 TIME LEFT: 172794.66
 STEP:  90 TIME =     0.06 SECS, INTEGRAL =      5.39 TIME LEFT: 172794.59
 STEP:  91 TIME =     0.07 SECS, INTEGRAL =      5.45 TIME LEFT: 172794.53
 STEP:  92 TIME =     0.06 SECS, INTEGRAL =      5.51 TIME LEFT: 172794.47
 STEP:  93 TIME =     0.06 SECS, INTEGRAL =      5.58 TIME LEFT: 172794.40
 STEP:  94 TIME =     0.06 SECS, INTEGRAL =      5.63 TIME LEFT: 172794.35
 STEP:  95 TIME =     0.06 SECS, INTEGRAL =      5.70 TIME LEFT: 172794.28
 STEP:  96 TIME =     0.06 SECS, INTEGRAL =      5.76 TIME LEFT: 172794.22

(To convert to Hartree/Bohr^2, multiply by (10^(-21) x N x a0^2)/(4.184 x 627.51) = 0.0642)


           FORCE MATRIX IN MILLIDYNES/ANGSTROM


                  C  1       C  2       C  3       C  4       C  5       C  6
 ------------------------------------------------------------------------------
     C    1  14.038593
     C    2   3.522633  14.505350
     C    3   3.660638   0.605892  14.629439
     C    4   3.770513   0.637739   0.576550  14.240544
     C    5   0.626020   3.733302   0.049471   0.077982  14.251987
     C    6   0.638850   0.099684   3.838490   0.052756   0.009482  14.721178
     C    7   0.600729   0.077342   0.054341   4.425150   0.005710   0.003313
     C    8   0.075868   0.621284   0.005333   0.005441   4.450732   0.001555
     C    9   0.620856   4.813368   0.065590   0.051573   0.685841   0.846579
     C   10   0.663430   0.050782   4.642284   0.059556   0.010591   0.708589
     C   11   0.060007   0.811159   0.675396   0.003681   0.044124   5.057911
     C   12   0.039573   0.007388   0.804922   0.015795   0.001627   0.040398
     H   13   3.965720   0.431652   0.432440   0.415819   0.056423   0.026211
     H   14   0.430143   0.024817   4.160457   0.018186   0.001455   0.420280
     H   15   0.433479   3.922873   0.013311   0.056375   0.423380   0.012673
     H   16   0.439451   0.048254   0.019636   4.484981   0.004174   0.001781
     H   17   0.432712   0.041626   0.047955   4.261458   0.079980   0.008942
     H   18   0.047560   0.439989   0.008544   0.004083   4.499781   0.000968
     H   19   0.041834   0.432674   0.002059   0.080075   4.267448   0.001386
     H   20   0.047543   0.008733   0.432819   0.008940   0.000658   4.469325
     H   21   0.013976   0.013870   0.453674   0.001189   0.000892   4.383748
     H   22   0.050579   0.005778   0.003713   0.450991   0.000747   0.000544
     H   23   0.027749   0.088257   0.006690   0.465187   0.002232   0.000731
     H   24   0.009607   0.003381   0.019346   0.463289   0.000653   0.000646
     H   25   0.080883   0.028033   0.002445   0.002137   0.463878   0.000698
     H   26   0.003152   0.014946   0.000517   0.000596   0.464158   0.000672
     H   27   0.005636   0.051526   0.000562   0.000771   0.451941   0.000154
     H   28   0.018502   0.001871   0.435305   0.006054   0.000662   0.022972
     H   29   0.004032   0.119421   0.041199   0.000845   0.015416   0.425862
     H   30   0.040637   0.430997   0.004563   0.007593   0.031710   0.121661
     H   31   0.011378   0.002211   0.095930   0.001329   0.000523   0.011189
     H   32   0.018289   0.003161   0.136309   0.000864   0.000811   0.018625


                  C  7       C  8       C  9       C 10       C 11       C 12
 ------------------------------------------------------------------------------
     C    7  14.292728
     C    8   0.001942  14.334971
     C    9   0.005573   0.050654  18.309646
     C   10   0.011651   0.000738   0.005861  18.154671
     C   11   0.001459   0.007753  10.738443   0.053154  18.268373
     C   12   0.009963   0.000676   0.003541  11.093463   0.008233  18.035498
     H   13   0.046821   0.095478   0.009128   0.026921   0.006485   0.001724
     H   14   0.023292   0.000714   0.006908   0.443349   0.013780   0.054615
     H   15   0.099634   0.048290   0.389743   0.001491   0.031518   0.000851
     H   16   0.437214   0.000730   0.008732   0.014563   0.001062   0.006866
     H   17   0.436443   0.002281   0.001921   0.003314   0.001651   0.000858
     H   18   0.000928   0.438845   0.024628   0.002251   0.002091   0.000632
     H   19   0.002156   0.437274   0.050314   0.001280   0.007938   0.000511
     H   20   0.000442   0.000224   0.044074   0.019109   0.432329   0.002189
     H   21   0.000466   0.000438   0.028670   0.047952   0.409890   0.002437
     H   22   4.771086   0.000469   0.000712   0.000728   0.000444   0.001018
     H   23   4.542528   0.000773   0.004222   0.000978   0.001465   0.001092
     H   24   4.692568   0.000397   0.001045   0.003280   0.000692   0.006030
     H   25   0.000832   4.549575   0.003265   0.000807   0.001071   0.000452
     H   26   0.000504   4.732285   0.009350   0.000472   0.004339   0.000337
     H   27   0.000420   4.780470   0.004414   0.000527   0.000648   0.000382
     H   28   0.000987   0.000374   0.001137   4.774991   0.001826   0.453198
     H   29   0.000364   0.000940   0.443167   0.008248   4.823673   0.001649
     H   30   0.000344   0.008613   4.792676   0.001577   0.443164   0.000560
     H   31   0.006396   0.000296   0.000952   0.489947   0.003030   5.053554
     H   32   0.000695   0.000269   0.000535   0.461950   0.003739   5.108133


                  H 13       H 14       H 15       H 16       H 17       H 18
 ------------------------------------------------------------------------------
     H   13   4.507797
     H   14   0.039661   4.640126
     H   15   0.039555   0.009057   4.466443
     H   16   0.036811   0.001470   0.002450   5.073296
     H   17   0.037650   0.001708   0.004646   0.528481   4.866845
     H   18   0.002424   0.000480   0.035607   0.000316   0.001465   5.098361
     H   19   0.005287   0.000477   0.033776   0.001448   0.062982   0.534431
     H   20   0.002016   0.036061   0.000982   0.000484   0.001814   0.000264
     H   21   0.010946   0.040602   0.001794   0.000281   0.000353   0.000301
     H   22   0.007572   0.000853   0.002572   0.022030   0.036018   0.000205
     H   23   0.002664   0.005504   0.119330   0.047395   0.019662   0.000413
     H   24   0.001232   0.022222   0.000926   0.030563   0.047223   0.000306
     H   25   0.089966   0.000583   0.002504   0.000371   0.001337   0.048313
     H   26   0.000819   0.000135   0.001710   0.000295   0.000552   0.028036
     H   27   0.002420   0.000240   0.008085   0.000200   0.000438   0.024335
     H   28   0.015014   0.036964   0.000566   0.003760   0.000468   0.000231
     H   29   0.000553   0.001321   0.015286   0.000339   0.000361   0.000622
     H   30   0.000832   0.000466   0.020220   0.001625   0.000521   0.020113
     H   31   0.000573   0.030141   0.000298   0.000930   0.000471   0.000131
     H   32   0.000632   0.002105   0.000221   0.000778   0.000236   0.000198


                  H 19       H 20       H 21       H 22       H 23       H 24
 ------------------------------------------------------------------------------
     H   19   4.879604
     H   20   0.000365   5.063171
     H   21   0.000141   0.564921   4.992622
     H   22   0.000433   0.000137   0.000219   5.492680
     H   23   0.001152   0.000135   0.000256   0.549569   5.315182
     H   24   0.000623   0.000179   0.000336   0.571191   0.557654   5.417629
     H   25   0.023075   0.000219   0.000529   0.000220   0.000301   0.000174
     H   26   0.047692   0.000175   0.000252   0.000113   0.000179   0.000127
     H   27   0.033202   0.000108   0.000159   0.000097   0.000242   0.000106
     H   28   0.000359   0.002237   0.024160   0.000267   0.000576   0.000460
     H   29   0.002576   0.035921   0.017678   0.000162   0.000294   0.000247
     H   30   0.002230   0.013475   0.016893   0.000250   0.000606   0.000167
     H   31   0.000152   0.000557   0.000669   0.000332   0.000521   0.008195
     H   32   0.000241   0.000474   0.000667   0.000281   0.000337   0.000537


                  H 25       H 26       H 27       H 28       H 29       H 30
 ------------------------------------------------------------------------------
     H   25   5.305528
     H   26   0.565608   5.460705
     H   27   0.545647   0.563035   5.497639
     H   28   0.000327   0.000144   0.000125   5.153322
     H   29   0.000264   0.000592   0.000193   0.000533   5.197709
     H   30   0.000822   0.006613   0.000799   0.000486   0.068903   5.172855
     H   31   0.000159   0.000064   0.000117   0.115534   0.000375   0.000254
     H   32   0.000112   0.000156   0.000101   0.078712   0.000612   0.000245


                  H 31       H 32
 ------------------------------
     H   31   5.447813
     H   32   0.419930   5.495250


          HEAT OF FORMATION =      -4.167746 KCALS/MOLE

          ZERO POINT ENERGY     181.059 KCAL/MOL


           NORMAL COORDINATE ANALYSIS (Total motion = 1 Angstrom)


   Root No.       1         2         3         4         5         6         7         8

                 1 A       2 A       3 A       4 A       5 A       6 A       7 A       8 A   

                  70.5      94.8      97.3     143.8     151.0     207.6     230.6     238.1
  
           1    0.0021   -0.0012    0.0027   -0.0066   -0.0037    0.0114   -0.0051   -0.0098
           2    0.0006   -0.0137   -0.0002    0.0090   -0.0029    0.0099   -0.0074   -0.0047
           3   -0.0133   -0.0083    0.0006   -0.0057   -0.0005   -0.0163    0.0053    0.0024
           4    0.0019   -0.0006    0.0026   -0.0067   -0.0038    0.0109   -0.0051   -0.0087
           5   -0.0088   -0.0077    0.0044    0.0044   -0.0087    0.0096   -0.0059   -0.0034
           6   -0.0010   -0.0065    0.0065   -0.0081    0.0053   -0.0155    0.0005    0.0042
           7   -0.0006   -0.0045   -0.0036   -0.0038   -0.0003    0.0117   -0.0028   -0.0059
           8   -0.0008   -0.0153   -0.0027    0.0101   -0.0010    0.0091   -0.0059   -0.0025
           9   -0.0029   -0.0014   -0.0131    0.0068   -0.0115   -0.0108    0.0033    0.0060
          10    0.0107    0.0041    0.0095   -0.0145   -0.0032    0.0030   -0.0069    0.0025
          11    0.0128   -0.0108   -0.0100    0.0109    0.0045   -0.0061    0.0029   -0.0025
          12   -0.0261   -0.0123    0.0041   -0.0034   -0.0066   -0.0011   -0.0014   -0.0058
          13   -0.0141    0.0027    0.0080   -0.0144   -0.0084    0.0025    0.0041   -0.0024
          14   -0.0092   -0.0011    0.0031    0.0000   -0.0135    0.0096   -0.0026   -0.0024
          15    0.0209    0.0133   -0.0060   -0.0142   -0.0050   -0.0032   -0.0021   -0.0028
          16    0.0110   -0.0130   -0.0033   -0.0005    0.0026    0.0064    0.0016    0.0016
          17    0.0028   -0.0289    0.0206   -0.0058    0.0200   -0.0016    0.0067   -0.0018
          18   -0.0100    0.0108   -0.0274    0.0161   -0.0264    0.0002   -0.0073    0.0032
          19    0.0240   -0.0006    0.0245    0.0389   -0.0068   -0.0249    0.0058    0.0123
          20    0.0234   -0.0009   -0.0266   -0.0363    0.0211   -0.0202    0.0100   -0.0045
          21   -0.0182   -0.0093    0.0009   -0.0097   -0.0009   -0.0134    0.0047   -0.0055
          22   -0.0277    0.0180   -0.0077    0.0151    0.0436   -0.0222    0.0088    0.0094
          23    0.0120    0.0287   -0.0223    0.0171    0.0117    0.0328    0.0040   -0.0028
          24    0.0235    0.0250   -0.0166   -0.0029    0.0137   -0.0018    0.0001   -0.0008
          25    0.0071   -0.0026   -0.0059   -0.0025   -0.0092    0.0049   -0.0041   -0.0027
          26   -0.0032    0.0027    0.0009   -0.0039   -0.0228   -0.0092   -0.0071   -0.0030
          27   -0.0121   -0.0171    0.0159   -0.0012    0.0255    0.0125    0.0013   -0.0013
          28   -0.0008   -0.0043   -0.0038   -0.0040   -0.0007    0.0118   -0.0028   -0.0059
          29   -0.0120   -0.0071   -0.0069    0.0132   -0.0015   -0.0026    0.0018    0.0197
          30    0.0221   -0.0109    0.0029    0.0103   -0.0045   -0.0016    0.0029    0.0123
          31    0.0117   -0.0085   -0.0084   -0.0002   -0.0065   -0.0013   -0.0005    0.0028
          32    0.0029   -0.0073    0.0090   -0.0092   -0.0133   -0.0262   -0.0029    0.0031
          33   -0.0177   -0.0062   -0.0026    0.0116    0.0113    0.0350   -0.0021   -0.0061
          34   -0.0227    0.0070   -0.0164   -0.0058   -0.0073   -0.0046    0.0036    0.0011
          35   -0.0235    0.0555    0.0332   -0.0052   -0.0017   -0.0050    0.0006    0.0048
          36    0.0324    0.0173    0.0365    0.0009    0.0005    0.0102   -0.0030   -0.0022
          37   -0.0081    0.0000    0.0011   -0.0034   -0.0038    0.0114   -0.0022   -0.0108
          38   -0.0067   -0.0186    0.0044    0.0067   -0.0018    0.0166   -0.0139   -0.0114
          39   -0.0206   -0.0104    0.0024   -0.0053   -0.0001   -0.0121    0.0024   -0.0019
          40   -0.0177    0.0033   -0.0140   -0.0047   -0.0043    0.0068   -0.0023   -0.0050
          41    0.0019   -0.0067   -0.0140    0.0172   -0.0133    0.0162   -0.0125   -0.0084
          42   -0.0081    0.0065   -0.0236    0.0107   -0.0202   -0.0080   -0.0008    0.0029
          43    0.0128   -0.0002    0.0063   -0.0020    0.0008    0.0119   -0.0073   -0.0074
          44   -0.0238   -0.0189    0.0142    0.0075    0.0029    0.0126   -0.0038    0.0039
          45   -0.0008   -0.0088    0.0098   -0.0054    0.0096   -0.0137    0.0002    0.0061
          46    0.0096    0.0050    0.0083   -0.0216   -0.0027    0.0056   -0.0086    0.0026
          47    0.0149   -0.0188   -0.0042    0.0589    0.0004   -0.0178    0.0136   -0.0081
          48   -0.0374   -0.0125   -0.0041   -0.0249   -0.0061    0.0178   -0.0081   -0.0161
          49    0.0073    0.0113    0.0043   -0.0582   -0.0009    0.0150   -0.0161    0.0060
          50    0.0109   -0.0082   -0.0110   -0.0053    0.0046   -0.0007   -0.0012   -0.0007
          51   -0.0302   -0.0168    0.0175    0.0260   -0.0169    0.0047   -0.0062   -0.0003
          52   -0.0134    0.0009    0.0106   -0.0191   -0.0159    0.0047    0.0045   -0.0033
          53   -0.0219   -0.0051    0.0140   -0.0150   -0.0310    0.0047    0.0063    0.0022
          54    0.0296    0.0026    0.0075   -0.0406   -0.0490    0.0140   -0.0032   -0.0107
          55   -0.0162   -0.0053    0.0228   -0.0406   -0.0458    0.0106    0.0082   -0.0041
          56   -0.0131   -0.0136    0.0092    0.0007   -0.0146    0.0032   -0.0080   -0.0042
          57    0.0262    0.0317   -0.0220    0.0022    0.0203   -0.0012    0.0013    0.0001
          58    0.0110   -0.0340    0.0117    0.0000    0.0371    0.0316    0.0126   -0.0035
          59    0.0026   -0.0317    0.0213   -0.0043    0.0246    0.0039    0.0077   -0.0028
          60   -0.0126    0.0338   -0.0574    0.0310   -0.0653   -0.0056   -0.0252    0.0058
          61    0.0177   -0.0007   -0.0179    0.0012   -0.0254   -0.0207   -0.0040    0.0100
          62    0.0072   -0.0574    0.0509   -0.0177    0.0653    0.0100    0.0268   -0.0046
          63   -0.0045    0.0069   -0.0240    0.0127   -0.0251   -0.0105   -0.0030    0.0069
          64    0.0290   -0.0032    0.0286    0.0092    0.0092   -0.0025   -0.0608    0.1575
          65    0.0303    0.0050   -0.0349   -0.0438    0.0247   -0.0415    0.0406   -0.0570
          66   -0.0255   -0.0140    0.0075    0.0032   -0.0075    0.0009   -0.0082    0.0099
          67    0.0250   -0.0007    0.0259    0.0549   -0.0112   -0.0347    0.0245   -0.0230
          68    0.0206   -0.0007   -0.0312   -0.0952    0.0386    0.0157   -0.0608    0.1306
          69   -0.0075   -0.0105    0.0065   -0.0042    0.0069   -0.0192   -0.0099    0.0428
          70    0.0282   -0.0013    0.0307    0.0928   -0.0207   -0.0571    0.0623   -0.0897
          71    0.0266    0.0008   -0.0266   -0.0077    0.0129   -0.0452    0.0558   -0.0901
          72   -0.0163   -0.0004   -0.0146   -0.0363    0.0026   -0.0272    0.0369   -0.0750
          73   -0.0283    0.0197   -0.0109    0.0221    0.0562   -0.0319   -0.0176    0.0001
          74    0.0204    0.0325   -0.0321    0.0383    0.0520   -0.0019   -0.1381   -0.0586
          75    0.0139    0.0323   -0.0274    0.0214    0.0562   -0.0313   -0.0470   -0.0132
          76   -0.0294    0.0252   -0.0207    0.0442    0.0969   -0.0642   -0.1073   -0.0317
          77    0.0184    0.0443   -0.0308    0.0133    0.0006    0.0723    0.1135    0.0389
          78    0.0193    0.0063    0.0005   -0.0215   -0.0166   -0.0038   -0.0061   -0.0056
          79   -0.0356    0.0204   -0.0037    0.0013    0.0167    0.0107    0.1533    0.0679
          80    0.0133    0.0332   -0.0241    0.0144    0.0055    0.0474    0.0486    0.0144
          81    0.0394    0.0447   -0.0308   -0.0003    0.0143    0.0321    0.0516    0.0158
          82    0.0179   -0.0132    0.0072   -0.0029    0.0044    0.0236   -0.0070   -0.0113
          83   -0.0117   -0.0493   -0.0407    0.0303   -0.0026   -0.0136    0.0105    0.0545
          84    0.0325   -0.0404   -0.0108    0.0209   -0.0023   -0.0012    0.0056    0.0296
          85    0.0163   -0.0107   -0.0139    0.0021   -0.0093   -0.0110    0.0018    0.0074
          86    0.0075   -0.0013    0.0086   -0.0163   -0.0260   -0.0531   -0.0051    0.0088
          87   -0.0266   -0.0117    0.0022    0.0182    0.0285    0.0743   -0.0012   -0.0163
          88    0.0077    0.0013   -0.0102   -0.0018   -0.0158    0.0021   -0.0050   -0.0020
          89   -0.0042    0.0174   -0.0067   -0.0065   -0.0424   -0.0172   -0.0112   -0.0048
          90   -0.0157   -0.0328    0.0372   -0.0063    0.0549    0.0259    0.0052   -0.0061
          91   -0.0424    0.0172   -0.0277   -0.0072   -0.0137   -0.0202    0.0100    0.0078
          92   -0.0240    0.0981    0.0670   -0.0228   -0.0004    0.0058   -0.0081   -0.0309
          93    0.0225    0.0467    0.0504   -0.0098   -0.0019    0.0089   -0.0049   -0.0193
          94   -0.0223    0.0069   -0.0160   -0.0058   -0.0072   -0.0044    0.0036    0.0012
          95   -0.0334    0.0693    0.0352   -0.0044   -0.0033   -0.0185    0.0086    0.0267
          96    0.0518    0.0130    0.0527    0.0031    0.0075    0.0228   -0.0066    0.0012


   Root No.       9        10        11        12        13        14        15        16

                 9 A      10 A      11 A      12 A      13 A      14 A      15 A      16 A   

                 283.1     315.7     327.1     352.1     391.1     414.1     439.4     468.4
  
           1   -0.0067   -0.0077   -0.0009   -0.0008    0.0025   -0.0203   -0.0301   -0.0047
           2   -0.0093   -0.0182    0.0018   -0.0021   -0.0139    0.0019   -0.0160   -0.0163
           3   -0.0072    0.0079    0.0124    0.0062   -0.0020    0.0050    0.0009    0.0019
           4   -0.0039   -0.0088    0.0013    0.0021    0.0048   -0.0185   -0.0376   -0.0009
           5   -0.0011    0.0052    0.0018   -0.0092   -0.0020   -0.0005   -0.0008    0.0322
           6   -0.0001   -0.0101   -0.0077   -0.0137    0.0064    0.0099    0.0038    0.0138
           7   -0.0059   -0.0075   -0.0078   -0.0055    0.0103   -0.0153    0.0323   -0.0059
           8   -0.0064   -0.0238    0.0003   -0.0019   -0.0132    0.0074    0.0091   -0.0279
           9   -0.0026    0.0254   -0.0079   -0.0021   -0.0136    0.0153   -0.0103   -0.0097
          10    0.0174   -0.0009    0.0251   -0.0242   -0.0277    0.0024   -0.0098   -0.0146
          11   -0.0190   -0.0090   -0.0232    0.0144    0.0044   -0.0001   -0.0251   -0.0054
          12   -0.0126   -0.0045    0.0238    0.0094    0.0002   -0.0073   -0.0088   -0.0073
          13    0.0186   -0.0029   -0.0144    0.0313    0.0193    0.0172   -0.0066   -0.0276
          14    0.0093    0.0093   -0.0065    0.0082    0.0038    0.0140    0.0156    0.0276
          15    0.0094   -0.0144   -0.0232    0.0141   -0.0072    0.0024    0.0008    0.0072
          16   -0.0005    0.0031    0.0029    0.0005   -0.0026    0.0243    0.0069    0.0228
          17   -0.0037    0.0176   -0.0132    0.0003   -0.0183    0.0013    0.0065   -0.0261
          18   -0.0047   -0.0065   -0.0030   -0.0075   -0.0086    0.0077    0.0080   -0.0199
          19   -0.0056    0.0090    0.0241    0.0126   -0.0014   -0.0016    0.0099   -0.0028
          20   -0.0039    0.0023    0.0157    0.0118    0.0064   -0.0055    0.0037    0.0021
          21   -0.0120    0.0021    0.0413    0.0167    0.0080   -0.0114    0.0082   -0.0017
          22    0.0031   -0.0198   -0.0148    0.0009   -0.0082    0.0021    0.0040    0.0001
          23   -0.0018    0.0272    0.0236   -0.0023    0.0202    0.0098    0.0005   -0.0081
          24    0.0031   -0.0133   -0.0160    0.0051   -0.0093   -0.0024   -0.0020    0.0048
          25   -0.0044   -0.0073    0.0104    0.0046   -0.0042    0.0092   -0.0232    0.0365
          26   -0.0023    0.0014   -0.0091   -0.0019   -0.0115   -0.0247    0.0068    0.0239
          27    0.0008   -0.0068   -0.0048   -0.0285    0.0288    0.0169   -0.0144    0.0058
          28   -0.0064   -0.0051   -0.0099   -0.0077    0.0116   -0.0197    0.0417   -0.0096
          29    0.0381   -0.0222    0.0111    0.0026    0.0029   -0.0049    0.0045   -0.0059
          30    0.0198    0.0266   -0.0108   -0.0082    0.0004   -0.0115   -0.0130   -0.0078
          31   -0.0043   -0.0013    0.0050   -0.0047   -0.0003    0.0302    0.0027    0.0230
          32   -0.0065   -0.0005   -0.0130   -0.0301    0.0142    0.0009    0.0077    0.0025
          33    0.0065    0.0037   -0.0051    0.0096   -0.0144   -0.0072    0.0158    0.0235
          34   -0.0056    0.0445   -0.0223   -0.0128    0.0026   -0.0161    0.0040   -0.0083
          35    0.0056   -0.0014    0.0048    0.0027   -0.0014    0.0026   -0.0092    0.0034
          36   -0.0003    0.0006   -0.0058   -0.0050    0.0058   -0.0120    0.0116   -0.0047
          37   -0.0113   -0.0063    0.0010    0.0077   -0.0024   -0.0296   -0.0455    0.0003
          38   -0.0125   -0.0281    0.0194    0.0025   -0.0093   -0.0060   -0.0090   -0.0275
          39   -0.0112    0.0020    0.0218    0.0110   -0.0018   -0.0031   -0.0017   -0.0024
          40   -0.0064   -0.0150   -0.0052   -0.0049    0.0146   -0.0175    0.0579   -0.0105
          41   -0.0120   -0.0353   -0.0005   -0.0079   -0.0171    0.0084    0.0022   -0.0418
          42   -0.0059    0.0137   -0.0068   -0.0054   -0.0137    0.0150   -0.0029   -0.0199
          43   -0.0078   -0.0163    0.0015   -0.0007    0.0080   -0.0292   -0.0424   -0.0086
          44   -0.0034    0.0160    0.0143   -0.0251    0.0218    0.0146    0.0033    0.0346
          45   -0.0022   -0.0096   -0.0040   -0.0172    0.0133    0.0092    0.0024    0.0117
          46    0.0221   -0.0013    0.0293   -0.0300   -0.0334    0.0045   -0.0081   -0.0180
          47   -0.0558   -0.0108   -0.0612    0.0569    0.0506   -0.0230   -0.0484    0.0201
          48   -0.0112   -0.0142    0.0151   -0.0010   -0.0007   -0.0165   -0.0304   -0.0085
          49    0.0517   -0.0003    0.0547   -0.0590   -0.0660    0.0234    0.0093   -0.0381
          50   -0.0052   -0.0091   -0.0116    0.0011   -0.0109    0.0089   -0.0170   -0.0153
          51   -0.0189   -0.0101    0.0169    0.0142   -0.0026   -0.0027   -0.0099   -0.0156
          52    0.0230   -0.0017   -0.0171    0.0387    0.0225    0.0228   -0.0045   -0.0326
          53    0.0343    0.0103   -0.0272    0.0430    0.0146    0.0542    0.0483    0.0029
          54    0.0288   -0.0048   -0.0331    0.0499    0.0115    0.0236    0.0020   -0.0174
          55    0.0476    0.0044   -0.0301    0.0721    0.0347    0.0561    0.0157   -0.0587
          56    0.0006    0.0055   -0.0060   -0.0041    0.0028    0.0019    0.0057    0.0455
          57    0.0000   -0.0149   -0.0140    0.0021   -0.0148   -0.0085   -0.0033    0.0068
          58    0.0063    0.0310    0.0030    0.0392   -0.0445    0.0263    0.0024    0.0273
          59   -0.0027    0.0192   -0.0119    0.0076   -0.0261    0.0023    0.0055   -0.0268
          60   -0.0134   -0.0654    0.0125   -0.0311    0.0183    0.0179    0.0102   -0.0389
          61   -0.0056   -0.0113    0.0074   -0.0252    0.0204    0.0434   -0.0055    0.0132
          62    0.0063    0.0801   -0.0254    0.0351   -0.0593   -0.0017   -0.0027   -0.0133
          63   -0.0036    0.0081   -0.0049   -0.0093   -0.0101    0.0168   -0.0026   -0.0206
          64   -0.0569    0.0193    0.0281    0.0494    0.0145   -0.0091    0.0248    0.0018
          65    0.0192    0.0069    0.0406    0.0039    0.0097   -0.0089    0.0249    0.0098
          66   -0.0216   -0.0043    0.0186    0.0158    0.0019   -0.0070   -0.0138   -0.0095
          67    0.0034    0.0074    0.0216    0.0092   -0.0001   -0.0005    0.0092   -0.0014
          68   -0.0398    0.0085    0.0251    0.0265    0.0046   -0.0105    0.0085   -0.0016
          69   -0.0348    0.0083    0.0416    0.0396    0.0299   -0.0164    0.0251    0.0110
          70    0.0181    0.0063    0.0174    0.0076    0.0056    0.0014    0.0110    0.0032
          71    0.0216    0.0009    0.0194    0.0019    0.0085   -0.0040    0.0085    0.0064
          72    0.0254    0.0031    0.0714   -0.0089   -0.0024   -0.0126    0.0239   -0.0013
          73    0.0061   -0.0141   -0.0125    0.0004   -0.0080    0.0015    0.0047    0.0012
          74    0.0243    0.0652    0.0362    0.0140    0.0425    0.0206   -0.0037   -0.0346
          75    0.0014   -0.0073   -0.0112   -0.0093   -0.0222   -0.0119    0.0049    0.0276
          76    0.0179    0.0049   -0.0063    0.0005   -0.0058    0.0018    0.0076    0.0028
          77   -0.0291    0.0096    0.0362   -0.0243    0.0166    0.0000   -0.0075   -0.0217
          78    0.0154   -0.0166   -0.0327    0.0240   -0.0078    0.0064    0.0021    0.0139
          79   -0.0275   -0.0615   -0.0241   -0.0235   -0.0348   -0.0121    0.0085    0.0251
          80   -0.0121    0.0184    0.0262   -0.0104    0.0171    0.0062   -0.0014   -0.0104
          81   -0.0122   -0.0085    0.0071   -0.0057    0.0053   -0.0051   -0.0172   -0.0342
          82   -0.0086   -0.0266   -0.0082   -0.0088    0.0178   -0.0290    0.0627   -0.0153
          83    0.1134   -0.0189    0.0202    0.0026    0.0293   -0.0502   -0.0228    0.0113
          84    0.0625    0.0155   -0.0042   -0.0087    0.0195   -0.0431   -0.0161   -0.0009
          85   -0.0076    0.0023    0.0021   -0.0073   -0.0053    0.0442    0.0153   -0.0102
          86   -0.0124   -0.0117   -0.0136   -0.0557    0.0386    0.0090   -0.0026   -0.0012
          87    0.0158    0.0142   -0.0022    0.0420   -0.0398   -0.0276    0.0174    0.0528
          88   -0.0045   -0.0074    0.0102    0.0097   -0.0116    0.0048   -0.0170    0.0399
          89   -0.0029   -0.0037   -0.0115    0.0147   -0.0289   -0.0588    0.0046    0.0210
          90    0.0018   -0.0081   -0.0058   -0.0492    0.0636    0.0281   -0.0506   -0.0184
          91   -0.0055    0.0979   -0.0367   -0.0191   -0.0077   -0.0129   -0.0413   -0.0082
          92   -0.0710   -0.0095   -0.0017    0.0042   -0.0299    0.0560    0.0248   -0.0156
          93   -0.0440    0.0213   -0.0163   -0.0071   -0.0153    0.0200    0.0098   -0.0156
          94   -0.0052    0.0441   -0.0223   -0.0129    0.0031   -0.0170    0.0046   -0.0082
          95    0.0523    0.0292    0.0050    0.0010    0.0230   -0.0447   -0.0611    0.0338
          96    0.0251   -0.0498    0.0116    0.0013    0.0338   -0.0451    0.0442    0.0107


   Root No.      17        18        19        20        21        22        23        24

                17 A      18 A      19 A      20 A      21 A      22 A      23 A      24 A   

                 524.6     589.6     633.4     662.5     723.3     787.0     835.8     848.6
  
           1    0.0074   -0.0135   -0.0097   -0.0074    0.0011   -0.0163    0.0105    0.0054
           2   -0.0236    0.0074    0.0019    0.0158   -0.0073   -0.0025   -0.0074    0.0040
           3    0.0209    0.0399   -0.0059   -0.0174    0.0109    0.0126    0.0063   -0.0053
           4    0.0104   -0.0224    0.0030   -0.0063   -0.0032    0.0077   -0.0074   -0.0040
           5   -0.0098   -0.0044   -0.0121   -0.0098   -0.0068    0.0031   -0.0029    0.0014
           6    0.0135    0.0218    0.0333    0.0175   -0.0184    0.0162    0.0129    0.0026
           7    0.0081    0.0042   -0.0051   -0.0050   -0.0015   -0.0011    0.0002   -0.0010
           8   -0.0205   -0.0007    0.0114    0.0164   -0.0063    0.0116    0.0105   -0.0022
           9    0.0261   -0.0187   -0.0183   -0.0081   -0.0058    0.0092   -0.0050    0.0053
          10    0.0049    0.0244   -0.0092   -0.0102    0.0079   -0.0152    0.0281   -0.0015
          11    0.0079    0.0388   -0.0077   -0.0092    0.0096   -0.0105   -0.0213   -0.0019
          12   -0.0056    0.0136   -0.0061   -0.0047    0.0064   -0.0098   -0.0033   -0.0012
          13    0.0077   -0.0018    0.0170    0.0105    0.0064    0.0091   -0.0027   -0.0303
          14   -0.0199    0.0036   -0.0265   -0.0172   -0.0180   -0.0006    0.0053   -0.0161
          15   -0.0118   -0.0050   -0.0081   -0.0037   -0.0022    0.0014    0.0001   -0.0101
          16   -0.0012   -0.0053    0.0021    0.0083    0.0214   -0.0148   -0.0022   -0.0046
          17    0.0121   -0.0160   -0.0087    0.0102    0.0039    0.0193    0.0154   -0.0007
          18    0.0157   -0.0163   -0.0137    0.0105   -0.0146    0.0025    0.0018    0.0002
          19   -0.0050   -0.0013   -0.0029   -0.0009    0.0023   -0.0013    0.0040   -0.0008
          20   -0.0031    0.0011   -0.0010   -0.0012    0.0028   -0.0019   -0.0058   -0.0011
          21   -0.0157   -0.0144   -0.0007    0.0039   -0.0004   -0.0066   -0.0069   -0.0001
          22   -0.0075   -0.0008    0.0010    0.0031   -0.0007    0.0011   -0.0005   -0.0061
          23    0.0094    0.0065    0.0030   -0.0002   -0.0042    0.0008    0.0029   -0.0086
          24   -0.0090   -0.0068   -0.0087   -0.0042    0.0022   -0.0021   -0.0024   -0.0014
          25    0.0017    0.0064    0.0136    0.0002   -0.0313    0.0390    0.0024    0.0167
          26    0.0143   -0.0050    0.0198    0.0069    0.0178    0.0119   -0.0040    0.0082
          27   -0.0015   -0.0063    0.0023    0.0013   -0.0163   -0.0109   -0.0022    0.0019
          28    0.0066    0.0090   -0.0092   -0.0106   -0.0109    0.0070   -0.0045    0.0027
          29    0.0108   -0.0119    0.0167   -0.0387   -0.0023   -0.0023   -0.0012    0.0012
          30   -0.0248   -0.0004    0.0223   -0.0144    0.0019   -0.0031    0.0017   -0.0007
          31    0.0012   -0.0072   -0.0015    0.0131    0.0183   -0.0111   -0.0016   -0.0018
          32    0.0104   -0.0169    0.0030    0.0086    0.0354   -0.0103   -0.0060    0.0025
          33    0.0101   -0.0047    0.0166    0.0180    0.0214   -0.0314   -0.0043   -0.0064
          34   -0.0236    0.0102    0.0039   -0.0004   -0.0055    0.0045   -0.0035    0.0024
          35    0.0051   -0.0031   -0.0026    0.0012    0.0012   -0.0014   -0.0003    0.0005
          36   -0.0070    0.0068    0.0011    0.0003   -0.0027    0.0017    0.0002   -0.0004
          37   -0.0015   -0.0384   -0.0354   -0.0246    0.0093   -0.0333   -0.0108    0.0211
          38   -0.0407    0.0146    0.0125    0.0290   -0.0054   -0.0067    0.0005   -0.0023
          39    0.0070    0.0348   -0.0101   -0.0161    0.0146    0.0026    0.0026   -0.0019
          40    0.0358    0.0084   -0.0212   -0.0204   -0.0159    0.0151   -0.0038    0.0000
          41   -0.0372   -0.0237    0.0071    0.0463   -0.0278    0.0085    0.0135    0.0053
          42    0.0274   -0.0297   -0.0265    0.0033   -0.0231    0.0144   -0.0039    0.0094
          43   -0.0064   -0.0589   -0.0004    0.0034   -0.0068   -0.0165   -0.0317    0.0083
          44   -0.0054   -0.0004   -0.0117   -0.0113   -0.0296   -0.0085    0.0003   -0.0021
          45    0.0086    0.0090    0.0319    0.0200   -0.0238    0.0069    0.0040    0.0058
          46    0.0028    0.0261   -0.0090   -0.0082    0.0073   -0.0113    0.0023   -0.0015
          47    0.0249    0.0190   -0.0115   -0.0268    0.0133   -0.0485    0.1620    0.0053
          48   -0.0030    0.0075   -0.0100   -0.0073    0.0042   -0.0256   -0.0221    0.0074
          49   -0.0104    0.0426   -0.0061    0.0052    0.0055    0.0140   -0.1355   -0.0034
          50    0.0003    0.0457   -0.0060   -0.0018    0.0079    0.0012   -0.0833   -0.0020
          51   -0.0190    0.0133   -0.0042    0.0061    0.0020   -0.0138    0.0239   -0.0039
          52    0.0054   -0.0003    0.0153    0.0113    0.0070    0.0027   -0.0027    0.0019
          53   -0.0401    0.0295   -0.0321   -0.0053   -0.0198   -0.0348    0.0180    0.1102
          54   -0.0166   -0.0051   -0.0147   -0.0027    0.0040   -0.0262   -0.0038    0.1373
          55   -0.0086    0.0151    0.0088    0.0187    0.0114   -0.0288   -0.0015    0.1399
          56   -0.0109    0.0000   -0.0165   -0.0176   -0.0262    0.0152    0.0062   -0.0358
          57   -0.0110   -0.0116   -0.0130   -0.0079    0.0035    0.0076   -0.0009   -0.0909
          58    0.0157   -0.0059    0.0062    0.0207   -0.0546   -0.0367   -0.0105   -0.0082
          59    0.0121   -0.0151   -0.0066    0.0139   -0.0106    0.0185    0.0171   -0.0020
          60   -0.0350    0.0011   -0.0037    0.0208    0.0480    0.0485    0.0460   -0.0104
          61   -0.0144   -0.0135   -0.0163    0.0003    0.0691    0.0215    0.0086    0.0003
          62    0.0625   -0.0363   -0.0212    0.0071   -0.0873   -0.0155   -0.0209    0.0100
          63    0.0257   -0.0277   -0.0282    0.0041   -0.0201    0.0114   -0.0049    0.0071
          64   -0.0148   -0.0348    0.0039    0.0110   -0.0088    0.0168   -0.0303    0.0048
          65   -0.0154   -0.0441    0.0101    0.0141   -0.0144    0.0134    0.0429    0.0052
          66   -0.0032    0.0319   -0.0118   -0.0117    0.0168   -0.0242   -0.0416   -0.0066
          67   -0.0046   -0.0004   -0.0013    0.0004    0.0013    0.0018   -0.0178   -0.0003
          68   -0.0066   -0.0106   -0.0040   -0.0020    0.0024   -0.0082    0.0589   -0.0010
          69   -0.0259   -0.0604    0.0175    0.0256   -0.0233    0.0224   -0.0648    0.0093
          70   -0.0056   -0.0032    0.0027    0.0047   -0.0025    0.0121   -0.0656    0.0015
          71   -0.0061   -0.0094    0.0040    0.0048   -0.0035    0.0064   -0.0197    0.0013
          72   -0.0251   -0.0484    0.0044    0.0126   -0.0122   -0.0073    0.1022    0.0032
          73   -0.0067   -0.0001   -0.0008    0.0016   -0.0003   -0.0031   -0.0005    0.0192
          74    0.0285    0.0112    0.0303    0.0184    0.0066    0.0059   -0.0006    0.0044
          75   -0.0153   -0.0051   -0.0339   -0.0233   -0.0027   -0.0251    0.0007    0.1115
          76   -0.0036    0.0022   -0.0034   -0.0006    0.0000   -0.0120    0.0002    0.0775
          77    0.0229    0.0100    0.0275    0.0170    0.0071   -0.0011   -0.0008    0.0558
          78   -0.0233   -0.0117   -0.0259   -0.0156   -0.0077    0.0088    0.0001   -0.1137
          79   -0.0273   -0.0039   -0.0217   -0.0102   -0.0103   -0.0107    0.0022    0.0398
          80    0.0115    0.0072    0.0084    0.0039   -0.0014   -0.0005    0.0019    0.0137
          81    0.0229   -0.0014    0.0409    0.0292    0.0274    0.0045   -0.0111    0.0507
          82   -0.0041    0.0195   -0.0024   -0.0064   -0.0145    0.0095    0.0020   -0.0015
          83    0.0207    0.0005   -0.0154   -0.0071   -0.0020   -0.0097   -0.0033    0.0037
          84   -0.0234    0.0127    0.0066    0.0056   -0.0004   -0.0057    0.0037   -0.0014
          85    0.0080   -0.0174   -0.0212    0.0255   -0.0016   -0.0566    0.0071   -0.0297
          86    0.0196   -0.0106    0.0189    0.0169   -0.0636   -0.1000   -0.0261   -0.0145
          87   -0.0054   -0.0050    0.0133   -0.0007    0.1530    0.1095    0.0125    0.0356
          88    0.0091    0.0128    0.0286    0.0118   -0.0519    0.0133    0.0049    0.0116
          89    0.0421    0.0106    0.0728    0.0307   -0.0633   -0.0418   -0.0010    0.0043
          90   -0.0317   -0.0391   -0.0622   -0.0540    0.0668    0.1149   -0.0150    0.0307
          91   -0.0717    0.0144    0.0333    0.0223    0.0102   -0.0070    0.0162   -0.0112
          92    0.0049   -0.0325    0.0615   -0.1071    0.0025   -0.0131   -0.0057    0.0037
          93   -0.0295   -0.0080    0.0513   -0.0512    0.0052   -0.0101    0.0060   -0.0049
          94   -0.0237    0.0111    0.0028    0.0012   -0.0060    0.0051   -0.0036    0.0025
          95   -0.0062    0.0401   -0.0949    0.1815    0.0085    0.0125    0.0174   -0.0098
          96    0.0464    0.0297   -0.0893    0.0724   -0.0225    0.0285   -0.0173    0.0121


   Root No.      25        26        27        28        29        30        31        32

                25 A      26 A      27 A      28 A      29 A      30 A      31 A      32 A   

                 887.2     926.4     934.4     941.9     976.0     989.9     996.1    1020.7
  
           1    0.0062    0.0085    0.0094   -0.0147   -0.0072   -0.0159   -0.0110   -0.0068
           2   -0.0155    0.0067   -0.0020    0.0047   -0.0051   -0.0095    0.0101   -0.0084
           3    0.0198   -0.0183   -0.0064    0.0160   -0.0163   -0.0136    0.0089    0.0059
           4    0.0126   -0.0048   -0.0023    0.0021   -0.0054    0.0092    0.0090    0.0111
           5   -0.0001   -0.0051   -0.0095    0.0159    0.0149   -0.0104   -0.0092    0.0055
           6   -0.0087    0.0153    0.0161   -0.0255   -0.0104   -0.0037   -0.0117    0.0035
           7    0.0041   -0.0120    0.0104   -0.0091    0.0061   -0.0015    0.0027   -0.0040
           8    0.0054   -0.0093   -0.0030    0.0026   -0.0041    0.0010    0.0004    0.0118
           9   -0.0052    0.0139   -0.0081   -0.0016    0.0042   -0.0004    0.0072   -0.0034
          10   -0.0102    0.0038    0.0006   -0.0057    0.0039    0.0022   -0.0081    0.0012
          11   -0.0056    0.0053    0.0026   -0.0056    0.0077    0.0073    0.0018   -0.0012
          12   -0.0033    0.0000    0.0000    0.0000   -0.0017   -0.0047    0.0020   -0.0023
          13   -0.0049   -0.0025   -0.0055    0.0082    0.0035   -0.0036   -0.0017    0.0128
          14    0.0055    0.0049    0.0071   -0.0111   -0.0047    0.0001   -0.0026    0.0063
          15   -0.0009    0.0023    0.0032   -0.0054   -0.0062    0.0050    0.0016    0.0033
          16   -0.0002    0.0049   -0.0026   -0.0029   -0.0029   -0.0015    0.0034    0.0116
          17    0.0332    0.0112    0.0020    0.0045    0.0061    0.0119   -0.0106   -0.0126
[...]
 EFF. MASS  11.8813        C 11 --  H 29          +13.0% ( 53.1%)     4.5%

 VIBRATION   71   71A       ATOM PAIR        ENERGY CONTRIBUTION    RADIAL
 FREQ.      2793.43        C  2 --  H 15          +86.8% ( 94.7%)   100.0%
 T-DIPOLE    0.1087        C  1 --  H 13           +9.8% ( 31.8%)    99.9%
 TRAVEL      0.1298        C  1 --  C  2           +1.1% ( 10.7%)     8.1%
 RED. MASS   0.7573        C  2 --  C  5           +0.9% (  9.7%)     8.4%
 EFF. MASS   1.4331

 VIBRATION   72   72A       ATOM PAIR        ENERGY CONTRIBUTION    RADIAL
 FREQ.      2806.20        C  1 --  H 13          +86.4% ( 94.4%)   100.0%
 T-DIPOLE    0.1415        C  2 --  H 15           +9.7% ( 31.7%)    99.9%
 TRAVEL      0.1295        C  1 --  C  3           +1.0% (  9.9%)     8.7%
 RED. MASS   0.7474        C  1 --  C  4           +0.9% (  9.8%)     7.8%
 EFF. MASS   1.4320

 VIBRATION   73   73A       ATOM PAIR        ENERGY CONTRIBUTION    RADIAL
 FREQ.      2859.32        C  3 --  H 14          +95.8% ( 99.5%)   100.0%
 T-DIPOLE    0.0762        C  3 --  C  6           +1.1% ( 10.5%)     8.2%
 TRAVEL      0.1277        C  3 --  C 10           +1.1% ( 10.5%)    12.3%
 RED. MASS   0.9105        C  1 --  C  3           +1.0% ( 10.3%)     8.8%
 EFF. MASS   1.4466

 VIBRATION   74   74A       ATOM PAIR        ENERGY CONTRIBUTION    RADIAL
 FREQ.      2902.66        C  4 --  H 17          +48.2% ( 71.7%)    99.4%
 T-DIPOLE    0.0486        C  5 --  H 19          +37.9% ( 63.6%)    99.5%
 TRAVEL      0.1245        C  4 --  H 16           +6.6% ( 26.6%)    82.8%
 RED. MASS   0.3960        C  5 --  H 18           +4.8% ( 22.7%)    81.8%
 EFF. MASS   1.4990

 VIBRATION   75   75A       ATOM PAIR        ENERGY CONTRIBUTION    RADIAL
 FREQ.      2929.69        C  5 --  H 19          +44.6% ( 68.7%)    99.1%
 T-DIPOLE    0.0392        C  4 --  H 17          +34.0% ( 59.9%)    99.0%
 TRAVEL      0.1233        C  5 --  H 18          +10.1% ( 32.6%)    88.2%
 RED. MASS   0.3519        C  4 --  H 16           +8.7% ( 30.2%)    89.4%
 EFF. MASS   1.5150

 VIBRATION   76   76A       ATOM PAIR        ENERGY CONTRIBUTION    RADIAL
 FREQ.      2943.74        C  6 --  H 21          +61.6% ( 81.3%)    97.7%
 T-DIPOLE    0.0308        C  6 --  H 20          +35.8% ( 62.0%)    94.7%
 TRAVEL      0.1223        C  6 --  C 11           +1.1% ( 10.9%)     0.1%
 RED. MASS   0.5462        C  3 --  C  6           +1.1% ( 10.8%)     0.2%
 EFF. MASS   1.5320

 VIBRATION   77   77A       ATOM PAIR        ENERGY CONTRIBUTION    RADIAL
 FREQ.      3009.06        C  4 --  H 16          +78.6% ( 88.4%)    99.8%
 T-DIPOLE    0.0464        C  4 --  H 17          +11.3% ( 33.5%)    78.7%
 TRAVEL      0.1299        C  5 --  H 18           +6.6% ( 25.7%)   100.0%
 RED. MASS   0.6104        C  7 --  H 23           +1.1% ( 10.6%)    98.2%
 EFF. MASS   1.3290

 VIBRATION   78   78A       ATOM PAIR        ENERGY CONTRIBUTION    RADIAL
 FREQ.      3016.96        C  5 --  H 18          +76.8% ( 87.2%)    99.8%
 T-DIPOLE    0.0419        C  5 --  H 19          +12.7% ( 35.5%)    81.8%
 TRAVEL      0.1302        C  4 --  H 16           +4.8% ( 21.8%)    99.1%
 RED. MASS   0.5826        C  4 --  H 17           +1.9% ( 13.7%)    92.7%
 EFF. MASS   1.3181

 VIBRATION   79   79A       ATOM PAIR        ENERGY CONTRIBUTION    RADIAL
 FREQ.      3023.85        C  6 --  H 20          +62.1% ( 77.8%)    98.9%
 T-DIPOLE    0.0521        C  6 --  H 21          +34.6% ( 58.1%)    95.3%
 TRAVEL      0.1317        C 11 --  H 29           +1.9% ( 13.6%)   100.0%
 RED. MASS   0.4983        C  6 --  C 11           +0.7% (  8.1%)    17.1%
 EFF. MASS   1.2862

 VIBRATION   80   80A       ATOM PAIR        ENERGY CONTRIBUTION    RADIAL
 FREQ.      3039.40        C 10 --  H 28          +96.0% ( 99.3%)   100.0%
 T-DIPOLE    0.2251        C 10 --  C 12           +1.4% ( 12.1%)    31.5%
 TRAVEL      0.1216        C  3 --  C 10           +1.3% ( 11.7%)    13.9%
 RED. MASS   0.9059        C 12 --  H 32           +0.9% (  9.5%)    94.3%
 EFF. MASS   1.5011

 VIBRATION   81   81A       ATOM PAIR        ENERGY CONTRIBUTION    RADIAL
 FREQ.      3040.24        C  9 --  H 30          +66.6% ( 82.8%)   100.0%
 T-DIPOLE    0.2805        C 11 --  H 29          +28.2% ( 53.9%)   100.0%
 TRAVEL      0.1233        C  8 --  H 25           +1.4% ( 11.9%)    99.3%
 RED. MASS   0.5118        C  9 --  C 11           +1.1% ( 10.6%)     2.8%
 EFF. MASS   1.4599

 VIBRATION   82   82A       ATOM PAIR        ENERGY CONTRIBUTION    RADIAL
 FREQ.      3041.57        C  7 --  H 23          +75.3% ( 89.2%)    99.2%
 T-DIPOLE    0.0327        C  7 --  H 24          +16.8% ( 42.2%)    87.6%
 TRAVEL      0.1222        C  7 --  H 22           +3.3% ( 18.7%)    47.4%
 RED. MASS   0.6161        C  8 --  H 25           +1.5% ( 12.8%)    99.4%
 EFF. MASS   1.4835

 VIBRATION   83   83A       ATOM PAIR        ENERGY CONTRIBUTION    RADIAL
 FREQ.      3042.07        C  8 --  H 25          +76.7% ( 89.9%)    99.4%
 T-DIPOLE    0.0259        C  8 --  H 26          +12.6% ( 36.4%)    83.4%
 TRAVEL      0.1224        C  8 --  H 27           +4.0% ( 20.5%)    55.0%
 RED. MASS   0.6230        C  5 --  H 18           +2.0% ( 14.6%)    99.9%
 EFF. MASS   1.4785

 VIBRATION   84   84A       ATOM PAIR        ENERGY CONTRIBUTION    RADIAL
 FREQ.      3062.22        C 11 --  H 29          +66.4% ( 82.6%)    99.9%
 T-DIPOLE    0.2842        C  9 --  H 30          +29.0% ( 54.6%)    99.8%
 TRAVEL      0.1180        C  9 --  C 11           +2.0% ( 14.3%)    93.6%
 RED. MASS   0.5244        C  6 --  C 11           +1.1% ( 10.5%)    17.7%
 EFF. MASS   1.5812

 VIBRATION   85   85A       ATOM PAIR        ENERGY CONTRIBUTION    RADIAL
 FREQ.      3076.65        C  7 --  H 24          +49.8% ( 72.8%)    96.6%
 T-DIPOLE    0.0258        C  7 --  H 22          +44.0% ( 68.4%)    97.1%
 TRAVEL      0.1209        C  7 --  H 23           +4.9% ( 22.9%)    50.7%
 RED. MASS   0.4748        C  4 --  C  7           +1.0% ( 10.3%)     0.4%
 EFF. MASS   1.5000

 VIBRATION   86   86A       ATOM PAIR        ENERGY CONTRIBUTION    RADIAL
 FREQ.      3086.61        C  8 --  H 26          +48.2% ( 71.6%)    96.6%
 T-DIPOLE    0.0190        C  8 --  H 27          +48.1% ( 71.5%)    97.3%
 TRAVEL      0.1204        C  8 --  H 25           +2.5% ( 16.4%)    28.8%
 RED. MASS   0.4948        C  5 --  C  8           +1.0% ( 10.4%)     0.0%
 EFF. MASS   1.5076

 VIBRATION   87   87A       ATOM PAIR        ENERGY CONTRIBUTION    RADIAL
 FREQ.      3129.89        C 12 --  H 31          +95.1% ( 99.1%)   100.0%
 T-DIPOLE    0.1986        C 12 --  H 32           +3.3% ( 18.5%)    51.2%
 TRAVEL      0.1190        C 10 --  C 12           +1.4% ( 11.8%)    30.1%
 RED. MASS   0.9003        C  7 --  H 22           +0.1% (  3.7%)    99.6%
 EFF. MASS   1.5212

 VIBRATION   88   88A       ATOM PAIR        ENERGY CONTRIBUTION    RADIAL
 FREQ.      3146.91        C 12 --  H 32          +94.9% ( 98.3%)   100.0%
 T-DIPOLE    0.2514        C 12 --  H 31           +2.7% ( 16.5%)    10.4%
 TRAVEL      0.1202        C 10 --  C 12           +1.6% ( 12.6%)    64.0%
 RED. MASS   0.8760        C 10 --  H 28           +0.8% (  8.8%)    95.1%
 EFF. MASS   1.4842

 VIBRATION   89   89A       ATOM PAIR        ENERGY CONTRIBUTION    RADIAL
 FREQ.      3162.48        C  7 --  H 22          +53.8% ( 70.9%)    98.9%
 T-DIPOLE    0.0123        C  7 --  H 24          +31.7% ( 54.4%)    96.2%
 TRAVEL      0.1356        C  7 --  H 23          +14.0% ( 36.2%)    89.0%
 RED. MASS   0.3922        C  4 --  C  7           +0.3% (  5.6%)    80.9%
 EFF. MASS   1.1591

 VIBRATION   90   90A       ATOM PAIR        ENERGY CONTRIBUTION    RADIAL
 FREQ.      3166.08        C  8 --  H 27          +48.3% ( 67.2%)    98.5%
 T-DIPOLE    0.0158        C  8 --  H 26          +38.1% ( 59.7%)    97.2%
 TRAVEL      0.1357        C  8 --  H 25          +13.2% ( 35.2%)    88.2%
 RED. MASS   0.3816        C  5 --  C  8           +0.3% (  5.5%)    82.9%
 EFF. MASS   1.1564

 SYMMETRY NUMBER FOR POINT-GROUP C1  =  1


          SYSTEM IS A GROUND STATE


    NULL



          MOLECULE IS NOT LINEAR

          THERE ARE 90 GENUINE VIBRATIONS IN THIS SYSTEM
          THIS THERMODYNAMICS CALCULATION IS LIMITED TO
          MOLECULES WHICH HAVE NO INTERNAL ROTATIONS




                    CALCULATED THERMODYNAMIC PROPERTIES
                                          *
   TEMP. (K)   PARTITION FUNCTION   H.O.F.    ENTHALPY  HEAT CAPACITY ENTROPY
                                   KCAL/MOL   CAL/MOLE    CAL/K/MOL  CAL/K/MOL


 298.00  VIB.     0.2533D+04                  6103.1607    44.1674    36.0543
         ROT.     0.1189D+07                   888.2813     2.9808    30.7792
         INT.     0.3012D+10                  6991.4420    47.1482    66.8335
         TRA.     0.2036D+28                  1480.4688     4.9680    41.1956
         TOT.                       -4.168    8471.9108    52.1162   108.0292

 200.00  VIB.     0.9342D+02                  2599.3403    27.8190    22.0129
         ROT.     0.6538D+06                   596.1620     2.9808    29.5905
         INT.     0.6108D+08                  3195.5022    30.7998    51.6034
         TRA.     0.1119D+28                   993.6033     4.9680    39.2145
         TOT.                       -8.451    4189.1055    35.7678    90.8179

 210.00  VIB.     0.1297D+03                  2885.1241    29.3435    23.4069
         ROT.     0.7034D+06                   625.9700     2.9808    29.7360
         INT.     0.9123D+08                  3511.0942    32.3243    53.1429
         TRA.     0.1204D+28                  1043.2834     4.9680    39.4569
         TOT.                       -8.085    4554.3776    37.2923    92.5998

 220.00  VIB.     0.1805D+03                  3186.3277    30.9033    24.8078
         ROT.     0.7543D+06                   655.7781     2.9808    29.8746
         INT.     0.1361D+09                  3842.1059    33.8841    54.6825
         TRA.     0.1291D+28                  1092.9636     4.9680    39.6880
         TOT.                       -7.705    4935.0694    38.8521    94.3705

 230.00  VIB.     0.2516D+03                  3503.3107    32.4994    26.2166
         ROT.     0.8063D+06                   685.5862     2.9808    30.0071
         INT.     0.2028D+09                  4188.8970    35.4802    56.2238
         TRA.     0.1380D+28                  1142.6437     4.9680    39.9088
         TOT.                       -7.308    5331.5407    40.4482    96.1326

 240.00  VIB.     0.3514D+03                  3836.4353    34.1314    27.6341
         ROT.     0.8594D+06                   715.3943     2.9808    30.1340
         INT.     0.3020D+09                  4551.8297    37.1122    57.7681
         TRA.     0.1471D+28                  1192.3239     4.9680    40.1203
         TOT.                       -6.896    5744.1536    42.0802    97.8884

 250.00  VIB.     0.4918D+03                  4186.0528    35.7976    29.0611
         ROT.     0.9137D+06                   745.2024     2.9808    30.2557
         INT.     0.4494D+09                  4931.2553    38.7784    59.3168
         TRA.     0.1564D+28                  1242.0041     4.9680    40.3231
         TOT.                       -6.466    6173.2593    43.7464    99.6399

 260.00  VIB.     0.6896D+03                  4552.4923    37.4953    30.4981
         ROT.     0.9690D+06                   775.0105     2.9808    30.3726
         INT.     0.6682D+09                  5327.5029    40.4761    60.8707
         TRA.     0.1659D+28                  1291.6842     4.9680    40.5179
         TOT.                       -6.020    6619.1871    45.4441   101.3886

 270.00  VIB.     0.9686D+03                  4936.0521    39.2210    31.9455
         ROT.     0.1025D+07                   804.8186     2.9808    30.4851
         INT.     0.9933D+09                  5740.8707    42.2018    62.4306
         TRA.     0.1756D+28                  1341.3644     4.9680    40.7054
         TOT.                       -5.557    7082.2351    47.1699   103.1360

 280.00  VIB.     0.1363D+04                  5336.9932    40.9709    33.4034
         ROT.     0.1083D+07                   834.6267     2.9808    30.5935
         INT.     0.1476D+10                  6171.6200    43.9517    63.9969
         TRA.     0.1854D+28                  1391.0445     4.9680    40.8861
         TOT.                       -5.077    7562.6645    48.9197   104.8830

 290.00  VIB.     0.1922D+04                  5755.5352    42.7405    34.8719
         ROT.     0.1142D+07                   864.4348     2.9808    30.6981
         INT.     0.2194D+10                  6619.9700    45.7213    65.5700
         TRA.     0.1954D+28                  1440.7247     4.9680    41.0604
         TOT.                       -4.579    8060.6947    50.6893   106.6305

 300.00  VIB.     0.2714D+04                  6191.8533    44.5253    36.3510
         ROT.     0.1201D+07                   894.2429     2.9808    30.7991
         INT.     0.3260D+10                  7086.0962    47.5061    67.1501
         TRA.     0.2056D+28                  1490.4049     4.9680    41.2289
         TOT.                       -4.063    8576.5011    52.4742   108.3790

 310.00  VIB.     0.3841D+04                  6646.0779    46.3210    37.8402
         ROT.     0.1262D+07                   924.0510     2.9808    30.8969
         INT.     0.4845D+10                  7570.1289    49.3018    68.7371
         TRA.     0.2160D+28                  1540.0850     4.9680    41.3918
         TOT.                       -3.529    9110.2140    54.2698   110.1288

 320.00  VIB.     0.5444D+04                  7118.2946    48.1230    39.3393
         ROT.     0.1323D+07                   953.8591     2.9808    30.9915
         INT.     0.7204D+10                  8072.1537    51.1038    70.3308
         TRA.     0.2265D+28                  1589.7652     4.9680    41.5495
         TOT.                       -2.978    9661.9189    56.0719   111.8803

 330.00  VIB.     0.7731D+04                  7608.5456    49.9272    40.8477
         ROT.     0.1386D+07                   983.6672     2.9808    31.0832
         INT.     0.1071D+11                  8592.2128    52.9080    71.9310
         TRA.     0.2372D+28                  1639.4454     4.9680    41.7024
         TOT.                       -2.408   10231.6582    57.8760   113.6333

 340.00  VIB.     0.1100D+05                  8116.8318    51.7294    42.3650
         ROT.     0.1449D+07                  1013.4753     2.9808    31.1722
         INT.     0.1594D+11                  9130.3071    54.7102    73.5372
         TRA.     0.2481D+28                  1689.1255     4.9680    41.8507
         TOT.                       -1.820   10819.4326    59.6783   115.3879

 350.00  VIB.     0.1567D+05                  8643.1154    53.5261    43.8904
         ROT.     0.1514D+07                  1043.2834     2.9808    31.2586
         INT.     0.2372D+11                  9686.3988    56.5069    75.1490
         TRA.     0.2591D+28                  1738.8057     4.9680    41.9947
         TOT.                       -1.214   11425.2045    61.4749   117.1437

 360.00  VIB.     0.2237D+05                  9187.3230    55.3137    45.4234
         ROT.     0.1579D+07                  1073.0915     2.9808    31.3426
         INT.     0.3532D+11                 10260.4145    58.2945    76.7660
         TRA.     0.2703D+28                  1788.4859     4.9680    42.1347
         TOT.                       -0.591   12048.9003    63.2625   118.9006

 370.00  VIB.     0.3199D+05                  9749.3488    57.0892    46.9631
         ROT.     0.1645D+07                  1102.8996     2.9808    31.4243
         INT.     0.5262D+11                 10852.2484    60.0700    78.3874
         TRA.     0.2817D+28                  1838.1660     4.9680    42.2708
         TOT.                        0.051   12690.4144    65.0381   120.6582

 380.00  VIB.     0.4581D+05                 10329.0581    58.8500    48.5090
         ROT.     0.1712D+07                  1132.7077     2.9808    31.5038
         INT.     0.7844D+11                 11461.7658    61.8308    80.0128
         TRA.     0.2932D+28                  1887.8462     4.9680    42.4033
         TOT.                        0.710   13349.6120    66.7988   122.4161

 390.00  VIB.     0.6571D+05                 10926.2904    60.5935    50.0603
         ROT.     0.1780D+07                  1162.5158     2.9808    31.5812
         INT.     0.1170D+12                 12088.8062    63.5743    81.6415
         TRA.     0.3048D+28                  1937.5263     4.9680    42.5323
         TOT.                        1.387   14026.3326    68.5423   124.1738

 400.00  VIB.     0.9440D+05                 11540.8629    62.3177    51.6161
         ROT.     0.1849D+07                  1192.3239     2.9808    31.6567
         INT.     0.1746D+12                 12733.1868    65.2985    83.2728
         TRA.     0.3166D+28                  1987.2065     4.9680    42.6581
         TOT.                        2.081   14720.3933    70.2665   125.9309

   *: NOTE: HEATS OF FORMATION ARE RELATIVE TO THE
            ELEMENTS IN THEIR STANDARD STATE AT 298K
              (=  Standard Enthalpy of Formation).

            Hvib:  Zero-point energy is not included.
                   frequencies of less than zero cm-1 are not included.
            Hrot = (3/2)RT
            Htra = (3/2)RT + pV = (5/2)RT

            Heat capacity is Cp, not Cv

           For more information, see: HTTP://OpenMOPAC.net/Manual/thermochemistry.html


           FORCE CONSTANT IN CARTESIAN COORDINATES (Millidynes/A)

    ATOM   CHEMICAL       X               Y               Z
   NUMBER   SYMBOL  FORCE CONSTANT  FORCE CONSTANT  FORCE CONSTANT

      1       C        7.842134        8.254859        8.211530
      2       C        8.026064        8.654245        8.364241
      3       C        9.190835        7.771041        8.310712
      4       C        8.563414        8.036400        8.045247
      5       C        8.557297        7.817077        8.291341
      6       C        9.140205        8.389545        7.904160
      7       C        8.091644        8.263516        8.392002
      8       C        8.087238        8.504029        8.226973
      9       C       10.991170       10.652673        5.744508
     10       C       11.014321        5.449377       10.734492
     11       C       10.837779       10.566716        5.954421
     12       C       11.187190        4.878053       10.445565
     13       H        1.158180        1.519050        3.302892
     14       H        1.169147        1.545734        3.292585
     15       H        1.154889        0.866172        3.861396
     16       H        4.914466        0.710749        0.759817
     17       H        1.397570        4.061096        0.799731
     18       H        4.915032        0.716692        0.792569
     19       H        1.459269        2.514118        2.301468
     20       H        0.870161        4.723568        0.758636
     21       H        1.532566        1.142200        3.593918
     22       H        0.782299        2.843909        3.159554
     23       H        4.907772        0.975572        0.847772
     24       H        2.079711        3.758746        0.885938
     25       H        5.013264        0.793757        0.891792
     26       H        1.874987        2.224457        2.654812
     27       H        0.910654        5.020813        0.855138
     28       H        1.573482        1.361639        3.287364
     29       H        1.627632        2.660380        1.963836
     30       H        4.938168        0.673700        0.621191
     31       H        1.444087        1.412945        3.595054
     32       H        5.437203        0.428290        0.609353



 TOTAL CPU TIME:             7.71 SECONDS

 == MOPAC DONE ==
