 *******************************************************************************
 ** Site#: 14399           For non-commercial use only        Version 13.159M **
 *******************************************************************************
 ** Cite this work as: MOPAC2012, James J. P. Stewart, Stewart Computational  **
 ** Chemistry, Version 13.159M web: HTTP://OpenMOPAC.net  Days remaining:   6 **
 *******************************************************************************
 **                                                                           **
 **                                MOPAC2012                                  **
 **                                                                           **
 *******************************************************************************

                            PM3 CALCULATION RESULTS


 *******************************************************************************
 *  CALCULATION DONE:                                Mon Jun  2 11:11:46 2014  *
 *  PM3      - The PM3 Hamiltonian to be used
 *  PRECISE  - CRITERIA TO BE INCREASED BY 100 TIMES
 *  NOSYM    - POINT-GROUP SYMMETRY SET TO C1
 *  T=       - A TIME OF 172800.0 SECONDS REQUESTED
 *  DUMP=N   - RESTART FILE WRITTEN EVERY  7200.000 SECONDS
 *******************************************************************************
pm3  precise nosym
 InChI=1S/C10H12/c1-3-7-8(4-1)10-6-2-5-9(7)10/h1-3,6-10H,4-5H2

   ATOM   CHEMICAL          X               Y               Z
  NUMBER   SYMBOL      (ANGSTROMS)     (ANGSTROMS)     (ANGSTROMS)
 
     1       C          0.66540000  *  -0.77220000  *  -0.42470000  *
     2       C         -0.65010000  *   0.76420000  *   0.39550000  *
     3       C          0.39740000  *   0.71110000  *  -0.67810000  *
     4       C         -0.41070000  *  -0.70980000  *   0.71190000  *
     5       C          2.12560000  *  -0.89300000  *   0.02640000  *
     6       C         -2.10870000  *   0.88270000  *  -0.06980000  *
     7       C          1.68450000  *   1.37840000  *  -0.32310000  *
     8       C         -1.70050000  *  -1.37750000  *   0.37470000  *
     9       C          2.61370000  *   0.51300000  *   0.05290000  *
    10       C         -2.61560000  *  -0.51690000  *  -0.04280000  *
    11       H          0.39900000  *  -1.42950000  *  -1.28680000  *
    12       H         -0.41400000  *   1.43780000  *   1.25460000  *
    13       H          0.06950000  *   0.93040000  *  -1.72110000  *
    14       H         -0.05930000  *  -0.89700000  *   1.75350000  *
    15       H          2.23020000  *  -1.37050000  *   1.02710000  *
    16       H          2.72150000  *  -1.46950000  *  -0.71730000  *
    17       H         -2.70320000  *   1.49450000  *   0.64640000  *
    18       H         -2.21270000  *   1.32150000  *  -1.08840000  *
    19       H          3.62000000  *   0.80360000  *   0.34780000  *
    20       H          1.84350000  *   2.45420000  *  -0.35910000  *
    21       H         -3.62360000  *  -0.80630000  *  -0.33300000  *
    22       H         -1.87170000  *  -2.44910000  *   0.45330000  *
 


          CARTESIAN COORDINATES 

    NO.       ATOM         X         Y         Z

     1         C        0.6654   -0.7722   -0.4247
     2         C       -0.6501    0.7642    0.3955
     3         C        0.3974    0.7111   -0.6781
     4         C       -0.4107   -0.7098    0.7119
     5         C        2.1256   -0.8930    0.0264
     6         C       -2.1087    0.8827   -0.0698
     7         C        1.6845    1.3784   -0.3231
     8         C       -1.7005   -1.3775    0.3747
     9         C        2.6137    0.5130    0.0529
    10         C       -2.6156   -0.5169   -0.0428
    11         H        0.3990   -1.4295   -1.2868
    12         H       -0.4140    1.4378    1.2546
    13         H        0.0695    0.9304   -1.7211
    14         H       -0.0593   -0.8970    1.7535
    15         H        2.2302   -1.3705    1.0271
    16         H        2.7215   -1.4695   -0.7173
    17         H       -2.7032    1.4945    0.6464
    18         H       -2.2127    1.3215   -1.0884
    19         H        3.6200    0.8036    0.3478
    20         H        1.8435    2.4542   -0.3591
    21         H       -3.6236   -0.8063   -0.3330
    22         H       -1.8717   -2.4491    0.4533

  H: (PM3): J. J. P. STEWART, J. COMP. CHEM. 10, 209 (1989).
  C: (PM3): J. J. P. STEWART, J. COMP. CHEM. 10, 209 (1989).

           Empirical Formula: C10 H12  =    22 atoms



      MOLECULAR POINT GROUP   :   C1  


      RHF CALCULATION, NO. OF DOUBLY OCCUPIED LEVELS =   26

      Geometry optimization using EF

          DIAGONAL MATRIX USED AS START HESSIAN

 CYCLE:     1 TIME:   0.010 TIME LEFT:  2.00D  GRAD.:   106.234 HEAT: 40.81452
 CYCLE:     2 TIME:   0.020 TIME LEFT:  2.00D  GRAD.:    46.222 HEAT: 38.32060
 CYCLE:     3 TIME:   0.011 TIME LEFT:  2.00D  GRAD.:    74.414 HEAT: 38.08713
 CYCLE:     4 TIME:   0.008 TIME LEFT:  2.00D  GRAD.:    62.811 HEAT: 37.32263
 CYCLE:     5 TIME:   0.011 TIME LEFT:  2.00D  GRAD.:    59.360 HEAT: 37.01936
 CYCLE:     6 TIME:   0.007 TIME LEFT:  2.00D  GRAD.:    57.352 HEAT: 36.81857
 CYCLE:     7 TIME:   0.013 TIME LEFT:  2.00D  GRAD.:    21.803 HEAT: 35.94042
 CYCLE:     8 TIME:   0.013 TIME LEFT:  2.00D  GRAD.:    29.204 HEAT: 35.92935
 CYCLE:     9 TIME:   0.007 TIME LEFT:  2.00D  GRAD.:    20.860 HEAT: 35.80447
 CYCLE:    10 TIME:   0.015 TIME LEFT:  2.00D  GRAD.:    11.685 HEAT: 35.70967
 CYCLE:    11 TIME:   0.014 TIME LEFT:  2.00D  GRAD.:     7.248 HEAT: 35.67298
 CYCLE:    12 TIME:   0.007 TIME LEFT:  2.00D  GRAD.:    10.392 HEAT: 35.65821
 CYCLE:    13 TIME:   0.007 TIME LEFT:  2.00D  GRAD.:     7.168 HEAT: 35.62431
 CYCLE:    14 TIME:   0.012 TIME LEFT:  2.00D  GRAD.:     6.761 HEAT: 35.61069
 CYCLE:    15 TIME:   0.007 TIME LEFT:  2.00D  GRAD.:     6.289 HEAT: 35.60091
 CYCLE:    16 TIME:   0.007 TIME LEFT:  2.00D  GRAD.:     4.182 HEAT: 35.58785
 CYCLE:    17 TIME:   0.007 TIME LEFT:  2.00D  GRAD.:     5.848 HEAT: 35.58710
 CYCLE:    18 TIME:   0.012 TIME LEFT:  2.00D  GRAD.:     4.051 HEAT: 35.57817
 CYCLE:    19 TIME:   0.013 TIME LEFT:  2.00D  GRAD.:     3.016 HEAT: 35.57426
 CYCLE:    20 TIME:   0.007 TIME LEFT:  2.00D  GRAD.:     3.679 HEAT: 35.57024
 CYCLE:    21 TIME:   0.007 TIME LEFT:  2.00D  GRAD.:     5.444 HEAT: 35.56597
 CYCLE:    22 TIME:   0.007 TIME LEFT:  2.00D  GRAD.:     3.463 HEAT: 35.55619
 CYCLE:    23 TIME:   0.007 TIME LEFT:  2.00D  GRAD.:     2.294 HEAT: 35.54999
 CYCLE:    24 TIME:   0.009 TIME LEFT:  2.00D  GRAD.:     1.761 HEAT: 35.54651
 CYCLE:    25 TIME:   0.007 TIME LEFT:  2.00D  GRAD.:     1.749 HEAT: 35.54456
 CYCLE:    26 TIME:   0.007 TIME LEFT:  2.00D  GRAD.:     1.834 HEAT: 35.54350
 CYCLE:    27 TIME:   0.007 TIME LEFT:  2.00D  GRAD.:     1.108 HEAT: 35.54146
 CYCLE:    28 TIME:   0.007 TIME LEFT:  2.00D  GRAD.:     1.640 HEAT: 35.54026
 CYCLE:    29 TIME:   0.007 TIME LEFT:  2.00D  GRAD.:     1.487 HEAT: 35.53893
 CYCLE:    30 TIME:   0.007 TIME LEFT:  2.00D  GRAD.:     1.009 HEAT: 35.53800
 CYCLE:    31 TIME:   0.007 TIME LEFT:  2.00D  GRAD.:     0.619 HEAT: 35.53741
 CYCLE:    32 TIME:   0.007 TIME LEFT:  2.00D  GRAD.:     0.537 HEAT: 35.53699
 CYCLE:    33 TIME:   0.008 TIME LEFT:  2.00D  GRAD.:     0.505 HEAT: 35.53656
 CYCLE:    34 TIME:   0.008 TIME LEFT:  2.00D  GRAD.:     0.445 HEAT: 35.53611
 CYCLE:    35 TIME:   0.007 TIME LEFT:  2.00D  GRAD.:     0.450 HEAT: 35.53581
 CYCLE:    36 TIME:   0.007 TIME LEFT:  2.00D  GRAD.:     0.424 HEAT: 35.53556
 CYCLE:    37 TIME:   0.007 TIME LEFT:  2.00D  GRAD.:     0.349 HEAT: 35.53534
 CYCLE:    38 TIME:   0.007 TIME LEFT:  2.00D  GRAD.:     0.393 HEAT: 35.53502
 CYCLE:    39 TIME:   0.007 TIME LEFT:  2.00D  GRAD.:     0.367 HEAT: 35.53474
 CYCLE:    40 TIME:   0.007 TIME LEFT:  2.00D  GRAD.:     0.311 HEAT: 35.53456
 CYCLE:    41 TIME:   0.007 TIME LEFT:  2.00D  GRAD.:     0.309 HEAT: 35.53437
 CYCLE:    42 TIME:   0.007 TIME LEFT:  2.00D  GRAD.:     0.330 HEAT: 35.53416
 CYCLE:    43 TIME:   0.007 TIME LEFT:  2.00D  GRAD.:     0.310 HEAT: 35.53390
 CYCLE:    44 TIME:   0.007 TIME LEFT:  2.00D  GRAD.:     0.282 HEAT: 35.53369
 CYCLE:    45 TIME:   0.007 TIME LEFT:  2.00D  GRAD.:     0.273 HEAT: 35.53349
 CYCLE:    46 TIME:   0.007 TIME LEFT:  2.00D  GRAD.:     0.248 HEAT: 35.53335
 CYCLE:    47 TIME:   0.007 TIME LEFT:  2.00D  GRAD.:     0.176 HEAT: 35.53324
 CYCLE:    48 TIME:   0.007 TIME LEFT:  2.00D  GRAD.:     0.163 HEAT: 35.53318
 CYCLE:    49 TIME:   0.007 TIME LEFT:  2.00D  GRAD.:     0.168 HEAT: 35.53313
 CYCLE:    50 TIME:   0.006 TIME LEFT:  2.00D  GRAD.:     0.162 HEAT: 35.53307
 CYCLE:    51 TIME:   0.007 TIME LEFT:  2.00D  GRAD.:     0.125 HEAT: 35.53301
 CYCLE:    52 TIME:   0.007 TIME LEFT:  2.00D  GRAD.:     0.087 HEAT: 35.53298
 CYCLE:    53 TIME:   0.007 TIME LEFT:  2.00D  GRAD.:     0.069 HEAT: 35.53297
 CYCLE:    54 TIME:   0.006 TIME LEFT:  2.00D  GRAD.:     0.078 HEAT: 35.53296
 CYCLE:    55 TIME:   0.007 TIME LEFT:  2.00D  GRAD.:     0.057 HEAT: 35.53295
 CYCLE:    56 TIME:   0.006 TIME LEFT:  2.00D  GRAD.:     0.053 HEAT: 35.53294
 CYCLE:    57 TIME:   0.006 TIME LEFT:  2.00D  GRAD.:     0.028 HEAT: 35.53294

     RMS GRADIENT =  0.02842  IS LESS THAN CUTOFF =  0.05000



 -------------------------------------------------------------------------------
pm3  precise nosym
 InChI=1S/C10H12/c1-3-7-8(4-1)10-6-2-5-9(7)10/h1-3,6-10H,4-5H2



     GEOMETRY OPTIMISED USING EIGENVECTOR FOLLOWING (EF).     
     SCF FIELD WAS ACHIEVED                                   


                              PM3 CALCULATION
                                                       MOPAC2012 (Version: 13.159M)
                                                       Mon Jun  2 11:11:46 2014
                                                       No. of days left =   6




          FINAL HEAT OF FORMATION =         35.53294 KCAL/MOL =     148.66983 KJ/MOL


          TOTAL ENERGY            =      -1368.85545 EV
          ELECTRONIC ENERGY       =      -7708.73141 EV  POINT GROUP:     C1  
          CORE-CORE REPULSION     =       6339.87597 EV
          COSMO AREA              =        171.61 SQUARE ANGSTROMS
          COSMO VOLUME            =        175.69 CUBIC ANGSTROMS

          GRADIENT NORM           =          0.02842
          IONIZATION POTENTIAL    =          9.523475 EV
          HOMO LUMO ENERGIES (EV) =         -9.523  1.060
          NO. OF FILLED LEVELS    =         26
          MOLECULAR WEIGHT        =        132.205

          MOLECULAR DIMENSIONS (Angstroms)

            Atom       Atom       Distance
            H    21    H    19     7.47692
            H    17    H    16     4.40551
            H    14    H    13     3.94020


          SCF CALCULATIONS        =         67
          COMPUTATION TIME        =          0.473 SECONDS




   ATOM   CHEMICAL          X               Y               Z
  NUMBER   SYMBOL      (ANGSTROMS)     (ANGSTROMS)     (ANGSTROMS)
 
     1       C          0.66024724  *  -0.78139071  *  -0.41662724  *
     2       C         -0.66031722  *   0.77948961  *   0.41925915  *
     3       C          0.40953238  *   0.73930968  *  -0.70042604  *
     4       C         -0.40946172  *  -0.74115588  *   0.70318203  *
     5       C          2.11327102  *  -0.88941215  *   0.04904217  *
     6       C         -2.11327075  *   0.88718372  *  -0.04676847  *
     7       C          1.70042927  *   1.40587647  *  -0.35434731  *
     8       C         -1.70016291  *  -1.40798265  *   0.35690572  *
     9       C          2.62360758  *   0.52059185  *   0.04372980  *
    10       C         -2.62330592  *  -0.52293739  *  -0.04176048  *
    11       H          0.42168822  *  -1.47638467  *  -1.24224333  *
    12       H         -0.42206248  *   1.47458999  *   1.24486370  *
    13       H          0.04781382  *   1.00726313  *  -1.71073025  *
    14       H         -0.04768164  *  -1.00896341  *   1.71349114  *
    15       H          2.19901296  *  -1.33986702  *   1.05573157  *
    16       H          2.71630333  *  -1.52349467  *  -0.62655788  *
    17       H         -2.71670009  *   1.52086847  *   0.62883696  *
    18       H         -2.19876137  *   1.33781499  *  -1.05338934  *
    19       H          3.64743446  *   0.74568486  *   0.34173050  *
    20       H          1.82279017  *   2.48529550  *  -0.43506196  *
    21       H         -3.64686908  *  -0.74833534  *  -0.34040789  *
    22       H         -1.82228040  *  -2.48741702  *   0.43771082  *

           Empirical Formula: C10 H12  =    22 atoms



      MOLECULAR POINT GROUP   :   C1  


                  EIGENVALUES  
 -43.13763 -36.32063 -29.54991 -29.21443 -26.48881 -23.82745 -20.72203 -19.32994
 -18.87173 -17.76962 -17.38463 -17.22873 -15.67271 -14.41598 -14.34768 -13.69184
 -13.59762 -13.28097 -13.08115 -12.34251 -12.30179 -12.08418 -11.88090 -11.19711
  -9.79047  -9.52348   1.06026   1.06553   3.17096   3.29191   3.42817   3.48785
   3.59208   3.66367   3.74428   3.92560   3.97110   4.06811   4.08862   4.19262
   4.22866   4.31783   4.41909   4.69792   4.85057   4.99608   5.27948   5.32379
   5.72752   5.74045   5.95637   6.02045


              NET ATOMIC CHARGES AND DIPOLE CONTRIBUTIONS

  ATOM NO.   TYPE          CHARGE      No. of ELECS.   s-Pop       p-Pop       
    1          C          -0.091045        4.0910     1.19911     2.89193
    2          C          -0.091022        4.0910     1.19911     2.89192
    3          C          -0.059986        4.0600     1.18875     2.87123
    4          C          -0.059989        4.0600     1.18875     2.87124
    5          C          -0.058473        4.0585     1.15317     2.90530
    6          C          -0.058472        4.0585     1.15318     2.90529
    7          C          -0.147670        4.1477     1.20017     2.94750
    8          C          -0.147684        4.1477     1.20017     2.94751
    9          C          -0.147755        4.1478     1.20443     2.94333
   10          C          -0.147761        4.1478     1.20443     2.94334
   11          H           0.081770        0.9182     0.91823
   12          H           0.081772        0.9182     0.91823
   13          H           0.084563        0.9154     0.91544
   14          H           0.084575        0.9154     0.91543
   15          H           0.061012        0.9390     0.93899
   16          H           0.055941        0.9441     0.94406
   17          H           0.055945        0.9441     0.94405
   18          H           0.061016        0.9390     0.93898
   19          H           0.108882        0.8911     0.89112
   20          H           0.112746        0.8873     0.88725
   21          H           0.108886        0.8911     0.89111
   22          H           0.112748        0.8873     0.88725
 DIPOLE           X         Y         Z       TOTAL
 POINT-CHG.     0.000     0.000     0.000     0.000
 HYBRID         0.000     0.000     0.000     0.000
 SUM            0.000     0.000     0.000     0.000


          ATOMIC ORBITAL ELECTRON POPULATIONS

    Atom      s        px        py        pz   
    1  C   1.19911   0.94043   0.97058   0.98092
    2  C   1.19911   0.94042   0.97058   0.98092
    3  C   1.18875   0.94448   0.94717   0.97958
    4  C   1.18875   0.94450   0.94716   0.97958
    5  C   1.15317   0.94699   0.95146   1.00686
    6  C   1.15318   0.94700   0.95146   1.00684
    7  C   1.20017   0.95719   0.98131   1.00899
    8  C   1.20017   0.95721   0.98132   1.00898
    9  C   1.20443   0.98319   0.95763   1.00252
   10  C   1.20443   0.98320   0.95763   1.00250
   11  H   0.91823
   12  H   0.91823
   13  H   0.91544
   14  H   0.91543
   15  H   0.93899
   16  H   0.94406
   17  H   0.94405
   18  H   0.93898
   19  H   0.89112
   20  H   0.88725
   21  H   0.89111
   22  H   0.88725
 *******************************************************************************
 ** Site#: 14399           For non-commercial use only        Version 13.159M **
 *******************************************************************************
 ** Cite this work as: MOPAC2012, James J. P. Stewart, Stewart Computational  **
 ** Chemistry, Version 13.159M web: HTTP://OpenMOPAC.net  Days remaining:   6 **
 *******************************************************************************
 **                                                                           **
 **                                MOPAC2012                                  **
 **                                                                           **
 *******************************************************************************

                            PM3 CALCULATION RESULTS


 *******************************************************************************
 *  CALCULATION DONE:                                Mon Jun  2 11:11:46 2014  *
 *  PM3      - The PM3 Hamiltonian to be used
 *  OLDGEO   - PREVIOUS GEOMETRY TO BE USED
 *  PRECISE  - CRITERIA TO BE INCREASED BY 100 TIMES
 *  NOSYM    - POINT-GROUP SYMMETRY SET TO C1
 *  T=       - A TIME OF 172800.0 SECONDS REQUESTED
 *  DUMP=N   - RESTART FILE WRITTEN EVERY  7200.000 SECONDS
 *  THERMO   - THERMODYNAMIC QUANTITIES TO BE CALCULATED
 *******************************************************************************
oldgeo thermo nosym precise  pm3

   ATOM   CHEMICAL          X               Y               Z
  NUMBER   SYMBOL      (ANGSTROMS)     (ANGSTROMS)     (ANGSTROMS)
 
     1       C          0.66024724  *  -0.78139071  *  -0.41662724  *
     2       C         -0.66031722  *   0.77948961  *   0.41925915  *
     3       C          0.40953238  *   0.73930968  *  -0.70042604  *
     4       C         -0.40946172  *  -0.74115588  *   0.70318203  *
     5       C          2.11327102  *  -0.88941215  *   0.04904217  *
     6       C         -2.11327075  *   0.88718372  *  -0.04676847  *
     7       C          1.70042927  *   1.40587647  *  -0.35434731  *
     8       C         -1.70016291  *  -1.40798265  *   0.35690572  *
     9       C          2.62360758  *   0.52059185  *   0.04372980  *
    10       C         -2.62330592  *  -0.52293739  *  -0.04176048  *
    11       H          0.42168822  *  -1.47638467  *  -1.24224333  *
    12       H         -0.42206248  *   1.47458999  *   1.24486370  *
    13       H          0.04781382  *   1.00726313  *  -1.71073025  *
    14       H         -0.04768164  *  -1.00896341  *   1.71349114  *
    15       H          2.19901296  *  -1.33986702  *   1.05573157  *
    16       H          2.71630333  *  -1.52349467  *  -0.62655788  *
    17       H         -2.71670009  *   1.52086847  *   0.62883696  *
    18       H         -2.19876137  *   1.33781499  *  -1.05338934  *
    19       H          3.64743446  *   0.74568486  *   0.34173050  *
    20       H          1.82279017  *   2.48529550  *  -0.43506196  *
    21       H         -3.64686908  *  -0.74833534  *  -0.34040789  *
    22       H         -1.82228040  *  -2.48741702  *   0.43771082  *
 


          CARTESIAN COORDINATES 

    NO.       ATOM         X         Y         Z

     1         C        0.6602   -0.7814   -0.4166
     2         C       -0.6603    0.7795    0.4193
     3         C        0.4095    0.7393   -0.7004
     4         C       -0.4095   -0.7412    0.7032
     5         C        2.1133   -0.8894    0.0490
     6         C       -2.1133    0.8872   -0.0468
     7         C        1.7004    1.4059   -0.3543
     8         C       -1.7002   -1.4080    0.3569
     9         C        2.6236    0.5206    0.0437
    10         C       -2.6233   -0.5229   -0.0418
    11         H        0.4217   -1.4764   -1.2422
    12         H       -0.4221    1.4746    1.2449
    13         H        0.0478    1.0073   -1.7107
    14         H       -0.0477   -1.0090    1.7135
    15         H        2.1990   -1.3399    1.0557
    16         H        2.7163   -1.5235   -0.6266
    17         H       -2.7167    1.5209    0.6288
    18         H       -2.1988    1.3378   -1.0534
    19         H        3.6474    0.7457    0.3417
    20         H        1.8228    2.4853   -0.4351
    21         H       -3.6469   -0.7483   -0.3404
    22         H       -1.8223   -2.4874    0.4377

  H: (PM3): J. J. P. STEWART, J. COMP. CHEM. 10, 209 (1989).
  C: (PM3): J. J. P. STEWART, J. COMP. CHEM. 10, 209 (1989).

           Empirical Formula: C10 H12  =    22 atoms



      MOLECULAR POINT GROUP   :   C1  


      RHF CALCULATION, NO. OF DOUBLY OCCUPIED LEVELS =   26



          HEAT OF FORMATION =      35.532941 KCALS/MOLE


          INTERNAL COORDINATE DERIVATIVES

   NUMBER  ATOM       BOND         ANGLE      DIHEDRAL

     1       C      0.005450    -0.001925     0.001782
     2       C      0.000978     0.001722    -0.000199
     3       C      0.003046     0.002950    -0.000410
     4       C      0.004349    -0.001741     0.000392
     5       C      0.005131    -0.000929     0.001306
     6       C      0.001798     0.002193     0.001073
     7       C      0.004876     0.000583    -0.000698
     8       C      0.002548    -0.000364    -0.000501
     9       C      0.000824    -0.002102     0.006727
    10       C     -0.003532     0.002038     0.001159
    11       H      0.004187    -0.003748     0.002891
    12       H     -0.001106     0.000693    -0.000783
    13       H      0.002473    -0.001582     0.003121
    14       H      0.000450     0.005954    -0.002977
    15       H     -0.006192    -0.001862    -0.002371
    16       H      0.000056    -0.005061    -0.000151
    17       H     -0.007493    -0.009669     0.003398
    18       H     -0.003393     0.004915    -0.007930
    19       H     -0.006064    -0.000963     0.001293
    20       H      0.000836     0.004639    -0.002896
    21       H     -0.006496     0.003142    -0.001699
    22       H     -0.002728     0.001118    -0.002526


          GRADIENT NORM =   0.02822


          TIME FOR SCF CALCULATION =    0.01

          TIME FOR DERIVATIVES     =    0.00

          MOLECULAR WEIGHT =  132.20



          ROTATIONAL CONSTANTS IN CM(-1)

          A =    0.10936527   B =    0.03750803   C =    0.03073321



           PRINCIPAL MOMENTS OF INERTIA IN UNITS OF 10**(-40)*GRAM-CM**2

          A =      255.9567   B =      746.3141   C =      910.8313


          ORIENTATION OF MOLECULE IN FORCE CALCULATION

    NO.       ATOM         X         Y         Z

     1          C      -1.1043    0.0000    0.0000
     2          C       1.1046    0.0000    0.0000
     3          C       0.0128    1.0991    0.0000
     4          C      -0.0125   -1.0991   -0.0002
     5          C      -1.8731    0.1802   -1.3101
     6          C       1.8730   -0.1803    1.3103
     7          C      -0.1569    1.8100   -1.3024
     8          C       0.1569   -1.8101    1.3022
     9          C      -1.1838    1.3155   -2.0062
    10          C       1.1833   -1.3153    2.0065
    11          H      -1.7652   -0.0223    0.8855
    12          H       1.7658    0.0222   -0.8854
    13          H       0.0361    1.7895    0.8637
    14          H      -0.0357   -1.7895   -0.8641
    15          H      -1.8617   -0.7341   -1.9326
    16          H      -2.9373    0.4215   -1.1333
    17          H       2.9372   -0.4220    1.1339
    18          H       1.8616    0.7342    1.9326
    19          H      -1.5241    1.6623   -2.9818
    20          H       0.5022    2.6266   -1.5949
    21          H       1.5230   -1.6618    2.9823
    22          H      -0.5023   -2.6266    1.5944


    FIRST DERIVATIVES WILL BE USED IN THE CALCULATION OF SECOND DERIVATIVES

          ESTIMATED TIME TO COMPLETE CALCULATION =        2.67 SECONDS

    FOR POINT-GROUP C1   THERE ARE   1 UNIQUE SYMMETRY FUNCTIONS.

 STEP:   1 TIME =     0.03 SECS, INTEGRAL =      0.03 TIME LEFT: 172799.96
 STEP:   2 TIME =     0.03 SECS, INTEGRAL =      0.06 TIME LEFT: 172799.93
 STEP:   3 TIME =     0.03 SECS, INTEGRAL =      0.10 TIME LEFT: 172799.89
 STEP:   4 TIME =     0.03 SECS, INTEGRAL =      0.13 TIME LEFT: 172799.86
 STEP:   5 TIME =     0.03 SECS, INTEGRAL =      0.16 TIME LEFT: 172799.83
 STEP:   6 TIME =     0.03 SECS, INTEGRAL =      0.19 TIME LEFT: 172799.80
 STEP:   7 TIME =     0.03 SECS, INTEGRAL =      0.22 TIME LEFT: 172799.77
 STEP:   8 TIME =     0.03 SECS, INTEGRAL =      0.26 TIME LEFT: 172799.73
 STEP:   9 TIME =     0.03 SECS, INTEGRAL =      0.29 TIME LEFT: 172799.70
 STEP:  10 TIME =     0.03 SECS, INTEGRAL =      0.32 TIME LEFT: 172799.67
 STEP:  11 TIME =     0.03 SECS, INTEGRAL =      0.35 TIME LEFT: 172799.64
 STEP:  12 TIME =     0.03 SECS, INTEGRAL =      0.39 TIME LEFT: 172799.60
 STEP:  13 TIME =     0.03 SECS, INTEGRAL =      0.42 TIME LEFT: 172799.57
 STEP:  14 TIME =     0.03 SECS, INTEGRAL =      0.45 TIME LEFT: 172799.54
 STEP:  15 TIME =     0.03 SECS, INTEGRAL =      0.48 TIME LEFT: 172799.51
 STEP:  16 TIME =     0.03 SECS, INTEGRAL =      0.51 TIME LEFT: 172799.48
 STEP:  17 TIME =     0.03 SECS, INTEGRAL =      0.55 TIME LEFT: 172799.44
 STEP:  18 TIME =     0.03 SECS, INTEGRAL =      0.58 TIME LEFT: 172799.41
 STEP:  19 TIME =     0.03 SECS, INTEGRAL =      0.61 TIME LEFT: 172799.38
 STEP:  20 TIME =     0.03 SECS, INTEGRAL =      0.64 TIME LEFT: 172799.35
 STEP:  21 TIME =     0.03 SECS, INTEGRAL =      0.67 TIME LEFT: 172799.32
 STEP:  22 TIME =     0.03 SECS, INTEGRAL =      0.71 TIME LEFT: 172799.28
 STEP:  23 TIME =     0.03 SECS, INTEGRAL =      0.74 TIME LEFT: 172799.25
 STEP:  24 TIME =     0.03 SECS, INTEGRAL =      0.77 TIME LEFT: 172799.22
 STEP:  25 TIME =     0.03 SECS, INTEGRAL =      0.80 TIME LEFT: 172799.19
 STEP:  26 TIME =     0.03 SECS, INTEGRAL =      0.83 TIME LEFT: 172799.16
 STEP:  27 TIME =     0.03 SECS, INTEGRAL =      0.87 TIME LEFT: 172799.12
 STEP:  28 TIME =     0.03 SECS, INTEGRAL =      0.90 TIME LEFT: 172799.09
 STEP:  29 TIME =     0.03 SECS, INTEGRAL =      0.93 TIME LEFT: 172799.06
 STEP:  30 TIME =     0.03 SECS, INTEGRAL =      0.96 TIME LEFT: 172799.03
 STEP:  31 TIME =     0.03 SECS, INTEGRAL =      1.00 TIME LEFT: 172798.99
 STEP:  32 TIME =     0.03 SECS, INTEGRAL =      1.03 TIME LEFT: 172798.96
 STEP:  33 TIME =     0.03 SECS, INTEGRAL =      1.06 TIME LEFT: 172798.93
 STEP:  34 TIME =     0.03 SECS, INTEGRAL =      1.09 TIME LEFT: 172798.90
 STEP:  35 TIME =     0.03 SECS, INTEGRAL =      1.12 TIME LEFT: 172798.87
 STEP:  36 TIME =     0.03 SECS, INTEGRAL =      1.16 TIME LEFT: 172798.83
 STEP:  37 TIME =     0.03 SECS, INTEGRAL =      1.19 TIME LEFT: 172798.80
 STEP:  38 TIME =     0.03 SECS, INTEGRAL =      1.22 TIME LEFT: 172798.77
 STEP:  39 TIME =     0.03 SECS, INTEGRAL =      1.25 TIME LEFT: 172798.74
 STEP:  40 TIME =     0.03 SECS, INTEGRAL =      1.29 TIME LEFT: 172798.70
 STEP:  41 TIME =     0.03 SECS, INTEGRAL =      1.32 TIME LEFT: 172798.67
 STEP:  42 TIME =     0.03 SECS, INTEGRAL =      1.35 TIME LEFT: 172798.64
 STEP:  43 TIME =     0.03 SECS, INTEGRAL =      1.38 TIME LEFT: 172798.61
 STEP:  44 TIME =     0.03 SECS, INTEGRAL =      1.41 TIME LEFT: 172798.58
 STEP:  45 TIME =     0.03 SECS, INTEGRAL =      1.45 TIME LEFT: 172798.54
 STEP:  46 TIME =     0.03 SECS, INTEGRAL =      1.48 TIME LEFT: 172798.51
 STEP:  47 TIME =     0.03 SECS, INTEGRAL =      1.51 TIME LEFT: 172798.48
 STEP:  48 TIME =     0.03 SECS, INTEGRAL =      1.54 TIME LEFT: 172798.45
 STEP:  49 TIME =     0.03 SECS, INTEGRAL =      1.57 TIME LEFT: 172798.42
 STEP:  50 TIME =     0.03 SECS, INTEGRAL =      1.60 TIME LEFT: 172798.39
 STEP:  51 TIME =     0.03 SECS, INTEGRAL =      1.64 TIME LEFT: 172798.35
 STEP:  52 TIME =     0.03 SECS, INTEGRAL =      1.67 TIME LEFT: 172798.32
 STEP:  53 TIME =     0.03 SECS, INTEGRAL =      1.70 TIME LEFT: 172798.29
 STEP:  54 TIME =     0.03 SECS, INTEGRAL =      1.73 TIME LEFT: 172798.26
 STEP:  55 TIME =     0.03 SECS, INTEGRAL =      1.77 TIME LEFT: 172798.22
 STEP:  56 TIME =     0.03 SECS, INTEGRAL =      1.80 TIME LEFT: 172798.19
 STEP:  57 TIME =     0.04 SECS, INTEGRAL =      1.84 TIME LEFT: 172798.15
 STEP:  58 TIME =     0.03 SECS, INTEGRAL =      1.87 TIME LEFT: 172798.12
 STEP:  59 TIME =     0.03 SECS, INTEGRAL =      1.90 TIME LEFT: 172798.09
 STEP:  60 TIME =     0.03 SECS, INTEGRAL =      1.93 TIME LEFT: 172798.06
 STEP:  61 TIME =     0.03 SECS, INTEGRAL =      1.97 TIME LEFT: 172798.02
 STEP:  62 TIME =     0.03 SECS, INTEGRAL =      2.00 TIME LEFT: 172797.99
 STEP:  63 TIME =     0.03 SECS, INTEGRAL =      2.03 TIME LEFT: 172797.96
 STEP:  64 TIME =     0.03 SECS, INTEGRAL =      2.06 TIME LEFT: 172797.93
 STEP:  65 TIME =     0.03 SECS, INTEGRAL =      2.10 TIME LEFT: 172797.89
 STEP:  66 TIME =     0.03 SECS, INTEGRAL =      2.13 TIME LEFT: 172797.86

(To convert to Hartree/Bohr^2, multiply by (10^(-21) x N x a0^2)/(4.184 x 627.51) = 0.0642)


           FORCE MATRIX IN MILLIDYNES/ANGSTROM


                  C  1       C  2       C  3       C  4       C  5       C  6
 ------------------------------------------------------------------------------
     C    1  14.392589
     C    2   1.728133  14.391337
     C    3   2.930504   3.355147  14.832991
     C    4   3.355485   2.930772   1.774637  14.833484
     C    5   3.879676   0.044241   0.701398   0.506387  14.673094
     C    6   0.044330   3.878917   0.506394   0.701491   0.003629  14.672889
     C    7   0.831730   0.560826   4.753292   0.044651   1.124431   0.037061
     C    8   0.561273   0.831540   0.044847   4.753544   0.037100   1.124474
     C    9   0.901974   0.043732   1.185951   0.030074   4.578182   0.005730
     C   10   0.043857   0.901856   0.030036   1.185958   0.005539   4.577922
     H   11   4.586487   0.028022   0.416711   0.434540   0.424303   0.003120
     H   12   0.028052   4.586650   0.434573   0.416751   0.003135   0.424392
     H   13   0.407891   0.434965   4.537714   0.028817   0.031112   0.025865
     H   14   0.434893   0.407950   0.028865   4.538012   0.025858   0.031111
     H   15   0.443545   0.001820   0.033782   0.033464   4.492157   0.000545
     H   16   0.437612   0.004995   0.023683   0.032834   4.521632   0.000540
     H   17   0.004970   0.437636   0.032882   0.023672   0.000517   4.521824
     H   18   0.001872   0.443539   0.033482   0.033806   0.000525   4.492433
     H   19   0.042681   0.016287   0.114730   0.003075   0.411290   0.002278
     H   20   0.041331   0.006437   0.415783   0.002577   0.113362   0.001212
     H   21   0.016281   0.042701   0.003084   0.114764   0.002240   0.411281
     H   22   0.006467   0.041408   0.002541   0.415816   0.001223   0.113362


                  C  7       C  8       C  9       C 10       H 11       H 12
 ------------------------------------------------------------------------------
     C    7  18.309515
     C    8   0.003538  18.310322
     C    9  10.476323   0.004324  18.232712
     C   10   0.004255  10.476549   0.001426  18.232778
     H   11   0.033986   0.024666   0.033638   0.004309   5.090514
     H   12   0.024544   0.033916   0.004318   0.033697   0.001485   5.090709
     H   13   0.417690   0.003383   0.040019   0.002152   0.015062   0.025332
     H   14   0.003380   0.417694   0.002204   0.040020   0.025355   0.015060
     H   15   0.038586   0.002249   0.432190   0.000935   0.020324   0.000639
     H   16   0.038120   0.004361   0.429494   0.000964   0.032863   0.000646
     H   17   0.004325   0.038079   0.000979   0.429460   0.000653   0.032861
     H   18   0.002276   0.038577   0.000901   0.432234   0.000646   0.020319
     H   19   0.447831   0.001416   5.012158   0.000783   0.003966   0.000923
     H   20   5.026459   0.001119   0.449603   0.000716   0.003646   0.003520
     H   21   0.001428   0.447838   0.000804   5.012331   0.000924   0.003969
     H   22   0.001130   5.026652   0.000762   0.449598   0.003538   0.003641


                  H 13       H 14       H 15       H 16       H 17       H 18
 ------------------------------------------------------------------------------
     H   13   5.049735
     H   14   0.001356   5.050105
     H   15   0.004492   0.028594   5.106163
     H   16   0.001054   0.002400   0.566700   5.123863
     H   17   0.002406   0.001059   0.000133   0.000150   5.123929
     H   18   0.028596   0.004488   0.000257   0.000134   0.566493   5.106352
     H   19   0.012888   0.000723   0.014170   0.014866   0.000287   0.000239
     H   20   0.013668   0.000725   0.014858   0.015654   0.000348   0.000541
     H   21   0.000705   0.012891   0.000249   0.000285   0.014868   0.014169
     H   22   0.000728   0.013655   0.000544   0.000354   0.015642   0.014864


                  H 19       H 20       H 21       H 22
 ------------------------------------------------------
     H   19   5.407037
     H   20   0.046917   5.421578
     H   21   0.000164   0.000300   5.407217
     H   22   0.000305   0.000355   0.046968   5.421756


          HEAT OF FORMATION =      35.532941 KCALS/MOLE

          ZERO POINT ENERGY     120.477 KCAL/MOL


           NORMAL COORDINATE ANALYSIS (Total motion = 1 Angstrom)


   Root No.       1         2         3         4         5         6         7         8

                 1 A       2 A       3 A       4 A       5 A       6 A       7 A       8 A   

                 110.8     197.4     259.9     288.8     357.5     434.9     450.8     610.4
  
           1    0.0100   -0.0304   -0.0017   -0.0114    0.0062   -0.0160   -0.0048    0.0259
           2    0.0134    0.0188   -0.0140   -0.0210    0.0182    0.0098   -0.0077   -0.0269
           3    0.0126    0.0143    0.0056   -0.0105    0.0316    0.0119    0.0056    0.0094
           4    0.0100   -0.0304    0.0018   -0.0114   -0.0063   -0.0160    0.0049   -0.0259
           5    0.0134    0.0188    0.0140   -0.0210   -0.0182    0.0099    0.0077    0.0269
           6    0.0126    0.0144   -0.0056   -0.0105   -0.0316    0.0119   -0.0056   -0.0094
           7    0.0106   -0.0299   -0.0141   -0.0080    0.0194   -0.0112   -0.0013   -0.0259
           8    0.0127    0.0195   -0.0015   -0.0263    0.0052    0.0060   -0.0088    0.0225
           9   -0.0114    0.0233    0.0261    0.0006    0.0030    0.0069    0.0190   -0.0082
          10    0.0106   -0.0299    0.0141   -0.0080   -0.0194   -0.0111    0.0014    0.0259
          11    0.0127    0.0195    0.0015   -0.0263   -0.0052    0.0060    0.0088   -0.0225
          12   -0.0114    0.0233   -0.0261    0.0005   -0.0030    0.0068   -0.0190    0.0082
          13   -0.0205    0.0045   -0.0129   -0.0183    0.0301    0.0062    0.0039    0.0326
          14    0.0115    0.0009    0.0063    0.0344   -0.0200   -0.0037   -0.0179    0.0058
          15    0.0314   -0.0109    0.0174   -0.0017    0.0165   -0.0063    0.0045    0.0268
          16   -0.0205    0.0046    0.0129   -0.0183   -0.0301    0.0062   -0.0040   -0.0326
          17    0.0115    0.0009   -0.0063    0.0344    0.0200   -0.0036    0.0179   -0.0058
          18    0.0314   -0.0109   -0.0174   -0.0017   -0.0165   -0.0063   -0.0045   -0.0268
          19    0.0089    0.0082    0.0039    0.0244   -0.0012    0.0260    0.0317    0.0144
          20   -0.0192   -0.0038   -0.0105   -0.0117    0.0174   -0.0251   -0.0379    0.0200
          21   -0.0295    0.0050    0.0197    0.0079    0.0159   -0.0153    0.0060   -0.0251
          22    0.0089    0.0082   -0.0039    0.0243    0.0012    0.0259   -0.0319   -0.0144
          23   -0.0192   -0.0038    0.0105   -0.0117   -0.0174   -0.0249    0.0380   -0.0200
          24   -0.0295    0.0050   -0.0197    0.0079   -0.0158   -0.0154   -0.0059    0.0251
          25   -0.0070    0.0451    0.0276    0.0150    0.0193   -0.0108   -0.0048    0.0036
          26   -0.0199   -0.0337   -0.0298    0.0191   -0.0171    0.0172    0.0027    0.0136
          27   -0.0061   -0.0273   -0.0012    0.0019    0.0107    0.0099    0.0312   -0.0008
          28   -0.0071    0.0451   -0.0276    0.0149   -0.0192   -0.0108    0.0048   -0.0036
          29   -0.0198   -0.0337    0.0299    0.0191    0.0171    0.0172   -0.0028   -0.0136
          30   -0.0061   -0.0273    0.0012    0.0019   -0.0107    0.0098   -0.0312    0.0008
          31    0.0314   -0.0480    0.0048   -0.0125    0.0109   -0.0233   -0.0050    0.0371
          32    0.0131    0.0219   -0.0475   -0.0300    0.0408    0.0162   -0.0245   -0.0618
          33    0.0287    0.0002    0.0100   -0.0113    0.0344    0.0054    0.0051    0.0180
          34    0.0314   -0.0480   -0.0048   -0.0125   -0.0109   -0.0233    0.0051   -0.0371
          35    0.0131    0.0219    0.0475   -0.0299   -0.0408    0.0163    0.0244    0.0618
          36    0.0287    0.0002   -0.0100   -0.0113   -0.0344    0.0054   -0.0051   -0.0181
          37    0.0108   -0.0347   -0.0232   -0.0136    0.0594   -0.0169   -0.0103   -0.0585
          38    0.0349    0.0224   -0.0106   -0.0340   -0.0022    0.0253   -0.0031    0.0363
          39   -0.0292    0.0198    0.0326    0.0076    0.0085   -0.0092    0.0142   -0.0192
          40    0.0108   -0.0347    0.0232   -0.0136   -0.0594   -0.0168    0.0104    0.0585
          41    0.0350    0.0224    0.0106   -0.0340    0.0022    0.0253    0.0029   -0.0363
          42   -0.0292    0.0198   -0.0325    0.0076   -0.0085   -0.0092   -0.0141    0.0192
          43   -0.0655   -0.0062   -0.0751   -0.0728    0.0706    0.0786    0.0632    0.0183
          44   -0.0004   -0.0185   -0.0032    0.0442   -0.0316    0.0052   -0.0064    0.0156
          45    0.0483    0.0174    0.0313   -0.0153    0.0325   -0.0205   -0.0139    0.0130
          46   -0.0083    0.0068    0.0035   -0.0034    0.0189   -0.0126   -0.0115    0.0386
          47    0.0470    0.0354    0.0686    0.0852   -0.0473   -0.0672   -0.0751    0.0082
          48    0.0571   -0.0435    0.0348    0.0219   -0.0176   -0.0407   -0.0172    0.0593
          49   -0.0083    0.0069   -0.0035   -0.0034   -0.0189   -0.0126    0.0116   -0.0386
          50    0.0469    0.0353   -0.0686    0.0852    0.0473   -0.0669    0.0754   -0.0082
          51    0.0571   -0.0435   -0.0348    0.0219    0.0175   -0.0407    0.0174   -0.0593
          52   -0.0654   -0.0061    0.0751   -0.0727   -0.0705    0.0784   -0.0636   -0.0183
          53   -0.0004   -0.0185    0.0031    0.0442    0.0316    0.0052    0.0064   -0.0156
          54    0.0483    0.0174   -0.0313   -0.0153   -0.0325   -0.0204    0.0140   -0.0130
          55   -0.0116    0.0936    0.0647    0.0285    0.0210   -0.0303   -0.0188   -0.0245
          56   -0.0390   -0.0728   -0.0595    0.0316   -0.0362    0.0416    0.0309   -0.0147
          57   -0.0113   -0.0580   -0.0245    0.0018    0.0034    0.0254    0.0463   -0.0008
          58    0.0196    0.0158    0.0105    0.0545   -0.0291    0.0747    0.0815    0.0452
          59   -0.0381   -0.0077   -0.0146   -0.0323    0.0430   -0.0742   -0.0882   -0.0105
          60   -0.0581    0.0114    0.0232    0.0185    0.0246   -0.0427   -0.0221   -0.0402
          61   -0.0116    0.0936   -0.0648    0.0284   -0.0210   -0.0302    0.0190    0.0245
          62   -0.0389   -0.0728    0.0595    0.0316    0.0361    0.0415   -0.0311    0.0147
          63   -0.0113   -0.0580    0.0245    0.0017   -0.0035    0.0251   -0.0465    0.0008
          64    0.0197    0.0158   -0.0105    0.0545    0.0291    0.0744   -0.0819   -0.0453
          65   -0.0382   -0.0077    0.0146   -0.0323   -0.0430   -0.0738    0.0886    0.0106
          66   -0.0581    0.0114   -0.0232    0.0185   -0.0246   -0.0426    0.0223    0.0402


   Root No.       9        10        11        12        13        14        15        16

                 9 A      10 A      11 A      12 A      13 A      14 A      15 A      16 A   

                 728.7     744.0     772.1     781.8     786.0     832.8     867.9     910.0
  
           1    0.0060   -0.0031   -0.0216    0.0078   -0.0111    0.0397    0.0057    0.0070
           2   -0.0111   -0.0100   -0.0044    0.0024   -0.0155    0.0200   -0.0087    0.0060
           3   -0.0214    0.0326    0.0017   -0.0216    0.0038   -0.0230   -0.0056   -0.0093
           4   -0.0060   -0.0032   -0.0217   -0.0074   -0.0113   -0.0397    0.0057   -0.0070
           5    0.0111   -0.0100   -0.0044   -0.0021   -0.0156   -0.0200   -0.0087   -0.0060
           6    0.0212    0.0328    0.0019    0.0214    0.0041    0.0230   -0.0057    0.0093
           7    0.0148   -0.0174   -0.0059    0.0098   -0.0095    0.0179   -0.0149   -0.0032
           8    0.0038   -0.0225    0.0045    0.0180   -0.0073    0.0318    0.0121    0.0152
           9   -0.0123   -0.0072   -0.0183   -0.0019   -0.0232    0.0398    0.0068    0.0126
          10   -0.0148   -0.0175   -0.0060   -0.0095   -0.0097   -0.0179   -0.0148    0.0033
          11   -0.0037   -0.0226    0.0043   -0.0178   -0.0076   -0.0318    0.0122   -0.0152
          12    0.0124   -0.0071   -0.0183    0.0025   -0.0231   -0.0398    0.0069   -0.0127
          13   -0.0049    0.0374   -0.0048   -0.0211   -0.0006    0.0181    0.0242   -0.0205
          14   -0.0230    0.0181   -0.0169   -0.0063    0.0022   -0.0021   -0.0162    0.0185
          15   -0.0022    0.0183    0.0034   -0.0023    0.0207   -0.0089   -0.0017    0.0106
          16    0.0048    0.0375   -0.0046    0.0211   -0.0003   -0.0181    0.0242    0.0205
          17    0.0229    0.0182   -0.0168    0.0064    0.0023    0.0021   -0.0162   -0.0185
          18    0.0021    0.0183    0.0034    0.0018    0.0207    0.0089   -0.0017   -0.0106
          19    0.0231   -0.0105    0.0299    0.0006    0.0054   -0.0158   -0.0042    0.0140
          20    0.0088   -0.0053    0.0158    0.0264    0.0338   -0.0213    0.0147   -0.0103
          21   -0.0036   -0.0160   -0.0154    0.0024   -0.0092    0.0080   -0.0035   -0.0121
          22   -0.0231   -0.0106    0.0299   -0.0010    0.0054    0.0158   -0.0042   -0.0141
          23   -0.0087   -0.0055    0.0155   -0.0271    0.0334    0.0212    0.0147    0.0103
          24    0.0037   -0.0160   -0.0154   -0.0021   -0.0092   -0.0080   -0.0035    0.0121
          25    0.0124   -0.0022    0.0192   -0.0037    0.0036   -0.0133   -0.0041    0.0046
          26   -0.0146    0.0126   -0.0135   -0.0012    0.0048   -0.0036    0.0023   -0.0071
          27    0.0265   -0.0357    0.0212    0.0240    0.0148   -0.0126    0.0034   -0.0022
          28   -0.0124   -0.0022    0.0192    0.0035    0.0036    0.0133   -0.0041   -0.0045
          29    0.0145    0.0127   -0.0134    0.0012    0.0048    0.0036    0.0023    0.0071
          30   -0.0264   -0.0359    0.0209   -0.0244    0.0144    0.0126    0.0034    0.0022
          31    0.0077   -0.0022   -0.0123    0.0173    0.0118    0.0393   -0.0241    0.0317
          32    0.0164   -0.0226   -0.0012    0.0285   -0.0330    0.0062   -0.0294   -0.0274
          33   -0.0185    0.0338    0.0082   -0.0138    0.0210   -0.0240   -0.0270    0.0082
          34   -0.0077   -0.0023   -0.0124   -0.0174    0.0114   -0.0393   -0.0241   -0.0317
          35   -0.0163   -0.0228   -0.0015   -0.0279   -0.0334   -0.0062   -0.0294    0.0274
          36    0.0184    0.0339    0.0084    0.0132    0.0213    0.0239   -0.0270   -0.0082
          37   -0.0154   -0.0274   -0.0200   -0.0056   -0.0161    0.0462   -0.0538   -0.0348
          38    0.0050    0.0028    0.0142    0.0078   -0.0211    0.0485   -0.0026    0.0361
          39   -0.0121   -0.0269   -0.0264    0.0068   -0.0125    0.0258    0.0185   -0.0038
          40    0.0155   -0.0273   -0.0200    0.0061   -0.0160   -0.0462   -0.0537    0.0349
          41   -0.0050    0.0028    0.0142   -0.0076   -0.0213   -0.0484   -0.0026   -0.0361
          42    0.0123   -0.0269   -0.0265   -0.0063   -0.0126   -0.0258    0.0185    0.0037
          43   -0.0830    0.0443   -0.0359    0.0065    0.0614   -0.0375   -0.0720    0.0827
          44   -0.0206    0.0067   -0.0239    0.0110    0.0162   -0.0119   -0.0121    0.0210
          45   -0.0049    0.0358    0.0132   -0.0295   -0.0022    0.0062   -0.0061    0.0046
          46    0.0129    0.0393    0.0005   -0.0303   -0.0163    0.0331    0.0491   -0.0471
          47    0.0389    0.0265    0.0259   -0.0501   -0.0546    0.0206    0.0534   -0.0743
          48    0.0343    0.0124   -0.0158    0.0010   -0.0049    0.0565    0.0661   -0.0351
          49   -0.0130    0.0393    0.0008    0.0305   -0.0158   -0.0330    0.0491    0.0471
          50   -0.0390    0.0265    0.0264    0.0507   -0.0538   -0.0205    0.0535    0.0743
          51   -0.0343    0.0122   -0.0158   -0.0008   -0.0049   -0.0564    0.0662    0.0350
          52    0.0828    0.0446   -0.0359   -0.0074    0.0613    0.0374   -0.0721   -0.0827
          53    0.0206    0.0068   -0.0239   -0.0110    0.0160    0.0119   -0.0121   -0.0210
          54    0.0047    0.0360    0.0135    0.0293   -0.0018   -0.0062   -0.0061   -0.0046
          55   -0.0557   -0.0627   -0.0793    0.0889    0.0606   -0.0328   -0.0393   -0.0031
          56    0.0495    0.0297    0.0621   -0.1021   -0.1090    0.0335   -0.0040   -0.0022
          57    0.0731   -0.0086    0.0824   -0.0442   -0.0454    0.0071    0.0134    0.0020
          58   -0.0448   -0.0413   -0.0527    0.0507    0.0456   -0.0125    0.0595   -0.0885
          59    0.0703    0.0425    0.0974   -0.0422   -0.0094   -0.0402   -0.0563    0.0888
          60    0.0148    0.0494    0.0257   -0.0775   -0.0392   -0.0363   -0.0579    0.0335
          61    0.0560   -0.0627   -0.0803   -0.0890    0.0592    0.0327   -0.0393    0.0031
          62   -0.0497    0.0298    0.0633    0.1033   -0.1074   -0.0334   -0.0040    0.0023
          63   -0.0730   -0.0089    0.0828    0.0442   -0.0446   -0.0070    0.0134   -0.0019
          64    0.0450   -0.0413   -0.0533   -0.0509    0.0448    0.0125    0.0595    0.0884
          65   -0.0705    0.0423    0.0979    0.0413   -0.0087    0.0401   -0.0564   -0.0888
          66   -0.0149    0.0496    0.0266    0.0778   -0.0380    0.0363   -0.0580   -0.0335


   Root No.      17        18        19        20        21        22        23        24

                17 A      18 A      19 A      20 A      21 A      22 A      23 A      24 A   

                 934.8     962.6     964.8     975.7    1007.4    1026.2    1039.1    1043.8
  
           1    0.0181   -0.0042    0.0147   -0.0090   -0.0100   -0.0065    0.0046    0.0028
           2    0.0213    0.0151    0.0200    0.0040    0.0004    0.0098   -0.0065   -0.0095
           3   -0.0108    0.0027   -0.0137    0.0062    0.0146   -0.0150    0.0076   -0.0025
           4    0.0181    0.0043   -0.0147   -0.0089   -0.0100    0.0065    0.0046   -0.0028
           5    0.0213   -0.0151   -0.0199    0.0040    0.0004   -0.0098   -0.0064    0.0095
           6   -0.0108   -0.0027    0.0137    0.0061    0.0145    0.0151    0.0076    0.0024
           7   -0.0191   -0.0150   -0.0175    0.0069    0.0034    0.0046   -0.0050    0.0074
           8   -0.0194    0.0119   -0.0132   -0.0118   -0.0066   -0.0115    0.0111   -0.0069
           9   -0.0106    0.0068   -0.0087   -0.0103   -0.0090    0.0074   -0.0062   -0.0046
          10   -0.0191    0.0150    0.0175    0.0069    0.0034   -0.0046   -0.0050   -0.0074
          11   -0.0194   -0.0118    0.0132   -0.0119   -0.0066    0.0116    0.0111    0.0069
          12   -0.0106   -0.0068    0.0086   -0.0104   -0.0090   -0.0074   -0.0061    0.0046
          13   -0.0036   -0.0140   -0.0007   -0.0020    0.0099    0.0176   -0.0128   -0.0041
          14   -0.0081    0.0007   -0.0073   -0.0024   -0.0177    0.0120   -0.0118    0.0091
          15    0.0050   -0.0023    0.0082   -0.0009   -0.0128    0.0096   -0.0012    0.0064
          16   -0.0036    0.0139    0.0007   -0.0020    0.0100   -0.0176   -0.0127    0.0041
          17   -0.0081   -0.0008    0.0073   -0.0024   -0.0177   -0.0121   -0.0118   -0.0091
          18    0.0049    0.0023   -0.0082   -0.0009   -0.0127   -0.0096   -0.0012   -0.0064
          19    0.0043   -0.0048    0.0022   -0.0134    0.0035    0.0014   -0.0036   -0.0092
          20    0.0007    0.0215   -0.0046    0.0156   -0.0055    0.0009    0.0041    0.0061
          21    0.0043    0.0002    0.0066    0.0105   -0.0003   -0.0061    0.0062    0.0057
          22    0.0043    0.0049   -0.0022   -0.0134    0.0035   -0.0014   -0.0036    0.0092
          23    0.0007   -0.0215    0.0046    0.0155   -0.0055   -0.0009    0.0041   -0.0062
          24    0.0043   -0.0002   -0.0066    0.0105   -0.0003    0.0061    0.0062   -0.0057
          25    0.0033    0.0128   -0.0003    0.0074   -0.0135   -0.0069    0.0091    0.0152
          26    0.0016   -0.0123    0.0072   -0.0043    0.0189   -0.0062    0.0044   -0.0175
          27    0.0002   -0.0057   -0.0048   -0.0062    0.0114    0.0075   -0.0137   -0.0136
          28    0.0033   -0.0128    0.0003    0.0074   -0.0135    0.0069    0.0090   -0.0152
          29    0.0016    0.0124   -0.0072   -0.0043    0.0189    0.0063    0.0044    0.0175
          30    0.0002    0.0057    0.0048   -0.0062    0.0114   -0.0075   -0.0136    0.0137
          31    0.0484    0.0078    0.0451    0.0142   -0.0017   -0.0549    0.0425    0.0182
          32    0.1365    0.0101    0.0958    0.0321    0.0611    0.0066   -0.0714    0.0262
          33    0.0169    0.0108    0.0126    0.0234    0.0215   -0.0514    0.0350    0.0108
          34    0.0484   -0.0077   -0.0451    0.0143   -0.0018    0.0552    0.0422   -0.0184
          35    0.1365   -0.0101   -0.0957    0.0323    0.0611   -0.0068   -0.0715   -0.0259
          36    0.0169   -0.0109   -0.0125    0.0234    0.0215    0.0517    0.0348   -0.0110
          37   -0.1133   -0.0328   -0.0839    0.0688    0.0451   -0.0568   -0.0089    0.0127
          38   -0.0396    0.0005   -0.0317   -0.0161    0.0537   -0.0753    0.0600   -0.0494
          39    0.0104    0.0164    0.0095   -0.0078   -0.0584    0.0608   -0.0459    0.0299
          40   -0.1134    0.0325    0.0841    0.0687    0.0451    0.0567   -0.0092   -0.0127
          41   -0.0396   -0.0005    0.0316   -0.0162    0.0536    0.0757    0.0599    0.0492
          42    0.0104   -0.0164   -0.0095   -0.0078   -0.0583   -0.0611   -0.0457   -0.0297
          43   -0.0070    0.0113   -0.0053    0.0007   -0.0631    0.0267   -0.0177    0.0256
          44   -0.0220   -0.0417   -0.0306   -0.0467   -0.0216    0.0062   -0.0078    0.0777
          45    0.0251    0.0591    0.0431    0.0644   -0.0054    0.0177   -0.0080   -0.0947
          46   -0.0039   -0.0236    0.0005   -0.0038    0.0278    0.0176   -0.0144   -0.0092
          47   -0.0311    0.0144   -0.0348    0.0372    0.0543    0.0304   -0.0617   -0.0674
          48    0.0332   -0.0795    0.0527   -0.0657    0.0038   -0.0130    0.0549    0.0747
          49   -0.0040    0.0236   -0.0005   -0.0037    0.0278   -0.0176   -0.0143    0.0093
          50   -0.0311   -0.0145    0.0349    0.0370    0.0543   -0.0305   -0.0613    0.0677
          51    0.0331    0.0797   -0.0529   -0.0654    0.0037    0.0132    0.0545   -0.0751
          52   -0.0071   -0.0113    0.0053    0.0006   -0.0631   -0.0268   -0.0177   -0.0256
          53   -0.0221    0.0418    0.0305   -0.0466   -0.0215   -0.0062   -0.0081   -0.0777
          54    0.0251   -0.0593   -0.0430    0.0643   -0.0054   -0.0179   -0.0076    0.0947
          55    0.0064   -0.0695    0.0195   -0.0317    0.0781   -0.0750    0.0480   -0.0538
          56    0.0069    0.0680    0.0045    0.0482   -0.0370   -0.0883    0.0823    0.0350
          57    0.0019    0.0513   -0.0118    0.0262   -0.0401    0.0015    0.0010    0.0288
          58    0.0336    0.0515    0.0327    0.0716   -0.0062   -0.0270    0.0431    0.0221
          59   -0.0047   -0.0437   -0.0041   -0.0675    0.0141    0.0098   -0.0168   -0.0269
          60    0.0558   -0.0560    0.0768   -0.0307    0.0315   -0.0412    0.0490   -0.0154
          61    0.0063    0.0697   -0.0197   -0.0315    0.0780    0.0753    0.0479    0.0536
          62    0.0070   -0.0682   -0.0043    0.0481   -0.0370    0.0887    0.0818   -0.0353
          63    0.0019   -0.0513    0.0119    0.0260   -0.0400   -0.0015    0.0008   -0.0287
          64    0.0336   -0.0516   -0.0325    0.0715   -0.0062    0.0272    0.0429   -0.0222
          65   -0.0048    0.0439    0.0040   -0.0674    0.0141   -0.0098   -0.0167    0.0270
          66    0.0557    0.0562   -0.0769   -0.0303    0.0314    0.0414    0.0489    0.0152


   Root No.      25        26        27        28        29        30        31        32

                25 A      26 A      27 A      28 A      29 A      30 A      31 A      32 A   

                1058.7    1076.9    1078.1    1094.1    1101.4    1101.7    1134.1    1135.3
  
           1   -0.0002    0.0016   -0.0114   -0.0022    0.0094   -0.0020   -0.0074    0.0018
           2    0.0071   -0.0049    0.0026    0.0054    0.0037   -0.0172    0.0235   -0.0064
           3   -0.0138    0.0111   -0.0079    0.0144   -0.0078   -0.0108    0.0046    0.0144
           4   -0.0002   -0.0016   -0.0114    0.0023    0.0095    0.0009    0.0074    0.0015
           5    0.0071    0.0049    0.0026   -0.0054    0.0052    0.0167   -0.0238   -0.0054
           6   -0.0137   -0.0111   -0.0079   -0.0144   -0.0068    0.0116   -0.0039    0.0146
           7   -0.0006   -0.0066   -0.0019   -0.0065   -0.0014    0.0257   -0.0248    0.0051
           8    0.0049    0.0049   -0.0008    0.0020    0.0026   -0.0077    0.0015    0.0077
           9    0.0042   -0.0010    0.0022    0.0103   -0.0069   -0.0105    0.0004    0.0116
          10   -0.0006    0.0066   -0.0019    0.0065   -0.0036   -0.0254    0.0250    0.0041
          11    0.0050   -0.0049   -0.0007   -0.0020    0.0032    0.0073   -0.0011    0.0077
          12    0.0042    0.0010    0.0021   -0.0104   -0.0059    0.0113    0.0002    0.0116
          13   -0.0019    0.0074    0.0018   -0.0034    0.0019    0.0055    0.0042   -0.0111
          14   -0.0070    0.0062   -0.0019   -0.0114    0.0065    0.0077    0.0015   -0.0096
          15    0.0071   -0.0068    0.0070   -0.0089    0.0002    0.0146    0.0018   -0.0134
          16   -0.0019   -0.0074    0.0019    0.0034    0.0014   -0.0056   -0.0048   -0.0109
          17   -0.0071   -0.0062   -0.0019    0.0114    0.0057   -0.0084   -0.0019   -0.0095
          18    0.0071    0.0068    0.0070    0.0089   -0.0011   -0.0146   -0.0024   -0.0133
          19    0.0114   -0.0048    0.0028    0.0108   -0.0046   -0.0111   -0.0003    0.0073
          20   -0.0044   -0.0114    0.0034    0.0022   -0.0047   -0.0047    0.0008    0.0062
          21   -0.0072    0.0054   -0.0017   -0.0150    0.0091    0.0111    0.0020   -0.0110
          22    0.0114    0.0048    0.0028   -0.0108   -0.0035    0.0116    0.0006    0.0073
          23   -0.0044    0.0114    0.0034   -0.0023   -0.0042    0.0052   -0.0005    0.0063
          24   -0.0072   -0.0054   -0.0016    0.0150    0.0081   -0.0121   -0.0025   -0.0109
          25   -0.0091   -0.0030    0.0044   -0.0024   -0.0023    0.0031    0.0040   -0.0034
          26    0.0175   -0.0067   -0.0012    0.0102   -0.0078    0.0000   -0.0074    0.0094
          27   -0.0035    0.0121   -0.0083   -0.0047    0.0090   -0.0047    0.0086   -0.0101
          28   -0.0090    0.0030    0.0044    0.0024   -0.0026   -0.0028   -0.0042   -0.0033
          29    0.0175    0.0067   -0.0012   -0.0102   -0.0077    0.0008    0.0078    0.0091
          30   -0.0035   -0.0122   -0.0083    0.0048    0.0094    0.0037   -0.0091   -0.0097
          31   -0.0344    0.0410   -0.0386    0.0208   -0.0009   -0.0118   -0.1052    0.0830
          32   -0.0754    0.1022    0.0467   -0.0063   -0.0454   -0.0112    0.0077   -0.0108
          33   -0.0418    0.0437   -0.0269    0.0320   -0.0181   -0.0174   -0.0696    0.0766
          34   -0.0344   -0.0411   -0.0384   -0.0207    0.0002    0.0118    0.1088    0.0786
          35   -0.0756   -0.1019    0.0471    0.0060   -0.0443    0.0163   -0.0083   -0.0106
          36   -0.0418   -0.0438   -0.0267   -0.0321   -0.0165    0.0194    0.0731    0.0736
          37    0.0146   -0.0700    0.1104   -0.0021   -0.0311   -0.0662   -0.0021    0.0001
          38   -0.0376    0.0229   -0.0074   -0.0969    0.0700   -0.0034    0.0562   -0.0603
          39    0.0378   -0.0137    0.0045    0.0904   -0.0609   -0.0113   -0.0456    0.0685
          40    0.0148    0.0705    0.1101    0.0020   -0.0251    0.0694    0.0021    0.0000
          41   -0.0376   -0.0230   -0.0071    0.0972    0.0697   -0.0045   -0.0589   -0.0579
          42    0.0378    0.0138    0.0043   -0.0905   -0.0593    0.0181    0.0487    0.0665
          43   -0.0042    0.0076   -0.0072   -0.0365    0.0183    0.0389   -0.0089   -0.0306
          44   -0.0970    0.0468    0.0228   -0.0130    0.0106   -0.0361    0.0223    0.0050
          45    0.1376   -0.0635   -0.0292   -0.0073   -0.0065    0.0795   -0.0269   -0.0355
          46   -0.0063    0.0144    0.0033    0.0011   -0.0010    0.0007    0.0083   -0.0099
          47   -0.0093    0.0652   -0.0518   -0.0212    0.0379   -0.0152   -0.0284    0.0151
          48   -0.0111   -0.0516    0.0896    0.0341   -0.0619    0.0106    0.0734   -0.0385
          49   -0.0063   -0.0144    0.0034   -0.0011   -0.0010   -0.0006   -0.0087   -0.0095
          50   -0.0094   -0.0654   -0.0515    0.0213    0.0389    0.0108    0.0291    0.0139
          51   -0.0110    0.0521    0.0893   -0.0344   -0.0623   -0.0035   -0.0751   -0.0355
          52   -0.0043   -0.0077   -0.0071    0.0365    0.0147   -0.0407    0.0074   -0.0309
          53   -0.0970   -0.0466    0.0230    0.0129    0.0137    0.0347   -0.0221    0.0059
          54    0.1377    0.0632   -0.0295    0.0074   -0.0135   -0.0784    0.0252   -0.0366
          55    0.0220    0.0201   -0.0573    0.0572   -0.0621    0.0859    0.0380   -0.0591
          56   -0.0159    0.0042   -0.0338    0.0455   -0.0672    0.0923    0.0373   -0.0538
          57   -0.0259    0.0082    0.0014   -0.0136    0.0090    0.0003    0.0139   -0.0152
          58    0.0115   -0.0413    0.0408   -0.0552    0.0524   -0.0382   -0.0293    0.0283
          59    0.0202   -0.0011   -0.0028    0.0331   -0.0206   -0.0163    0.0070    0.0102
          60    0.0593   -0.0439    0.0649   -0.0783    0.0938   -0.0806   -0.0440    0.0437
          61    0.0221   -0.0203   -0.0572   -0.0573   -0.0692   -0.0785   -0.0407   -0.0575
          62   -0.0158   -0.0043   -0.0338   -0.0456   -0.0749   -0.0843   -0.0398   -0.0522
          63   -0.0259   -0.0082    0.0014    0.0135    0.0089   -0.0013   -0.0146   -0.0146
          64    0.0115    0.0415    0.0407    0.0553    0.0554    0.0321    0.0305    0.0270
          65    0.0202    0.0011   -0.0028   -0.0332   -0.0190    0.0186   -0.0065    0.0105
          66    0.0593    0.0442    0.0648    0.0785    0.1003    0.0697    0.0460    0.0418


   Root No.      33        34        35        36        37        38        39        40

                33 A      34 A      35 A      36 A      37 A      38 A      39 A      40 A   

                1168.9    1200.9    1202.4    1227.0    1230.5    1238.0    1264.0    1330.6
  
           1   -0.0236    0.0014   -0.0127   -0.0050    0.0117    0.0045    0.0452    0.0412
           2   -0.0215   -0.0158    0.0237    0.0235    0.0095    0.0352   -0.0030   -0.0097
           3    0.0138    0.0166    0.0107    0.0172    0.0091    0.0132    0.0161    0.0310
           4    0.0236    0.0014    0.0127   -0.0050   -0.0117    0.0044    0.0452   -0.0412
           5    0.0215   -0.0158   -0.0237    0.0235   -0.0094    0.0352   -0.0031    0.0097
           6   -0.0138    0.0166   -0.0107    0.0173   -0.0090    0.0132    0.0161   -0.0310
           7    0.0181    0.0310    0.0208    0.0180    0.0112   -0.0047   -0.0363    0.0023
           8    0.0261   -0.0072   -0.0080   -0.0054    0.0146   -0.0294   -0.0124    0.0018
           9    0.0206    0.0122    0.0034   -0.0161   -0.0075   -0.0001    0.0157   -0.0193
          10   -0.0181    0.0309   -0.0208    0.0181   -0.0112   -0.0047   -0.0363   -0.0023
          11   -0.0261   -0.0072    0.0080   -0.0053   -0.0147   -0.0295   -0.0124   -0.0019
          12   -0.0206    0.0122   -0.0035   -0.0162    0.0074   -0.0001    0.0157    0.0194
          13   -0.0045   -0.0150    0.0009    0.0021   -0.0015   -0.0033   -0.0146   -0.0077
          14   -0.0071   -0.0014   -0.0057   -0.0065   -0.0045    0.0039   -0.0053    0.0216
          15    0.0026   -0.0032   -0.0134    0.0030    0.0064   -0.0242    0.0019   -0.0307
          16    0.0045   -0.0150   -0.0009    0.0021    0.0015   -0.0033   -0.0146    0.0076
          17    0.0071   -0.0014    0.0057   -0.0065    0.0045    0.0039   -0.0053   -0.0217
          18   -0.0026   -0.0032    0.0134    0.0030   -0.0064   -0.0242    0.0019    0.0307
          19    0.0044    0.0011   -0.0011   -0.0063   -0.0054    0.0055    0.0050    0.0028
          20    0.0027    0.0138    0.0051    0.0021    0.0001    0.0042    0.0160   -0.0097
          21   -0.0053   -0.0023    0.0047   -0.0082   -0.0110    0.0087   -0.0223    0.0160
          22   -0.0044    0.0011    0.0011   -0.0063    0.0054    0.0055    0.0050   -0.0028
          23   -0.0027    0.0138   -0.0051    0.0021   -0.0001    0.0042    0.0160    0.0098
          24    0.0053   -0.0023   -0.0047   -0.0082    0.0110    0.0087   -0.0223   -0.0160
          25    0.0004    0.0045    0.0023   -0.0075   -0.0098    0.0073   -0.0026    0.0060
          26    0.0129    0.0094    0.0027   -0.0110   -0.0115    0.0031   -0.0039    0.0000
          27   -0.0169   -0.0148   -0.0029    0.0033    0.0033    0.0042    0.0026    0.0068
          28   -0.0004    0.0045   -0.0023   -0.0076    0.0098    0.0073   -0.0026   -0.0060
          29   -0.0129    0.0094   -0.0028   -0.0111    0.0115    0.0031   -0.0039    0.0000
          30    0.0169   -0.0148    0.0030    0.0033   -0.0033    0.0042    0.0026   -0.0069
          31   -0.0810   -0.0972    0.0456   -0.0684   -0.0483    0.0029   -0.0578   -0.0560
          32    0.1132    0.0542   -0.1032   -0.0497   -0.0441   -0.0927    0.0094   -0.0055
          33   -0.0251   -0.0572    0.0532   -0.0330   -0.0381    0.0089   -0.0597   -0.0438
          34    0.0810   -0.0972   -0.0455   -0.0686    0.0480    0.0029   -0.0578    0.0559
          35   -0.1132    0.0544    0.1030   -0.0499    0.0439   -0.0928    0.0094    0.0055
          36    0.0251   -0.0573   -0.0532   -0.0332    0.0381    0.0090   -0.0597    0.0438
          37   -0.0685   -0.0918   -0.1303   -0.0328   -0.0550    0.0114    0.0917   -0.0334
          38    0.0375    0.0473    0.0485   -0.0741   -0.0413    0.0072    0.0121   -0.0284
          39    0.0150   -0.0288   -0.0393    0.0422    0.0400   -0.0281   -0.0077    0.0064
          40    0.0686   -0.0916    0.1304   -0.0331    0.0548    0.0113    0.0917    0.0335
          41   -0.0374    0.0473   -0.0486   -0.0743    0.0410    0.0072    0.0121    0.0285
          42   -0.0151   -0.0288    0.0393    0.0424   -0.0398   -0.0281   -0.0077   -0.0064
          43   -0.0287   -0.0318   -0.0283   -0.0087    0.0043   -0.0382   -0.0152   -0.0542
          44   -0.0152   -0.0186    0.0065    0.0382    0.0318   -0.0188    0.0148   -0.0329
          45    0.0126    0.0181   -0.0309   -0.0606   -0.0455    0.0073   -0.0282    0.0430
          46   -0.0089   -0.0293    0.0086    0.0075   -0.0002   -0.0036   -0.0241   -0.0292
          47   -0.0394   -0.0471   -0.0163    0.0218    0.0336   -0.0476    0.0124   -0.0726
          48    0.0321   -0.0109    0.0487   -0.0012   -0.0389    0.0533   -0.0744   -0.0093
          49    0.0089   -0.0293   -0.0085    0.0075    0.0002   -0.0036   -0.0241    0.0291
          50    0.0394   -0.0471    0.0163    0.0220   -0.0335   -0.0476    0.0122    0.0727
          51   -0.0320   -0.0109   -0.0487   -0.0014    0.0389    0.0534   -0.0744    0.0091
          52    0.0288   -0.0318    0.0283   -0.0086   -0.0044   -0.0383   -0.0152    0.0542
          53    0.0152   -0.0186   -0.0065    0.0383   -0.0317   -0.0188    0.0148    0.0329
          54   -0.0126    0.0182    0.0309   -0.0609    0.0453    0.0073   -0.0281   -0.0432
          55   -0.0309   -0.0387   -0.0316    0.0483    0.0531   -0.0512    0.0333   -0.0437
          56   -0.0150   -0.0250   -0.0321    0.0416    0.0491   -0.0552    0.0341   -0.0467
          57   -0.0174   -0.0139   -0.0042    0.0029    0.0033    0.0036    0.0032    0.0076
          58    0.0210    0.0149    0.0034    0.0393    0.0457   -0.0310    0.0114   -0.0188
          59    0.0070    0.0024   -0.0041   -0.0105   -0.0080    0.0063    0.0200   -0.0053
          60    0.0380   -0.0087   -0.0122    0.0590    0.0805   -0.0657    0.0003   -0.0174
          61    0.0309   -0.0386    0.0316    0.0485   -0.0528   -0.0513    0.0332    0.0436
          62    0.0150   -0.0249    0.0321    0.0419   -0.0490   -0.0553    0.0339    0.0467
          63    0.0174   -0.0139    0.0043    0.0030   -0.0033    0.0036    0.0032   -0.0077
          64   -0.0210    0.0149   -0.0035    0.0395   -0.0455   -0.0310    0.0113    0.0187
          65   -0.0070    0.0024    0.0041   -0.0106    0.0079    0.0063    0.0200    0.0053
          66   -0.0381   -0.0088    0.0122    0.0594   -0.0803   -0.0657    0.0002    0.0173


   Root No.      41        42        43        44        45        46        47        48

                41 A      42 A      43 A      44 A      45 A      46 A      47 A      48 A   

                1354.4    1362.5    1394.2    1405.3    1419.0    1420.6    1819.8    1820.2
  
           1   -0.0200   -0.0054   -0.0053    0.0090   -0.0339   -0.0168    0.0009   -0.0007
           2   -0.0050    0.0195    0.0078    0.0013    0.0125    0.0090    0.0020   -0.0041
           3    0.0001   -0.0180   -0.0089    0.0069   -0.0143   -0.0219   -0.0022    0.0033
           4    0.0200   -0.0053   -0.0052   -0.0091    0.0342   -0.0163    0.0009    0.0007
           5    0.0050    0.0195    0.0078   -0.0013   -0.0127    0.0089    0.0018    0.0042
           6   -0.0001   -0.0179   -0.0089   -0.0070    0.0147   -0.0217   -0.0020   -0.0034
           7   -0.0017    0.0004    0.0082   -0.0002   -0.0112    0.0110    0.0053   -0.0047
           8    0.0153   -0.0081   -0.0171    0.0092    0.0573   -0.0221   -0.0006    0.0002
           9   -0.0032    0.0017    0.0231   -0.0099   -0.0446    0.0345    0.0092   -0.0084
          10    0.0017    0.0004    0.0082    0.0002    0.0110    0.0111    0.0051    0.0049
          11   -0.0153   -0.0080   -0.0171   -0.0094   -0.0569   -0.0227   -0.0006   -0.0003
          12    0.0031    0.0016    0.0231    0.0102    0.0439    0.0350    0.0088    0.0088
          13    0.0061   -0.0025   -0.0211   -0.0275    0.0138    0.0189   -0.0080    0.0072
          14    0.0251   -0.0361   -0.0181   -0.0208    0.0003    0.0105   -0.0066    0.0065
          15   -0.0327    0.0460   -0.0023   -0.0045    0.0133    0.0083   -0.0012    0.0007
          16   -0.0061   -0.0025   -0.0213    0.0274   -0.0142    0.0186   -0.0076   -0.0076
          17   -0.0251   -0.0360   -0.0183    0.0208   -0.0005    0.0104   -0.0062   -0.0069
          18    0.0328    0.0459   -0.0023    0.0045   -0.0135    0.0081   -0.0012   -0.0008
          19   -0.0035    0.0040    0.0024    0.0050   -0.0012   -0.0036   -0.0913    0.0861
          20    0.0016   -0.0072    0.0125   -0.0063   -0.0284    0.0151   -0.0359    0.0339
          21   -0.0111    0.0164   -0.0120    0.0144    0.0333   -0.0251   -0.0745    0.0702
          22    0.0035    0.0040    0.0024   -0.0050    0.0013   -0.0035   -0.0868   -0.0905
          23   -0.0016   -0.0072    0.0125    0.0064    0.0281    0.0154   -0.0342   -0.0356
          24    0.0111    0.0164   -0.0119   -0.0146   -0.0328   -0.0254   -0.0710   -0.0738
          25   -0.0112    0.0131   -0.0022    0.0087    0.0092   -0.0119    0.0968   -0.0912
          26   -0.0230    0.0284    0.0007    0.0142    0.0118   -0.0148    0.0540   -0.0509
          27    0.0195   -0.0232   -0.0047   -0.0086   -0.0018    0.0047    0.0551   -0.0520
          28    0.0112    0.0131   -0.0021   -0.0088   -0.0089   -0.0120    0.0921    0.0959
          29    0.0230    0.0284    0.0008   -0.0143   -0.0115   -0.0149    0.0514    0.0535
          30   -0.0195   -0.0231   -0.0048    0.0086    0.0017    0.0047    0.0524    0.0546
          31    0.0281    0.0036    0.0149   -0.0256    0.0225    0.0565    0.0015   -0.0018
          32    0.0061   -0.0312   -0.0122   -0.0095   -0.0465   -0.0155    0.0000   -0.0012
          33    0.0368   -0.0125    0.0060   -0.0197    0.0266    0.0326   -0.0025    0.0043
          34   -0.0281    0.0035    0.0147    0.0259   -0.0235    0.0561    0.0014    0.0019
          35   -0.0061   -0.0311   -0.0122    0.0094    0.0467   -0.0150    0.0000    0.0012
          36   -0.0368   -0.0125    0.0058    0.0198   -0.0272    0.0322   -0.0022   -0.0044
          37    0.0108    0.0020   -0.0128   -0.0039    0.0132   -0.0115   -0.0039    0.0033
          38   -0.0160    0.0136    0.0387   -0.0122   -0.0549    0.0480   -0.0129    0.0128
          39    0.0220   -0.0150   -0.0209    0.0086    0.0456   -0.0204    0.0171   -0.0165
          40   -0.0108    0.0020   -0.0129    0.0038   -0.0129   -0.0116   -0.0038   -0.0035
          41    0.0160    0.0135    0.0386    0.0126    0.0540    0.0486   -0.0122   -0.0134
          42   -0.0220   -0.0149   -0.0208   -0.0088   -0.0452   -0.0209    0.0162    0.0173
          43    0.0688   -0.0439    0.1562    0.1456   -0.0577   -0.0750   -0.0053    0.0046
          44   -0.0357    0.0467   -0.0013   -0.0058    0.0076    0.0102   -0.0131    0.0125
          45    0.0639   -0.0797   -0.0047   -0.0039   -0.0053   -0.0043    0.0129   -0.0119
          46    0.0299   -0.0146    0.0369    0.0281   -0.0054   -0.0111   -0.0050    0.0042
          47    0.0105    0.0197    0.1249    0.1165   -0.0402   -0.0554   -0.0132    0.0122
          48    0.1054   -0.0884    0.0828    0.0744   -0.0199   -0.0428    0.0120   -0.0116
          49   -0.0299   -0.0146    0.0371   -0.0280    0.0056   -0.0109   -0.0048   -0.0044
          50   -0.0106    0.0195    0.1257   -0.1160    0.0412   -0.0544   -0.0125   -0.0128
          51   -0.1055   -0.0882    0.0832   -0.0740    0.0207   -0.0423    0.0114    0.0121
          52   -0.0689   -0.0439    0.1571   -0.1450    0.0590   -0.0737   -0.0051   -0.0049
          53    0.0358    0.0465   -0.0014    0.0059   -0.0078    0.0101   -0.0125   -0.0132
          54   -0.0641   -0.0795   -0.0047    0.0038    0.0054   -0.0043    0.0123    0.0126
          55    0.0233   -0.0249    0.0067   -0.0320   -0.0294    0.0398    0.0044   -0.0043
          56    0.0093   -0.0080    0.0095   -0.0237   -0.0252    0.0342   -0.0471    0.0444
          57    0.0202   -0.0238   -0.0059   -0.0088    0.0002    0.0042    0.0766   -0.0723
          58    0.0295   -0.0372    0.0127   -0.0177   -0.0304    0.0275   -0.0365    0.0345
          59   -0.0029    0.0005    0.0100   -0.0005   -0.0203    0.0083   -0.0664    0.0626
          60    0.0513   -0.0545   -0.0005   -0.0219   -0.0030    0.0236    0.0469   -0.0443
          61   -0.0233   -0.0250    0.0065    0.0322    0.0286    0.0400    0.0041    0.0045
          62   -0.0093   -0.0081    0.0094    0.0240    0.0246    0.0344   -0.0448   -0.0466
          63   -0.0202   -0.0237   -0.0059    0.0088   -0.0003    0.0041    0.0728    0.0760
          64   -0.0296   -0.0372    0.0126    0.0179    0.0298    0.0277   -0.0347   -0.0363
          65    0.0029    0.0005    0.0100    0.0006    0.0202    0.0086   -0.0632   -0.0658
          66   -0.0514   -0.0544   -0.0006    0.0220    0.0026    0.0235    0.0445    0.0465


   Root No.      49        50        51        52        53        54        55        56

                49 A      50 A      51 A      52 A      53 A      54 A      55 A      56 A   

                2972.7    2973.0    2992.4    2995.7    3007.4    3008.9    3050.3    3050.3
  
           1    0.0026   -0.0016   -0.0054    0.0007    0.0197    0.0138    0.0008   -0.0011
           2    0.0003   -0.0001   -0.0008    0.0000    0.0008    0.0004    0.0000    0.0000
           3   -0.0034    0.0019    0.0071   -0.0007   -0.0254   -0.0190   -0.0005    0.0008
           4    0.0018    0.0025   -0.0054   -0.0010   -0.0190    0.0145   -0.0011   -0.0007
           5    0.0002    0.0002   -0.0008    0.0000   -0.0008    0.0004    0.0000    0.0000
           6   -0.0024   -0.0032    0.0071    0.0011    0.0244   -0.0199    0.0008    0.0006
           7    0.0002    0.0002   -0.0009    0.0010    0.0000    0.0003   -0.0001    0.0002
           8    0.0012    0.0011   -0.0147    0.0214   -0.0005   -0.0057    0.0005    0.0006
           9    0.0016    0.0017   -0.0188    0.0259   -0.0009   -0.0076    0.0005    0.0009
          10    0.0003   -0.0001   -0.0009   -0.0010    0.0000    0.0003    0.0001    0.0001
          11    0.0015   -0.0005   -0.0141   -0.0220    0.0001   -0.0058   -0.0002    0.0007
          12    0.0021   -0.0008   -0.0182   -0.0267    0.0004   -0.0077   -0.0002    0.0011
          13   -0.0184    0.0125   -0.0026   -0.0018    0.0017    0.0008    0.0136   -0.0196
          14    0.0210   -0.0142    0.0025    0.0008   -0.0036   -0.0026    0.0076   -0.0110
          15    0.0144   -0.0098    0.0019    0.0007   -0.0027   -0.0019    0.0050   -0.0072
          16   -0.0120   -0.0191   -0.0026    0.0017   -0.0017    0.0008   -0.0199   -0.0134
          17    0.0136    0.0217    0.0025   -0.0007    0.0035   -0.0027   -0.0112   -0.0075
          18    0.0094    0.0149    0.0019   -0.0006    0.0026   -0.0020   -0.0073   -0.0049
          19   -0.0001    0.0001    0.0001   -0.0003   -0.0001    0.0002    0.0000   -0.0001
          20    0.0000   -0.0001    0.0003   -0.0003    0.0001    0.0000    0.0001   -0.0001
          21    0.0001   -0.0001   -0.0002    0.0003    0.0000    0.0000   -0.0001    0.0002
          22   -0.0001   -0.0001    0.0001    0.0003    0.0001    0.0002    0.0000    0.0000
          23    0.0000    0.0001    0.0003    0.0004   -0.0001    0.0000   -0.0001   -0.0001
          24    0.0000    0.0001   -0.0002   -0.0003    0.0000    0.0000    0.0001    0.0001
          25    0.0000    0.0000    0.0001   -0.0002    0.0000    0.0000   -0.0001    0.0001
          26    0.0000    0.0000    0.0000    0.0000   -0.0001   -0.0001    0.0004   -0.0006
          27    0.0000    0.0000    0.0000    0.0000    0.0000    0.0000   -0.0006    0.0009
          28    0.0000    0.0000    0.0001    0.0002    0.0000    0.0000    0.0001    0.0000
          29    0.0000    0.0000    0.0000    0.0000    0.0001   -0.0001   -0.0006   -0.0004
          30    0.0000    0.0000    0.0000    0.0000    0.0000    0.0000    0.0009    0.0006
          31   -0.0333    0.0190    0.0646   -0.0062   -0.2319   -0.1727   -0.0064    0.0100
          32   -0.0005    0.0004    0.0020    0.0023   -0.0082   -0.0061    0.0000    0.0001
          33    0.0408   -0.0226   -0.0881    0.0077    0.3056    0.2264    0.0095   -0.0146
          34   -0.0230   -0.0313    0.0642    0.0097    0.2231   -0.1808    0.0096    0.0070
          35   -0.0004   -0.0006    0.0021   -0.0022    0.0079   -0.0064    0.0001    0.0001
          36    0.0284    0.0377   -0.0875   -0.0124   -0.2939    0.2368   -0.0143   -0.0101
          37    0.0000   -0.0001    0.0062   -0.0086    0.0027    0.0026   -0.0006   -0.0005
          38   -0.0151   -0.0148    0.1829   -0.2535    0.0080    0.0742   -0.0060   -0.0074
          39   -0.0185   -0.0172    0.2255   -0.3112    0.0101    0.0884   -0.0077   -0.0094
          40    0.0000    0.0001    0.0060    0.0088   -0.0026    0.0027    0.0004   -0.0007
          41   -0.0195    0.0071    0.1766    0.2609   -0.0039    0.0750    0.0028   -0.0090
          42   -0.0235    0.0079    0.2178    0.3204   -0.0052    0.0895    0.0037   -0.0115
          43   -0.0015    0.0010    0.0000    0.0003    0.0001    0.0000    0.0130   -0.0188
          44   -0.2060    0.1392   -0.0228   -0.0085    0.0411    0.0310   -0.1408    0.2030
          45   -0.1406    0.0950   -0.0151   -0.0049    0.0288    0.0221   -0.0964    0.1389
          46    0.2222   -0.1508    0.0341    0.0215   -0.0214   -0.0085   -0.1759    0.2540
          47   -0.0462    0.0314   -0.0076   -0.0049    0.0037    0.0008    0.0496   -0.0715
          48   -0.0346    0.0234   -0.0047   -0.0037    0.0003   -0.0010    0.0357   -0.0515
          49    0.1442    0.2307    0.0347   -0.0202    0.0210   -0.0093    0.2582    0.1729
          50   -0.0300   -0.0481   -0.0077    0.0046   -0.0036    0.0010   -0.0728   -0.0488
          51   -0.0224   -0.0358   -0.0048    0.0035   -0.0003   -0.0010   -0.0522   -0.0350
          52   -0.0010   -0.0016    0.0000   -0.0003   -0.0001    0.0001   -0.0191   -0.0128
          53   -0.1340   -0.2133   -0.0231    0.0075   -0.0395    0.0325    0.2067    0.1382
          54   -0.0914   -0.1455   -0.0152    0.0042   -0.0277    0.0231    0.1414    0.0945
          55   -0.0003    0.0001    0.0007   -0.0015    0.0008    0.0009    0.0029   -0.0043
          56    0.0003   -0.0001   -0.0005    0.0013   -0.0012   -0.0012   -0.0020    0.0029
          57    0.0007   -0.0007    0.0016   -0.0033    0.0025    0.0026    0.0068   -0.0101
          58   -0.0003    0.0006   -0.0025    0.0042   -0.0017   -0.0023   -0.0025    0.0040
          59    0.0001    0.0004   -0.0029    0.0052   -0.0021   -0.0033   -0.0030    0.0049
          60    0.0003   -0.0003    0.0002   -0.0007    0.0008    0.0010    0.0010   -0.0016
          61   -0.0003   -0.0002    0.0007    0.0016   -0.0008    0.0009   -0.0043   -0.0029
          62    0.0002    0.0002   -0.0005   -0.0014    0.0011   -0.0012    0.0029    0.0020
          63    0.0004    0.0010    0.0015    0.0033   -0.0024    0.0027   -0.0101   -0.0069
          64   -0.0001   -0.0007   -0.0024   -0.0043    0.0016   -0.0023    0.0038    0.0029
          65    0.0002   -0.0003   -0.0028   -0.0053    0.0019   -0.0033    0.0046    0.0035
          66    0.0002    0.0004    0.0002    0.0007   -0.0008    0.0010   -0.0015   -0.0011


   Root No.      57        58        59        60

                57 A      58 A      59 A      60 A   

                3114.6    3114.6    3133.9    3134.1
  
           1    0.0000    0.0000    0.0003   -0.0002
           2   -0.0001    0.0000    0.0004   -0.0002
           3    0.0002    0.0001   -0.0006    0.0004
           4    0.0000    0.0000    0.0002    0.0003
           5    0.0000   -0.0001    0.0002    0.0004
           6   -0.0001    0.0002   -0.0004   -0.0007
           7    0.0001    0.0001   -0.0004    0.0002
           8   -0.0001    0.0000   -0.0003    0.0002
           9    0.0001    0.0000   -0.0009    0.0005
          10    0.0000    0.0001   -0.0002   -0.0004
          11    0.0001   -0.0001   -0.0002   -0.0004
          12    0.0000    0.0001   -0.0006   -0.0008
          13   -0.0003   -0.0001    0.0010   -0.0007
          14   -0.0001    0.0000    0.0007   -0.0004
          15   -0.0002   -0.0001    0.0004   -0.0002
          16    0.0001   -0.0003    0.0007    0.0010
          17    0.0000   -0.0001    0.0004    0.0007
          18    0.0001   -0.0002    0.0002    0.0003
          19   -0.0142   -0.0051   -0.0185    0.0117
          20   -0.0180   -0.0065   -0.0208    0.0131
          21    0.0069    0.0025    0.0049   -0.0031
          22    0.0051   -0.0142   -0.0117   -0.0185
          23    0.0065   -0.0180   -0.0132   -0.0207
          24   -0.0025    0.0070    0.0031    0.0049
          25   -0.0103   -0.0038    0.0092   -0.0058
          26    0.0098    0.0036   -0.0049    0.0031
          27   -0.0286   -0.0104    0.0198   -0.0126
          28    0.0037   -0.0103    0.0058    0.0092
          29   -0.0036    0.0099   -0.0031   -0.0049
          30    0.0103   -0.0287    0.0125    0.0198
          31    0.0006    0.0001   -0.0023    0.0013
          32    0.0001    0.0000    0.0000    0.0000
          33   -0.0006    0.0000    0.0031   -0.0018
          34   -0.0004    0.0005   -0.0016   -0.0022
          35   -0.0001    0.0000   -0.0001    0.0000
[...]
 FREQ.      1263.97        C  2 --  C  4           +8.2% ( 47.2%)    62.1%
 T-DIPOLE    0.0485        C  1 --  C  3           +8.1% ( 47.1%)    62.1%
 TRAVEL      0.0791        C  2 --  C  3           +7.9% ( 46.3%)    38.3%
 RED. MASS   1.0339        C  1 --  C  4           +7.9% ( 46.3%)    38.3%
 EFF. MASS   8.5306

 VIBRATION   40   40A       ATOM PAIR        ENERGY CONTRIBUTION    RADIAL
 FREQ.      1330.65        C  1 --  C  2          +11.2% ( 54.5%)    61.7%
 T-DIPOLE    0.0001        C  2 --  C  6           +9.7% ( 50.7%)    91.6%
 TRAVEL      0.0767        C  1 --  C  5           +9.7% ( 50.7%)    91.6%
 RED. MASS   1.2157        C  1 --  H 11           +6.8% ( 42.4%)     0.0%
 EFF. MASS   8.6030

 VIBRATION   41   41A       ATOM PAIR        ENERGY CONTRIBUTION    RADIAL
 FREQ.      1354.42        C  6 --  C 10          +10.8% ( 46.2%)    88.1%
 T-DIPOLE    0.0001        C  5 --  C  9          +10.7% ( 46.2%)    88.1%
 TRAVEL      0.0833        C  6 --  H 17           +8.2% ( 40.5%)     0.2%
 RED. MASS   0.7324        C  5 --  H 16           +8.2% ( 40.4%)     0.2%
 EFF. MASS   7.1734

 VIBRATION   42   42A       ATOM PAIR        ENERGY CONTRIBUTION    RADIAL
 FREQ.      1362.51        C  5 --  C  9          +11.7% ( 51.6%)    84.5%
 T-DIPOLE    0.0949        C  6 --  C 10          +11.7% ( 51.5%)    84.5%
 TRAVEL      0.0748        C  5 --  H 15           +8.2% ( 43.1%)     0.1%
 RED. MASS   1.3028        C  6 --  H 18           +8.1% ( 43.0%)     0.1%
 EFF. MASS   8.8542

 VIBRATION   43   43A       ATOM PAIR        ENERGY CONTRIBUTION    RADIAL
 FREQ.      1394.20        C  6 --  H 18          +10.1% ( 39.4%)     4.5%
 T-DIPOLE    0.1197        C  5 --  H 15          +10.0% ( 39.1%)     4.5%
 TRAVEL      0.1033        C  6 --  H 17           +9.8% ( 38.8%)     4.6%
 RED. MASS   0.3184        C  5 --  H 16           +9.7% ( 38.5%)     4.6%
 EFF. MASS   4.5322

 VIBRATION   44   44A       ATOM PAIR        ENERGY CONTRIBUTION    RADIAL
 FREQ.      1405.32        C  5 --  H 15          +12.0% ( 42.3%)     5.5%
 T-DIPOLE    0.0004        C  6 --  H 18          +11.9% ( 42.2%)     5.5%
 TRAVEL      0.0999        C  5 --  H 16          +11.2% ( 40.9%)     6.7%
 RED. MASS   0.3790        C  6 --  H 17          +11.1% ( 40.8%)     6.7%
 EFF. MASS   4.8077

 VIBRATION   45   45A       ATOM PAIR        ENERGY CONTRIBUTION    RADIAL
 FREQ.      1419.02        C  3 --  C  4          +12.1% ( 59.7%)    60.7%
 T-DIPOLE    0.0006        C  3 --  C  7          +10.5% ( 55.6%)    89.3%
 TRAVEL      0.0671        C  4 --  C  8          +10.2% ( 55.0%)    89.1%
 RED. MASS   1.7912        C  2 --  C  3           +8.1% ( 49.0%)    63.6%
 EFF. MASS  10.5449

 VIBRATION   46   46A       ATOM PAIR        ENERGY CONTRIBUTION    RADIAL
 FREQ.      1420.57        C  4 --  C  8           +8.5% ( 45.8%)    98.8%
 T-DIPOLE    0.0582        C  3 --  C  7           +8.2% ( 45.1%)    98.9%
 TRAVEL      0.0744        C  3 --  C  4           +7.6% ( 43.3%)    61.3%
 RED. MASS   0.7993        C  1 --  C  4           +6.5% ( 40.2%)    35.4%
 EFF. MASS   8.5817

 VIBRATION   47   47A       ATOM PAIR        ENERGY CONTRIBUTION    RADIAL
 FREQ.      1819.79        C  7 --  C  9          +24.0% ( 72.5%)   100.0%
 T-DIPOLE    0.1698        C  8 --  C 10          +21.8% ( 69.0%)   100.0%
 TRAVEL      0.0558        C  5 --  C  9           +7.4% ( 40.1%)    25.9%
 RED. MASS   2.7054        C  3 --  C  7           +7.3% ( 39.9%)    25.7%
 EFF. MASS  11.8813

 VIBRATION   48   48A       ATOM PAIR        ENERGY CONTRIBUTION    RADIAL
 FREQ.      1820.19        C  8 --  C 10          +24.0% ( 72.5%)   100.0%
 T-DIPOLE    0.0044        C  7 --  C  9          +21.8% ( 69.0%)   100.0%
 TRAVEL      0.0558        C  6 --  C 10           +7.4% ( 40.1%)    26.2%
 RED. MASS   2.7025        C  4 --  C  8           +7.3% ( 39.8%)    25.4%
 EFF. MASS  11.8807

 VIBRATION   49   49A       ATOM PAIR        ENERGY CONTRIBUTION    RADIAL
 FREQ.      2972.75        C  5 --  H 15          +35.8% ( 62.1%)    97.1%
 T-DIPOLE    0.0633        C  5 --  H 16          +30.7% ( 57.5%)    96.2%
 TRAVEL      0.1214        C  6 --  H 18          +15.1% ( 40.4%)    97.1%
 RED. MASS   0.2845        C  6 --  H 17          +12.9% ( 37.3%)    96.2%
 EFF. MASS   1.5403

 VIBRATION   50   50A       ATOM PAIR        ENERGY CONTRIBUTION    RADIAL
 FREQ.      2972.98        C  6 --  H 18          +36.0% ( 62.2%)    97.1%
 T-DIPOLE    0.0134        C  6 --  H 17          +31.1% ( 57.9%)    96.2%
 TRAVEL      0.1213        C  5 --  H 15          +15.3% ( 40.6%)    97.1%
 RED. MASS   0.2899        C  5 --  H 16          +13.3% ( 37.8%)    96.2%
 EFF. MASS   1.5417

 VIBRATION   51   51A       ATOM PAIR        ENERGY CONTRIBUTION    RADIAL
 FREQ.      2992.38        C  3 --  H 13          +42.2% ( 66.5%)   100.0%
 T-DIPOLE    0.1615        C  4 --  H 14          +39.3% ( 64.3%)   100.0%
 TRAVEL      0.1247        C  1 --  H 11           +6.0% ( 25.1%)   100.0%
 RED. MASS   0.3468        C  2 --  H 12           +5.9% ( 24.9%)   100.0%
 EFF. MASS   1.4490

 VIBRATION   52   52A       ATOM PAIR        ENERGY CONTRIBUTION    RADIAL
 FREQ.      2995.68        C  4 --  H 14          +48.8% ( 71.5%)   100.0%
 T-DIPOLE    0.0026        C  3 --  H 13          +46.1% ( 69.5%)   100.0%
 TRAVEL      0.1240        C  3 --  C  4           +1.2% ( 11.2%)    40.5%
 RED. MASS   0.4609        C  2 --  C  4           +0.6% (  7.8%)    19.0%
 EFF. MASS   1.4643

 VIBRATION   53   53A       ATOM PAIR        ENERGY CONTRIBUTION    RADIAL
 FREQ.      3007.45        C  1 --  H 11          +48.6% ( 71.3%)   100.0%
 T-DIPOLE    0.0054        C  2 --  H 12          +44.9% ( 68.6%)   100.0%
 TRAVEL      0.1238        C  1 --  C  2           +1.2% ( 11.0%)    37.6%
 RED. MASS   0.4465        C  5 --  H 15           +0.8% (  9.4%)    99.3%
 EFF. MASS   1.4622

 VIBRATION   54   54A       ATOM PAIR        ENERGY CONTRIBUTION    RADIAL
 FREQ.      3008.86        C  2 --  H 12          +42.6% ( 66.6%)   100.0%
 T-DIPOLE    0.2504        C  1 --  H 11          +38.9% ( 63.6%)   100.0%
 TRAVEL      0.1250        C  4 --  H 14           +6.5% ( 26.0%)   100.0%
 RED. MASS   0.3444        C  3 --  H 13           +6.3% ( 25.7%)   100.0%
 EFF. MASS   1.4353

 VIBRATION   55   55A       ATOM PAIR        ENERGY CONTRIBUTION    RADIAL
 FREQ.      3050.27        C  6 --  H 17          +36.5% ( 59.6%)    98.0%
 T-DIPOLE    0.0238        C  6 --  H 18          +30.5% ( 54.5%)    96.9%
 TRAVEL      0.1312        C  5 --  H 16          +17.0% ( 40.6%)    98.0%
 RED. MASS   0.2742        C  5 --  H 15          +14.2% ( 37.1%)    96.9%
 EFF. MASS   1.2836

 VIBRATION   56   56A       ATOM PAIR        ENERGY CONTRIBUTION    RADIAL
 FREQ.      3050.28        C  5 --  H 16          +36.5% ( 59.6%)    98.0%
 T-DIPOLE    0.1263        C  5 --  H 15          +30.5% ( 54.5%)    96.9%
 TRAVEL      0.1312        C  6 --  H 17          +16.9% ( 40.6%)    98.0%
 RED. MASS   0.2735        C  6 --  H 18          +14.1% ( 37.1%)    96.9%
 EFF. MASS   1.2846

 VIBRATION   57   57A       ATOM PAIR        ENERGY CONTRIBUTION    RADIAL
 FREQ.      3114.55        C  9 --  H 19          +54.0% ( 74.6%)   100.0%
 T-DIPOLE    0.2168        C  7 --  H 20          +32.1% ( 57.6%)   100.0%
 TRAVEL      0.1215        C 10 --  H 21           +7.1% ( 27.0%)   100.0%
 RED. MASS   0.3934        C  8 --  H 22           +4.2% ( 20.9%)    99.9%
 EFF. MASS   1.4655

 VIBRATION   58   58A       ATOM PAIR        ENERGY CONTRIBUTION    RADIAL
 FREQ.      3114.63        C 10 --  H 21          +54.0% ( 74.7%)   100.0%
 T-DIPOLE    0.4630        C  8 --  H 22          +32.1% ( 57.5%)    99.9%
 TRAVEL      0.1215        C  9 --  H 19           +7.1% ( 27.1%)   100.0%
 RED. MASS   0.3938        C  7 --  H 20           +4.2% ( 20.7%)   100.0%
 EFF. MASS   1.4657

 VIBRATION   59   59A       ATOM PAIR        ENERGY CONTRIBUTION    RADIAL
 FREQ.      3133.95        C  7 --  H 20          +43.0% ( 66.8%)    99.9%
 T-DIPOLE    0.4832        C  9 --  H 19          +25.2% ( 51.2%)    99.9%
 TRAVEL      0.1144        C  8 --  H 22          +17.3% ( 42.3%)   100.0%
 RED. MASS   0.2939        C 10 --  H 21          +10.1% ( 32.4%)    99.9%
 EFF. MASS   1.6431

 VIBRATION   60   60A       ATOM PAIR        ENERGY CONTRIBUTION    RADIAL
 FREQ.      3134.08        C  8 --  H 22          +42.9% ( 66.7%)   100.0%
 T-DIPOLE    0.1084        C 10 --  H 21          +25.3% ( 51.3%)    99.9%
 TRAVEL      0.1144        C  7 --  H 20          +17.2% ( 42.2%)    99.9%
 RED. MASS   0.2934        C  9 --  H 19          +10.2% ( 32.5%)    99.9%
 EFF. MASS   1.6432

 SYMMETRY NUMBER FOR POINT-GROUP C1  =  1


          SYSTEM IS A GROUND STATE


    NULL



          MOLECULE IS NOT LINEAR

          THERE ARE 60 GENUINE VIBRATIONS IN THIS SYSTEM
          THIS THERMODYNAMICS CALCULATION IS LIMITED TO
          MOLECULES WHICH HAVE NO INTERNAL ROTATIONS




                    CALCULATED THERMODYNAMIC PROPERTIES
                                          *
   TEMP. (K)   PARTITION FUNCTION   H.O.F.    ENTHALPY  HEAT CAPACITY ENTROPY
                                   KCAL/MOL   CAL/MOLE    CAL/K/MOL  CAL/K/MOL


 298.00  VIB.     0.1645D+02                  2846.2488    25.2690    15.1163
         ROT.     0.4705D+06                   888.2813     2.9808    28.9370
         INT.     0.7742D+07                  3734.5301    28.2498    44.0533
         TRA.     0.1470D+28                  1480.4688     4.9680    40.5480
         TOT.                       35.533    5214.9989    33.2178    84.6013

 200.00  VIB.     0.4021D+01                  1002.4845    12.9162     7.7774
         ROT.     0.2587D+06                   596.1620     2.9808    27.7483
         INT.     0.1040D+07                  1598.6465    15.8970    35.5258
         TRA.     0.8080D+27                   993.6033     4.9680    38.5668
         TOT.                       32.910    2592.2497    20.8650    74.0926

 210.00  VIB.     0.4569D+01                  1137.0051    13.9967     8.4336
         ROT.     0.2784D+06                   625.9700     2.9808    27.8938
         INT.     0.1272D+07                  1762.9751    16.9776    36.3273
         TRA.     0.8694D+27                  1043.2834     4.9680    38.8092
         TOT.                       33.124    2806.2585    21.9456    75.1365

 220.00  VIB.     0.5212D+01                  1282.5919    15.1290     9.1106
         ROT.     0.2985D+06                   655.7781     2.9808    28.0324
         INT.     0.1556D+07                  1938.3700    18.1098    37.1431
         TRA.     0.9322D+27                  1092.9636     4.9680    39.0403
         TOT.                       33.349    3031.3336    23.0779    76.1834

 230.00  VIB.     0.5966D+01                  1439.7480    16.3100     9.8090
         ROT.     0.3191D+06                   685.5862     2.9808    28.1649
         INT.     0.1903D+07                  2125.3342    19.2908    37.9739
         TRA.     0.9965D+27                  1142.6437     4.9680    39.2612
         TOT.                       33.586    3267.9780    24.2588    77.2351

 240.00  VIB.     0.6854D+01                  1608.9411    17.5357    10.5289
         ROT.     0.3401D+06                   715.3943     2.9808    28.2918
         INT.     0.2331D+07                  2324.3355    20.5165    38.8207
         TRA.     0.1062D+28                  1192.3239     4.9680    39.4726
         TOT.                       33.835    3516.6594    25.4845    78.2933

 250.00  VIB.     0.7902D+01                  1790.5956    18.8014    11.2703
         ROT.     0.3616D+06                   745.2024     2.9808    28.4135
         INT.     0.2857D+07                  2535.7980    21.7823    39.6838
         TRA.     0.1129D+28                  1242.0041     4.9680    39.6754
         TOT.                       34.096    3777.8021    26.7503    79.3592

 260.00  VIB.     0.9144D+01                  1985.0866    20.1021    12.0329
         ROT.     0.3835D+06                   775.0105     2.9808    28.5304
         INT.     0.3507D+07                  2760.0971    23.0829    40.5633
         TRA.     0.1198D+28                  1291.6842     4.9680    39.8703
         TOT.                       34.370    4051.7814    28.0510    80.4336

 270.00  VIB.     0.1062D+02                  2192.7369    21.4324    12.8164
         ROT.     0.4058D+06                   804.8186     2.9808    28.6429
         INT.     0.4310D+07                  2997.5556    24.4132    41.4593
         TRA.     0.1267D+28                  1341.3644     4.9680    40.0578
         TOT.                       34.657    4338.9199    29.3812    81.5171

 280.00  VIB.     0.1238D+02                  2413.8155    22.7869    13.6203
         ROT.     0.4286D+06                   834.6267     2.9808    28.7513
         INT.     0.5304D+07                  3248.4422    25.7677    42.3716
         TRA.     0.1338D+28                  1391.0445     4.9680    40.2384
         TOT.                       34.957    4639.4867    30.7357    82.6100

 290.00  VIB.     0.1448D+02                  2648.5372    24.1602    14.4438
         ROT.     0.4517D+06                   864.4348     2.9808    28.8559
         INT.     0.6540D+07                  3512.9721    27.1410    43.2997
         TRA.     0.1411D+28                  1440.7247     4.9680    40.4128
         TOT.                       35.272    4953.6968    32.1090    83.7125

 300.00  VIB.     0.1699D+02                  2897.0649    25.5472    15.2862
         ROT.     0.4753D+06                   894.2429     2.9808    28.9569
         INT.     0.8077D+07                  3791.3078    28.5280    44.2432
         TRA.     0.1484D+28                  1490.4049     4.9680    40.5812
         TOT.                       35.600    5281.7127    33.4960    84.8244

 310.00  VIB.     0.2002D+02                  3159.5110    26.9431    16.1467
         ROT.     0.4993D+06                   924.0510     2.9808    29.0547
         INT.     0.9993D+07                  4083.5620    29.9239    45.2014
         TRA.     0.1559D+28                  1540.0850     4.9680    40.7441
         TOT.                       35.942    5623.6471    34.8919    85.9455

 320.00  VIB.     0.2366D+02                  3435.9410    28.3433    17.0242
         ROT.     0.5236D+06                   953.8591     2.9808    29.1493
         INT.     0.1239D+08                  4389.8001    31.3241    46.1735
         TRA.     0.1635D+28                  1589.7652     4.9680    40.9018
         TOT.                       36.298    5979.5653    36.2921    87.0753

 330.00  VIB.     0.2806D+02                  3726.3767    29.7436    17.9178
         ROT.     0.5483D+06                   983.6672     2.9808    29.2410
         INT.     0.1538D+08                  4710.0439    32.7244    47.1588
         TRA.     0.1713D+28                  1639.4454     4.9680    41.0547
         TOT.                       36.667    6349.4893    37.6924    88.2135

 340.00  VIB.     0.3338D+02                  4030.8001    31.1402    18.8265
         ROT.     0.5735D+06                  1013.4753     2.9808    29.3300
         INT.     0.1914D+08                  5044.2754    34.1210    48.1565
         TRA.     0.1791D+28                  1689.1255     4.9680    41.2030
         TOT.                       37.051    6733.4009    39.0890    89.3595

 350.00  VIB.     0.3985D+02                  4349.1573    32.5298    19.7492
         ROT.     0.5989D+06                  1043.2834     2.9808    29.4164
         INT.     0.2387D+08                  5392.4407    35.5106    49.1657
         TRA.     0.1871D+28                  1738.8057     4.9680    41.3470
         TOT.                       37.449    7131.2464    40.4786    90.5127

 360.00  VIB.     0.4772D+02                  4681.3622    33.9093    20.6850
         ROT.     0.6248D+06                  1073.0915     2.9808    29.5004
         INT.     0.2981D+08                  5754.4537    36.8901    50.1854
         TRA.     0.1951D+28                  1788.4859     4.9680    41.4870
         TOT.                       37.861    7542.9395    41.8581    91.6724

 370.00  VIB.     0.5732D+02                  5027.3006    35.2761    21.6327
         ROT.     0.6510D+06                  1102.8996     2.9808    29.5821
         INT.     0.3731D+08                  6130.2002    38.2569    51.2148
         TRA.     0.2033D+28                  1838.1660     4.9680    41.6231
         TOT.                       38.286    7968.3662    43.2249    92.8379

 380.00  VIB.     0.6905D+02                  5386.8337    36.6279    22.5915
         ROT.     0.6776D+06                  1132.7077     2.9808    29.6616
         INT.     0.4679D+08                  6519.5414    39.6087    52.2530
         TRA.     0.2116D+28                  1887.8462     4.9680    41.7556
         TOT.                       38.725    8407.3876    44.5767    94.0086

 390.00  VIB.     0.8343D+02                  5759.8016    37.9627    23.5602
         ROT.     0.7045D+06                  1162.5158     2.9808    29.7390
         INT.     0.5878D+08                  6922.3174    40.9435    53.2992
         TRA.     0.2200D+28                  1937.5263     4.9680    41.8846
         TOT.                       39.178    8859.8438    45.9116    95.1838

 400.00  VIB.     0.1011D+03                  6146.0266    39.2790    24.5380
         ROT.     0.7318D+06                  1192.3239     2.9808    29.8145
         INT.     0.7397D+08                  7338.3505    42.2599    54.3524
         TRA.     0.2285D+28                  1987.2065     4.9680    42.0104
         TOT.                       39.643    9325.5570    47.2279    96.3628

   *: NOTE: HEATS OF FORMATION ARE RELATIVE TO THE
            ELEMENTS IN THEIR STANDARD STATE AT 298K
              (=  Standard Enthalpy of Formation).

            Hvib:  Zero-point energy is not included.
                   frequencies of less than zero cm-1 are not included.
            Hrot = (3/2)RT
            Htra = (3/2)RT + pV = (5/2)RT

            Heat capacity is Cp, not Cv

           For more information, see: HTTP://OpenMOPAC.net/Manual/thermochemistry.html


           FORCE CONSTANT IN CARTESIAN COORDINATES (Millidynes/A)

    ATOM   CHEMICAL       X               Y               Z
   NUMBER   SYMBOL  FORCE CONSTANT  FORCE CONSTANT  FORCE CONSTANT

      1       C        9.152497        6.322596        8.991298
      2       C        9.152795        6.322108        8.989300
      3       C        6.230646        9.268190        9.648315
      4       C        6.230249        9.267930        9.649785
      5       C        9.029905        8.546148        7.714858
      6       C        9.028737        8.546884        7.715065
      7       C       10.456173        8.213291        8.853070
      8       C       10.454062        8.213838        8.856173
      9       C        9.686974        6.725034       10.861712
     10       C        9.681240        6.724743       10.867733
     11       H        2.306972        0.643876        3.436006
     12       H        2.308150        0.643818        3.434967
     13       H        0.653551        2.405838        3.255737
     14       H        0.653514        2.405421        3.256505
     15       H        0.691447        3.627255        2.055609
     16       H        4.665309        0.888277        0.831497
     17       H        4.665193        0.888961        0.830939
     18       H        0.691395        3.628600        2.054497
     19       H        1.019643        1.041199        4.358720
     20       H        2.263559        3.173499        0.980033
     21       H        1.017868        1.040257        4.361469
     22       H        2.264217        3.173332        0.979542



 TOTAL CPU TIME:             2.63 SECONDS

 == MOPAC DONE ==
