 *******************************************************************************
 ** Site#: 14399           For non-commercial use only        Version 13.159M **
 *******************************************************************************
 ** Cite this work as: MOPAC2012, James J. P. Stewart, Stewart Computational  **
 ** Chemistry, Version 13.159M web: HTTP://OpenMOPAC.net  Days remaining:   6 **
 *******************************************************************************
 **                                                                           **
 **                                MOPAC2012                                  **
 **                                                                           **
 *******************************************************************************

                            PM3 CALCULATION RESULTS


 *******************************************************************************
 *  CALCULATION DONE:                                Mon Jun  2 11:11:02 2014  *
 *  PM3      - The PM3 Hamiltonian to be used
 *  PRECISE  - CRITERIA TO BE INCREASED BY 100 TIMES
 *  NOSYM    - POINT-GROUP SYMMETRY SET TO C1
 *  T=       - A TIME OF 172800.0 SECONDS REQUESTED
 *  DUMP=N   - RESTART FILE WRITTEN EVERY  7200.000 SECONDS
 *******************************************************************************
pm3  precise nosym
 InChI=1S/C10H14/c1-3-9(4-2)10-7-5-6-8-10/h3-6,9-10H,1-2,7-8H2

   ATOM   CHEMICAL          X               Y               Z
  NUMBER   SYMBOL      (ANGSTROMS)     (ANGSTROMS)     (ANGSTROMS)
 
     1       C         -0.63130000  *   0.10150000  *   0.43710000  *
     2       C          0.85100000  *  -0.03120000  *   0.02780000  *
     3       C         -1.37820000  *   1.25660000  *  -0.25080000  *
     4       C         -1.48000000  *  -1.15100000  *   0.16140000  *
     5       C         -2.73270000  *   0.70030000  *  -0.50630000  *
     6       C         -2.78780000  *  -0.60200000  *  -0.28340000  *
     7       C          1.51690000  *  -1.17060000  *   0.75870000  *
     8       C          1.61830000  *   1.22760000  *   0.34820000  *
     9       C          2.06640000  *  -2.21400000  *   0.13120000  *
    10       C          2.24270000  *   1.95450000  *  -0.58240000  *
    11       H         -0.68290000  *   0.29220000  *   1.53830000  *
    12       H          0.87340000  *  -0.22070000  *  -1.07360000  *
    13       H         -0.93230000  *   1.54870000  *  -1.22980000  *
    14       H         -1.43850000  *   2.15450000  *   0.40650000  *
    15       H         -1.60450000  *  -1.77160000  *   1.07860000  *
    16       H         -1.07340000  *  -1.78720000  *  -0.65870000  *
    17       H         -3.56980000  *   1.27990000  *  -0.89030000  *
    18       H          1.54850000  *  -1.14630000  *   1.84810000  *
    19       H          1.66310000  *   1.56380000  *   1.38420000  *
    20       H         -3.67490000  *  -1.20560000  *  -0.46490000  *
    21       H          2.53230000  *  -3.01190000  *   0.70630000  *
    22       H          2.06280000  *  -2.29520000  *  -0.95440000  *
    23       H          2.23040000  *   1.67070000  *  -1.63330000  *
    24       H          2.78050000  *   2.85700000  *  -0.29840000  *
 


          CARTESIAN COORDINATES 

    NO.       ATOM         X         Y         Z

     1         C       -0.6313    0.1015    0.4371
     2         C        0.8510   -0.0312    0.0278
     3         C       -1.3782    1.2566   -0.2508
     4         C       -1.4800   -1.1510    0.1614
     5         C       -2.7327    0.7003   -0.5063
     6         C       -2.7878   -0.6020   -0.2834
     7         C        1.5169   -1.1706    0.7587
     8         C        1.6183    1.2276    0.3482
     9         C        2.0664   -2.2140    0.1312
    10         C        2.2427    1.9545   -0.5824
    11         H       -0.6829    0.2922    1.5383
    12         H        0.8734   -0.2207   -1.0736
    13         H       -0.9323    1.5487   -1.2298
    14         H       -1.4385    2.1545    0.4065
    15         H       -1.6045   -1.7716    1.0786
    16         H       -1.0734   -1.7872   -0.6587
    17         H       -3.5698    1.2799   -0.8903
    18         H        1.5485   -1.1463    1.8481
    19         H        1.6631    1.5638    1.3842
    20         H       -3.6749   -1.2056   -0.4649
    21         H        2.5323   -3.0119    0.7063
    22         H        2.0628   -2.2952   -0.9544
    23         H        2.2304    1.6707   -1.6333
    24         H        2.7805    2.8570   -0.2984

  H: (PM3): J. J. P. STEWART, J. COMP. CHEM. 10, 209 (1989).
  C: (PM3): J. J. P. STEWART, J. COMP. CHEM. 10, 209 (1989).

           Empirical Formula: C10 H14  =    24 atoms



      MOLECULAR POINT GROUP   :   C1  


      RHF CALCULATION, NO. OF DOUBLY OCCUPIED LEVELS =   27

      Geometry optimization using EF

          DIAGONAL MATRIX USED AS START HESSIAN

 CYCLE:     1 TIME:   0.016 TIME LEFT:  2.00D  GRAD.:    60.863 HEAT: 41.92868
 CYCLE:     2 TIME:   0.030 TIME LEFT:  2.00D  GRAD.:    35.923 HEAT: 41.20942
 CYCLE:     3 TIME:   0.010 TIME LEFT:  2.00D  GRAD.:    31.536 HEAT: 40.62318
 CYCLE:     4 TIME:   0.008 TIME LEFT:  2.00D  GRAD.:    36.767 HEAT: 40.06045
 CYCLE:     5 TIME:   0.015 TIME LEFT:  2.00D  GRAD.:    51.344 HEAT: 40.01709
 CYCLE:     6 TIME:   0.008 TIME LEFT:  2.00D  GRAD.:    32.733 HEAT: 39.66391
 CYCLE:     7 TIME:   0.015 TIME LEFT:  2.00D  GRAD.:    32.890 HEAT: 39.49690
 CYCLE:     8 TIME:   0.014 TIME LEFT:  2.00D  GRAD.:    15.923 HEAT: 39.33842
 CYCLE:     9 TIME:   0.008 TIME LEFT:  2.00D  GRAD.:    18.126 HEAT: 39.29765
 CYCLE:    10 TIME:   0.008 TIME LEFT:  2.00D  GRAD.:    10.750 HEAT: 39.18417
 CYCLE:    11 TIME:   0.014 TIME LEFT:  2.00D  GRAD.:    16.865 HEAT: 39.16814
 CYCLE:    12 TIME:   0.008 TIME LEFT:  2.00D  GRAD.:     9.763 HEAT: 39.08328
 CYCLE:    13 TIME:   0.020 TIME LEFT:  2.00D  GRAD.:     6.368 HEAT: 39.05016
 CYCLE:    14 TIME:   0.008 TIME LEFT:  2.00D  GRAD.:     8.246 HEAT: 39.02729
 CYCLE:    15 TIME:   0.008 TIME LEFT:  2.00D  GRAD.:     8.180 HEAT: 38.99322
 CYCLE:    16 TIME:   0.014 TIME LEFT:  2.00D  GRAD.:     8.401 HEAT: 38.97800
 CYCLE:    17 TIME:   0.008 TIME LEFT:  2.00D  GRAD.:     8.498 HEAT: 38.96415
 CYCLE:    18 TIME:   0.008 TIME LEFT:  2.00D  GRAD.:     8.202 HEAT: 38.94885
 CYCLE:    19 TIME:   0.008 TIME LEFT:  2.00D  GRAD.:     9.344 HEAT: 38.94665
 CYCLE:    20 TIME:   0.008 TIME LEFT:  2.00D  GRAD.:     6.529 HEAT: 38.92281
 CYCLE:    21 TIME:   0.014 TIME LEFT:  2.00D  GRAD.:     5.657 HEAT: 38.91465
 CYCLE:    22 TIME:   0.008 TIME LEFT:  2.00D  GRAD.:     4.129 HEAT: 38.90353
 CYCLE:    23 TIME:   0.008 TIME LEFT:  2.00D  GRAD.:     5.591 HEAT: 38.89737
 CYCLE:    24 TIME:   0.008 TIME LEFT:  2.00D  GRAD.:     4.598 HEAT: 38.88494
 CYCLE:    25 TIME:   0.008 TIME LEFT:  2.00D  GRAD.:     7.428 HEAT: 38.87914
 CYCLE:    26 TIME:   0.008 TIME LEFT:  2.00D  GRAD.:     4.723 HEAT: 38.86165
 CYCLE:    27 TIME:   0.009 TIME LEFT:  2.00D  GRAD.:     5.824 HEAT: 38.84972
 CYCLE:    28 TIME:   0.008 TIME LEFT:  2.00D  GRAD.:     3.998 HEAT: 38.82972
 CYCLE:    29 TIME:   0.008 TIME LEFT:  2.00D  GRAD.:     4.486 HEAT: 38.81099
 CYCLE:    30 TIME:   0.008 TIME LEFT:  2.00D  GRAD.:     3.952 HEAT: 38.79303
 CYCLE:    31 TIME:   0.008 TIME LEFT:  2.00D  GRAD.:     5.337 HEAT: 38.75840
 CYCLE:    32 TIME:   0.008 TIME LEFT:  2.00D  GRAD.:     6.508 HEAT: 38.72164
 CYCLE:    33 TIME:   0.008 TIME LEFT:  2.00D  GRAD.:     5.695 HEAT: 38.68229
 CYCLE:    34 TIME:   0.008 TIME LEFT:  2.00D  GRAD.:     4.855 HEAT: 38.64241
 CYCLE:    35 TIME:   0.008 TIME LEFT:  2.00D  GRAD.:     5.685 HEAT: 38.60992
 CYCLE:    36 TIME:   0.008 TIME LEFT:  2.00D  GRAD.:     3.536 HEAT: 38.58177
 CYCLE:    37 TIME:   0.008 TIME LEFT:  2.00D  GRAD.:     3.448 HEAT: 38.56243
 CYCLE:    38 TIME:   0.008 TIME LEFT:  2.00D  GRAD.:     3.872 HEAT: 38.54488
 CYCLE:    39 TIME:   0.008 TIME LEFT:  2.00D  GRAD.:     2.834 HEAT: 38.53392
 CYCLE:    40 TIME:   0.008 TIME LEFT:  2.00D  GRAD.:     2.425 HEAT: 38.52406
 CYCLE:    41 TIME:   0.008 TIME LEFT:  2.00D  GRAD.:     2.392 HEAT: 38.51428
 CYCLE:    42 TIME:   0.008 TIME LEFT:  2.00D  GRAD.:     2.416 HEAT: 38.50265
 CYCLE:    43 TIME:   0.008 TIME LEFT:  2.00D  GRAD.:     2.700 HEAT: 38.49306
 CYCLE:    44 TIME:   0.008 TIME LEFT:  2.00D  GRAD.:     2.702 HEAT: 38.48110
 CYCLE:    45 TIME:   0.008 TIME LEFT:  2.00D  GRAD.:     3.331 HEAT: 38.46293
 CYCLE:    46 TIME:   0.008 TIME LEFT:  2.00D  GRAD.:     3.497 HEAT: 38.44764
 CYCLE:    47 TIME:   0.008 TIME LEFT:  2.00D  GRAD.:     2.528 HEAT: 38.43962
 CYCLE:    48 TIME:   0.008 TIME LEFT:  2.00D  GRAD.:     2.117 HEAT: 38.43306
 CYCLE:    49 TIME:   0.008 TIME LEFT:  2.00D  GRAD.:     1.349 HEAT: 38.42888
 CYCLE:    50 TIME:   0.008 TIME LEFT:  2.00D  GRAD.:     0.939 HEAT: 38.42561
 CYCLE:    51 TIME:   0.008 TIME LEFT:  2.00D  GRAD.:     0.688 HEAT: 38.42385
 CYCLE:    52 TIME:   0.008 TIME LEFT:  2.00D  GRAD.:     0.710 HEAT: 38.42308
 CYCLE:    53 TIME:   0.008 TIME LEFT:  2.00D  GRAD.:     0.734 HEAT: 38.42166
 CYCLE:    54 TIME:   0.008 TIME LEFT:  2.00D  GRAD.:     0.684 HEAT: 38.42029
 CYCLE:    55 TIME:   0.008 TIME LEFT:  2.00D  GRAD.:     0.538 HEAT: 38.41945
 CYCLE:    56 TIME:   0.008 TIME LEFT:  2.00D  GRAD.:     0.478 HEAT: 38.41891
 CYCLE:    57 TIME:   0.008 TIME LEFT:  2.00D  GRAD.:     0.470 HEAT: 38.41842
 CYCLE:    58 TIME:   0.009 TIME LEFT:  2.00D  GRAD.:     0.451 HEAT: 38.41790
 CYCLE:    59 TIME:   0.008 TIME LEFT:  2.00D  GRAD.:     0.427 HEAT: 38.41746
 CYCLE:    60 TIME:   0.008 TIME LEFT:  2.00D  GRAD.:     0.404 HEAT: 38.41710
 CYCLE:    61 TIME:   0.008 TIME LEFT:  2.00D  GRAD.:     0.427 HEAT: 38.41671
 CYCLE:    62 TIME:   0.008 TIME LEFT:  2.00D  GRAD.:     0.459 HEAT: 38.41623
 CYCLE:    63 TIME:   0.008 TIME LEFT:  2.00D  GRAD.:     0.506 HEAT: 38.41559
 CYCLE:    64 TIME:   0.008 TIME LEFT:  2.00D  GRAD.:     0.516 HEAT: 38.41498
 CYCLE:    65 TIME:   0.008 TIME LEFT:  2.00D  GRAD.:     0.545 HEAT: 38.41428
 CYCLE:    66 TIME:   0.008 TIME LEFT:  2.00D  GRAD.:     0.611 HEAT: 38.41347
 CYCLE:    67 TIME:   0.008 TIME LEFT:  2.00D  GRAD.:     0.703 HEAT: 38.41233
 CYCLE:    68 TIME:   0.011 TIME LEFT:  2.00D  GRAD.:     0.805 HEAT: 38.41085
 CYCLE:    69 TIME:   0.013 TIME LEFT:  2.00D  GRAD.:     0.853 HEAT: 38.40921
 CYCLE:    70 TIME:   0.008 TIME LEFT:  2.00D  GRAD.:     0.950 HEAT: 38.40734
 CYCLE:    71 TIME:   0.008 TIME LEFT:  2.00D  GRAD.:     1.097 HEAT: 38.40515
 CYCLE:    72 TIME:   0.008 TIME LEFT:  2.00D  GRAD.:     1.360 HEAT: 38.40180
 CYCLE:    73 TIME:   0.010 TIME LEFT:  2.00D  GRAD.:     1.944 HEAT: 38.39534
 CYCLE:    74 TIME:   0.008 TIME LEFT:  2.00D  GRAD.:     1.908 HEAT: 38.38887
 CYCLE:    75 TIME:   0.009 TIME LEFT:  2.00D  GRAD.:     4.300 HEAT: 38.37677
 CYCLE:    76 TIME:   0.015 TIME LEFT:  2.00D  GRAD.:     3.292 HEAT: 38.37573
 CYCLE:    77 TIME:   0.008 TIME LEFT:  2.00D  GRAD.:     1.160 HEAT: 38.36662
 CYCLE:    78 TIME:   0.008 TIME LEFT:  2.00D  GRAD.:     1.279 HEAT: 38.36365
 CYCLE:    79 TIME:   0.008 TIME LEFT:  2.00D  GRAD.:     1.452 HEAT: 38.36076
 CYCLE:    80 TIME:   0.008 TIME LEFT:  2.00D  GRAD.:     0.973 HEAT: 38.35883
 CYCLE:    81 TIME:   0.009 TIME LEFT:  2.00D  GRAD.:     0.696 HEAT: 38.35690
 CYCLE:    82 TIME:   0.011 TIME LEFT:  2.00D  GRAD.:     0.481 HEAT: 38.35585
 CYCLE:    83 TIME:   0.008 TIME LEFT:  2.00D  GRAD.:     0.418 HEAT: 38.35518
 CYCLE:    84 TIME:   0.011 TIME LEFT:  2.00D  GRAD.:     0.411 HEAT: 38.35477
 CYCLE:    85 TIME:   0.008 TIME LEFT:  2.00D  GRAD.:     0.437 HEAT: 38.35451
 CYCLE:    86 TIME:   0.009 TIME LEFT:  2.00D  GRAD.:     0.360 HEAT: 38.35427
 CYCLE:    87 TIME:   0.008 TIME LEFT:  2.00D  GRAD.:     0.321 HEAT: 38.35401
 CYCLE:    88 TIME:   0.008 TIME LEFT:  2.00D  GRAD.:     0.339 HEAT: 38.35366
 CYCLE:    89 TIME:   0.008 TIME LEFT:  2.00D  GRAD.:     0.361 HEAT: 38.35342
 CYCLE:    90 TIME:   0.008 TIME LEFT:  2.00D  GRAD.:     0.355 HEAT: 38.35318
 CYCLE:    91 TIME:   0.008 TIME LEFT:  2.00D  GRAD.:     0.332 HEAT: 38.35300
 CYCLE:    92 TIME:   0.008 TIME LEFT:  2.00D  GRAD.:     0.431 HEAT: 38.35284
 CYCLE:    93 TIME:   0.008 TIME LEFT:  2.00D  GRAD.:     0.276 HEAT: 38.35263
 CYCLE:    94 TIME:   0.008 TIME LEFT:  2.00D  GRAD.:     0.182 HEAT: 38.35237
 CYCLE:    95 TIME:   0.008 TIME LEFT:  2.00D  GRAD.:     0.169 HEAT: 38.35231
 CYCLE:    96 TIME:   0.008 TIME LEFT:  2.00D  GRAD.:     0.173 HEAT: 38.35220
 CYCLE:    97 TIME:   0.008 TIME LEFT:  2.00D  GRAD.:     0.109 HEAT: 38.35215
 CYCLE:    98 TIME:   0.008 TIME LEFT:  2.00D  GRAD.:     0.115 HEAT: 38.35211
 CYCLE:    99 TIME:   0.008 TIME LEFT:  2.00D  GRAD.:     0.107 HEAT: 38.35209
 CYCLE:   100 TIME:   0.008 TIME LEFT:  2.00D  GRAD.:     0.066 HEAT: 38.35207
 CYCLE:   101 TIME:   0.008 TIME LEFT:  2.00D  GRAD.:     0.033 HEAT: 38.35206

     RMS GRADIENT =  0.03326  IS LESS THAN CUTOFF =  0.05000



 -------------------------------------------------------------------------------
pm3  precise nosym
 InChI=1S/C10H14/c1-3-9(4-2)10-7-5-6-8-10/h3-6,9-10H,1-2,7-8H2



     GEOMETRY OPTIMISED USING EIGENVECTOR FOLLOWING (EF).     
     SCF FIELD WAS ACHIEVED                                   


                              PM3 CALCULATION
                                                       MOPAC2012 (Version: 13.159M)
                                                       Mon Jun  2 11:11:03 2014
                                                       No. of days left =   6




          FINAL HEAT OF FORMATION =         38.35206 KCAL/MOL =     160.46504 KJ/MOL


          TOTAL ENERGY            =      -1399.39856 EV
          ELECTRONIC ENERGY       =      -7856.74588 EV  POINT GROUP:     C1  
          CORE-CORE REPULSION     =       6457.34732 EV
          COSMO AREA              =        192.38 SQUARE ANGSTROMS
          COSMO VOLUME            =        199.68 CUBIC ANGSTROMS

          GRADIENT NORM           =          0.03326
          IONIZATION POTENTIAL    =          9.527655 EV
          HOMO LUMO ENERGIES (EV) =         -9.528  0.938
          NO. OF FILLED LEVELS    =         27
          MOLECULAR WEIGHT        =        134.221

          MOLECULAR DIMENSIONS (Angstroms)

            Atom       Atom       Distance
            H    20    H    24     7.39510
            H    21    H    17     7.05209
            H    23    H    11     3.47795


          SCF CALCULATIONS        =        114
          COMPUTATION TIME        =          0.925 SECONDS




   ATOM   CHEMICAL          X               Y               Z
  NUMBER   SYMBOL      (ANGSTROMS)     (ANGSTROMS)     (ANGSTROMS)
 
     1       C         -0.60479546  *   0.12676102  *   0.59626531  *
     2       C          0.82540327  *  -0.02749478  *   0.05118104  *
     3       C         -1.35939458  *   1.29016525  *  -0.08541482  *
     4       C         -1.46322480  *  -1.12929433  *   0.32595384  *
     5       C         -2.57045896  *   0.66936470  *  -0.70129046  *
     6       C         -2.62688285  *  -0.64790005  *  -0.47753147  *
     7       C          1.51516150  *  -1.17519243  *   0.72688947  *
     8       C          1.61625142  *   1.21941653  *   0.31448053  *
     9       C          1.90117647  *  -2.26751623  *   0.07858776  *
    10       C          2.07533647  *   2.00055950  *  -0.65586146  *
    11       H         -0.54189609  *   0.31068190  *   1.69389770  *
    12       H          0.76661187  *  -0.21484722  *  -1.05130570  *
    13       H         -0.73980316  *   1.79711741  *  -0.85108477  *
    14       H         -1.64731692  *   2.07179210  *   0.64138979  *
    15       H         -1.80515386  *  -1.60018491  *   1.26585414  *
    16       H         -0.89889520  *  -1.91033873  *  -0.22045380  *
    17       H         -3.29130811  *   1.26762424  *  -1.25755557  *
    18       H          1.68718244  *  -1.06143886  *   1.80435353  *
    19       H          1.79825435  *   1.45545924  *   1.37022152  *
    20       H         -3.40260571  *  -1.33398050  *  -0.81591167  *
    21       H          2.40272051  *  -3.09402733  *   0.57265781  *
    22       H          1.74523779  *  -2.41547987  *  -0.98695608  *
    23       H          1.91202467  *   1.79925707  *  -1.71152429  *
    24       H          2.64930899  *   2.90095851  *  -0.45941178  *

           Empirical Formula: C10 H14  =    24 atoms



      MOLECULAR POINT GROUP   :   C1  


                  EIGENVALUES  
 -41.50112 -35.75320 -31.87595 -28.20152 -27.87205 -24.27128 -20.14470 -19.90869
 -19.65067 -18.38278 -17.48568 -16.23960 -16.19654 -15.95450 -14.54585 -13.80225
 -13.67658 -13.43389 -13.13671 -12.81535 -12.56614 -12.32578 -11.86752 -11.79421
 -10.30144 -10.27494  -9.52765   0.93827   1.14723   1.27606   3.13461   3.39206
   3.54598   3.58233   3.68888   3.83092   3.89303   3.95816   3.97391   4.04119
   4.05898   4.21778   4.32584   4.41524   4.42937   4.57736   5.06870   5.19451
   5.47227   5.57282   5.64723   5.68038   5.95434   6.01612


              NET ATOMIC CHARGES AND DIPOLE CONTRIBUTIONS

  ATOM NO.   TYPE          CHARGE      No. of ELECS.   s-Pop       p-Pop       
    1          C          -0.070649        4.0706     1.18717     2.88348
    2          C          -0.018818        4.0188     1.16218     2.85664
    3          C          -0.072249        4.0722     1.15794     2.91431
    4          C          -0.072121        4.0721     1.15792     2.91420
    5          C          -0.155331        4.1553     1.20180     2.95353
    6          C          -0.155370        4.1554     1.20180     2.95357
    7          C          -0.132238        4.1322     1.19734     2.93490
    8          C          -0.132152        4.1322     1.19732     2.93483
    9          C          -0.161746        4.1617     1.18298     2.97876
   10          C          -0.161824        4.1618     1.18299     2.97883
   11          H           0.065579        0.9344     0.93442
   12          H           0.076022        0.9240     0.92398
   13          H           0.066036        0.9340     0.93396
   14          H           0.057033        0.9430     0.94297
   15          H           0.057017        0.9430     0.94298
   16          H           0.065952        0.9340     0.93405
   17          H           0.110723        0.8893     0.88928
   18          H           0.099056        0.9009     0.90094
   19          H           0.099078        0.9009     0.90092
   20          H           0.110727        0.8893     0.88927
   21          H           0.079704        0.9203     0.92030
   22          H           0.082919        0.9171     0.91708
   23          H           0.082932        0.9171     0.91707
   24          H           0.079718        0.9203     0.92028
 DIPOLE           X         Y         Z       TOTAL
 POINT-CHG.     0.043     0.013     0.085     0.096
 HYBRID         0.032     0.002     0.020     0.038
 SUM            0.075     0.015     0.105     0.130


          ATOMIC ORBITAL ELECTRON POPULATIONS

    Atom      s        px        py        pz   
    1  C   1.18717   0.93340   0.95288   0.99721
    2  C   1.16218   0.93420   0.92553   0.99691
    3  C   1.15794   0.95483   0.96650   0.99298
    4  C   1.15792   0.95319   0.96790   0.99312
    5  C   1.20180   0.98441   0.96336   1.00576
    6  C   1.20180   0.98620   0.96571   1.00165
    7  C   1.19734   0.98754   0.95655   0.99081
    8  C   1.19732   0.98437   0.96207   0.98839
    9  C   1.18298   1.00541   0.97307   1.00029
   10  C   1.18299   1.00342   0.99176   0.98364
   11  H   0.93442
   12  H   0.92398
   13  H   0.93396
   14  H   0.94297
   15  H   0.94298
   16  H   0.93405
   17  H   0.88928
   18  H   0.90094
   19  H   0.90092
   20  H   0.88927
   21  H   0.92030
   22  H   0.91708
   23  H   0.91707
   24  H   0.92028
 *******************************************************************************
 ** Site#: 14399           For non-commercial use only        Version 13.159M **
 *******************************************************************************
 ** Cite this work as: MOPAC2012, James J. P. Stewart, Stewart Computational  **
 ** Chemistry, Version 13.159M web: HTTP://OpenMOPAC.net  Days remaining:   6 **
 *******************************************************************************
 **                                                                           **
 **                                MOPAC2012                                  **
 **                                                                           **
 *******************************************************************************

                            PM3 CALCULATION RESULTS


 *******************************************************************************
 *  CALCULATION DONE:                                Mon Jun  2 11:11:03 2014  *
 *  PM3      - The PM3 Hamiltonian to be used
 *  OLDGEO   - PREVIOUS GEOMETRY TO BE USED
 *  PRECISE  - CRITERIA TO BE INCREASED BY 100 TIMES
 *  NOSYM    - POINT-GROUP SYMMETRY SET TO C1
 *  T=       - A TIME OF 172800.0 SECONDS REQUESTED
 *  DUMP=N   - RESTART FILE WRITTEN EVERY  7200.000 SECONDS
 *  THERMO   - THERMODYNAMIC QUANTITIES TO BE CALCULATED
 *******************************************************************************
oldgeo thermo nosym precise  pm3

   ATOM   CHEMICAL          X               Y               Z
  NUMBER   SYMBOL      (ANGSTROMS)     (ANGSTROMS)     (ANGSTROMS)
 
     1       C         -0.60479546  *   0.12676102  *   0.59626531  *
     2       C          0.82540327  *  -0.02749478  *   0.05118104  *
     3       C         -1.35939458  *   1.29016525  *  -0.08541482  *
     4       C         -1.46322480  *  -1.12929433  *   0.32595384  *
     5       C         -2.57045896  *   0.66936470  *  -0.70129046  *
     6       C         -2.62688285  *  -0.64790005  *  -0.47753147  *
     7       C          1.51516150  *  -1.17519243  *   0.72688947  *
     8       C          1.61625142  *   1.21941653  *   0.31448053  *
     9       C          1.90117647  *  -2.26751623  *   0.07858776  *
    10       C          2.07533647  *   2.00055950  *  -0.65586146  *
    11       H         -0.54189609  *   0.31068190  *   1.69389770  *
    12       H          0.76661187  *  -0.21484722  *  -1.05130570  *
    13       H         -0.73980316  *   1.79711741  *  -0.85108477  *
    14       H         -1.64731692  *   2.07179210  *   0.64138979  *
    15       H         -1.80515386  *  -1.60018491  *   1.26585414  *
    16       H         -0.89889520  *  -1.91033873  *  -0.22045380  *
    17       H         -3.29130811  *   1.26762424  *  -1.25755557  *
    18       H          1.68718244  *  -1.06143886  *   1.80435353  *
    19       H          1.79825435  *   1.45545924  *   1.37022152  *
    20       H         -3.40260571  *  -1.33398050  *  -0.81591167  *
    21       H          2.40272051  *  -3.09402733  *   0.57265781  *
    22       H          1.74523779  *  -2.41547987  *  -0.98695608  *
    23       H          1.91202467  *   1.79925707  *  -1.71152429  *
    24       H          2.64930899  *   2.90095851  *  -0.45941178  *
 


          CARTESIAN COORDINATES 

    NO.       ATOM         X         Y         Z

     1         C       -0.6048    0.1268    0.5963
     2         C        0.8254   -0.0275    0.0512
     3         C       -1.3594    1.2902   -0.0854
     4         C       -1.4632   -1.1293    0.3260
     5         C       -2.5705    0.6694   -0.7013
     6         C       -2.6269   -0.6479   -0.4775
     7         C        1.5152   -1.1752    0.7269
     8         C        1.6163    1.2194    0.3145
     9         C        1.9012   -2.2675    0.0786
    10         C        2.0753    2.0006   -0.6559
    11         H       -0.5419    0.3107    1.6939
    12         H        0.7666   -0.2148   -1.0513
    13         H       -0.7398    1.7971   -0.8511
    14         H       -1.6473    2.0718    0.6414
    15         H       -1.8052   -1.6002    1.2659
    16         H       -0.8989   -1.9103   -0.2205
    17         H       -3.2913    1.2676   -1.2576
    18         H        1.6872   -1.0614    1.8044
    19         H        1.7983    1.4555    1.3702
    20         H       -3.4026   -1.3340   -0.8159
    21         H        2.4027   -3.0940    0.5727
    22         H        1.7452   -2.4155   -0.9870
    23         H        1.9120    1.7993   -1.7115
    24         H        2.6493    2.9010   -0.4594

  H: (PM3): J. J. P. STEWART, J. COMP. CHEM. 10, 209 (1989).
  C: (PM3): J. J. P. STEWART, J. COMP. CHEM. 10, 209 (1989).

           Empirical Formula: C10 H14  =    24 atoms



      MOLECULAR POINT GROUP   :   C1  


      RHF CALCULATION, NO. OF DOUBLY OCCUPIED LEVELS =   27



          HEAT OF FORMATION =      38.352064 KCALS/MOLE


          INTERNAL COORDINATE DERIVATIVES

   NUMBER  ATOM       BOND         ANGLE      DIHEDRAL

     1       C     -0.002480     0.000361    -0.001898
     2       C      0.004801    -0.000958     0.000249
     3       C      0.007760    -0.004322     0.002299
     4       C     -0.000722     0.001153    -0.000077
     5       C     -0.001621    -0.002092     0.002264
     6       C     -0.005119    -0.000249    -0.008241
     7       C     -0.002753    -0.005854    -0.000449
     8       C      0.003425    -0.003350     0.000035
     9       C     -0.001672    -0.002527    -0.000471
    10       C     -0.002297    -0.000940    -0.001272
    11       H      0.003449    -0.006180    -0.005631
    12       H      0.002182    -0.004860    -0.002774
    13       H     -0.001297     0.002580     0.002140
    14       H      0.000579     0.003455     0.004933
    15       H      0.000973     0.007955     0.012876
    16       H      0.002414     0.001594    -0.001411
    17       H     -0.008697     0.000866     0.002734
    18       H     -0.000692     0.002359     0.000760
    19       H     -0.005359    -0.000301    -0.003955
    20       H      0.003973     0.009451    -0.004296
    21       H      0.007947     0.001275     0.004532
    22       H      0.002038    -0.002174     0.002269
    23       H     -0.004114    -0.001514    -0.000336
    24       H     -0.002716     0.004272    -0.004279


          GRADIENT NORM =   0.03372


          TIME FOR SCF CALCULATION =    0.01

          TIME FOR DERIVATIVES     =    0.01

          MOLECULAR WEIGHT =  134.22



          ROTATIONAL CONSTANTS IN CM(-1)

          A =    0.06013809   B =    0.03565636   C =    0.02476070



           PRINCIPAL MOMENTS OF INERTIA IN UNITS OF 10**(-40)*GRAM-CM**2

          A =      465.4749   B =      785.0711   C =     1130.5326


          ORIENTATION OF MOLECULE IN FORCE CALCULATION

    NO.       ATOM         X         Y         Z

     1          C      -0.7272   -0.1817    0.3005
     2          C       0.8111   -0.1817    0.3005
     3          C      -1.3039    1.2519    0.3005
     4          C      -1.3036   -0.8525   -0.9666
     5          C      -2.1494    1.3383   -0.9280
     6          C      -2.1490    0.1927   -1.6179
     7          C       1.3280   -1.5895    0.2844
     8          C       1.3280    0.4967    1.5342
     9          C       2.0262   -2.0901   -0.7278
    10          C       2.0204    1.6289    1.4982
    11          H      -1.0761   -0.7278    1.2074
    12          H       1.1659    0.3642   -0.6107
    13          H      -0.5074    2.0217    0.2896
    14          H      -1.9075    1.4493    1.2053
    15          H      -1.9073   -1.7445   -0.7177
    16          H      -0.5070   -1.2031   -1.6518
    17          H      -2.6824    2.2533   -1.1839
    18          H       1.0948   -2.1939    1.1697
    19          H       1.0995   -0.0015    2.4845
    20          H      -2.6815   -0.0091   -2.5467
    21          H       2.4003   -3.1093   -0.7325
    22          H       2.2736   -1.5218   -1.6208
    23          H       2.2628    2.1510    0.5761
    24          H       2.3941    2.1145    2.3945


    FIRST DERIVATIVES WILL BE USED IN THE CALCULATION OF SECOND DERIVATIVES

          ESTIMATED TIME TO COMPLETE CALCULATION =        3.24 SECONDS

    FOR POINT-GROUP C1   THERE ARE   1 UNIQUE SYMMETRY FUNCTIONS.

 STEP:   1 TIME =     0.04 SECS, INTEGRAL =      0.04 TIME LEFT: 172799.95
 STEP:   2 TIME =     0.04 SECS, INTEGRAL =      0.07 TIME LEFT: 172799.92
 STEP:   3 TIME =     0.04 SECS, INTEGRAL =      0.11 TIME LEFT: 172799.88
 STEP:   4 TIME =     0.04 SECS, INTEGRAL =      0.14 TIME LEFT: 172799.85
 STEP:   5 TIME =     0.04 SECS, INTEGRAL =      0.18 TIME LEFT: 172799.81
 STEP:   6 TIME =     0.04 SECS, INTEGRAL =      0.21 TIME LEFT: 172799.77
 STEP:   7 TIME =     0.04 SECS, INTEGRAL =      0.25 TIME LEFT: 172799.74
 STEP:   8 TIME =     0.04 SECS, INTEGRAL =      0.29 TIME LEFT: 172799.70
 STEP:   9 TIME =     0.04 SECS, INTEGRAL =      0.32 TIME LEFT: 172799.67
 STEP:  10 TIME =     0.04 SECS, INTEGRAL =      0.36 TIME LEFT: 172799.63
 STEP:  11 TIME =     0.04 SECS, INTEGRAL =      0.39 TIME LEFT: 172799.60
 STEP:  12 TIME =     0.04 SECS, INTEGRAL =      0.43 TIME LEFT: 172799.56
 STEP:  13 TIME =     0.04 SECS, INTEGRAL =      0.46 TIME LEFT: 172799.53
 STEP:  14 TIME =     0.04 SECS, INTEGRAL =      0.50 TIME LEFT: 172799.49
 STEP:  15 TIME =     0.04 SECS, INTEGRAL =      0.53 TIME LEFT: 172799.45
 STEP:  16 TIME =     0.04 SECS, INTEGRAL =      0.57 TIME LEFT: 172799.42
 STEP:  17 TIME =     0.04 SECS, INTEGRAL =      0.61 TIME LEFT: 172799.38
 STEP:  18 TIME =     0.04 SECS, INTEGRAL =      0.64 TIME LEFT: 172799.35
 STEP:  19 TIME =     0.04 SECS, INTEGRAL =      0.68 TIME LEFT: 172799.31
 STEP:  20 TIME =     0.04 SECS, INTEGRAL =      0.71 TIME LEFT: 172799.27
 STEP:  21 TIME =     0.04 SECS, INTEGRAL =      0.75 TIME LEFT: 172799.24
 STEP:  22 TIME =     0.04 SECS, INTEGRAL =      0.79 TIME LEFT: 172799.20
 STEP:  23 TIME =     0.04 SECS, INTEGRAL =      0.82 TIME LEFT: 172799.17
 STEP:  24 TIME =     0.04 SECS, INTEGRAL =      0.86 TIME LEFT: 172799.13
 STEP:  25 TIME =     0.04 SECS, INTEGRAL =      0.89 TIME LEFT: 172799.10
 STEP:  26 TIME =     0.04 SECS, INTEGRAL =      0.93 TIME LEFT: 172799.06
 STEP:  27 TIME =     0.04 SECS, INTEGRAL =      0.96 TIME LEFT: 172799.02
 STEP:  28 TIME =     0.04 SECS, INTEGRAL =      1.00 TIME LEFT: 172798.99
 STEP:  29 TIME =     0.04 SECS, INTEGRAL =      1.04 TIME LEFT: 172798.95
 STEP:  30 TIME =     0.03 SECS, INTEGRAL =      1.07 TIME LEFT: 172798.92
 STEP:  31 TIME =     0.04 SECS, INTEGRAL =      1.11 TIME LEFT: 172798.88
 STEP:  32 TIME =     0.04 SECS, INTEGRAL =      1.14 TIME LEFT: 172798.85
 STEP:  33 TIME =     0.04 SECS, INTEGRAL =      1.18 TIME LEFT: 172798.81
 STEP:  34 TIME =     0.04 SECS, INTEGRAL =      1.21 TIME LEFT: 172798.77
 STEP:  35 TIME =     0.04 SECS, INTEGRAL =      1.25 TIME LEFT: 172798.74
 STEP:  36 TIME =     0.04 SECS, INTEGRAL =      1.29 TIME LEFT: 172798.70
 STEP:  37 TIME =     0.04 SECS, INTEGRAL =      1.32 TIME LEFT: 172798.67
 STEP:  38 TIME =     0.04 SECS, INTEGRAL =      1.36 TIME LEFT: 172798.63
 STEP:  39 TIME =     0.04 SECS, INTEGRAL =      1.39 TIME LEFT: 172798.60
 STEP:  40 TIME =     0.04 SECS, INTEGRAL =      1.43 TIME LEFT: 172798.56
 STEP:  41 TIME =     0.04 SECS, INTEGRAL =      1.47 TIME LEFT: 172798.52
 STEP:  42 TIME =     0.04 SECS, INTEGRAL =      1.50 TIME LEFT: 172798.49
 STEP:  43 TIME =     0.04 SECS, INTEGRAL =      1.54 TIME LEFT: 172798.45
 STEP:  44 TIME =     0.04 SECS, INTEGRAL =      1.57 TIME LEFT: 172798.42
 STEP:  45 TIME =     0.04 SECS, INTEGRAL =      1.61 TIME LEFT: 172798.38
 STEP:  46 TIME =     0.04 SECS, INTEGRAL =      1.64 TIME LEFT: 172798.34
 STEP:  47 TIME =     0.04 SECS, INTEGRAL =      1.68 TIME LEFT: 172798.31
 STEP:  48 TIME =     0.04 SECS, INTEGRAL =      1.72 TIME LEFT: 172798.27
 STEP:  49 TIME =     0.04 SECS, INTEGRAL =      1.75 TIME LEFT: 172798.24
 STEP:  50 TIME =     0.04 SECS, INTEGRAL =      1.79 TIME LEFT: 172798.20
 STEP:  51 TIME =     0.04 SECS, INTEGRAL =      1.82 TIME LEFT: 172798.16
 STEP:  52 TIME =     0.04 SECS, INTEGRAL =      1.86 TIME LEFT: 172798.13
 STEP:  53 TIME =     0.04 SECS, INTEGRAL =      1.90 TIME LEFT: 172798.09
 STEP:  54 TIME =     0.04 SECS, INTEGRAL =      1.93 TIME LEFT: 172798.05
 STEP:  55 TIME =     0.04 SECS, INTEGRAL =      1.97 TIME LEFT: 172798.02
 STEP:  56 TIME =     0.04 SECS, INTEGRAL =      2.01 TIME LEFT: 172797.98
 STEP:  57 TIME =     0.04 SECS, INTEGRAL =      2.04 TIME LEFT: 172797.94
 STEP:  58 TIME =     0.04 SECS, INTEGRAL =      2.08 TIME LEFT: 172797.91
 STEP:  59 TIME =     0.04 SECS, INTEGRAL =      2.12 TIME LEFT: 172797.87
 STEP:  60 TIME =     0.04 SECS, INTEGRAL =      2.16 TIME LEFT: 172797.83
 STEP:  61 TIME =     0.04 SECS, INTEGRAL =      2.19 TIME LEFT: 172797.80
 STEP:  62 TIME =     0.04 SECS, INTEGRAL =      2.23 TIME LEFT: 172797.76
 STEP:  63 TIME =     0.04 SECS, INTEGRAL =      2.27 TIME LEFT: 172797.72
 STEP:  64 TIME =     0.04 SECS, INTEGRAL =      2.30 TIME LEFT: 172797.69
 STEP:  65 TIME =     0.04 SECS, INTEGRAL =      2.34 TIME LEFT: 172797.65
 STEP:  66 TIME =     0.04 SECS, INTEGRAL =      2.38 TIME LEFT: 172797.61
 STEP:  67 TIME =     0.04 SECS, INTEGRAL =      2.42 TIME LEFT: 172797.57
 STEP:  68 TIME =     0.04 SECS, INTEGRAL =      2.45 TIME LEFT: 172797.54
 STEP:  69 TIME =     0.04 SECS, INTEGRAL =      2.49 TIME LEFT: 172797.50
 STEP:  70 TIME =     0.04 SECS, INTEGRAL =      2.53 TIME LEFT: 172797.46
 STEP:  71 TIME =     0.04 SECS, INTEGRAL =      2.56 TIME LEFT: 172797.43
 STEP:  72 TIME =     0.04 SECS, INTEGRAL =      2.60 TIME LEFT: 172797.39

(To convert to Hartree/Bohr^2, multiply by (10^(-21) x N x a0^2)/(4.184 x 627.51) = 0.0642)


           FORCE MATRIX IN MILLIDYNES/ANGSTROM


                  C  1       C  2       C  3       C  4       C  5       C  6
 ------------------------------------------------------------------------------
     C    1  14.016046
     C    2   3.548413  14.839391
     C    3   3.471626   0.569571  14.618330
     C    4   3.471765   0.569518   0.726034  14.621181
     C    5   0.854753   0.031798   4.768926   1.189915  18.410771
     C    6   0.854636   0.031225   1.190450   4.769623  10.595032  18.406743
     C    7   0.669279   4.574156   0.050041   0.057243   0.007977   0.003020
     C    8   0.669385   4.573102   0.057758   0.050203   0.003063   0.007981
     C    9   0.039217   0.806641   0.007253   0.024409   0.001506   0.003224
     C   10   0.038752   0.807216   0.025134   0.007415   0.003607   0.001857
     H   11   4.303591   0.437051   0.423733   0.423574   0.026715   0.027027
     H   12   0.427742   4.153807   0.023326   0.023648   0.001652   0.001658
     H   13   0.447088   0.065096   4.448435   0.027327   0.429067   0.037604
     H   14   0.435829   0.027965   4.524161   0.027932   0.429185   0.038139
     H   15   0.435811   0.027924   0.028060   4.524352   0.038220   0.429258
     H   16   0.447104   0.065215   0.027388   4.449949   0.037344   0.429109
     H   17   0.042309   0.003298   0.411760   0.113582   5.023187   0.450121
     H   18   0.016180   0.435880   0.001744   0.003138   0.000733   0.000395
     H   19   0.015957   0.436156   0.003067   0.001668   0.000458   0.000929
     H   20   0.042464   0.003218   0.113960   0.411826   0.450498   5.023284
     H   21   0.018668   0.133862   0.003087   0.001378   0.000740   0.000658
     H   22   0.012471   0.095407   0.002557   0.002783   0.000810   0.001361
     H   23   0.012699   0.096048   0.002889   0.002437   0.001354   0.000838
     H   24   0.018706   0.133880   0.001426   0.003001   0.000500   0.000832


                  C  7       C  8       C  9       C 10       H 11       H 12
 ------------------------------------------------------------------------------
     C    7  18.123151
     C    8   0.765587  18.121366
     C    9  11.095078   0.042428  18.035509
     C   10   0.042481  11.094716   0.007614  18.035329
     H   11   0.028420   0.027948   0.001730   0.001544   4.768240
     H   12   0.440239   0.440020   0.054856   0.055031   0.041061   4.636201
     H   13   0.002511   0.023390   0.000990   0.014882   0.025489   0.024630
     H   14   0.005052   0.002544   0.001048   0.000804   0.029015   0.001431
     H   15   0.002359   0.005004   0.000859   0.001026   0.029104   0.001412
     H   16   0.022533   0.002545   0.014448   0.001001   0.025442   0.024982
     H   17   0.001043   0.000842   0.000754   0.000653   0.003047   0.000555
     H   18   4.784510   0.028737   0.453603   0.002003   0.013750   0.036431
     H   19   0.029082   4.784752   0.001903   0.453820   0.013399   0.036000
     H   20   0.001019   0.001079   0.000506   0.000889   0.003028   0.000577
     H   21   0.461976   0.018576   5.106093   0.002351   0.000523   0.002146
     H   22   0.489808   0.010073   5.063681   0.002555   0.000641   0.030037
     H   23   0.010041   0.489911   0.002465   5.063499   0.000648   0.030029
     H   24   0.018401   0.461898   0.002238   5.106420   0.000519   0.002058


                  H 13       H 14       H 15       H 16       H 17       H 18
 ------------------------------------------------------------------------------
     H   13   5.065182
     H   14   0.569970   5.126923
     H   15   0.003561   0.001147   5.126862
     H   16   0.001263   0.003574   0.569594   5.066422
     H   17   0.014764   0.014727   0.015176   0.014795   5.419926
     H   18   0.000809   0.000441   0.000886   0.001563   0.000238   5.162353
     H   19   0.001461   0.000937   0.000466   0.000804   0.000369   0.020319
     H   20   0.014977   0.015057   0.014729   0.014778   0.046426   0.000325
     H   21   0.000214   0.000318   0.000352   0.000821   0.000249   0.078372
     H   22   0.000284   0.000281   0.000309   0.004898   0.000322   0.116448
     H   23   0.004943   0.000259   0.000349   0.000312   0.000373   0.000814
     H   24   0.000857   0.000330   0.000317   0.000196   0.000161   0.000778


                  H 19       H 20       H 21       H 22       H 23       H 24
 ------------------------------------------------------------------------------
     H   19   5.162779
     H   20   0.000296   5.420268
     H   21   0.000802   0.000139   5.493302
     H   22   0.000818   0.000326   0.421272   5.458940
     H   23   0.117692   0.000297   0.000610   0.001155   5.458550
     H   24   0.078785   0.000263   0.001419   0.000594   0.420367   5.493535


          HEAT OF FORMATION =      38.352064 KCALS/MOLE

          ZERO POINT ENERGY     130.860 KCAL/MOL


           NORMAL COORDINATE ANALYSIS (Total motion = 1 Angstrom)


   Root No.       1         2         3         4         5         6         7         8

                 1 A       2 A       3 A       4 A       5 A       6 A       7 A       8 A   

                  62.5      73.4      86.9      89.3     213.3     248.2     313.9     358.7
  
           1   -0.0016   -0.0131   -0.0151   -0.0073   -0.0005    0.0118   -0.0120    0.0002
           2    0.0171   -0.0005   -0.0145    0.0031    0.0158    0.0070    0.0010   -0.0208
           3    0.0098   -0.0084    0.0194    0.0093    0.0094   -0.0107   -0.0032   -0.0127
           4   -0.0016   -0.0137   -0.0147   -0.0073   -0.0006    0.0152   -0.0084    0.0001
           5    0.0130    0.0043    0.0032   -0.0128    0.0095    0.0223   -0.0045    0.0081
           6    0.0072   -0.0048    0.0034   -0.0084    0.0064   -0.0369    0.0080    0.0047
           7    0.0046   -0.0188   -0.0269    0.0126   -0.0287   -0.0188   -0.0176    0.0091
           8    0.0197   -0.0028   -0.0192    0.0115    0.0029   -0.0062    0.0015   -0.0224
           9   -0.0293    0.0006    0.0271   -0.0040    0.0062    0.0093   -0.0097    0.0013
          10   -0.0078   -0.0080   -0.0135   -0.0303    0.0284   -0.0179   -0.0190   -0.0088
          11   -0.0163    0.0060   -0.0133   -0.0057    0.0075   -0.0051    0.0071   -0.0095
          12    0.0305   -0.0144    0.0177    0.0248   -0.0012    0.0102   -0.0065   -0.0203
          13    0.0014   -0.0255    0.0327    0.0192   -0.0191   -0.0032   -0.0132    0.0377
          14   -0.0120   -0.0009    0.0049    0.0142   -0.0125    0.0006    0.0083    0.0077
          15   -0.0295    0.0052   -0.0122   -0.0082   -0.0030   -0.0014   -0.0141   -0.0148
          16   -0.0051   -0.0196    0.0401   -0.0043    0.0177   -0.0028   -0.0143   -0.0375
          17   -0.0315    0.0040    0.0080    0.0047   -0.0083    0.0004    0.0086   -0.0097
          18    0.0030   -0.0029   -0.0174    0.0075   -0.0100   -0.0012   -0.0138    0.0140
          19   -0.0030   -0.0060    0.0003   -0.0111   -0.0400    0.0046    0.0356   -0.0174
          20    0.0128    0.0068    0.0089   -0.0139   -0.0059    0.0164    0.0101    0.0044
          21   -0.0154    0.0052   -0.0018   -0.0179   -0.0107   -0.0159    0.0256    0.0094
          22    0.0007   -0.0125   -0.0049    0.0070    0.0409    0.0058    0.0337    0.0168
          23   -0.0076    0.0048    0.0106   -0.0209   -0.0135    0.0056   -0.0259    0.0107
          24    0.0176   -0.0054   -0.0051   -0.0097    0.0004   -0.0217    0.0039   -0.0006
          25   -0.0133    0.0474   -0.0095    0.0524   -0.0086    0.0060    0.0048   -0.0131
          26    0.0260    0.0210    0.0158    0.0146    0.0013   -0.0375    0.0035    0.0173
          27   -0.0291    0.0352   -0.0120    0.0118    0.0078    0.0126    0.0080    0.0072
          28    0.0250    0.0617    0.0155   -0.0310    0.0101    0.0060    0.0057    0.0131
          29   -0.0221   -0.0408   -0.0023    0.0024    0.0056    0.0066   -0.0092    0.0144
          30    0.0345   -0.0114   -0.0203   -0.0080   -0.0036    0.0390    0.0014    0.0119
          31   -0.0016   -0.0142   -0.0011   -0.0032   -0.0012    0.0445   -0.0159    0.0002
          32    0.0433   -0.0080   -0.0222    0.0194    0.0109    0.0012    0.0018   -0.0347
          33    0.0256   -0.0132    0.0198    0.0206    0.0062   -0.0007   -0.0049   -0.0210
          34   -0.0019   -0.0134   -0.0324   -0.0130   -0.0007    0.0138   -0.0166    0.0003
          35    0.0255    0.0025    0.0061   -0.0116    0.0103    0.0215   -0.0029    0.0068
          36    0.0146   -0.0057   -0.0018   -0.0099    0.0068   -0.0351    0.0056    0.0039
          37    0.0074   -0.0221   -0.0332    0.0233   -0.0429   -0.0360   -0.0183    0.0108
          38    0.0162    0.0001   -0.0121    0.0007    0.0171    0.0113    0.0020   -0.0237
          39   -0.0534   -0.0010    0.0901   -0.0050    0.0161    0.0438   -0.0021    0.0573
          40    0.0080   -0.0146   -0.0768    0.0105   -0.0427   -0.0421   -0.0255   -0.0277
          41    0.0481   -0.0088   -0.0494    0.0263   -0.0114   -0.0425   -0.0016   -0.0470
          42   -0.0332    0.0047    0.0007   -0.0086    0.0001    0.0020   -0.0143   -0.0170
          43   -0.0105    0.0018   -0.0560   -0.0549    0.0434   -0.0404   -0.0275    0.0278
          44   -0.0069   -0.0029    0.0160    0.0164   -0.0056    0.0176    0.0130   -0.0369
          45    0.0574   -0.0226    0.0203    0.0448   -0.0119    0.0387   -0.0056   -0.0329
          46   -0.0106   -0.0056   -0.0124   -0.0427    0.0431   -0.0347   -0.0204   -0.0108
          47   -0.0386    0.0216   -0.0585   -0.0416    0.0244   -0.0430   -0.0003    0.0389
          48    0.0384   -0.0192    0.0421    0.0293    0.0065    0.0110   -0.0038   -0.0477
          49    0.0046   -0.0335    0.0617    0.0401   -0.0391    0.0052   -0.0082    0.0901
          50   -0.0171   -0.0031    0.0164    0.0224   -0.0246    0.0039    0.0111    0.0333
          51   -0.0543    0.0139   -0.0314   -0.0222   -0.0045   -0.0070   -0.0148   -0.0324
          52    0.0050   -0.0434    0.0192   -0.0638   -0.1019   -0.0123    0.1200   -0.0454
          53    0.0016   -0.0017    0.0073   -0.0373   -0.0244    0.0422    0.0348   -0.0046
          54   -0.0211   -0.0104    0.0020   -0.0477   -0.0393   -0.0015    0.0647   -0.0044
          55   -0.0183   -0.0716   -0.0135    0.0479    0.1060   -0.0094    0.1158    0.0434
          56   -0.0115    0.0407    0.0266   -0.0453   -0.0482   -0.0203   -0.0707   -0.0051
          57    0.0111   -0.0008    0.0012   -0.0127   -0.0024   -0.0377    0.0003   -0.0022
          58   -0.0085   -0.0220    0.0763   -0.0063    0.0373    0.0060   -0.0106   -0.0905
          59   -0.0559    0.0065    0.0228    0.0038   -0.0156    0.0032    0.0084   -0.0133
          60    0.0102   -0.0021   -0.0414    0.0088   -0.0196   -0.0068   -0.0159    0.0452
          61   -0.0142    0.0568    0.0002    0.0565   -0.0403   -0.0181    0.0621   -0.0313
          62    0.0258    0.0244    0.0194    0.0161   -0.0102   -0.0469    0.0243    0.0112
          63   -0.0467    0.0457   -0.0178    0.0088   -0.0036    0.0623    0.0318   -0.0166
          64   -0.0217    0.0860   -0.0279    0.1062    0.0526    0.0316   -0.0830    0.0091
          65    0.0379    0.0300    0.0185    0.0381    0.0195   -0.0810   -0.0230    0.0389
          66   -0.0239    0.0517   -0.0155    0.0418    0.0364   -0.0073   -0.0331    0.0268
          67    0.0447    0.1225    0.0251   -0.0725   -0.0550    0.0297   -0.0806   -0.0080
          68   -0.0190   -0.0774   -0.0188    0.0261    0.0398    0.0451    0.0378    0.0411
          69    0.0414   -0.0160   -0.0271   -0.0056   -0.0015    0.0677    0.0053    0.0216
          70    0.0272    0.0681    0.0248   -0.0243    0.0459   -0.0175    0.0639    0.0307
          71   -0.0382   -0.0453    0.0026   -0.0003   -0.0105   -0.0323   -0.0398   -0.0089
          72    0.0423   -0.0117   -0.0268   -0.0094   -0.0098    0.0702   -0.0063    0.0177


   Root No.       9        10        11        12        13        14        15        16

                 9 A      10 A      11 A      12 A      13 A      14 A      15 A      16 A   

                 386.3     432.6     480.4     495.5     632.5     651.1     723.7     751.8
  
           1    0.0000    0.0219    0.0003    0.0353    0.0006    0.0089   -0.0208   -0.0014
           2   -0.0194    0.0092   -0.0102    0.0188    0.0010    0.0134    0.0170    0.0108
           3   -0.0116   -0.0150   -0.0063   -0.0313   -0.0008   -0.0223   -0.0282   -0.0184
           4    0.0000    0.0310    0.0004    0.0196   -0.0002   -0.0068   -0.0197    0.0062
           5    0.0029   -0.0151    0.0295    0.0169   -0.0073   -0.0060   -0.0067    0.0014
           6    0.0013    0.0242    0.0185   -0.0278   -0.0039    0.0102    0.0112   -0.0023
           7    0.0242   -0.0206    0.0108    0.0044   -0.0045    0.0044   -0.0008   -0.0151
           8   -0.0144   -0.0058   -0.0101    0.0015    0.0073    0.0111    0.0413    0.0143
           9   -0.0088   -0.0060   -0.0033    0.0072   -0.0009    0.0054    0.0164    0.0160
          10   -0.0241   -0.0204   -0.0112    0.0042    0.0049    0.0041   -0.0008   -0.0148
          11   -0.0147    0.0082   -0.0074   -0.0071    0.0018   -0.0101   -0.0339   -0.0211
          12   -0.0084    0.0026   -0.0073    0.0021    0.0064   -0.0076   -0.0288   -0.0053
          13   -0.0161   -0.0161    0.0033    0.0049   -0.0037    0.0060    0.0138   -0.0099
          14   -0.0127    0.0066   -0.0028   -0.0045    0.0053   -0.0035   -0.0059   -0.0080
          15    0.0206   -0.0118    0.0039    0.0083   -0.0016    0.0069    0.0130    0.0151
          16    0.0163   -0.0158   -0.0037    0.0051    0.0042    0.0058    0.0140   -0.0098
          17    0.0122    0.0073    0.0023   -0.0051    0.0006   -0.0045   -0.0088   -0.0095
          18   -0.0207   -0.0114   -0.0045    0.0077    0.0061    0.0060    0.0112    0.0148
          19   -0.0137    0.0105    0.0062   -0.0123    0.0369   -0.0240    0.0153    0.0014
          20    0.0005   -0.0280    0.0399    0.0131   -0.0052   -0.0219    0.0051   -0.0055
          21    0.0128    0.0053   -0.0293    0.0278    0.0212   -0.0171    0.0037    0.0017
          22    0.0133    0.0111   -0.0064   -0.0127   -0.0398   -0.0214    0.0151    0.0015
          23    0.0118    0.0086   -0.0058   -0.0307    0.0192    0.0242   -0.0055    0.0011
          24   -0.0060    0.0257    0.0500    0.0022   -0.0135    0.0119   -0.0028    0.0057
          25   -0.0121    0.0053    0.0040   -0.0199    0.0009    0.0077    0.0026    0.0016
          26    0.0182   -0.0049   -0.0193    0.0312   -0.0061   -0.0073   -0.0026   -0.0022
          27    0.0062   -0.0122   -0.0007    0.0183   -0.0056   -0.0058   -0.0027   -0.0010
          28    0.0121    0.0052   -0.0035   -0.0199    0.0002    0.0079    0.0025    0.0016
          29    0.0141    0.0135   -0.0088   -0.0312   -0.0067    0.0092    0.0035    0.0019
          30    0.0135   -0.0010   -0.0167   -0.0192   -0.0020    0.0041    0.0010    0.0015
          31    0.0002    0.0270    0.0002    0.0617    0.0002   -0.0031   -0.0716    0.0023
          32   -0.0207    0.0078   -0.0182    0.0133    0.0078    0.0148    0.0262    0.0103
          33   -0.0123   -0.0124   -0.0111   -0.0219    0.0032   -0.0249   -0.0434   -0.0179
          34    0.0000    0.0574    0.0009    0.0525    0.0015    0.0248   -0.0287    0.0283
          35   -0.0042   -0.0203    0.0652    0.0113   -0.0232   -0.0109   -0.0050   -0.0025
          36   -0.0029    0.0315    0.0401   -0.0182   -0.0127    0.0193    0.0084    0.0042
          37    0.0400   -0.0444    0.0165   -0.0235   -0.0076   -0.0133   -0.0108   -0.0109
          38   -0.0296    0.0171   -0.0150    0.0297    0.0101    0.0288    0.0513    0.0112
          39   -0.0754    0.0332   -0.0176    0.0465    0.0043    0.0397    0.0639   -0.0658
          40    0.0838   -0.0495    0.0261   -0.0147   -0.0089   -0.0127   -0.0266    0.0553
          41    0.0225   -0.0530    0.0001   -0.0558    0.0007   -0.0287    0.0133    0.0477
          42    0.0218   -0.0141    0.0044    0.0081   -0.0024    0.0038    0.0074    0.0540
          43   -0.0837   -0.0491   -0.0273   -0.0151    0.0080   -0.0133   -0.0265    0.0554
          44    0.0295    0.0372    0.0048    0.0191   -0.0008    0.0100   -0.0128   -0.0699
          45    0.0097    0.0403   -0.0010    0.0532    0.0046    0.0269   -0.0083   -0.0164
          46   -0.0399   -0.0441   -0.0175   -0.0237    0.0063   -0.0137   -0.0108   -0.0111
          47   -0.0805   -0.0369   -0.0234   -0.0553    0.0043   -0.0490   -0.0805    0.0522
          48    0.0093    0.0006   -0.0050   -0.0043    0.0062   -0.0071   -0.0153   -0.0411
          49   -0.0456   -0.0114    0.0061   -0.0033   -0.0081   -0.0159   -0.0448    0.1665
          50   -0.0196    0.0101    0.0016   -0.0088    0.0010   -0.0152   -0.0408    0.0558
          51    0.0573   -0.0092    0.0136    0.0101   -0.0081    0.0108    0.0087   -0.1248
          52   -0.0328   -0.0153   -0.0267   -0.0182   -0.0106    0.0132    0.0231    0.0017
          53   -0.0065   -0.0526    0.0372    0.0306   -0.0280   -0.0213   -0.0039   -0.0047
          54    0.0025   -0.0192   -0.0375    0.0375   -0.0073   -0.0073   -0.0003    0.0021
          55    0.0318   -0.0150    0.0249   -0.0185    0.0106    0.0117    0.0235    0.0017
          56   -0.0007    0.0416   -0.0123   -0.0474   -0.0175    0.0179    0.0019    0.0005
          57   -0.0075    0.0359    0.0520   -0.0087   -0.0201    0.0162    0.0033    0.0052
          58    0.0461   -0.0108   -0.0064   -0.0027    0.0072   -0.0161   -0.0446    0.1670
          59    0.0414    0.0033    0.0128   -0.0044   -0.0070   -0.0019    0.0117    0.0836
          60   -0.0441   -0.0134   -0.0053    0.0122    0.0061    0.0180    0.0400   -0.1070
          61   -0.0215   -0.0268   -0.0699   -0.0068   -0.1566    0.1434   -0.0672    0.0102
          62    0.0154   -0.0164   -0.0478    0.0375   -0.0633    0.0417   -0.0286    0.0011
          63   -0.0216   -0.0649    0.0549   -0.0090   -0.1150    0.0545   -0.0248   -0.0132
          64   -0.0011    0.0321    0.0759   -0.0426    0.1044   -0.0786    0.0490   -0.0076
          65    0.0428    0.0331   -0.0723    0.0568    0.0522   -0.0344    0.0007    0.0069
          66    0.0245    0.0189   -0.0127    0.0275    0.0595   -0.0472    0.0126    0.0019
          67    0.0016    0.0338   -0.0737   -0.0432   -0.1122   -0.0700    0.0481   -0.0073
          68    0.0418   -0.0302   -0.0461   -0.0519    0.0825    0.0519   -0.0109   -0.0051
          69    0.0268   -0.0187   -0.0580   -0.0378    0.0195    0.0075    0.0052   -0.0053
          70    0.0211   -0.0290    0.0696   -0.0057    0.1718    0.1309   -0.0660    0.0096
          71   -0.0117    0.0638    0.0281   -0.0099   -0.1364   -0.0572    0.0340    0.0115
          72    0.0243   -0.0139   -0.0684   -0.0382   -0.0032   -0.0108    0.0135   -0.0072


   Root No.      17        18        19        20        21        22        23        24

                17 A      18 A      19 A      20 A      21 A      22 A      23 A      24 A   

                 776.2     868.8     875.6     929.6     931.3     946.7     962.3     994.3
  
           1    0.0000    0.0006    0.0117   -0.0006   -0.0022    0.0051   -0.0003    0.0002
           2   -0.0449    0.0016    0.0052   -0.0001    0.0023    0.0017   -0.0012    0.0121
           3   -0.0268    0.0004   -0.0088   -0.0016   -0.0036   -0.0028   -0.0004    0.0090
           4   -0.0001   -0.0011   -0.0183   -0.0053   -0.0177    0.0108   -0.0004    0.0009
           5    0.0007   -0.0029   -0.0142    0.0083    0.0052   -0.0029   -0.0196   -0.0008
           6    0.0005    0.0001    0.0236    0.0008   -0.0110    0.0039   -0.0124   -0.0006
           7   -0.0274    0.0306    0.0142    0.0037    0.0107   -0.0145   -0.0004    0.0094
           8   -0.0144    0.0056   -0.0113   -0.0008   -0.0072    0.0001    0.0027   -0.0076
           9   -0.0533   -0.0223   -0.0102   -0.0017   -0.0072    0.0098    0.0030   -0.0207
          10    0.0277   -0.0287    0.0163    0.0026    0.0109   -0.0144    0.0016   -0.0086
          11   -0.0534   -0.0152    0.0156    0.0039    0.0094   -0.0087    0.0045   -0.0221
          12    0.0123    0.0159    0.0041    0.0019    0.0025    0.0045    0.0006    0.0010
          13   -0.0470    0.0035   -0.0103   -0.0009   -0.0047    0.0091   -0.0021   -0.0239
          14    0.0905    0.0004   -0.0028   -0.0011   -0.0013    0.0033   -0.0008   -0.0119
          15   -0.0167    0.0008    0.0047    0.0010    0.0029   -0.0058   -0.0007    0.0265
          16    0.0470   -0.0049   -0.0100   -0.0018   -0.0045    0.0091    0.0015    0.0228
          17    0.0278    0.0005   -0.0030   -0.0007   -0.0019    0.0035   -0.0013    0.0175
          18    0.0877    0.0007    0.0046    0.0000    0.0027   -0.0056    0.0001   -0.0220
          19   -0.0056   -0.0004   -0.0030    0.0213   -0.0157   -0.0127    0.0029    0.0002
          20    0.0026    0.0024    0.0102    0.0036   -0.0102   -0.0048   -0.0031   -0.0005
          21   -0.0026   -0.0005   -0.0033    0.0085   -0.0100   -0.0033    0.0111    0.0005
          22    0.0056    0.0001   -0.0031   -0.0285   -0.0065   -0.0126   -0.0022   -0.0005
          23   -0.0011    0.0005   -0.0018    0.0160    0.0087    0.0053    0.0083    0.0002
          24    0.0034    0.0011   -0.0109    0.0018    0.0043    0.0023   -0.0078   -0.0007
          25   -0.0025   -0.0007   -0.0037    0.0095   -0.0009   -0.0073   -0.0035    0.0004
          26    0.0022    0.0024    0.0143   -0.0109   -0.0159    0.0093    0.0306    0.0012
          27    0.0012    0.0000   -0.0034    0.0052    0.0005   -0.0056   -0.0079   -0.0005
          28    0.0024    0.0003   -0.0036   -0.0091    0.0025   -0.0070    0.0039   -0.0014
          29    0.0021    0.0008   -0.0038    0.0035    0.0064    0.0009    0.0076    0.0004
          30    0.0013    0.0006   -0.0140   -0.0029    0.0164   -0.0094    0.0319    0.0009
          31   -0.0002   -0.0016   -0.0248   -0.0027   -0.0104    0.0483   -0.0017    0.0012
          32   -0.0223    0.0578    0.0082    0.0005    0.0032   -0.0052   -0.0004    0.1162
          33   -0.0133    0.0335   -0.0187   -0.0019   -0.0055    0.0092   -0.0005    0.0720
          34   -0.0003   -0.0014   -0.0189   -0.0141   -0.0488    0.0682   -0.0026    0.0006
          35    0.0100   -0.0004   -0.0140    0.0226    0.0091   -0.0146   -0.0972   -0.0025
          36    0.0060    0.0013    0.0222    0.0058   -0.0211    0.0193   -0.0597   -0.0017
          37   -0.0037   -0.0062   -0.0136   -0.0011    0.0005    0.0003    0.0057   -0.0574
          38   -0.0418    0.0415    0.0163    0.0041    0.0033   -0.0145   -0.0039    0.0590
          39   -0.0425    0.1159    0.0216    0.0065    0.0198   -0.0424    0.0078   -0.0102
          40   -0.0104   -0.0702    0.0056    0.0024    0.0018    0.0196   -0.0005   -0.0082
          41   -0.0479   -0.0942   -0.0749   -0.0119   -0.0419    0.0420    0.0023   -0.0870
          42   -0.0373   -0.0639   -0.0010    0.0002   -0.0049    0.0219    0.0030   -0.0130
          43    0.0092    0.0706    0.0002   -0.0006    0.0020    0.0201   -0.0015    0.0005
          44   -0.0538   -0.0957    0.0434    0.0082    0.0238   -0.0394    0.0068   -0.0481
          45   -0.0245   -0.0454    0.0695    0.0104    0.0348   -0.0267    0.0019   -0.0780
          46    0.0039    0.0048   -0.0142    0.0012    0.0000    0.0002   -0.0053    0.0587
          47   -0.0583    0.1183   -0.0357   -0.0033   -0.0202    0.0448    0.0016    0.0140
          48   -0.0163   -0.0180   -0.0031    0.0040    0.0057   -0.0073   -0.0063    0.0580
          49   -0.0653   -0.1085    0.0595    0.0076    0.0260   -0.0377    0.0003    0.1514
          50    0.0705   -0.0401    0.0306    0.0034    0.0158   -0.0180   -0.0035    0.0780
          51   -0.0526    0.0891   -0.0196   -0.0001    0.0012    0.0147   -0.0150   -0.0197
          52   -0.0126    0.0000    0.0350   -0.1526    0.1326    0.0919   -0.0090    0.0015
          53    0.0027    0.0018   -0.0116   -0.0464    0.0587    0.0076   -0.0639   -0.0011
          54   -0.0042   -0.0008   -0.0074   -0.0714    0.0758    0.0329   -0.0332    0.0003
          55    0.0130    0.0038    0.0346    0.2153    0.0647    0.0905    0.0043   -0.0008
          56   -0.0024    0.0014    0.0116   -0.1300   -0.0534   -0.0337   -0.0588   -0.0014
          57    0.0043    0.0025    0.0060   -0.0162   -0.0114    0.0068   -0.0416   -0.0015
          58    0.0628    0.1162    0.0512    0.0075    0.0257   -0.0373    0.0025   -0.1491
          59   -0.0148    0.0603   -0.0020   -0.0038   -0.0084   -0.0044   -0.0148    0.0258
          60    0.0885   -0.0817   -0.0304   -0.0046   -0.0129    0.0226    0.0022    0.0755
          61    0.0128   -0.0070   -0.0506    0.0237    0.0260   -0.0089   -0.0769   -0.0044
          62    0.0078   -0.0001   -0.0045   -0.0049   -0.0051    0.0076    0.0013   -0.0007
          63    0.0180    0.0099    0.0764   -0.0566   -0.0665    0.0568    0.1200    0.0034
          64   -0.0086    0.0038    0.0523   -0.1257    0.0677    0.0826    0.0364    0.0016
          65   -0.0056   -0.0060   -0.0511   -0.0036    0.0738   -0.0126   -0.0974   -0.0042
          66   -0.0052   -0.0038   -0.0271   -0.0292    0.0749    0.0067   -0.0752   -0.0035
          67    0.0093    0.0020    0.0513    0.1537    0.0174    0.0794   -0.0408    0.0022
          68   -0.0072   -0.0012    0.0478   -0.0810   -0.0788   -0.0035   -0.1153   -0.0065
          69   -0.0023   -0.0001    0.0320   -0.0075   -0.0298    0.0120   -0.0527   -0.0021
          70   -0.0136    0.0016   -0.0495   -0.0071    0.0296   -0.0052    0.0780    0.0073
          71    0.0193    0.0019   -0.0650   -0.0130    0.0716   -0.0488    0.1128   -0.0011
          72   -0.0013   -0.0005    0.0397    0.0054   -0.0310    0.0175   -0.0581   -0.0021


   Root No.      25        26        27        28        29        30        31        32

                25 A      26 A      27 A      28 A      29 A      30 A      31 A      32 A   

                 997.7    1012.8    1029.0    1034.4    1047.6    1076.6    1100.1    1115.0
  
           1    0.0051    0.0001   -0.0007   -0.0065   -0.0344   -0.0002   -0.0016    0.0000
           2   -0.0185    0.0162    0.0003    0.0051    0.0151   -0.0066   -0.0067    0.0174
           3    0.0296    0.0102   -0.0013   -0.0085   -0.0249   -0.0037    0.0106    0.0106
           4    0.0211    0.0000   -0.0001    0.0001    0.0139    0.0003    0.0011   -0.0002
           5    0.0015    0.0018   -0.0026   -0.0012    0.0045   -0.0017    0.0003   -0.0045
           6   -0.0024    0.0011   -0.0012    0.0025   -0.0074   -0.0012   -0.0004   -0.0027
           7    0.0084   -0.0210    0.0019   -0.0012    0.0052    0.0060    0.0102   -0.0009
           8    0.0215   -0.0205   -0.0002   -0.0047   -0.0114    0.0043    0.0092   -0.0211
           9   -0.0085   -0.0112    0.0016    0.0031    0.0042   -0.0018    0.0114    0.0103
          10    0.0088    0.0212   -0.0022   -0.0011    0.0055   -0.0056    0.0103    0.0012
          11   -0.0009   -0.0194    0.0012   -0.0006    0.0014    0.0000   -0.0142   -0.0016
          12   -0.0230   -0.0132    0.0005    0.0058    0.0119    0.0044   -0.0023   -0.0239
          13   -0.0111    0.0214   -0.0026    0.0013   -0.0110   -0.0247   -0.0159   -0.0027
          14   -0.0077    0.0045    0.0008    0.0035    0.0038   -0.0097    0.0126    0.0059
          15    0.0082    0.0039   -0.0014   -0.0032    0.0023    0.0168   -0.0163   -0.0080
          16   -0.0124   -0.0215    0.0030    0.0012   -0.0115    0.0242   -0.0165    0.0020
          17   -0.0050    0.0055   -0.0006    0.0013   -0.0038    0.0104    0.0083   -0.0041
          18    0.0121    0.0023    0.0002   -0.0048   -0.0021   -0.0168   -0.0185    0.0081
          19   -0.0022   -0.0002   -0.0200    0.0217   -0.0002    0.0004   -0.0015    0.0021
          20    0.0000   -0.0023   -0.0037    0.0093   -0.0016    0.0029   -0.0011    0.0050
          21    0.0006    0.0008   -0.0118    0.0101    0.0014   -0.0013   -0.0002   -0.0016
          22   -0.0020    0.0004    0.0242    0.0183   -0.0002   -0.0007   -0.0014   -0.0020
          23   -0.0007   -0.0005   -0.0146   -0.0111   -0.0004    0.0004    0.0007    0.0009
          24    0.0004   -0.0025    0.0015   -0.0038    0.0021    0.0033    0.0007    0.0053
          25   -0.0116    0.0034    0.0310   -0.0299    0.0020   -0.0009    0.0005   -0.0005
          26    0.0017    0.0017    0.0108   -0.0121    0.0025   -0.0011    0.0008   -0.0015
          27   -0.0047    0.0001    0.0175   -0.0147   -0.0019    0.0003    0.0005   -0.0009
          28   -0.0118   -0.0038   -0.0368   -0.0248    0.0020    0.0011    0.0005    0.0005
          29    0.0034    0.0011    0.0238    0.0150    0.0004   -0.0004   -0.0008   -0.0015
          30   -0.0039    0.0015    0.0022    0.0035   -0.0031   -0.0013   -0.0004   -0.0009
          31    0.0197    0.0002   -0.0051   -0.0493   -0.0663    0.0000    0.0561    0.0032
          32   -0.0235    0.0757   -0.0075    0.0125    0.0214   -0.0240   -0.0195    0.2036
          33    0.0300    0.0460   -0.0076   -0.0201   -0.0347   -0.0140    0.0267    0.1240
          34    0.0152   -0.0009   -0.0032   -0.0322    0.1363    0.0010   -0.0142   -0.0012
          35    0.0026   -0.0141    0.0083    0.0037   -0.0165   -0.0101    0.0034   -0.0368
          36   -0.0033   -0.0087    0.0041   -0.0073    0.0273   -0.0059   -0.0043   -0.0224
          37    0.0140   -0.0069    0.0072   -0.0021    0.1106    0.0982    0.0535    0.0645
          38    0.0147   -0.0345   -0.0052   -0.0032   -0.1157   -0.0877   -0.0324   -0.0853
          39    0.0550   -0.0695    0.0094   -0.0042    0.0969    0.0893    0.0836    0.0468
          40   -0.0948   -0.0536    0.0098    0.0339   -0.0131   -0.1011    0.0831    0.0529
          41    0.0564    0.0739   -0.0078   -0.0255    0.0368    0.1149   -0.0542   -0.0151
          42   -0.0843   -0.0539    0.0086    0.0314   -0.0168   -0.0974    0.0749    0.0468
          43   -0.0966    0.0527   -0.0017    0.0350   -0.0136    0.1021    0.0819   -0.0504
          44    0.0519   -0.0122    0.0000   -0.0163   -0.0022   -0.0329   -0.0406    0.0324
          45   -0.0865    0.0907   -0.0023    0.0384   -0.0409    0.1479    0.0810   -0.0340
          46    0.0104    0.0062   -0.0074   -0.0015    0.1120   -0.0958    0.0565   -0.0626
          47   -0.0558   -0.0785    0.0075    0.0050   -0.0327    0.0356   -0.0592   -0.0011
          48    0.0094    0.0013   -0.0086    0.0017    0.1494   -0.1164    0.0719   -0.0951
          49    0.0182    0.0062   -0.0036   -0.0018    0.0351    0.0483   -0.0706   -0.0354
          50   -0.0101    0.0362   -0.0037    0.0084    0.0429    0.0169   -0.0530   -0.0274
          51   -0.0626    0.1427   -0.0144    0.0208    0.0461   -0.0406   -0.1401   -0.0544
          52    0.0060    0.0071    0.0513   -0.0666    0.0054   -0.0069    0.0025   -0.0158
          53    0.0090   -0.0083    0.0345   -0.0122    0.0028    0.0107   -0.0023    0.0249
          54    0.0091   -0.0015    0.0329   -0.0278    0.0055    0.0021    0.0002    0.0071
          55    0.0061   -0.0078   -0.0636   -0.0573    0.0055    0.0076    0.0021    0.0160
          56   -0.0116   -0.0052    0.0509    0.0229   -0.0062    0.0064    0.0004    0.0188
          57   -0.0032   -0.0068    0.0147   -0.0042    0.0000    0.0084    0.0015    0.0193
          58    0.0278   -0.0061    0.0030   -0.0029    0.0353   -0.0493   -0.0696    0.0351
          59    0.0568    0.1449   -0.0200   -0.0210   -0.0590   -0.0255    0.1502   -0.0620
          60   -0.0248   -0.0351    0.0042    0.0024   -0.0169    0.0331   -0.0197    0.0003
          61    0.0364   -0.0144   -0.1270    0.1222   -0.0047    0.0052   -0.0037    0.0066
          62    0.0192   -0.0051   -0.0463    0.0435   -0.0002    0.0014   -0.0008    0.0014
          63    0.0403   -0.0034   -0.0684    0.0553    0.0003   -0.0033    0.0015   -0.0076
          64    0.0456   -0.0064   -0.1091    0.0936    0.0027   -0.0008   -0.0024    0.0012
          65    0.0088   -0.0100   -0.0307    0.0404   -0.0091    0.0062   -0.0017    0.0063
          66    0.0161   -0.0100   -0.0479    0.0529   -0.0095    0.0048   -0.0018    0.0039
          67    0.0468    0.0076    0.1266    0.0758    0.0026    0.0003   -0.0024   -0.0010
          68   -0.0174   -0.0145   -0.0681   -0.0554    0.0128    0.0079    0.0021    0.0067
          69    0.0002   -0.0043   -0.0067   -0.0099    0.0036    0.0034    0.0005    0.0039
          70    0.0369    0.0160    0.1507    0.1014   -0.0049   -0.0060   -0.0033   -0.0066
          71   -0.0457   -0.0062   -0.0943   -0.0555   -0.0003   -0.0022   -0.0007   -0.0062
          72    0.0023   -0.0031   -0.0115   -0.0111    0.0004    0.0029    0.0011    0.0050


   Root No.      33        34        35        36        37        38        39        40

                33 A      34 A      35 A      36 A      37 A      38 A      39 A      40 A   

                1123.4    1138.9    1155.9    1184.0    1198.3    1204.1    1230.7    1234.8
  
           1   -0.0100    0.0058    0.0002   -0.0065    0.0004    0.0404    0.0232   -0.0003
           2    0.0059    0.0166   -0.0125   -0.0057   -0.0228    0.0097   -0.0006    0.0384
           3   -0.0093   -0.0275   -0.0081    0.0096   -0.0139   -0.0152    0.0025    0.0231
           4    0.0078   -0.0398   -0.0006   -0.0255   -0.0003    0.0043    0.0161   -0.0002
           5   -0.0011    0.0018   -0.0390   -0.0154   -0.0111   -0.0254   -0.0029    0.0084
           6    0.0015   -0.0021   -0.0233    0.0261   -0.0052    0.0427    0.0051    0.0050
           7   -0.0047   -0.0030   -0.0050    0.0036   -0.0032   -0.0071   -0.0016    0.0004
           8   -0.0241   -0.0115    0.0091    0.0079    0.0042   -0.0044   -0.0027   -0.0049
           9   -0.0133   -0.0067    0.0009   -0.0014    0.0048    0.0106    0.0080   -0.0088
          10   -0.0047   -0.0031    0.0049    0.0035    0.0030   -0.0072   -0.0017   -0.0003
          11    0.0231    0.0113    0.0052   -0.0025    0.0060   -0.0075   -0.0061   -0.0099
          12    0.0145    0.0071    0.0077   -0.0076    0.0015    0.0088    0.0059   -0.0004
          13    0.0160    0.0061    0.0040   -0.0009    0.0042   -0.0041   -0.0042   -0.0111
          14   -0.0158   -0.0085   -0.0017    0.0009   -0.0010    0.0030    0.0033   -0.0013
          15    0.0125    0.0091    0.0013   -0.0009    0.0045   -0.0042   -0.0049   -0.0149
          16    0.0161    0.0063   -0.0040   -0.0008   -0.0043   -0.0039   -0.0039    0.0112
          17   -0.0040   -0.0040    0.0002    0.0003    0.0036    0.0022    0.0025   -0.0139
          18    0.0201    0.0117   -0.0019   -0.0012   -0.0031   -0.0045   -0.0050    0.0058
          19   -0.0003    0.0084    0.0041    0.0031    0.0045   -0.0031   -0.0056    0.0032
          20    0.0047   -0.0003    0.0113    0.0327   -0.0234    0.0136    0.0246   -0.0152
          21   -0.0029    0.0069   -0.0078   -0.0142    0.0088   -0.0152   -0.0132    0.0080
          22   -0.0003    0.0084   -0.0039    0.0033   -0.0045   -0.0030   -0.0058   -0.0031
          23    0.0004   -0.0058   -0.0017   -0.0027   -0.0031    0.0070    0.0001   -0.0001
          24   -0.0053    0.0032    0.0138   -0.0346   -0.0263   -0.0186   -0.0284   -0.0167
          25    0.0006   -0.0033    0.0005   -0.0021    0.0005    0.0023   -0.0065    0.0032
          26   -0.0010   -0.0048    0.0056   -0.0116    0.0091   -0.0025   -0.0070    0.0030
          27    0.0000   -0.0004   -0.0086    0.0074   -0.0074    0.0006    0.0193   -0.0091
          28    0.0006   -0.0032   -0.0006   -0.0020   -0.0004    0.0023   -0.0065   -0.0030
          29    0.0005    0.0027   -0.0049   -0.0010   -0.0023    0.0007   -0.0140   -0.0063
          30    0.0009    0.0039    0.0091    0.0133    0.0119    0.0022    0.0155    0.0067
          31   -0.1384    0.1991    0.0035    0.1023    0.0016   -0.0030   -0.0999    0.0015
          32    0.0302   -0.0169   -0.0081   -0.0266    0.0895    0.0155    0.0192   -0.1036
          33   -0.0441    0.0266   -0.0042    0.0421    0.0542   -0.0294   -0.0347   -0.0617
          34    0.0742   -0.0502   -0.0015    0.2393    0.0021   -0.1193   -0.0289    0.0012
          35   -0.0131    0.0048   -0.1079   -0.0660    0.2642   -0.0079    0.0078    0.0503
          36    0.0196   -0.0053   -0.0650    0.1000    0.1606    0.0052   -0.0106    0.0307
          37   -0.0098    0.0431   -0.0264   -0.0194   -0.0094    0.0383    0.0072    0.0466
          38   -0.0229   -0.0579    0.0288    0.0301    0.0111   -0.0488   -0.0106   -0.0487
          39   -0.0494   -0.0067   -0.0240   -0.0077   -0.0001    0.0153    0.0103    0.0437
          40   -0.0255   -0.0370   -0.0133    0.0033   -0.0077   -0.0173   -0.0043    0.0424
          41   -0.0249    0.0378    0.0070   -0.0254    0.0348    0.0718    0.0363   -0.0399
          42   -0.0289   -0.0426   -0.0047    0.0054   -0.0041   -0.0129   -0.0015    0.0274
          43   -0.0272   -0.0366    0.0123    0.0034    0.0071   -0.0174   -0.0051   -0.0421
          44    0.0384    0.0198   -0.0006    0.0068    0.0124   -0.0226   -0.0158    0.0058
          45    0.0075   -0.0527    0.0067    0.0245    0.0315   -0.0705   -0.0340   -0.0470
          46   -0.0119    0.0424    0.0277   -0.0192    0.0100    0.0377    0.0061   -0.0470
          47    0.0546    0.0335   -0.0071   -0.0075    0.0052    0.0095   -0.0039    0.0159
          48   -0.0059    0.0471    0.0382   -0.0299    0.0105    0.0494    0.0125   -0.0641
          49   -0.0504   -0.0078    0.0065    0.0055   -0.0067   -0.0069   -0.0062    0.0243
          50   -0.0963   -0.0314    0.0046    0.0084   -0.0132    0.0016    0.0028    0.0397
          51   -0.1259   -0.0381    0.0175    0.0111   -0.0163   -0.0051   -0.0047    0.0577
          52   -0.0088    0.0110   -0.1314   -0.0157   -0.0337   -0.0533    0.0964   -0.0349
          53    0.0290   -0.0709    0.2028    0.0360    0.0362    0.1211   -0.1289    0.0416
          54    0.0112   -0.0411    0.0890   -0.0175    0.0418    0.0470   -0.0951    0.0384
          55   -0.0076    0.0084    0.1317   -0.0168    0.0312   -0.0542    0.0972    0.0330
          56   -0.0220    0.0659    0.1767   -0.0032    0.0506   -0.1001    0.1463    0.0509
          57   -0.0189    0.0404    0.1382   -0.0402    0.0082   -0.0850    0.0692    0.0172
          58   -0.0492   -0.0079   -0.0063    0.0054    0.0066   -0.0072   -0.0065   -0.0238
          59    0.1549    0.0484    0.0179   -0.0135   -0.0208    0.0047    0.0041    0.0690
          60    0.0261    0.0101   -0.0040   -0.0022   -0.0041   -0.0036   -0.0044    0.0081
          61    0.0047    0.0094   -0.0047    0.0245   -0.0285   -0.0021   -0.0007    0.0004
          62    0.0008   -0.0011    0.0056   -0.0004   -0.0016   -0.0022   -0.0027    0.0007
          63   -0.0079   -0.0055    0.0051   -0.0405    0.0563    0.0032    0.0069    0.0008
          64   -0.0028    0.0112    0.0037   -0.0229    0.0118   -0.0219   -0.0477    0.0231
          65    0.0058   -0.0013    0.0117    0.0405   -0.0118    0.0289    0.0540   -0.0281
          66    0.0028    0.0061   -0.0056    0.0332   -0.0148    0.0139    0.0488   -0.0239
          67   -0.0026    0.0111   -0.0036   -0.0224   -0.0131   -0.0214   -0.0484   -0.0222
          68   -0.0051   -0.0047    0.0005   -0.0479   -0.0209   -0.0257   -0.0698   -0.0331
          69   -0.0037    0.0037    0.0131   -0.0200   -0.0046   -0.0189   -0.0250   -0.0131
          70    0.0046    0.0092    0.0048    0.0232    0.0287   -0.0027   -0.0006   -0.0003
          71    0.0065    0.0053    0.0071    0.0345    0.0501   -0.0029   -0.0046    0.0014
          72   -0.0044   -0.0018    0.0027   -0.0179   -0.0284    0.0041    0.0055   -0.0001


   Root No.      41        42        43        44        45        46        47        48

                41 A      42 A      43 A      44 A      45 A      46 A      47 A      48 A   

                1249.4    1292.6    1306.3    1344.8    1370.6    1379.8    1381.9    1405.7
  
           1    0.0001    0.0002    0.0388    0.0060   -0.0001   -0.0005    0.0565    0.0059
           2   -0.0310   -0.0268   -0.0030    0.0008   -0.0010   -0.0094   -0.0155   -0.0008
           3   -0.0186   -0.0161    0.0054   -0.0014   -0.0006   -0.0059    0.0254    0.0009
           4    0.0000    0.0000   -0.0376   -0.0268    0.0001    0.0003   -0.0367   -0.0033
           5   -0.0106    0.0375    0.0080    0.0093    0.0230    0.0397    0.0096    0.0018
           6   -0.0063    0.0224   -0.0138   -0.0151    0.0138    0.0239   -0.0145   -0.0023
           7   -0.0194   -0.0056    0.0099    0.0126   -0.0179    0.0061   -0.0353    0.0112
           8    0.0281    0.0103   -0.0097   -0.0100    0.0186   -0.0100    0.0245    0.0236
           9   -0.0077   -0.0022    0.0185    0.0134   -0.0164    0.0010   -0.0293    0.0334
          10    0.0194    0.0057    0.0098    0.0126    0.0180   -0.0055   -0.0353    0.0107
          11    0.0063    0.0028   -0.0119   -0.0072   -0.0059   -0.0039    0.0142   -0.0398
          12    0.0285    0.0103    0.0171    0.0152    0.0242   -0.0087   -0.0355   -0.0055
          13   -0.0032    0.0043   -0.0099   -0.0066    0.0197   -0.0055    0.0112   -0.0084
          14   -0.0115   -0.0032    0.0071    0.0047   -0.0047    0.0019   -0.0088    0.0079
          15   -0.0129    0.0046   -0.0112   -0.0072    0.0275   -0.0071    0.0113   -0.0078
          16    0.0032   -0.0044   -0.0099   -0.0066   -0.0197    0.0053    0.0112   -0.0079
          17   -0.0167    0.0026    0.0066    0.0042    0.0221   -0.0053   -0.0058    0.0025
          18   -0.0042   -0.0051   -0.0115   -0.0075   -0.0171    0.0048    0.0131   -0.0103
          19   -0.0010   -0.0086   -0.0003    0.0108    0.0030    0.0036    0.0048    0.0001
          20    0.0088   -0.0105   -0.0002   -0.0176   -0.0122   -0.0184   -0.0083   -0.0012
          21   -0.0058    0.0140    0.0113   -0.0017   -0.0002    0.0000    0.0027    0.0004
          22    0.0010    0.0084   -0.0003    0.0108   -0.0030   -0.0037    0.0047    0.0001
          23   -0.0009    0.0074   -0.0099    0.0098   -0.0059   -0.0088    0.0013    0.0001
          24    0.0104   -0.0158    0.0056    0.0146   -0.0107   -0.0164    0.0080    0.0010
          25   -0.0027    0.0034   -0.0019    0.0066    0.0057    0.0093    0.0026    0.0001
          26   -0.0011    0.0016    0.0009   -0.0032   -0.0026   -0.0044   -0.0016   -0.0001
          27    0.0059   -0.0049   -0.0001   -0.0128   -0.0086   -0.0136   -0.0058   -0.0005
          28    0.0026   -0.0034   -0.0018    0.0064   -0.0056   -0.0092    0.0022    0.0000
          29    0.0046   -0.0037   -0.0003    0.0128   -0.0089   -0.0142    0.0054    0.0003
          30   -0.0037    0.0037   -0.0009   -0.0032    0.0018    0.0026   -0.0012   -0.0001
          31   -0.0005   -0.0005   -0.0871   -0.0223    0.0001    0.0006   -0.0861   -0.0221
          32    0.0482    0.0487    0.0176    0.0053   -0.0115    0.0181    0.0093    0.0048
          33    0.0288    0.0291   -0.0295   -0.0086   -0.0069    0.0110   -0.0149   -0.0065
          34   -0.0002   -0.0002    0.0656    0.0562   -0.0001   -0.0006    0.0582   -0.0024
          35   -0.0021   -0.0487   -0.0088   -0.0049   -0.0316   -0.0720   -0.0075    0.0017
          36   -0.0013   -0.0293    0.0155    0.0079   -0.0190   -0.0433    0.0098   -0.0039
          37    0.0354   -0.0019   -0.0188   -0.0259    0.0598   -0.0449    0.0696    0.0900
          38   -0.0246    0.0075    0.0217    0.0307   -0.0683    0.0506   -0.0831   -0.0819
          39    0.0717    0.0167    0.0046   -0.0038   -0.0395    0.0538    0.0364   -0.1674
          40    0.0614    0.0096   -0.0159   -0.0136   -0.0153    0.0314    0.0416   -0.1236
          41   -0.0044    0.0123    0.0670    0.0384   -0.0891    0.0724   -0.0451   -0.1497
          42    0.0557    0.0084   -0.0138   -0.0133    0.0024    0.0065    0.0355   -0.0373
          43   -0.0611   -0.0097   -0.0157   -0.0135    0.0151   -0.0316    0.0402   -0.1220
          44    0.0469    0.0130   -0.0193   -0.0062   -0.0394    0.0394   -0.0090    0.1022
          45   -0.0300    0.0063   -0.0656   -0.0401   -0.0798    0.0596    0.0580    0.1144
          46   -0.0356    0.0017   -0.0188   -0.0259   -0.0598    0.0433    0.0708    0.0894
          47    0.0516    0.0181   -0.0143   -0.0110   -0.0664    0.0703    0.0089    0.1845
          48   -0.0554   -0.0013   -0.0171   -0.0290   -0.0421    0.0181    0.0907   -0.0053
          49    0.0452    0.0025   -0.0145   -0.0100   -0.0091    0.0011    0.0182   -0.0050
          50    0.0483   -0.0053    0.0040    0.0015   -0.0406    0.0100   -0.0009    0.0150
          51    0.0980    0.0007   -0.0177   -0.0143   -0.0382    0.0077    0.0285    0.0016
          52    0.0200   -0.0141   -0.0082   -0.0143   -0.0079   -0.0112   -0.0077    0.0005
          53   -0.0236    0.0164   -0.0090    0.0082    0.0112    0.0168   -0.0020   -0.0018
          54   -0.0234    0.0323    0.0035    0.0093    0.0134    0.0207    0.0036    0.0000
          55   -0.0196    0.0142   -0.0083   -0.0142    0.0079    0.0114   -0.0073    0.0007
          56   -0.0311    0.0363    0.0010   -0.0119    0.0171    0.0263   -0.0013    0.0011
          57   -0.0095   -0.0006    0.0098   -0.0028    0.0036    0.0051    0.0037    0.0016
          58   -0.0449   -0.0027   -0.0144   -0.0100    0.0088   -0.0013    0.0182   -0.0054
          59    0.1087   -0.0016    0.0137    0.0119   -0.0525    0.0119   -0.0248   -0.0068
          60   -0.0034   -0.0052   -0.0119   -0.0081   -0.0181    0.0051    0.0142   -0.0122
          61   -0.0070    0.0550    0.0349   -0.0563   -0.0217   -0.0306   -0.0162   -0.0012
          62   -0.0013    0.0147    0.0107   -0.0225   -0.0114   -0.0174   -0.0080   -0.0005
          63    0.0137   -0.1138   -0.0826    0.1208    0.0536    0.0771    0.0302    0.0023
          64   -0.0193    0.0713    0.0528   -0.0513   -0.0230   -0.0336   -0.0084    0.0000
          65    0.0268   -0.1181   -0.0758    0.0984    0.0410    0.0595    0.0240    0.0013
          66    0.0201   -0.0683   -0.0378    0.0408    0.0131    0.0177    0.0085    0.0004
[...]
 TRAVEL      0.0856        C  5 --  C  6           +9.7% ( 41.6%)     0.0%
 RED. MASS   0.6135        C  4 --  H 16           +7.0% ( 35.2%)     0.1%
 EFF. MASS   6.7203

 VIBRATION   46   46A       ATOM PAIR        ENERGY CONTRIBUTION    RADIAL
 FREQ.      1379.85        C  2 --  H 12          +14.6% ( 49.4%)     0.0%
 T-DIPOLE    0.1404        C  2 --  C  8          +14.3% ( 48.8%)    79.9%
 TRAVEL      0.0938        C  2 --  C  7          +14.2% ( 48.7%)    79.0%
 RED. MASS   0.7698        C  1 --  C  2          +10.5% ( 41.8%)     0.0%
 EFF. MASS   5.5547

 VIBRATION   47   47A       ATOM PAIR        ENERGY CONTRIBUTION    RADIAL
 FREQ.      1381.91        C  1 --  C  4          +13.2% ( 55.0%)    39.1%
 T-DIPOLE    0.0816        C  1 --  C  3          +13.2% ( 55.0%)    39.1%
 TRAVEL      0.0752        C  1 --  C  2          +12.1% ( 52.5%)    79.6%
 RED. MASS   1.5086        C  1 --  H 11           +9.1% ( 45.6%)     0.7%
 EFF. MASS   8.6258

 VIBRATION   48   48A       ATOM PAIR        ENERGY CONTRIBUTION    RADIAL
 FREQ.      1405.68        C  3 --  H 13          +18.5% ( 46.5%)     5.0%
 T-DIPOLE    0.0559        C  4 --  H 16          +18.0% ( 45.9%)     5.0%
 TRAVEL      0.1205        C  3 --  H 14          +16.9% ( 44.5%)     5.9%
 RED. MASS   0.3926        C  4 --  H 15          +16.5% ( 43.9%)     5.8%
 EFF. MASS   3.3032

 VIBRATION   49   49A       ATOM PAIR        ENERGY CONTRIBUTION    RADIAL
 FREQ.      1414.45        C  4 --  C  6          +12.5% ( 46.9%)    93.9%
 T-DIPOLE    0.0428        C  3 --  C  5          +12.2% ( 46.3%)    93.9%
 TRAVEL      0.0858        C  4 --  H 16           +9.5% ( 41.0%)     6.3%
 RED. MASS   0.6811        C  4 --  H 15           +9.3% ( 40.5%)     6.5%
 EFF. MASS   6.4737

 VIBRATION   50   50A       ATOM PAIR        ENERGY CONTRIBUTION    RADIAL
 FREQ.      1830.69        C  5 --  C  6          +45.8% (100.0%)   100.0%
 T-DIPOLE    0.0878        C  3 --  C  5          +13.9% ( 55.2%)    25.6%
 TRAVEL      0.0557        C  4 --  C  6          +13.9% ( 55.1%)    25.6%
 RED. MASS   5.3832        C  5 --  H 17          +13.0% ( 53.2%)     9.7%
 EFF. MASS  11.8692        C  6 --  H 20          +13.0% ( 53.2%)     9.7%

 VIBRATION   51   51A       ATOM PAIR        ENERGY CONTRIBUTION    RADIAL
 FREQ.      1854.37        C  7 --  C  9          +22.6% ( 70.4%)    99.1%
 T-DIPOLE    0.0868        C  8 --  C 10          +22.5% ( 70.2%)    99.1%
 TRAVEL      0.0556        C  2 --  C  7           +8.6% ( 43.3%)    53.4%
 RED. MASS   2.6043        C  2 --  C  8           +8.5% ( 43.2%)    53.4%
 EFF. MASS  11.7762

 VIBRATION   52   52A       ATOM PAIR        ENERGY CONTRIBUTION    RADIAL
 FREQ.      1863.75        C  8 --  C 10          +23.1% ( 70.7%)    99.0%
 T-DIPOLE    0.1262        C  7 --  C  9          +22.9% ( 70.4%)    99.0%
 TRAVEL      0.0553        C  2 --  C  8           +8.1% ( 41.8%)    50.7%
 RED. MASS   2.7035        C  2 --  C  7           +8.0% ( 41.7%)    50.6%
 EFF. MASS  11.8142

 VIBRATION   53   53A       ATOM PAIR        ENERGY CONTRIBUTION    RADIAL
 FREQ.      2855.81        C  2 --  H 12          +95.9% ( 99.6%)   100.0%
 T-DIPOLE    0.0516        C  1 --  C  2           +1.1% ( 10.8%)     8.7%
 TRAVEL      0.1274        C  2 --  C  8           +1.1% ( 10.7%)    11.9%
 RED. MASS   0.9153        C  2 --  C  7           +1.1% ( 10.7%)    11.9%
 EFF. MASS   1.4537

 VIBRATION   54   54A       ATOM PAIR        ENERGY CONTRIBUTION    RADIAL
 FREQ.      2903.11        C  1 --  H 11          +94.8% ( 99.0%)   100.0%
 T-DIPOLE    0.0600        C  1 --  C  3           +1.1% ( 10.5%)     9.4%
 TRAVEL      0.1266        C  1 --  C  4           +1.1% ( 10.5%)     9.4%
 RED. MASS   0.8930        C  1 --  C  2           +1.0% ( 10.2%)     8.4%
 EFF. MASS   1.4497

 VIBRATION   55   55A       ATOM PAIR        ENERGY CONTRIBUTION    RADIAL
 FREQ.      2964.07        C  3 --  H 13          +36.0% ( 62.2%)    97.8%
 T-DIPOLE    0.0496        C  4 --  H 16          +25.2% ( 52.1%)    97.8%
 TRAVEL      0.1217        C  3 --  H 14          +21.4% ( 48.0%)    94.7%
 RED. MASS   0.2826        C  4 --  H 15          +15.1% ( 40.3%)    94.8%
 EFF. MASS   1.5356

 VIBRATION   56   56A       ATOM PAIR        ENERGY CONTRIBUTION    RADIAL
 FREQ.      2965.49        C  4 --  H 16          +35.7% ( 61.9%)    97.9%
 T-DIPOLE    0.1120        C  3 --  H 13          +25.0% ( 51.8%)    97.9%
 TRAVEL      0.1218        C  4 --  H 15          +21.2% ( 47.7%)    94.8%
 RED. MASS   0.2763        C  3 --  H 14          +14.7% ( 39.7%)    94.7%
 EFF. MASS   1.5315

 VIBRATION   57   57A       ATOM PAIR        ENERGY CONTRIBUTION    RADIAL
 FREQ.      3041.98        C  7 --  H 18          +72.5% ( 86.3%)   100.0%
 T-DIPOLE    0.3170        C  8 --  H 19          +23.7% ( 49.4%)   100.0%
 TRAVEL      0.1215        C  7 --  C  9           +1.1% ( 10.5%)    31.4%
 RED. MASS   0.5722        C  2 --  C  7           +1.0% ( 10.2%)    13.8%
 EFF. MASS   1.5023

 VIBRATION   58   58A       ATOM PAIR        ENERGY CONTRIBUTION    RADIAL
 FREQ.      3042.26        C  8 --  H 19          +72.5% ( 86.4%)   100.0%
 T-DIPOLE    0.1073        C  7 --  H 18          +23.8% ( 49.4%)   100.0%
 TRAVEL      0.1216        C  8 --  C 10           +1.1% ( 10.4%)    31.1%
 RED. MASS   0.5730        C  2 --  C  8           +1.0% ( 10.2%)    14.0%
 EFF. MASS   1.4987

 VIBRATION   59   59A       ATOM PAIR        ENERGY CONTRIBUTION    RADIAL
 FREQ.      3045.33        C  3 --  H 14          +35.4% ( 58.7%)    98.8%
 T-DIPOLE    0.1264        C  4 --  H 15          +27.5% ( 51.8%)    98.8%
 TRAVEL      0.1315        C  3 --  H 13          +20.0% ( 44.1%)    95.4%
 RED. MASS   0.2615        C  4 --  H 16          +15.7% ( 39.1%)    95.4%
 EFF. MASS   1.2797

 VIBRATION   60   60A       ATOM PAIR        ENERGY CONTRIBUTION    RADIAL
 FREQ.      3046.31        C  4 --  H 15          +35.2% ( 58.6%)    98.7%
 T-DIPOLE    0.0840        C  3 --  H 14          +27.5% ( 51.8%)    98.8%
 TRAVEL      0.1308        C  4 --  H 16          +20.0% ( 44.2%)    95.3%
 RED. MASS   0.2603        C  3 --  H 13          +15.5% ( 38.9%)    95.2%
 EFF. MASS   1.2947

 VIBRATION   61   61A       ATOM PAIR        ENERGY CONTRIBUTION    RADIAL
 FREQ.      3116.33        C  5 --  H 17          +49.1% ( 71.1%)   100.0%
 T-DIPOLE    0.3711        C  6 --  H 20          +48.4% ( 70.6%)   100.0%
 TRAVEL      0.1217        C  5 --  C  6           +1.1% ( 10.7%)     0.0%
 RED. MASS   0.4648        C  3 --  C  5           +0.7% (  8.7%)    27.3%
 EFF. MASS   1.4621

 VIBRATION   62   62A       ATOM PAIR        ENERGY CONTRIBUTION    RADIAL
 FREQ.      3133.00        C 10 --  H 23          +77.3% ( 89.4%)    99.9%
 T-DIPOLE    0.1160        C  9 --  H 22          +16.2% ( 41.0%)    99.9%
 TRAVEL      0.1186        C 10 --  H 24           +4.3% ( 21.0%)    64.7%
 RED. MASS   0.6257        C  8 --  C 10           +1.1% ( 10.7%)    25.4%
 EFF. MASS   1.5313

 VIBRATION   63   63A       ATOM PAIR        ENERGY CONTRIBUTION    RADIAL
 FREQ.      3133.16        C  9 --  H 22          +76.9% ( 89.2%)    99.9%
 T-DIPOLE    0.2500        C 10 --  H 23          +16.1% ( 40.8%)    99.9%
 TRAVEL      0.1185        C  9 --  H 21           +4.6% ( 21.8%)    66.7%
 RED. MASS   0.6216        C  7 --  C  9           +1.1% ( 10.7%)    24.7%
 EFF. MASS   1.5338

 VIBRATION   64   64A       ATOM PAIR        ENERGY CONTRIBUTION    RADIAL
 FREQ.      3135.51        C  6 --  H 20          +48.1% ( 70.6%)    99.9%
 T-DIPOLE    0.3489        C  5 --  H 17          +47.4% ( 70.1%)    99.9%
 TRAVEL      0.1141        C  5 --  C  6           +2.5% ( 16.1%)   100.0%
 RED. MASS   0.4657        C  4 --  C  6           +1.0% (  9.9%)    20.5%
 EFF. MASS   1.6522

 VIBRATION   65   65A       ATOM PAIR        ENERGY CONTRIBUTION    RADIAL
 FREQ.      3146.35        C  9 --  H 21          +47.8% ( 69.7%)    99.8%
 T-DIPOLE    0.3206        C 10 --  H 24          +45.6% ( 68.0%)    99.8%
 TRAVEL      0.1206        C  9 --  H 22           +2.2% ( 15.0%)    28.8%
 RED. MASS   0.4230        C 10 --  H 23           +2.0% ( 14.4%)    27.3%
 EFF. MASS   1.4734

 VIBRATION   66   66A       ATOM PAIR        ENERGY CONTRIBUTION    RADIAL
 FREQ.      3146.56        C 10 --  H 24          +47.6% ( 69.5%)    99.8%
 T-DIPOLE    0.1741        C  9 --  H 21          +45.2% ( 67.8%)    99.7%
 TRAVEL      0.1206        C 10 --  H 23           +2.4% ( 15.5%)    31.5%
 RED. MASS   0.4188        C  9 --  H 22           +2.3% ( 15.4%)    32.9%
 EFF. MASS   1.4722

 SYMMETRY NUMBER FOR POINT-GROUP C1  =  1


          SYSTEM IS A GROUND STATE


    NULL



          MOLECULE IS NOT LINEAR

          THERE ARE 66 GENUINE VIBRATIONS IN THIS SYSTEM
          THIS THERMODYNAMICS CALCULATION IS LIMITED TO
          MOLECULES WHICH HAVE NO INTERNAL ROTATIONS




                    CALCULATED THERMODYNAMIC PROPERTIES
                                          *
   TEMP. (K)   PARTITION FUNCTION   H.O.F.    ENTHALPY  HEAT CAPACITY ENTROPY
                                   KCAL/MOL   CAL/MOLE    CAL/K/MOL  CAL/K/MOL


 298.00  VIB.     0.8666D+03                  4601.2858    32.9706    28.8831
         ROT.     0.7251D+06                   888.2813     2.9808    29.7962
         INT.     0.6283D+09                  5489.5671    35.9514    58.6793
         TRA.     0.1503D+28                  1480.4688     4.9680    40.5931
         TOT.                       38.352    6970.0360    40.9194    99.2724

 200.00  VIB.     0.7042D+02                  2012.7618    20.2534    18.5184
         ROT.     0.3987D+06                   596.1620     2.9808    28.6076
         INT.     0.2807D+08                  2608.9237    23.2342    47.1260
         TRA.     0.8266D+27                   993.6033     4.9680    38.6119
         TOT.                       34.985    3602.5270    28.2022    85.7379

 210.00  VIB.     0.9072D+02                  2221.1091    21.4224    19.5347
         ROT.     0.4289D+06                   625.9700     2.9808    28.7530
         INT.     0.3891D+08                  2847.0792    24.4032    48.2877
         TRA.     0.8893D+27                  1043.2834     4.9680    38.8543
         TOT.                       35.272    3890.3626    29.3712    87.1420

 220.00  VIB.     0.1169D+03                  2441.3318    22.6282    20.5590
         ROT.     0.4599D+06                   655.7781     2.9808    28.8917
         INT.     0.5377D+08                  3097.1099    25.6090    49.4506
         TRA.     0.9536D+27                  1092.9636     4.9680    39.0854
         TOT.                       35.572    4190.0735    30.5770    88.5361

 230.00  VIB.     0.1507D+03                  2673.7897    23.8690    21.5921
         ROT.     0.4916D+06                   685.5862     2.9808    29.0242
         INT.     0.7411D+08                  3359.3759    26.8498    50.6162
         TRA.     0.1019D+28                  1142.6437     4.9680    39.3063
         TOT.                       35.884    4502.0197    31.8178    89.9225

 240.00  VIB.     0.1945D+03                  2918.8198    25.1421    22.6347
         ROT.     0.5241D+06                   715.3943     2.9808    29.1510
         INT.     0.1019D+09                  3634.2142    28.1229    51.7857
         TRA.     0.1087D+28                  1192.3239     4.9680    39.5177
         TOT.                       36.209    4826.5381    33.0909    91.3035

 250.00  VIB.     0.2510D+03                  3176.7286    26.4442    23.6874
         ROT.     0.5571D+06                   745.2024     2.9808    29.2727
         INT.     0.1399D+09                  3921.9310    29.4250    52.9601
         TRA.     0.1155D+28                  1242.0041     4.9680    39.7205
         TOT.                       36.546    5163.9351    34.3930    92.6806

 260.00  VIB.     0.3243D+03                  3447.7866    27.7713    24.7503
         ROT.     0.5909D+06                   775.0105     2.9808    29.3896
         INT.     0.1917D+09                  4222.7972    30.7521    54.1399
         TRA.     0.1225D+28                  1291.6842     4.9680    39.9154
         TOT.                       36.897    5514.4814    35.7201    94.0553

 270.00  VIB.     0.4194D+03                  3732.2249    29.1195    25.8236
         ROT.     0.6253D+06                   804.8186     2.9808    29.5021
         INT.     0.2623D+09                  4537.0435    32.1003    55.3257
         TRA.     0.1297D+28                  1341.3644     4.9680    40.1029
         TOT.                       37.260    5878.4079    37.0683    95.4286

 280.00  VIB.     0.5430D+03                  4030.2328    30.4845    26.9073
         ROT.     0.6604D+06                   834.6267     2.9808    29.6105
         INT.     0.3586D+09                  4864.8596    33.4653    56.5178
         TRA.     0.1369D+28                  1391.0445     4.9680    40.2835
         TOT.                       37.638    6255.9041    38.4334    96.8013

 290.00  VIB.     0.7037D+03                  4341.9576    31.8622    28.0010
         ROT.     0.6961D+06                   864.4348     2.9808    29.7151
         INT.     0.4898D+09                  5206.3925    34.8430    57.7161
         TRA.     0.1443D+28                  1440.7247     4.9680    40.4579
         TOT.                       38.029    6647.1172    39.8110    98.1740

 300.00  VIB.     0.9130D+03                  4667.5047    33.2483    29.1045
         ROT.     0.7324D+06                   894.2429     2.9808    29.8162
         INT.     0.6686D+09                  5561.7476    36.2291    58.9207
         TRA.     0.1518D+28                  1490.4049     4.9680    40.6263
         TOT.                       38.434    7052.1525    41.1971    99.5470

 310.00  VIB.     0.1186D+04                  5006.9391    34.6390    30.2174
         ROT.     0.7693D+06                   924.0510     2.9808    29.9139
         INT.     0.9123D+09                  5930.9901    37.6198    60.1313
         TRA.     0.1595D+28                  1540.0850     4.9680    40.7892
         TOT.                       38.853    7471.0751    42.5878   100.9205

 320.00  VIB.     0.1542D+04                  5360.2875    36.0305    31.3391
         ROT.     0.8068D+06                   953.8591     2.9808    30.0086
         INT.     0.1244D+10                  6314.1466    39.0113    61.3477
         TRA.     0.1673D+28                  1589.7652     4.9680    40.9469
         TOT.                       39.286    7903.9118    43.9793   102.2946

 330.00  VIB.     0.2008D+04                  5727.5408    37.4194    32.4691
         ROT.     0.8449D+06                   983.6672     2.9808    30.1003
         INT.     0.1697D+10                  6711.2080    40.4003    62.5694
         TRA.     0.1752D+28                  1639.4454     4.9680    41.0998
         TOT.                       39.733    8350.6534    45.3683   103.6692

 340.00  VIB.     0.2619D+04                  6108.6572    38.8026    33.6068
         ROT.     0.8836D+06                  1013.4753     2.9808    30.1893
         INT.     0.2314D+10                  7122.1325    41.7834    63.7960
         TRA.     0.1832D+28                  1689.1255     4.9680    41.2481
         TOT.                       40.193    8811.2581    46.7515   105.0441

 350.00  VIB.     0.3418D+04                  6503.5649    40.1773    34.7514
         ROT.     0.9229D+06                  1043.2834     2.9808    30.2757
         INT.     0.3155D+10                  7546.8483    43.1581    65.0271
         TRA.     0.1914D+28                  1738.8057     4.9680    41.3921
         TOT.                       40.668    9285.6540    48.1261   106.4192

 360.00  VIB.     0.4468D+04                  6912.1654    41.5408    35.9024
         ROT.     0.9628D+06                  1073.0915     2.9808    30.3596
         INT.     0.4302D+10                  7985.2569    44.5216    66.2620
         TRA.     0.1996D+28                  1788.4859     4.9680    41.5321
         TOT.                       41.156    9773.7428    49.4896   107.7941

 370.00  VIB.     0.5847D+04                  7334.3368    42.8911    37.0590
         ROT.     0.1003D+07                  1102.8996     2.9808    30.4413
         INT.     0.5866D+10                  8437.2364    45.8719    67.5003
         TRA.     0.2080D+28                  1838.1660     4.9680    41.6682
         TOT.                       41.657   10275.4024    50.8399   109.1685

 380.00  VIB.     0.7661D+04                  7769.9365    44.2262    38.2206
         ROT.     0.1044D+07                  1132.7077     2.9808    30.5208
         INT.     0.7999D+10                  8902.6442    47.2070    68.7414
         TRA.     0.2165D+28                  1887.8462     4.9680    41.8007
         TOT.                       42.173   10790.4904    52.1750   110.5421

 390.00  VIB.     0.1005D+05                  8218.8045    45.5445    39.3865
         ROT.     0.1086D+07                  1162.5158     2.9808    30.5982
         INT.     0.1091D+11                  9381.3203    48.5253    69.9847
         TRA.     0.2251D+28                  1937.5263     4.9680    41.9297
         TOT.                       42.701   11318.8466    53.4933   111.9144

 400.00  VIB.     0.1320D+05                  8680.7656    46.8446    40.5560
         ROT.     0.1128D+07                  1192.3239     2.9808    30.6737
         INT.     0.1488D+11                  9873.0895    49.8254    71.2297
         TRA.     0.2338D+28                  1987.2065     4.9680    42.0555
         TOT.                       43.242   11860.2960    54.7934   113.2852

   *: NOTE: HEATS OF FORMATION ARE RELATIVE TO THE
            ELEMENTS IN THEIR STANDARD STATE AT 298K
              (=  Standard Enthalpy of Formation).

            Hvib:  Zero-point energy is not included.
                   frequencies of less than zero cm-1 are not included.
            Hrot = (3/2)RT
            Htra = (3/2)RT + pV = (5/2)RT

            Heat capacity is Cp, not Cv

           For more information, see: HTTP://OpenMOPAC.net/Manual/thermochemistry.html


           FORCE CONSTANT IN CARTESIAN COORDINATES (Millidynes/A)

    ATOM   CHEMICAL       X               Y               Z
   NUMBER   SYMBOL  FORCE CONSTANT  FORCE CONSTANT  FORCE CONSTANT

      1       C        8.151467        7.622545        8.402861
      2       C        7.690579        9.036558        8.909058
      3       C        8.191744        7.941316        9.026043
      4       C        8.195675        9.455643        7.512914
      5       C        5.195886       13.997518        8.319827
      6       C        5.195705       12.075112       10.233112
      7       C        6.236102        9.271914       11.614647
      8       C        6.172701       12.053293        8.888363
      9       C        5.772366        9.393585       11.338537
     10       C        5.709695       11.794857        8.995589
     11       H        1.128595        1.656571        3.318930
     12       H        1.116288        1.675794        3.247666
     13       H        2.949531        2.777870        0.647852
     14       H        2.017122        0.818021        3.551265
     15       H        2.017651        3.418506        0.950422
     16       H        2.950542        1.047631        2.378579
     17       H        1.610003        3.943977        0.877699
     18       H        0.661162        2.081352        3.488640
     19       H        0.651683        1.534292        4.044111
     20       H        1.607296        0.828456        3.994632
     21       H        0.996584        4.852328        0.629176
     22       H        0.684144        1.972313        3.800092
     23       H        0.671986        1.683670        4.099150
     24       H        0.993883        1.528583        3.956881



 TOTAL CPU TIME:             3.56 SECONDS

 == MOPAC DONE ==
