 *******************************************************************************
 ** Site#: 14399           For non-commercial use only        Version 13.159M **
 *******************************************************************************
 ** Cite this work as: MOPAC2012, James J. P. Stewart, Stewart Computational  **
 ** Chemistry, Version 13.159M web: HTTP://OpenMOPAC.net  Days remaining:   6 **
 *******************************************************************************
 **                                                                           **
 **                                MOPAC2012                                  **
 **                                                                           **
 *******************************************************************************

                            PM3 CALCULATION RESULTS


 *******************************************************************************
 *  CALCULATION DONE:                                Mon Jun  2 14:10:50 2014  *
 *  PM3      - The PM3 Hamiltonian to be used
 *  PRECISE  - CRITERIA TO BE INCREASED BY 100 TIMES
 *  NOSYM    - POINT-GROUP SYMMETRY SET TO C1
 *  T=       - A TIME OF 172800.0 SECONDS REQUESTED
 *  DUMP=N   - RESTART FILE WRITTEN EVERY  7200.000 SECONDS
 *******************************************************************************
pm3  precise nosym
 InChI=1S/C8H14/c1-2-8-6-4-3-5-7-8/h4,6,8H,2-3,5,7H2,1H3

   ATOM   CHEMICAL          X               Y               Z
  NUMBER   SYMBOL      (ANGSTROMS)     (ANGSTROMS)     (ANGSTROMS)
 
     1       C          0.38710000  *  -0.13450000  *  -0.66730000  *
     2       C         -0.18370000  *   0.91230000  *   0.31370000  *
     3       C          1.79480000  *  -0.60970000  *  -0.26300000  *
     4       C         -1.68370000  *   1.12540000  *   0.10810000  *
     5       C         -2.45110000  *  -0.18940000  *   0.27670000  *
     6       C          2.85650000  *   0.48790000  *  -0.25590000  *
     7       C         -0.52960000  *  -1.32740000  *  -0.84980000  *
     8       C         -1.80330000  *  -1.35090000  *  -0.42810000  *
     9       H          0.46310000  *   0.33780000  *  -1.67520000  *
    10       H          1.76660000  *  -1.09350000  *   0.74150000  *
    11       H          2.14590000  *  -1.38740000  *  -0.98200000  *
    12       H         -1.85870000  *   1.53170000  *  -0.91590000  *
    13       H         -2.06770000  *   1.88120000  *   0.83170000  *
    14       H          0.33480000  *   1.88980000  *   0.18040000  *
    15       H         -0.01530000  *   0.59180000  *   1.36920000  *
    16       H         -3.48290000  *  -0.05320000  *  -0.12070000  *
    17       H         -2.54240000  *  -0.44710000  *   1.35690000  *
    18       H          2.65900000  *   1.23820000  *   0.54220000  *
    19       H          2.90250000  *   1.00360000  *  -1.24200000  *
    20       H          3.85700000  *   0.04360000  *  -0.05110000  *
    21       H         -2.39390000  *  -2.25270000  *  -0.58280000  *
    22       H         -0.15500000  *  -2.19750000  *  -1.38840000  *
 


          CARTESIAN COORDINATES 

    NO.       ATOM         X         Y         Z

     1         C        0.3871   -0.1345   -0.6673
     2         C       -0.1837    0.9123    0.3137
     3         C        1.7948   -0.6097   -0.2630
     4         C       -1.6837    1.1254    0.1081
     5         C       -2.4511   -0.1894    0.2767
     6         C        2.8565    0.4879   -0.2559
     7         C       -0.5296   -1.3274   -0.8498
     8         C       -1.8033   -1.3509   -0.4281
     9         H        0.4631    0.3378   -1.6752
    10         H        1.7666   -1.0935    0.7415
    11         H        2.1459   -1.3874   -0.9820
    12         H       -1.8587    1.5317   -0.9159
    13         H       -2.0677    1.8812    0.8317
    14         H        0.3348    1.8898    0.1804
    15         H       -0.0153    0.5918    1.3692
    16         H       -3.4829   -0.0532   -0.1207
    17         H       -2.5424   -0.4471    1.3569
    18         H        2.6590    1.2382    0.5422
    19         H        2.9025    1.0036   -1.2420
    20         H        3.8570    0.0436   -0.0511
    21         H       -2.3939   -2.2527   -0.5828
    22         H       -0.1550   -2.1975   -1.3884

  H: (PM3): J. J. P. STEWART, J. COMP. CHEM. 10, 209 (1989).
  C: (PM3): J. J. P. STEWART, J. COMP. CHEM. 10, 209 (1989).

           Empirical Formula: C8 H14  =    22 atoms



      MOLECULAR POINT GROUP   :   C1  


      RHF CALCULATION, NO. OF DOUBLY OCCUPIED LEVELS =   23

      Geometry optimization using EF

          DIAGONAL MATRIX USED AS START HESSIAN

 CYCLE:     1 TIME:   0.008 TIME LEFT:  2.00D  GRAD.:    50.600 HEAT:-12.59109
 CYCLE:     2 TIME:   0.011 TIME LEFT:  2.00D  GRAD.:    66.408 HEAT:-13.09787
 CYCLE:     3 TIME:   0.012 TIME LEFT:  2.00D  GRAD.:    28.515 HEAT:-14.02969
 CYCLE:     4 TIME:   0.011 TIME LEFT:  2.00D  GRAD.:    26.676 HEAT:-14.19207
 CYCLE:     5 TIME:   0.006 TIME LEFT:  2.00D  GRAD.:    19.478 HEAT:-14.35529
 CYCLE:     6 TIME:   0.011 TIME LEFT:  2.00D  GRAD.:    16.768 HEAT:-14.46557
 CYCLE:     7 TIME:   0.006 TIME LEFT:  2.00D  GRAD.:    13.711 HEAT:-14.55684
 CYCLE:     8 TIME:   0.011 TIME LEFT:  2.00D  GRAD.:    10.651 HEAT:-14.62497
 CYCLE:     9 TIME:   0.006 TIME LEFT:  2.00D  GRAD.:    11.606 HEAT:-14.68157
 CYCLE:    10 TIME:   0.006 TIME LEFT:  2.00D  GRAD.:    15.011 HEAT:-14.73151
 CYCLE:    11 TIME:   0.006 TIME LEFT:  2.00D  GRAD.:    15.334 HEAT:-14.76686
 CYCLE:    12 TIME:   0.014 TIME LEFT:  2.00D  GRAD.:     8.527 HEAT:-14.82374
 CYCLE:    13 TIME:   0.011 TIME LEFT:  2.00D  GRAD.:     6.737 HEAT:-14.84087
 CYCLE:    14 TIME:   0.006 TIME LEFT:  2.00D  GRAD.:     5.829 HEAT:-14.85571
 CYCLE:    15 TIME:   0.006 TIME LEFT:  2.00D  GRAD.:     8.599 HEAT:-14.85845
 CYCLE:    16 TIME:   0.006 TIME LEFT:  2.00D  GRAD.:     9.244 HEAT:-14.86749
 CYCLE:    17 TIME:   0.006 TIME LEFT:  2.00D  GRAD.:     8.843 HEAT:-14.87755
 CYCLE:    18 TIME:   0.006 TIME LEFT:  2.00D  GRAD.:     7.795 HEAT:-14.89194
 CYCLE:    19 TIME:   0.006 TIME LEFT:  2.00D  GRAD.:     7.346 HEAT:-14.90118
 CYCLE:    20 TIME:   0.006 TIME LEFT:  2.00D  GRAD.:     7.181 HEAT:-14.91025
 CYCLE:    21 TIME:   0.006 TIME LEFT:  2.00D  GRAD.:     4.847 HEAT:-14.92254
 CYCLE:    22 TIME:   0.006 TIME LEFT:  2.00D  GRAD.:     5.715 HEAT:-14.92773
 CYCLE:    23 TIME:   0.006 TIME LEFT:  2.00D  GRAD.:     4.024 HEAT:-14.93671
 CYCLE:    24 TIME:   0.006 TIME LEFT:  2.00D  GRAD.:     4.822 HEAT:-14.94205
 CYCLE:    25 TIME:   0.006 TIME LEFT:  2.00D  GRAD.:     5.020 HEAT:-14.94609
 CYCLE:    26 TIME:   0.006 TIME LEFT:  2.00D  GRAD.:     3.131 HEAT:-14.95510
 CYCLE:    27 TIME:   0.006 TIME LEFT:  2.00D  GRAD.:     1.716 HEAT:-14.96019
 CYCLE:    28 TIME:   0.006 TIME LEFT:  2.00D  GRAD.:     2.374 HEAT:-14.96359
 CYCLE:    29 TIME:   0.006 TIME LEFT:  2.00D  GRAD.:     2.340 HEAT:-14.96792
 CYCLE:    30 TIME:   0.006 TIME LEFT:  2.00D  GRAD.:     1.542 HEAT:-14.97264
 CYCLE:    31 TIME:   0.006 TIME LEFT:  2.00D  GRAD.:     1.713 HEAT:-14.97887
 CYCLE:    32 TIME:   0.006 TIME LEFT:  2.00D  GRAD.:     1.795 HEAT:-14.98446
 CYCLE:    33 TIME:   0.006 TIME LEFT:  2.00D  GRAD.:     1.244 HEAT:-14.98863
 CYCLE:    34 TIME:   0.006 TIME LEFT:  2.00D  GRAD.:     1.146 HEAT:-14.99282
 CYCLE:    35 TIME:   0.006 TIME LEFT:  2.00D  GRAD.:     1.417 HEAT:-14.99662
 CYCLE:    36 TIME:   0.006 TIME LEFT:  2.00D  GRAD.:     1.313 HEAT:-14.99954
 CYCLE:    37 TIME:   0.006 TIME LEFT:  2.00D  GRAD.:     1.040 HEAT:-15.00224
 CYCLE:    38 TIME:   0.006 TIME LEFT:  2.00D  GRAD.:     1.012 HEAT:-15.00460
 CYCLE:    39 TIME:   0.006 TIME LEFT:  2.00D  GRAD.:     0.996 HEAT:-15.00678
 CYCLE:    40 TIME:   0.006 TIME LEFT:  2.00D  GRAD.:     1.031 HEAT:-15.00956
 CYCLE:    41 TIME:   0.006 TIME LEFT:  2.00D  GRAD.:     1.163 HEAT:-15.01414
 CYCLE:    42 TIME:   0.006 TIME LEFT:  2.00D  GRAD.:     1.301 HEAT:-15.01978
 CYCLE:    43 TIME:   0.006 TIME LEFT:  2.00D  GRAD.:     1.253 HEAT:-15.02464
 CYCLE:    44 TIME:   0.006 TIME LEFT:  2.00D  GRAD.:     1.257 HEAT:-15.02833
 CYCLE:    45 TIME:   0.006 TIME LEFT:  2.00D  GRAD.:     1.404 HEAT:-15.03178
 CYCLE:    46 TIME:   0.006 TIME LEFT:  2.00D  GRAD.:     1.634 HEAT:-15.03694
 CYCLE:    47 TIME:   0.006 TIME LEFT:  2.00D  GRAD.:     1.851 HEAT:-15.04503
 CYCLE:    48 TIME:   0.006 TIME LEFT:  2.00D  GRAD.:     1.863 HEAT:-15.05368
 CYCLE:    49 TIME:   0.006 TIME LEFT:  2.00D  GRAD.:     1.426 HEAT:-15.05783
 CYCLE:    50 TIME:   0.006 TIME LEFT:  2.00D  GRAD.:     1.642 HEAT:-15.06303
 CYCLE:    51 TIME:   0.006 TIME LEFT:  2.00D  GRAD.:     1.154 HEAT:-15.06576
 CYCLE:    52 TIME:   0.006 TIME LEFT:  2.00D  GRAD.:     0.841 HEAT:-15.06868
 CYCLE:    53 TIME:   0.006 TIME LEFT:  2.00D  GRAD.:     0.616 HEAT:-15.07045
 CYCLE:    54 TIME:   0.006 TIME LEFT:  2.00D  GRAD.:     0.479 HEAT:-15.07092
 CYCLE:    55 TIME:   0.006 TIME LEFT:  2.00D  GRAD.:     0.336 HEAT:-15.07158
 CYCLE:    56 TIME:   0.006 TIME LEFT:  2.00D  GRAD.:     0.264 HEAT:-15.07177
 CYCLE:    57 TIME:   0.006 TIME LEFT:  2.00D  GRAD.:     0.199 HEAT:-15.07190
 CYCLE:    58 TIME:   0.006 TIME LEFT:  2.00D  GRAD.:     0.216 HEAT:-15.07201
 CYCLE:    59 TIME:   0.006 TIME LEFT:  2.00D  GRAD.:     0.287 HEAT:-15.07217
 CYCLE:    60 TIME:   0.006 TIME LEFT:  2.00D  GRAD.:     0.267 HEAT:-15.07233
 CYCLE:    61 TIME:   0.006 TIME LEFT:  2.00D  GRAD.:     0.206 HEAT:-15.07246
 CYCLE:    62 TIME:   0.006 TIME LEFT:  2.00D  GRAD.:     0.182 HEAT:-15.07260
 CYCLE:    63 TIME:   0.006 TIME LEFT:  2.00D  GRAD.:     0.180 HEAT:-15.07267
 CYCLE:    64 TIME:   0.006 TIME LEFT:  2.00D  GRAD.:     0.138 HEAT:-15.07276
 CYCLE:    65 TIME:   0.006 TIME LEFT:  2.00D  GRAD.:     0.095 HEAT:-15.07279
 CYCLE:    66 TIME:   0.006 TIME LEFT:  2.00D  GRAD.:     0.078 HEAT:-15.07280
 CYCLE:    67 TIME:   0.006 TIME LEFT:  2.00D  GRAD.:     0.157 HEAT:-15.07281
 CYCLE:    68 TIME:   0.006 TIME LEFT:  2.00D  GRAD.:     0.094 HEAT:-15.07283
 CYCLE:    69 TIME:   0.006 TIME LEFT:  2.00D  GRAD.:     0.093 HEAT:-15.07286
 CYCLE:    70 TIME:   0.006 TIME LEFT:  2.00D  GRAD.:     0.085 HEAT:-15.07287
 CYCLE:    71 TIME:   0.006 TIME LEFT:  2.00D  GRAD.:     0.089 HEAT:-15.07291
 CYCLE:    72 TIME:   0.006 TIME LEFT:  2.00D  GRAD.:     0.097 HEAT:-15.07294
 CYCLE:    73 TIME:   0.006 TIME LEFT:  2.00D  GRAD.:     0.092 HEAT:-15.07299
 CYCLE:    74 TIME:   0.009 TIME LEFT:  2.00D  GRAD.:     0.074 HEAT:-15.07300
 CYCLE:    75 TIME:   0.006 TIME LEFT:  2.00D  GRAD.:     0.112 HEAT:-15.07303
 CYCLE:    76 TIME:   0.006 TIME LEFT:  2.00D  GRAD.:     0.082 HEAT:-15.07305
 CYCLE:    77 TIME:   0.008 TIME LEFT:  2.00D  GRAD.:     0.060 HEAT:-15.07307
 CYCLE:    78 TIME:   0.007 TIME LEFT:  2.00D  GRAD.:     0.061 HEAT:-15.07308
 CYCLE:    79 TIME:   0.006 TIME LEFT:  2.00D  GRAD.:     0.074 HEAT:-15.07309
 CYCLE:    80 TIME:   0.006 TIME LEFT:  2.00D  GRAD.:     0.031 HEAT:-15.07310

     RMS GRADIENT =  0.03124  IS LESS THAN CUTOFF =  0.05000



 -------------------------------------------------------------------------------
pm3  precise nosym
 InChI=1S/C8H14/c1-2-8-6-4-3-5-7-8/h4,6,8H,2-3,5,7H2,1H3



     GEOMETRY OPTIMISED USING EIGENVECTOR FOLLOWING (EF).     
     SCF FIELD WAS ACHIEVED                                   


                              PM3 CALCULATION
                                                       MOPAC2012 (Version: 13.159M)
                                                       Mon Jun  2 14:10:50 2014
                                                       No. of days left =   6




          FINAL HEAT OF FORMATION =        -15.07310 KCAL/MOL =     -63.06584 KJ/MOL


          TOTAL ENERGY            =      -1164.43446 EV
          ELECTRONIC ENERGY       =      -6146.61434 EV  POINT GROUP:     C1  
          CORE-CORE REPULSION     =       4982.17988 EV
          COSMO AREA              =        163.98 SQUARE ANGSTROMS
          COSMO VOLUME            =        163.42 CUBIC ANGSTROMS

          GRADIENT NORM           =          0.03124
          IONIZATION POTENTIAL    =          9.623813 EV
          HOMO LUMO ENERGIES (EV) =         -9.624  1.169
          NO. OF FILLED LEVELS    =         23
          MOLECULAR WEIGHT        =        110.199

          MOLECULAR DIMENSIONS (Angstroms)

            Atom       Atom       Distance
            H    16    H    20     7.30257
            H    22    H    13     4.62563
            H    19    H    17     3.01273


          SCF CALCULATIONS        =         88
          COMPUTATION TIME        =          0.534 SECONDS




   ATOM   CHEMICAL          X               Y               Z
  NUMBER   SYMBOL      (ANGSTROMS)     (ANGSTROMS)     (ANGSTROMS)
 
     1       C          0.39204515  *  -0.13278616  *  -0.61893458  *
     2       C         -0.18829671  *   0.84007662  *   0.40878728  *
     3       C          1.79506642  *  -0.59586720  *  -0.21770893  *
     4       C         -1.65585419  *   1.10902403  *   0.12511145  *
     5       C         -2.46720817  *  -0.17465235  *   0.20727320  *
     6       C          2.83028384  *   0.49584419  *  -0.37458455  *
     7       C         -0.50892274  *  -1.30996486  *  -0.81783814  *
     8       C         -1.79390935  *  -1.31899290  *  -0.46091391  *
     9       H          0.45624098  *   0.38671025  *  -1.60879729  *
    10       H          1.78608253  *  -0.96458838  *   0.82730092  *
    11       H          2.08823147  *  -1.46779671  *  -0.83710534  *
    12       H         -1.76608170  *   1.56538255  *  -0.87854791  *
    13       H         -2.05335278  *   1.85490083  *   0.83979189  *
    14       H          0.38407751  *   1.78847186  *   0.39603839  *
    15       H         -0.07113672  *   0.43035149  *   1.43208975  *
    16       H         -3.46879008  *  -0.01995495  *  -0.23965721  *
    17       H         -2.64731998  *  -0.45155203  *   1.26601251  *
    18       H          2.61393978  *   1.36088831  *   0.26726417  *
    19       H          2.88028958  *   0.86275547  *  -1.40860028  *
    20       H          3.83095799  *   0.13323098  *  -0.10646196  *
    21       H         -2.41557803  *  -2.20340841  *  -0.64088530  *
    22       H         -0.06049893  *  -2.18557484  *  -1.30260905  *

           Empirical Formula: C8 H14  =    22 atoms



      MOLECULAR POINT GROUP   :   C1  


                  EIGENVALUES  
 -41.19042 -34.82354 -30.26912 -28.53770 -23.35193 -21.69662 -20.50662 -17.89087
 -17.22830 -15.85219 -15.32044 -14.89124 -14.30217 -14.05237 -13.88257 -13.33235
 -13.04581 -12.58886 -11.90470 -11.74973 -11.51071 -11.23794  -9.62381   1.16868
   3.37277   3.54125   3.61263   3.70237   3.80757   3.84905   3.93846   3.99372
   4.08351   4.21868   4.33796   4.37027   4.49535   4.60794   4.74205   4.88795
   4.97627   5.02159   5.11029   5.22284   5.79776   6.01689


              NET ATOMIC CHARGES AND DIPOLE CONTRIBUTIONS

  ATOM NO.   TYPE          CHARGE      No. of ELECS.   s-Pop       p-Pop       
    1          C          -0.041140        4.0411     1.16565     2.87549
    2          C          -0.098502        4.0985     1.16226     2.93624
    3          C          -0.093976        4.0940     1.16124     2.93273
    4          C          -0.094822        4.0948     1.15866     2.93616
    5          C          -0.058369        4.0584     1.14614     2.91223
    6          C          -0.112684        4.1127     1.13908     2.97360
    7          C          -0.148377        4.1484     1.19777     2.95061
    8          C          -0.147377        4.1474     1.19402     2.95336
    9          H           0.069421        0.9306     0.93058
   10          H           0.052669        0.9473     0.94733
   11          H           0.049386        0.9506     0.95061
   12          H           0.050791        0.9492     0.94921
   13          H           0.048090        0.9519     0.95191
   14          H           0.051917        0.9481     0.94808
   15          H           0.055040        0.9450     0.94496
   16          H           0.052607        0.9474     0.94739
   17          H           0.054783        0.9452     0.94522
   18          H           0.039750        0.9603     0.96025
   19          H           0.038174        0.9618     0.96183
   20          H           0.037423        0.9626     0.96258
   21          H           0.095923        0.9041     0.90408
   22          H           0.099275        0.9007     0.90073
 DIPOLE           X         Y         Z       TOTAL
 POINT-CHG.     0.020     0.208     0.085     0.226
 HYBRID        -0.007    -0.055    -0.015     0.058
 SUM            0.013     0.153     0.070     0.168


          ATOMIC ORBITAL ELECTRON POPULATIONS

    Atom      s        px        py        pz   
    1  C   1.16565   0.93871   0.95032   0.98646
    2  C   1.16226   0.95742   0.99081   0.98800
    3  C   1.16124   0.94080   0.97673   1.01521
    4  C   1.15866   0.95531   0.96557   1.01527
    5  C   1.14614   0.97495   0.94057   0.99671
    6  C   1.13908   0.98033   0.98401   1.00926
    7  C   1.19777   0.95746   0.98270   1.01045
    8  C   1.19402   0.96350   0.98526   1.00460
    9  H   0.93058
   10  H   0.94733
   11  H   0.95061
   12  H   0.94921
   13  H   0.95191
   14  H   0.94808
   15  H   0.94496
   16  H   0.94739
   17  H   0.94522
   18  H   0.96025
   19  H   0.96183
   20  H   0.96258
   21  H   0.90408
   22  H   0.90073
 *******************************************************************************
 ** Site#: 14399           For non-commercial use only        Version 13.159M **
 *******************************************************************************
 ** Cite this work as: MOPAC2012, James J. P. Stewart, Stewart Computational  **
 ** Chemistry, Version 13.159M web: HTTP://OpenMOPAC.net  Days remaining:   6 **
 *******************************************************************************
 **                                                                           **
 **                                MOPAC2012                                  **
 **                                                                           **
 *******************************************************************************

                            PM3 CALCULATION RESULTS


 *******************************************************************************
 *  CALCULATION DONE:                                Mon Jun  2 14:10:50 2014  *
 *  PM3      - The PM3 Hamiltonian to be used
 *  OLDGEO   - PREVIOUS GEOMETRY TO BE USED
 *  PRECISE  - CRITERIA TO BE INCREASED BY 100 TIMES
 *  NOSYM    - POINT-GROUP SYMMETRY SET TO C1
 *  T=       - A TIME OF 172800.0 SECONDS REQUESTED
 *  DUMP=N   - RESTART FILE WRITTEN EVERY  7200.000 SECONDS
 *  THERMO   - THERMODYNAMIC QUANTITIES TO BE CALCULATED
 *******************************************************************************
oldgeo thermo nosym precise  pm3

   ATOM   CHEMICAL          X               Y               Z
  NUMBER   SYMBOL      (ANGSTROMS)     (ANGSTROMS)     (ANGSTROMS)
 
     1       C          0.39204515  *  -0.13278616  *  -0.61893458  *
     2       C         -0.18829671  *   0.84007662  *   0.40878728  *
     3       C          1.79506642  *  -0.59586720  *  -0.21770893  *
     4       C         -1.65585419  *   1.10902403  *   0.12511145  *
     5       C         -2.46720817  *  -0.17465235  *   0.20727320  *
     6       C          2.83028384  *   0.49584419  *  -0.37458455  *
     7       C         -0.50892274  *  -1.30996486  *  -0.81783814  *
     8       C         -1.79390935  *  -1.31899290  *  -0.46091391  *
     9       H          0.45624098  *   0.38671025  *  -1.60879729  *
    10       H          1.78608253  *  -0.96458838  *   0.82730092  *
    11       H          2.08823147  *  -1.46779671  *  -0.83710534  *
    12       H         -1.76608170  *   1.56538255  *  -0.87854791  *
    13       H         -2.05335278  *   1.85490083  *   0.83979189  *
    14       H          0.38407751  *   1.78847186  *   0.39603839  *
    15       H         -0.07113672  *   0.43035149  *   1.43208975  *
    16       H         -3.46879008  *  -0.01995495  *  -0.23965721  *
    17       H         -2.64731998  *  -0.45155203  *   1.26601251  *
    18       H          2.61393978  *   1.36088831  *   0.26726417  *
    19       H          2.88028958  *   0.86275547  *  -1.40860028  *
    20       H          3.83095799  *   0.13323098  *  -0.10646196  *
    21       H         -2.41557803  *  -2.20340841  *  -0.64088530  *
    22       H         -0.06049893  *  -2.18557484  *  -1.30260905  *
 


          CARTESIAN COORDINATES 

    NO.       ATOM         X         Y         Z

     1         C        0.3920   -0.1328   -0.6189
     2         C       -0.1883    0.8401    0.4088
     3         C        1.7951   -0.5959   -0.2177
     4         C       -1.6559    1.1090    0.1251
     5         C       -2.4672   -0.1747    0.2073
     6         C        2.8303    0.4958   -0.3746
     7         C       -0.5089   -1.3100   -0.8178
     8         C       -1.7939   -1.3190   -0.4609
     9         H        0.4562    0.3867   -1.6088
    10         H        1.7861   -0.9646    0.8273
    11         H        2.0882   -1.4678   -0.8371
    12         H       -1.7661    1.5654   -0.8785
    13         H       -2.0534    1.8549    0.8398
    14         H        0.3841    1.7885    0.3960
    15         H       -0.0711    0.4304    1.4321
    16         H       -3.4688   -0.0200   -0.2397
    17         H       -2.6473   -0.4516    1.2660
    18         H        2.6139    1.3609    0.2673
    19         H        2.8803    0.8628   -1.4086
    20         H        3.8310    0.1332   -0.1065
    21         H       -2.4156   -2.2034   -0.6409
    22         H       -0.0605   -2.1856   -1.3026

  H: (PM3): J. J. P. STEWART, J. COMP. CHEM. 10, 209 (1989).
  C: (PM3): J. J. P. STEWART, J. COMP. CHEM. 10, 209 (1989).

           Empirical Formula: C8 H14  =    22 atoms



      MOLECULAR POINT GROUP   :   C1  


      RHF CALCULATION, NO. OF DOUBLY OCCUPIED LEVELS =   23



          HEAT OF FORMATION =     -15.073099 KCALS/MOLE


          INTERNAL COORDINATE DERIVATIVES

   NUMBER  ATOM       BOND         ANGLE      DIHEDRAL

     1       C     -0.001203     0.000966     0.000688
     2       C     -0.002432    -0.000197     0.001363
     3       C     -0.000315    -0.000029     0.003861
     4       C     -0.000204     0.000734    -0.001944
     5       C      0.001751    -0.002405    -0.000763
     6       C      0.000936     0.000540     0.001831
     7       C      0.001523     0.000140    -0.002948
     8       C      0.002173     0.001228    -0.001723
     9       H     -0.004156     0.002249    -0.002241
    10       H      0.003835    -0.012455    -0.010897
    11       H     -0.004912     0.010276     0.008012
    12       H      0.001411    -0.000336    -0.000549
    13       H     -0.002090     0.003345    -0.005028
    14       H     -0.003317     0.005617     0.004750
    15       H     -0.002191    -0.001032    -0.003303
    16       H      0.000104    -0.003002    -0.000148
    17       H      0.002958    -0.002334    -0.000188
    18       H      0.004874    -0.000226     0.007784
    19       H     -0.001865    -0.001818     0.007617
    20       H     -0.001096    -0.000639    -0.006171
    21       H      0.000865    -0.001473     0.001408
    22       H      0.003351     0.000853    -0.001411


          GRADIENT NORM =   0.03050


          TIME FOR SCF CALCULATION =    0.00

          TIME FOR DERIVATIVES     =    0.00

          MOLECULAR WEIGHT =  110.20



          ROTATIONAL CONSTANTS IN CM(-1)

          A =    0.13818145   B =    0.04526649   C =    0.03651687



           PRINCIPAL MOMENTS OF INERTIA IN UNITS OF 10**(-40)*GRAM-CM**2

          A =      202.5798   B =      618.3996   C =      766.5711


          ORIENTATION OF MOLECULE IN FORCE CALCULATION

    NO.       ATOM         X         Y         Z

     1          C      -0.5003    0.2399    0.4067
     2          C       1.0292    0.2399    0.4067
     3          C      -1.0576    1.6659    0.4067
     4          C       1.5665   -1.1612    0.1729
     5          C       1.1130   -1.6968   -1.1764
     6          C      -0.8614    2.3624    1.7350
     7          C      -1.0409   -0.5315   -0.7551
     8          C      -0.3193   -1.4104   -1.4518
     9          H      -0.8594   -0.2845    1.3286
    10          H      -0.5866    2.2549   -0.4053
    11          H      -2.1397    1.6403    0.1649
    12          H       1.2242   -1.8341    0.9840
    13          H       2.6719   -1.1614    0.2286
    14          H       1.4067    0.6390    1.3687
    15          H       1.4117    0.9257   -0.3757
    16          H       1.2912   -2.7886   -1.2307
    17          H       1.7166   -1.2502   -1.9927
    18          H       0.2021    2.4649    1.9907
    19          H      -1.3418    1.8138    2.5563
    20          H      -1.2916    3.3721    1.7192
    21          H      -0.7668   -1.9605   -2.2874
    22          H      -2.0937   -0.3538   -1.0057


    FIRST DERIVATIVES WILL BE USED IN THE CALCULATION OF SECOND DERIVATIVES

          ESTIMATED TIME TO COMPLETE CALCULATION =        2.17 SECONDS

    FOR POINT-GROUP C1   THERE ARE   1 UNIQUE SYMMETRY FUNCTIONS.

 STEP:   1 TIME =     0.03 SECS, INTEGRAL =      0.03 TIME LEFT: 172799.96
 STEP:   2 TIME =     0.03 SECS, INTEGRAL =      0.05 TIME LEFT: 172799.94
 STEP:   3 TIME =     0.03 SECS, INTEGRAL =      0.08 TIME LEFT: 172799.91
 STEP:   4 TIME =     0.03 SECS, INTEGRAL =      0.11 TIME LEFT: 172799.88
 STEP:   5 TIME =     0.03 SECS, INTEGRAL =      0.13 TIME LEFT: 172799.86
 STEP:   6 TIME =     0.03 SECS, INTEGRAL =      0.16 TIME LEFT: 172799.83
 STEP:   7 TIME =     0.03 SECS, INTEGRAL =      0.19 TIME LEFT: 172799.81
 STEP:   8 TIME =     0.03 SECS, INTEGRAL =      0.21 TIME LEFT: 172799.78
 STEP:   9 TIME =     0.03 SECS, INTEGRAL =      0.24 TIME LEFT: 172799.75
 STEP:  10 TIME =     0.03 SECS, INTEGRAL =      0.27 TIME LEFT: 172799.72
 STEP:  11 TIME =     0.03 SECS, INTEGRAL =      0.30 TIME LEFT: 172799.70
 STEP:  12 TIME =     0.03 SECS, INTEGRAL =      0.32 TIME LEFT: 172799.67
 STEP:  13 TIME =     0.03 SECS, INTEGRAL =      0.35 TIME LEFT: 172799.64
 STEP:  14 TIME =     0.03 SECS, INTEGRAL =      0.38 TIME LEFT: 172799.62
 STEP:  15 TIME =     0.03 SECS, INTEGRAL =      0.40 TIME LEFT: 172799.59
 STEP:  16 TIME =     0.03 SECS, INTEGRAL =      0.43 TIME LEFT: 172799.56
 STEP:  17 TIME =     0.03 SECS, INTEGRAL =      0.45 TIME LEFT: 172799.54
 STEP:  18 TIME =     0.03 SECS, INTEGRAL =      0.48 TIME LEFT: 172799.51
 STEP:  19 TIME =     0.03 SECS, INTEGRAL =      0.51 TIME LEFT: 172799.48
 STEP:  20 TIME =     0.03 SECS, INTEGRAL =      0.54 TIME LEFT: 172799.46
 STEP:  21 TIME =     0.03 SECS, INTEGRAL =      0.56 TIME LEFT: 172799.43
 STEP:  22 TIME =     0.03 SECS, INTEGRAL =      0.59 TIME LEFT: 172799.40
 STEP:  23 TIME =     0.03 SECS, INTEGRAL =      0.62 TIME LEFT: 172799.37
 STEP:  24 TIME =     0.03 SECS, INTEGRAL =      0.64 TIME LEFT: 172799.35
 STEP:  25 TIME =     0.03 SECS, INTEGRAL =      0.67 TIME LEFT: 172799.32
 STEP:  26 TIME =     0.03 SECS, INTEGRAL =      0.70 TIME LEFT: 172799.29
 STEP:  27 TIME =     0.03 SECS, INTEGRAL =      0.73 TIME LEFT: 172799.27
 STEP:  28 TIME =     0.03 SECS, INTEGRAL =      0.75 TIME LEFT: 172799.24
 STEP:  29 TIME =     0.03 SECS, INTEGRAL =      0.78 TIME LEFT: 172799.21
 STEP:  30 TIME =     0.03 SECS, INTEGRAL =      0.81 TIME LEFT: 172799.19
 STEP:  31 TIME =     0.03 SECS, INTEGRAL =      0.83 TIME LEFT: 172799.16
 STEP:  32 TIME =     0.03 SECS, INTEGRAL =      0.86 TIME LEFT: 172799.13
 STEP:  33 TIME =     0.03 SECS, INTEGRAL =      0.89 TIME LEFT: 172799.10
 STEP:  34 TIME =     0.03 SECS, INTEGRAL =      0.92 TIME LEFT: 172799.08
 STEP:  35 TIME =     0.03 SECS, INTEGRAL =      0.94 TIME LEFT: 172799.05
 STEP:  36 TIME =     0.03 SECS, INTEGRAL =      0.98 TIME LEFT: 172799.01
 STEP:  37 TIME =     0.03 SECS, INTEGRAL =      1.00 TIME LEFT: 172798.99
 STEP:  38 TIME =     0.03 SECS, INTEGRAL =      1.03 TIME LEFT: 172798.96
 STEP:  39 TIME =     0.03 SECS, INTEGRAL =      1.06 TIME LEFT: 172798.94
 STEP:  40 TIME =     0.03 SECS, INTEGRAL =      1.08 TIME LEFT: 172798.91
 STEP:  41 TIME =     0.03 SECS, INTEGRAL =      1.11 TIME LEFT: 172798.88
 STEP:  42 TIME =     0.03 SECS, INTEGRAL =      1.14 TIME LEFT: 172798.85
 STEP:  43 TIME =     0.03 SECS, INTEGRAL =      1.16 TIME LEFT: 172798.83
 STEP:  44 TIME =     0.03 SECS, INTEGRAL =      1.19 TIME LEFT: 172798.80
 STEP:  45 TIME =     0.03 SECS, INTEGRAL =      1.22 TIME LEFT: 172798.77
 STEP:  46 TIME =     0.03 SECS, INTEGRAL =      1.25 TIME LEFT: 172798.74
 STEP:  47 TIME =     0.03 SECS, INTEGRAL =      1.28 TIME LEFT: 172798.72
 STEP:  48 TIME =     0.03 SECS, INTEGRAL =      1.30 TIME LEFT: 172798.69
 STEP:  49 TIME =     0.03 SECS, INTEGRAL =      1.33 TIME LEFT: 172798.66
 STEP:  50 TIME =     0.03 SECS, INTEGRAL =      1.36 TIME LEFT: 172798.64
 STEP:  51 TIME =     0.03 SECS, INTEGRAL =      1.38 TIME LEFT: 172798.61
 STEP:  52 TIME =     0.03 SECS, INTEGRAL =      1.41 TIME LEFT: 172798.58
 STEP:  53 TIME =     0.03 SECS, INTEGRAL =      1.44 TIME LEFT: 172798.56
 STEP:  54 TIME =     0.03 SECS, INTEGRAL =      1.47 TIME LEFT: 172798.52
 STEP:  55 TIME =     0.03 SECS, INTEGRAL =      1.49 TIME LEFT: 172798.50
 STEP:  56 TIME =     0.03 SECS, INTEGRAL =      1.52 TIME LEFT: 172798.47
 STEP:  57 TIME =     0.03 SECS, INTEGRAL =      1.55 TIME LEFT: 172798.44
 STEP:  58 TIME =     0.03 SECS, INTEGRAL =      1.58 TIME LEFT: 172798.42
 STEP:  59 TIME =     0.03 SECS, INTEGRAL =      1.60 TIME LEFT: 172798.39
 STEP:  60 TIME =     0.03 SECS, INTEGRAL =      1.63 TIME LEFT: 172798.36
 STEP:  61 TIME =     0.03 SECS, INTEGRAL =      1.66 TIME LEFT: 172798.33
 STEP:  62 TIME =     0.03 SECS, INTEGRAL =      1.69 TIME LEFT: 172798.31
 STEP:  63 TIME =     0.03 SECS, INTEGRAL =      1.71 TIME LEFT: 172798.28
 STEP:  64 TIME =     0.03 SECS, INTEGRAL =      1.74 TIME LEFT: 172798.25
 STEP:  65 TIME =     0.03 SECS, INTEGRAL =      1.78 TIME LEFT: 172798.22
 STEP:  66 TIME =     0.03 SECS, INTEGRAL =      1.80 TIME LEFT: 172798.19

(To convert to Hartree/Bohr^2, multiply by (10^(-21) x N x a0^2)/(4.184 x 627.51) = 0.0642)


           FORCE MATRIX IN MILLIDYNES/ANGSTROM


                  C  1       C  2       C  3       C  4       C  5       C  6
 ------------------------------------------------------------------------------
     C    1  14.593788
     C    2   3.876757  14.387974
     C    3   3.820907   0.611213  14.294621
     C    4   0.661259   4.225546   0.052369  14.437912
     C    5   0.097112   0.678287   0.008268   4.174893  14.738837
     C    6   0.621324   0.050346   4.448529   0.002787   0.001771  14.340718
     C    7   4.676697   0.682580   0.692428   0.065294   0.835252   0.052874
     C    8   0.802877   0.069068   0.044593   0.690815   5.003304   0.010642
     H    9   4.133383   0.428389   0.432978   0.018385   0.013360   0.037022
     H   10   0.447478   0.034640   4.453533   0.002100   0.000788   0.437482
     H   11   0.441316   0.046036   4.428423   0.008825   0.001098   0.435070
     H   12   0.025096   0.444865   0.001551   4.460268   0.441739   0.000578
     H   13   0.050867   0.436766   0.009146   4.498397   0.433053   0.000433
     H   14   0.437705   4.461191   0.016698   0.437107   0.051220   0.018094
     H   15   0.450208   4.443985   0.037764   0.443493   0.022883   0.003109
     H   16   0.009596   0.049212   0.000820   0.432303   4.465031   0.000275
     H   17   0.014180   0.012213   0.000874   0.444386   4.409816   0.000349
     H   18   0.016598   0.020104   0.463895   0.001056   0.000535   4.705108
     H   19   0.024331   0.002447   0.462884   0.000213   0.000261   4.718908
     H   20   0.050409   0.002343   0.448960   0.000413   0.000364   4.747553
     H   21   0.119652   0.004514   0.013730   0.043296   0.425995   0.002232
     H   22   0.431658   0.040585   0.046061   0.003699   0.121301   0.002569


                  C  7       C  8       H  9       H 10       H 11       H 12
 ------------------------------------------------------------------------------
     C    7  18.218791
     C    8  10.697716  18.201325
     H    9   0.385183   0.029418   4.600753
     H   10   0.010938   0.001912   0.042219   5.072246
     H   11   0.064745   0.002820   0.020142   0.571923   5.045479
     H   12   0.006521   0.009563   0.013592   0.000519   0.000444   5.073078
     H   13   0.004362   0.050430   0.001453   0.000495   0.001787   0.568259
     H   14   0.049834   0.004612   0.034037   0.001570   0.001116   0.028359
     H   15   0.010485   0.007327   0.042536   0.029901   0.002150   0.045501
     H   16   0.042729   0.431785   0.001051   0.000255   0.000338   0.035835
     H   17   0.031359   0.412588   0.001989   0.000328   0.000305   0.043796
     H   18   0.001123   0.000902   0.002097   0.024321   0.048541   0.000180
     H   19   0.002266   0.000629   0.025902   0.046994   0.025320   0.000188
     H   20   0.009367   0.002190   0.002340   0.029946   0.032637   0.000123
     H   21   0.443260   4.817180   0.015648   0.000367   0.000777   0.001123
     H   22   4.787810   0.442445   0.016812   0.002355   0.025839   0.000412


                  H 13       H 14       H 15       H 16       H 17       H 18
 ------------------------------------------------------------------------------
     H   13   5.114249
     H   14   0.033219   5.073782
     H   15   0.028201   0.564147   5.061674
     H   16   0.022563   0.008230   0.002261   5.062811
     H   17   0.035228   0.001261   0.007676   0.566665   5.006689
     H   18   0.000204   0.022144   0.001383   0.000227   0.000110   5.443260
     H   19   0.000141   0.000761   0.000492   0.000108   0.000063   0.576027
     H   20   0.000112   0.000621   0.000290   0.000091   0.000136   0.575343
     H   21   0.007149   0.001042   0.000497   0.034841   0.020662   0.000152
     H   22   0.000795   0.006870   0.001406   0.014309   0.017016   0.000717


                  H 19       H 20       H 21       H 22
 ------------------------------------------------------
     H   19   5.463419
     H   20   0.571799   5.486407
     H   21   0.000148   0.000451   5.192652
     H   22   0.000726   0.000566   0.069428   5.167267


          HEAT OF FORMATION =     -15.073099 KCALS/MOLE

          ZERO POINT ENERGY     125.048 KCAL/MOL


           NORMAL COORDINATE ANALYSIS (Total motion = 1 Angstrom)


   Root No.       1         2         3         4         5         6         7         8

                 1 A       2 A       3 A       4 A       5 A       6 A       7 A       8 A   

                  73.6     102.5     184.9     230.5     255.1     338.9     386.3     455.7
  
           1   -0.0156   -0.0103   -0.0137    0.0058   -0.0166   -0.0112   -0.0342   -0.0025
           2   -0.0157   -0.0010   -0.0037   -0.0117   -0.0010   -0.0163   -0.0110    0.0346
           3    0.0132   -0.0132   -0.0044    0.0211   -0.0093    0.0186    0.0048   -0.0034
           4   -0.0155   -0.0107   -0.0134    0.0063   -0.0171   -0.0112   -0.0364   -0.0026
           5   -0.0148    0.0150    0.0088   -0.0102   -0.0030    0.0072   -0.0144    0.0024
           6    0.0339   -0.0167   -0.0020    0.0113    0.0336   -0.0116   -0.0225    0.0105
           7   -0.0158   -0.0273   -0.0066   -0.0119    0.0140    0.0217    0.0231   -0.0275
           8   -0.0155   -0.0086   -0.0015   -0.0170    0.0117   -0.0053    0.0193    0.0332
           9   -0.0002    0.0177   -0.0014    0.0129   -0.0141   -0.0215    0.0287   -0.0108
          10   -0.0066   -0.0036    0.0002    0.0204    0.0263   -0.0010    0.0014   -0.0166
          11   -0.0061    0.0129    0.0145   -0.0011    0.0244    0.0122   -0.0017   -0.0050
          12    0.0036    0.0128    0.0034   -0.0182   -0.0171    0.0102   -0.0092   -0.0200
          13    0.0124   -0.0001    0.0067   -0.0110   -0.0082   -0.0040    0.0243    0.0146
          14    0.0297   -0.0204    0.0108   -0.0252   -0.0061    0.0049   -0.0133   -0.0285
          15   -0.0167    0.0245    0.0030    0.0013    0.0069    0.0132   -0.0103   -0.0203
          16    0.0362    0.0340    0.0253   -0.0185    0.0113    0.0105   -0.0015    0.0020
          17    0.0224   -0.0087   -0.0135    0.0269   -0.0149   -0.0236    0.0445   -0.0041
          18   -0.0280    0.0090    0.0005   -0.0110    0.0009   -0.0120    0.0269    0.0085
          19   -0.0050    0.0046   -0.0069    0.0084   -0.0082   -0.0196   -0.0019    0.0180
          20   -0.0131    0.0121   -0.0100    0.0134    0.0024   -0.0201   -0.0235   -0.0233
          21    0.0063   -0.0287   -0.0026    0.0028   -0.0127    0.0277   -0.0093    0.0281
          22    0.0068    0.0107    0.0029    0.0035   -0.0088    0.0088    0.0216    0.0210
          23    0.0089    0.0019   -0.0065    0.0248   -0.0135    0.0417   -0.0132    0.0037
          24   -0.0090   -0.0099    0.0026   -0.0151    0.0079   -0.0195   -0.0054   -0.0066
          25   -0.0275   -0.0030   -0.0136    0.0089   -0.0454    0.0004   -0.0442   -0.0089
          26   -0.0128   -0.0225   -0.0018   -0.0174    0.0004    0.0066   -0.0077    0.0619
          27    0.0100   -0.0224   -0.0035    0.0179   -0.0196    0.0351    0.0011    0.0113
          28   -0.0482   -0.0755   -0.0079   -0.0291    0.0436    0.0676    0.0723   -0.0528
          29   -0.0374   -0.0021   -0.0058   -0.0285    0.0102   -0.0216    0.0075    0.0511
          30   -0.0349   -0.0053   -0.0054   -0.0057    0.0019   -0.0074    0.0475   -0.0107
          31   -0.0253   -0.0393   -0.0092   -0.0146    0.0185    0.0299    0.0310   -0.0317
          32   -0.0240   -0.0228    0.0132   -0.0383    0.0409    0.0296    0.0635    0.0180
          33    0.0432    0.0732    0.0109    0.0242   -0.0356   -0.0593   -0.0078    0.0118
          34   -0.0142    0.0000    0.0048    0.0658    0.1044    0.0045    0.0152   -0.0426
          35   -0.0299    0.0295    0.0126   -0.0060    0.0035    0.0201   -0.0089   -0.0065
          36   -0.0194    0.0282    0.0037   -0.0030   -0.0016    0.0190   -0.0099   -0.0311
          37   -0.0073   -0.0037    0.0001    0.0227    0.0300   -0.0010    0.0011   -0.0183
          38   -0.0027    0.0194    0.0250    0.0224    0.0799    0.0185    0.0337   -0.0136
          39    0.0176    0.0131    0.0055   -0.0589   -0.0756    0.0080   -0.0001    0.0074
          40   -0.0294   -0.0112   -0.0182    0.0114   -0.0522    0.0044   -0.0215   -0.0058
          41   -0.0399    0.0382    0.0172   -0.0282   -0.0488    0.0440    0.0151   -0.0489
          42    0.0498   -0.0260   -0.0029    0.0168    0.0674   -0.0333   -0.0413    0.0339
          43   -0.0062   -0.0201   -0.0185   -0.0029    0.0006   -0.0390   -0.0644    0.0233
          44    0.0074    0.0021    0.0093    0.0079    0.0438   -0.0117   -0.0278    0.0275
          45    0.0578   -0.0323   -0.0043    0.0228    0.0830   -0.0429   -0.0496    0.0469
          46    0.0366   -0.0252    0.0210   -0.0663   -0.0121   -0.0561    0.0299   -0.0274
          47    0.0355   -0.0264    0.0133   -0.0368   -0.0086   -0.0055   -0.0126   -0.0387
          48   -0.0533    0.0630    0.0012    0.0432    0.0361    0.0444   -0.0064    0.0222
          49    0.0056    0.0221    0.0009    0.0114   -0.0212    0.0345    0.0271    0.0452
          50    0.0711   -0.0619    0.0202   -0.0886   -0.0334   -0.0448   -0.0143   -0.0856
          51    0.0009    0.0183    0.0038   -0.0165   -0.0177    0.0152   -0.0089   -0.0273
          52    0.0466    0.0465    0.0261   -0.0214    0.0117    0.0096   -0.0085    0.0097
          53    0.0483    0.0103   -0.2246   -0.0013    0.0017   -0.0082    0.0724   -0.0342
          54   -0.0818   -0.0499    0.0846    0.0117   -0.0070   -0.0133    0.0431   -0.0107
          55    0.0854    0.0901   -0.1509   -0.0598    0.0315    0.0242   -0.0056    0.0107
          56    0.0353   -0.0203    0.0969    0.0782   -0.0460   -0.0496    0.0564   -0.0263
          57    0.0093    0.0340   -0.0290   -0.0013   -0.0078   -0.0210    0.0317   -0.0006
          58    0.0177    0.0147    0.2293    0.0185   -0.0103   -0.0093   -0.0196    0.0200
          59    0.0145   -0.0165    0.0719    0.0420   -0.0238   -0.0321    0.0373    0.0036
          60   -0.0340    0.0360   -0.0529   -0.0646    0.0311    0.0098   -0.0040    0.0576
          61    0.0130    0.0242    0.0093    0.0051   -0.0080    0.0333    0.0310    0.0027
          62    0.0133    0.0078   -0.0154    0.0629   -0.0277    0.0927   -0.0136    0.0172
          63   -0.0152   -0.0211    0.0050   -0.0413    0.0166   -0.0664   -0.0108   -0.0061
          64   -0.0092    0.0139   -0.0080    0.0137   -0.0040   -0.0295   -0.0004   -0.0002
          65   -0.0282    0.0286   -0.0195    0.0331    0.0097   -0.0464   -0.0427   -0.0810
          66    0.0130   -0.0557   -0.0040   -0.0069   -0.0255    0.0513   -0.0273    0.0624


   Root No.       9        10        11        12        13        14        15        16

                 9 A      10 A      11 A      12 A      13 A      14 A      15 A      16 A   

                 499.4     561.6     696.6     770.0     816.5     851.3     919.7     939.3
  
           1    0.0173   -0.0130   -0.0040   -0.0034    0.0081   -0.0053    0.0132   -0.0025
           2   -0.0160   -0.0088   -0.0060   -0.0027    0.0063   -0.0088    0.0153    0.0050
           3   -0.0057    0.0514   -0.0145   -0.0093   -0.0065    0.0113   -0.0190   -0.0119
           4    0.0117   -0.0199   -0.0004    0.0106   -0.0221    0.0106   -0.0109    0.0150
           5    0.0409    0.0138   -0.0010    0.0081   -0.0048   -0.0071   -0.0101    0.0238
           6    0.0202    0.0020   -0.0101   -0.0147   -0.0026    0.0146    0.0068    0.0507
           7    0.0265    0.0022    0.0104   -0.0018    0.0375    0.0018    0.0024    0.0012
           8   -0.0191   -0.0089   -0.0189    0.0020   -0.0005    0.0151   -0.0096   -0.0034
           9    0.0158   -0.0104    0.0069   -0.0002   -0.0068   -0.0084    0.0042    0.0018
          10   -0.0377   -0.0281    0.0018    0.0053   -0.0179    0.0240   -0.0162    0.0053
          11    0.0341    0.0135    0.0041    0.0022    0.0037    0.0044    0.0008    0.0002
          12   -0.0054   -0.0213   -0.0139   -0.0125   -0.0006   -0.0004    0.0054    0.0036
          13   -0.0150    0.0096    0.0237    0.0063    0.0021    0.0025    0.0048    0.0089
          14   -0.0016   -0.0163    0.0020   -0.0149   -0.0064    0.0236    0.0216   -0.0339
          15   -0.0035   -0.0204   -0.0100    0.0069    0.0002   -0.0078   -0.0119   -0.0230
          16    0.0018    0.0034    0.0005   -0.0001    0.0088    0.0010   -0.0022    0.0020
          17    0.0113   -0.0169   -0.0047    0.0026   -0.0043    0.0083   -0.0124   -0.0056
          18    0.0065   -0.0152   -0.0046    0.0028   -0.0033    0.0019    0.0023   -0.0004
          19    0.0112    0.0403   -0.0331   -0.0301    0.0024   -0.0090    0.0023   -0.0219
          20   -0.0268    0.0304    0.0218   -0.0191    0.0019   -0.0126   -0.0106    0.0093
          21   -0.0079    0.0069   -0.0064    0.0125    0.0068   -0.0034    0.0148   -0.0143
          22   -0.0105    0.0066    0.0134    0.0025    0.0048   -0.0123   -0.0024   -0.0014
          23   -0.0242   -0.0110    0.0264   -0.0066    0.0040   -0.0143   -0.0072   -0.0015
          24   -0.0346    0.0239    0.0381    0.0276    0.0076   -0.0078    0.0095    0.0172
          25    0.0246   -0.0229    0.0038    0.0305   -0.0088   -0.0258    0.0133   -0.0514
          26   -0.0334   -0.0086   -0.0332    0.0147    0.0227    0.0134    0.0368   -0.0204
          27   -0.0122    0.0458   -0.0259    0.0136   -0.0017    0.0146   -0.0052   -0.0466
          28    0.0401    0.0440    0.0149    0.0015   -0.1204   -0.0476    0.0127    0.0008
          29   -0.0214   -0.0396   -0.0232    0.0054    0.0077    0.0056    0.0397    0.0076
          30    0.0208   -0.0099    0.0054    0.0041   -0.0871   -0.0412    0.0443    0.0089
          31    0.0299    0.0099    0.0100   -0.0020    0.0008   -0.0108    0.0099    0.0003
          32   -0.0141    0.0178   -0.0139    0.0111   -0.0919   -0.0028   -0.0298    0.0035
          33    0.0010   -0.0462    0.0055    0.0007    0.1484    0.0458   -0.0268    0.0038
          34   -0.0913   -0.0610   -0.0877   -0.0508    0.0272   -0.0607    0.0358   -0.0019
          35    0.0541    0.0141    0.0097    0.0278   -0.0076   -0.0052   -0.0546   -0.0247
          36   -0.0088   -0.0338   -0.0437   -0.0131    0.0077   -0.0413   -0.0200   -0.0224
          37   -0.0402   -0.0309   -0.0042    0.0025   -0.0164    0.0192   -0.0149    0.0039
          38   -0.0153    0.0092   -0.0382   -0.0393    0.0595   -0.0601    0.0721   -0.0040
          39    0.0247    0.0128    0.0703    0.0255   -0.0215    0.0655   -0.0084    0.0087
          40   -0.0143    0.0301   -0.0355   -0.0289   -0.0301    0.0398   -0.0199    0.0573
          41   -0.0017    0.0207   -0.0452   -0.0631   -0.0038    0.0383    0.0338    0.1672
          42    0.0495   -0.0212    0.0231    0.0323    0.0004   -0.0174   -0.0082   -0.0279
          43    0.0333   -0.0702    0.0260    0.0506   -0.0233   -0.0343    0.0166   -0.0415
          44    0.0773    0.0138    0.0346    0.0630   -0.0024   -0.0314   -0.0621   -0.0668
          45    0.0644   -0.0237    0.0360    0.0562   -0.0020   -0.0293   -0.0276   -0.0605
          46   -0.0137    0.0374   -0.0477    0.0592    0.0209   -0.0506   -0.0455    0.0447
          47   -0.0049   -0.0119   -0.0148   -0.0035   -0.0020    0.0089    0.0089   -0.0264
          48    0.0520   -0.0143    0.0480   -0.0341   -0.0162    0.0761    0.0534   -0.0664
          49    0.0043   -0.0130    0.0504   -0.0433   -0.0022    0.0181    0.0349   -0.0413
          50   -0.0395   -0.0093   -0.0880    0.0416    0.0162   -0.0709   -0.0567   -0.0058
          51   -0.0086   -0.0334   -0.0366   -0.0011    0.0085   -0.0448   -0.0304   -0.0463
          52   -0.0060    0.0063   -0.0043    0.0000   -0.0287   -0.0070    0.0065   -0.0012
          53    0.0368   -0.0216    0.0145    0.0031    0.0448   -0.0022    0.0083    0.0136
          54    0.0274   -0.0236    0.0061    0.0019    0.1195    0.0359   -0.0382    0.0053
          55   -0.0095    0.0104   -0.0059    0.0006   -0.0599   -0.0168    0.0186   -0.0014
          56    0.0324   -0.0278    0.0130    0.0042   -0.0472   -0.0380    0.0570    0.0154
          57    0.0133   -0.0181    0.0030    0.0042   -0.0686   -0.0372    0.0580    0.0109
          58   -0.0122    0.0035   -0.0102    0.0004   -0.0487   -0.0055    0.0029   -0.0070
          59    0.0054   -0.0174   -0.0093    0.0030   -0.0284    0.0057   -0.0102   -0.0093
          60   -0.0374   -0.0008   -0.0407    0.0031   -0.0263    0.0497   -0.0713   -0.0371
          61   -0.0089   -0.0269   -0.0088    0.0829    0.0037    0.0069    0.0041    0.0095
          62   -0.0255    0.0013   -0.0543    0.1606    0.0270   -0.0224    0.0281    0.0905
          63   -0.0341    0.0341    0.1031   -0.1258   -0.0065   -0.0136   -0.0168   -0.0499
          64    0.0033    0.0713   -0.0486    0.0240    0.0032    0.0166    0.0316   -0.0484
          65   -0.0315    0.1094   -0.0348    0.1101    0.0058    0.0592    0.0739   -0.0678
          66    0.0220   -0.0701    0.0191   -0.1233    0.0066   -0.0605   -0.0482    0.0377


   Root No.      17        18        19        20        21        22        23        24

                17 A      18 A      19 A      20 A      21 A      22 A      23 A      24 A   

                 958.0     974.8     985.4    1007.2    1031.9    1057.5    1069.2    1100.6
  
           1   -0.0024    0.0060    0.0175    0.0118   -0.0054   -0.0016   -0.0054   -0.0131
           2    0.0072   -0.0082   -0.0117    0.0001    0.0099   -0.0020    0.0037    0.0014
           3   -0.0067   -0.0045   -0.0035    0.0101    0.0119    0.0039    0.0194    0.0038
           4   -0.0209   -0.0077   -0.0092   -0.0045    0.0072    0.0036   -0.0080    0.0098
           5   -0.0104    0.0147   -0.0120   -0.0118   -0.0052    0.0074    0.0164   -0.0042
           6   -0.0135   -0.0014   -0.0039    0.0051   -0.0040   -0.0040   -0.0041   -0.0064
           7    0.0028   -0.0028    0.0011    0.0156   -0.0165    0.0054    0.0094    0.0101
           8   -0.0029    0.0011    0.0011    0.0031    0.0004    0.0039   -0.0036   -0.0079
           9    0.0019   -0.0005    0.0009   -0.0045    0.0038    0.0010   -0.0057   -0.0052
          10    0.0379    0.0134   -0.0119    0.0013   -0.0036   -0.0009    0.0081   -0.0054
          11    0.0065   -0.0043    0.0054    0.0115    0.0020   -0.0063   -0.0112    0.0020
          12    0.0057    0.0235    0.0000   -0.0043    0.0036    0.0038    0.0093    0.0082
          13   -0.0062    0.0146    0.0049    0.0117    0.0153    0.0142   -0.0076    0.0094
          14   -0.0014   -0.0229    0.0086   -0.0168   -0.0007    0.0086    0.0045    0.0040
          15    0.0020   -0.0244   -0.0007    0.0053   -0.0026   -0.0116   -0.0097   -0.0147
          16    0.0020   -0.0007   -0.0097   -0.0131    0.0130   -0.0034   -0.0030   -0.0093
          17   -0.0128    0.0092    0.0217   -0.0022   -0.0095   -0.0030   -0.0004    0.0023
          18   -0.0001   -0.0009   -0.0032    0.0033   -0.0029   -0.0027    0.0069    0.0096
          19    0.0311   -0.0094    0.0055   -0.0228   -0.0097   -0.0019    0.0008    0.0004
          20    0.0138   -0.0071    0.0144    0.0032    0.0118    0.0075    0.0102    0.0055
          21    0.0080    0.0146   -0.0069   -0.0100   -0.0120   -0.0061   -0.0251   -0.0007
          22   -0.0183   -0.0141   -0.0065   -0.0093   -0.0176   -0.0178    0.0025   -0.0047
          23   -0.0112    0.0084   -0.0131    0.0051   -0.0129   -0.0246   -0.0150   -0.0023
          24   -0.0060   -0.0173    0.0154   -0.0166   -0.0088    0.0125    0.0088    0.0006
          25   -0.0553    0.0585    0.0475    0.0139    0.0669   -0.0633    0.1032   -0.0816
          26    0.0151   -0.0316   -0.0812    0.0743    0.0367   -0.0236    0.1112    0.0631
          27   -0.0209    0.0033   -0.0310    0.0536    0.0551   -0.0334    0.1243    0.0130
          28   -0.0038    0.0091    0.0080   -0.0337    0.0274   -0.0142   -0.0073   -0.0016
          29    0.0277   -0.0198   -0.0208    0.0709   -0.0547    0.0300   -0.0128   -0.0641
          30    0.0194   -0.0086   -0.0102    0.0168   -0.0115    0.0082   -0.0214   -0.0512
          31    0.0025   -0.0022    0.0074    0.0192   -0.0203    0.0038    0.0121    0.0047
          32   -0.0088    0.0155   -0.0266   -0.0925    0.0879   -0.0113   -0.0547   -0.0218
          33    0.0009   -0.0024   -0.0189   -0.0122    0.0105    0.0072   -0.0106    0.0187
          34   -0.0686    0.0279    0.0031   -0.0233    0.0190    0.0277    0.0159    0.0194
          35    0.0258   -0.0083   -0.0339    0.0210   -0.0261    0.0427   -0.0388    0.0837
          36   -0.0200    0.0246   -0.0259   -0.0057   -0.0099    0.0556   -0.0115    0.0860
          37    0.0300    0.0109   -0.0130   -0.0009   -0.0031    0.0020    0.0068   -0.0004
          38   -0.0364    0.0541    0.0636    0.0397    0.0615   -0.0118   -0.0029   -0.0578
          39    0.1204    0.0691    0.0219    0.0468    0.0301   -0.0251    0.0173   -0.0719
          40   -0.0865   -0.1047   -0.0304    0.0495    0.0409    0.0655   -0.0744   -0.0498
          41   -0.0084    0.0585   -0.0047   -0.0344   -0.0420   -0.0479    0.0396    0.0185
          42    0.0115    0.0210    0.0020   -0.0057   -0.0011   -0.0054    0.0147    0.0078
          43   -0.0266    0.0388    0.0109   -0.0542    0.0502   -0.0665    0.0303    0.0898
          44    0.0177    0.0103   -0.0258    0.0100   -0.0199    0.0683    0.0247   -0.0431
          45    0.0097    0.0183   -0.0067   -0.0008    0.0045    0.0154    0.0228   -0.0004
          46    0.0062   -0.0017    0.0196    0.0947    0.0718   -0.0954   -0.1126    0.0666
          47    0.0017   -0.0225    0.0081   -0.0037    0.0049   -0.0068   -0.0100    0.0096
          48    0.0052   -0.0754    0.0500    0.0139    0.0520   -0.0634   -0.0679    0.0580
          49   -0.0527    0.0547   -0.0092    0.0089    0.0418    0.1884   -0.0075    0.0121
          50    0.0054   -0.0096   -0.0238    0.0137   -0.0218   -0.0081   -0.0109   -0.0273
          51   -0.0268    0.0128   -0.0280    0.0189    0.0054    0.1075   -0.0172   -0.0309
          52   -0.0007    0.0004    0.0074    0.0112   -0.0101    0.0014    0.0037    0.0033
          53    0.0206   -0.0115   -0.0550   -0.0364    0.0429   -0.0076   -0.0090   -0.0193
          54   -0.0029    0.0051   -0.0371   -0.0761    0.0627   -0.0206   -0.0138   -0.0304
          55    0.0015   -0.0019    0.0113    0.0292   -0.0244    0.0040    0.0108    0.0162
          56    0.0366   -0.0258   -0.0523    0.0309   -0.0040    0.0065    0.0125    0.0155
          57    0.0309   -0.0240   -0.0389    0.0485   -0.0202    0.0072    0.0240    0.0337
          58   -0.0103    0.0068    0.0317    0.0252   -0.0305    0.0027    0.0078    0.0136
          59   -0.0177    0.0123    0.0385    0.0135   -0.0274   -0.0005    0.0036    0.0114
          60   -0.0727    0.0474    0.1271    0.0140   -0.0598   -0.0098    0.0129    0.0285
          61   -0.0471   -0.1031    0.0276   -0.0018    0.0048   -0.0132    0.0619   -0.0528
          62    0.0769   -0.0200    0.0742   -0.0397    0.0116    0.0621   -0.0059    0.0392
          63   -0.0480    0.0493   -0.0595    0.0086   -0.0372   -0.0470   -0.0319   -0.0003
          64    0.0037    0.0140   -0.0225   -0.0270   -0.0275   -0.0140   -0.0130   -0.0033
          65   -0.0220    0.1048   -0.0316    0.0265    0.0000    0.0108   -0.1018   -0.0168
          66    0.0955   -0.0105    0.0785    0.0193    0.0508    0.0423   -0.0402   -0.0047


   Root No.      25        26        27        28        29        30        31        32

                25 A      26 A      27 A      28 A      29 A      30 A      31 A      32 A   

                1114.8    1125.6    1131.6    1137.4    1153.1    1161.8    1168.5    1201.4
  
           1   -0.0048    0.0121   -0.0073   -0.0028    0.0104   -0.0085    0.0045    0.0033
           2    0.0111   -0.0060    0.0037    0.0232   -0.0005   -0.0208   -0.0129   -0.0438
           3   -0.0059   -0.0142    0.0060   -0.0037   -0.0145    0.0183    0.0141   -0.0166
           4    0.0123   -0.0089    0.0037   -0.0050   -0.0119    0.0130    0.0102    0.0155
           5   -0.0058   -0.0031    0.0117   -0.0072   -0.0338   -0.0082   -0.0063   -0.0016
           6   -0.0044    0.0094   -0.0036    0.0073    0.0200   -0.0022   -0.0063   -0.0021
           7    0.0007   -0.0142    0.0212   -0.0028    0.0025   -0.0032   -0.0084   -0.0036
           8   -0.0159   -0.0128    0.0112   -0.0201    0.0092    0.0189    0.0039   -0.0096
           9   -0.0048   -0.0328    0.0074    0.0314    0.0042   -0.0173   -0.0048   -0.0031
          10    0.0012    0.0011    0.0024    0.0074    0.0013   -0.0028   -0.0061   -0.0107
          11    0.0145    0.0026   -0.0029    0.0117    0.0270    0.0150    0.0074    0.0048
          12    0.0052   -0.0213   -0.0139   -0.0214   -0.0091   -0.0120    0.0005   -0.0010
          13   -0.0079   -0.0007   -0.0033   -0.0041   -0.0055   -0.0055   -0.0004    0.0011
          14   -0.0047   -0.0019   -0.0029   -0.0046   -0.0032   -0.0022   -0.0043    0.0034
          15    0.0007    0.0148    0.0143    0.0107   -0.0052    0.0059   -0.0081    0.0094
          16   -0.0018    0.0090   -0.0232    0.0069   -0.0108    0.0053    0.0058   -0.0031
          17    0.0075    0.0098   -0.0122    0.0086   -0.0067   -0.0047   -0.0002    0.0057
          18    0.0121    0.0351   -0.0049   -0.0244   -0.0034    0.0072    0.0005   -0.0074
          19    0.0036    0.0020    0.0008   -0.0004    0.0033    0.0029   -0.0037    0.0063
          20   -0.0057    0.0034   -0.0007    0.0002   -0.0023    0.0034    0.0029   -0.0012
          21    0.0023    0.0017    0.0042    0.0032   -0.0023   -0.0016   -0.0015   -0.0127
          22    0.0010   -0.0001   -0.0022   -0.0050    0.0084   -0.0025    0.0023    0.0147
          23    0.0031    0.0013   -0.0015   -0.0022   -0.0008    0.0002   -0.0016    0.0007
          24    0.0006    0.0035   -0.0049   -0.0035    0.0066    0.0034    0.0013    0.0100
          25   -0.0921    0.0109   -0.0386   -0.0375    0.1408    0.0212   -0.0993   -0.0481
          26    0.0380    0.0367   -0.0234    0.0818   -0.0110   -0.0860    0.0082    0.1526
          27   -0.0258    0.0093   -0.0221    0.0186    0.0308   -0.0073   -0.0136    0.0758
          28    0.0194    0.0020   -0.0051    0.0480    0.0112   -0.0476   -0.0154   -0.0107
          29   -0.0962   -0.0863   -0.0619   -0.0002   -0.0442    0.0988    0.0481    0.0842
          30   -0.0519   -0.0777   -0.0604    0.0766   -0.0298    0.0156    0.0242    0.0630
          31    0.0029   -0.0052   -0.0043    0.0109   -0.0147   -0.0008   -0.0059   -0.0221
          32   -0.0178   -0.0159    0.0791   -0.0559    0.1060   -0.0356   -0.0062    0.1155
          33   -0.0145   -0.0753    0.1159   -0.0243    0.0770   -0.0246   -0.0198    0.0699
          34   -0.0093   -0.0292   -0.0054   -0.0363   -0.0542   -0.0192   -0.0069   -0.0056
          35   -0.0124   -0.0171   -0.0884    0.0136    0.1615   -0.0044    0.0609   -0.0412
          36   -0.0220   -0.0509   -0.0891   -0.0392    0.0793   -0.0358    0.0429   -0.0385
          37   -0.0035    0.0010    0.0016    0.0071   -0.0008   -0.0035   -0.0078   -0.0108
          38    0.1314   -0.0432    0.0070   -0.0348   -0.0059    0.0299    0.0573    0.0298
          39    0.1085   -0.0305    0.0074   -0.0096    0.0079    0.0145    0.0229   -0.0164
          40    0.0994   -0.0370   -0.0355   -0.0432    0.0144   -0.0375   -0.0399   -0.0079
          41   -0.0693    0.0452    0.0338    0.0415   -0.0034    0.0211    0.0107    0.0175
          42   -0.0122   -0.0011    0.0021    0.0013   -0.0023    0.0054    0.0069   -0.0010
          43    0.0329   -0.0384    0.0568    0.0515   -0.0190    0.1073    0.0842   -0.0087
          44   -0.0172   -0.0134   -0.0167   -0.0718   -0.0854   -0.0720   -0.0452    0.0201
          45   -0.0060   -0.0151   -0.0034   -0.0224   -0.0280   -0.0111   -0.0039    0.0038
          46   -0.0647    0.0056    0.0032    0.0055   -0.0695    0.0098   -0.0561   -0.0331
          47   -0.0090   -0.0003   -0.0018   -0.0018   -0.0083    0.0014   -0.0108   -0.0002
          48   -0.0599   -0.0056   -0.0065   -0.0158   -0.0644    0.0006   -0.0595   -0.0042
          49   -0.0232    0.0613    0.0355    0.0771    0.0029    0.0547   -0.0298   -0.0188
          50    0.0192    0.0259    0.0182    0.0311    0.0262    0.0238   -0.0027    0.0142
          51    0.0043    0.0747    0.0542    0.0890    0.0168    0.0645   -0.0297    0.0020
          52    0.0009   -0.0015    0.0033    0.0006   -0.0009   -0.0008   -0.0015   -0.0050
          53   -0.0050    0.0424   -0.0437   -0.0224   -0.0142    0.0259    0.0156    0.0006
          54    0.0058    0.0675   -0.0994    0.0125   -0.0423    0.0209    0.0241    0.0040
          55    0.0074    0.0094    0.0212   -0.0198    0.0062    0.0002   -0.0055   -0.0033
          56    0.0026    0.0441    0.0235   -0.0767    0.0116    0.0293    0.0029   -0.0023
          57    0.0153    0.0592    0.0433   -0.0948    0.0181    0.0255   -0.0038   -0.0106
          58    0.0080    0.0052    0.0137   -0.0076    0.0029   -0.0036   -0.0054    0.0019
          59    0.0111    0.0091    0.0028    0.0010   -0.0006   -0.0074   -0.0042    0.0106
          60    0.0382    0.0252   -0.0194    0.0402   -0.0161   -0.0342   -0.0077    0.0402
          61   -0.0433    0.0189    0.0482    0.0079    0.0027   -0.0689    0.1521   -0.1032
          62    0.0204   -0.0085   -0.0352   -0.0086    0.0059    0.0380   -0.0839    0.0645
          63    0.0124    0.0012   -0.0099   -0.0063    0.0052    0.0148   -0.0264    0.0338
          64    0.0126   -0.0039   -0.0006    0.0034    0.0056    0.0053   -0.0138   -0.0053
          65   -0.0456    0.0611    0.0292   -0.0107   -0.0066   -0.0817    0.0807    0.0307
          66   -0.0622    0.0640    0.0317   -0.0214   -0.0082   -0.0696    0.0934    0.0589


   Root No.      33        34        35        36        37        38        39        40

                33 A      34 A      35 A      36 A      37 A      38 A      39 A      40 A   

                1243.6    1306.6    1327.1    1361.4    1373.3    1390.6    1398.5    1406.0
  
           1   -0.0270    0.0130    0.0361    0.0195    0.0414   -0.0151    0.0160    0.0055
           2    0.0051    0.0022   -0.0041    0.0291   -0.0160    0.0080   -0.0131   -0.0066
           3   -0.0017    0.0123    0.0097    0.0267    0.0063    0.0008    0.0006   -0.0046
           4   -0.0182    0.0170   -0.0071   -0.0078   -0.0373    0.0273   -0.0124   -0.0152
           5    0.0141   -0.0131   -0.0068    0.0036    0.0257   -0.0065    0.0022   -0.0225
           6    0.0021   -0.0031   -0.0103    0.0001    0.0032   -0.0031   -0.0002   -0.0060
           7    0.0075   -0.0080   -0.0077    0.0002   -0.0056   -0.0011   -0.0164   -0.0043
           8    0.0010    0.0328    0.0048   -0.0208    0.0089    0.0030    0.0318    0.0056
           9   -0.0001    0.0230    0.0019   -0.0156    0.0064   -0.0031   -0.0050   -0.0023
          10    0.0040   -0.0081   -0.0027   -0.0009    0.0016   -0.0069   -0.0004    0.0041
          11    0.0129   -0.0020    0.0425   -0.0149   -0.0064    0.0253   -0.0028    0.0138
          12    0.0072   -0.0059    0.0347   -0.0126   -0.0124    0.0141   -0.0069    0.0199
          13    0.0130    0.0137    0.0089    0.0341    0.0008   -0.0053   -0.0160    0.0131
          14    0.0000    0.0035   -0.0067    0.0019   -0.0056   -0.0155    0.0073   -0.0129
          15    0.0110    0.0131    0.0034    0.0189   -0.0129   -0.0284    0.0043   -0.0146
          16    0.0004    0.0043    0.0010   -0.0044    0.0027   -0.0027   -0.0044    0.0038
          17    0.0009   -0.0059   -0.0021   -0.0058    0.0004   -0.0042   -0.0107    0.0038
          18    0.0012    0.0027   -0.0003   -0.0140    0.0060   -0.0091   -0.0178   -0.0021
          19    0.0002   -0.0121   -0.0081   -0.0152   -0.0080   -0.0012   -0.0014    0.0013
          20   -0.0086   -0.0110    0.0047   -0.0035   -0.0022   -0.0014   -0.0049    0.0069
          21   -0.0103   -0.0165    0.0027   -0.0078   -0.0065   -0.0022   -0.0066    0.0084
          22    0.0118    0.0129   -0.0111   -0.0054    0.0038    0.0087    0.0089   -0.0103
          23   -0.0068   -0.0071    0.0005   -0.0079    0.0018   -0.0007    0.0009    0.0022
          24   -0.0035   -0.0033   -0.0044   -0.0126    0.0041    0.0037    0.0048   -0.0013
          25    0.0558   -0.0285   -0.0534   -0.0236   -0.0568    0.0187   -0.0225   -0.0077
          26   -0.0293    0.0081    0.0130   -0.0433    0.0319   -0.0116    0.0144    0.0026
          27    0.0116   -0.0017   -0.0157   -0.0311   -0.0048    0.0022    0.0004   -0.0045
          28   -0.0045    0.0035   -0.0029    0.0239   -0.0259    0.0450    0.1555    0.0291
          29    0.0112   -0.0784   -0.0118    0.0303   -0.0091   -0.0110   -0.0583   -0.0100
          30    0.0013   -0.0529   -0.0084    0.0374   -0.0214    0.0183    0.0463    0.0088
          31    0.0121    0.0117   -0.0071   -0.0141   -0.0001   -0.0051   -0.0250   -0.0063
          32   -0.0728   -0.0591    0.0441    0.0450    0.0426   -0.0437   -0.1145   -0.0155
          33   -0.0155   -0.0634   -0.0058    0.0542   -0.0294    0.0344    0.1078    0.0205
          34    0.0024   -0.0295   -0.0130   -0.0333    0.0881    0.0630    0.0323   -0.0534
          35   -0.0334    0.0091   -0.0782    0.0288   -0.0034   -0.0495    0.0036   -0.0200
          36   -0.0318   -0.0084   -0.0715    0.0068    0.0359   -0.0124    0.0162   -0.0384
          37    0.0075   -0.0095    0.0026   -0.0022    0.0036   -0.0029   -0.0006    0.0046
          38   -0.0743    0.0395   -0.0924    0.0229   -0.0714   -0.0525   -0.0168   -0.0029
          39   -0.0447   -0.0290   -0.1002   -0.0341    0.0832    0.0293    0.0428   -0.0758
          40    0.0981   -0.0694   -0.0387   -0.0377    0.0356   -0.0644    0.0258    0.0790
          41   -0.0663    0.0409   -0.0884    0.0058   -0.0480   -0.0544    0.0165    0.0978
          42   -0.0111    0.0089    0.0306    0.0102    0.0036    0.0455   -0.0185   -0.0796
          43    0.1017   -0.0447   -0.0335   -0.0017    0.0565   -0.0778    0.0249    0.0670
          44   -0.0688    0.0299   -0.0372   -0.0119   -0.0548   -0.0169    0.0113    0.0833
          45   -0.0108    0.0040   -0.0441   -0.0094   -0.0201   -0.0549    0.0218    0.1099
          46   -0.0595   -0.0575    0.0196   -0.0789   -0.0360   -0.0513    0.0493   -0.0526
          47   -0.0085   -0.0048   -0.0051   -0.0119   -0.0098   -0.0202    0.0150   -0.0205
          48   -0.0461    0.0008   -0.1177    0.0168    0.0949    0.1001   -0.0434    0.0654
          49   -0.0437   -0.0417    0.0128   -0.0588   -0.0178   -0.0144    0.0255   -0.0207
          50    0.0016    0.0268   -0.0763    0.0460    0.0860    0.1126   -0.0610    0.0836
          51   -0.0297   -0.0119   -0.0400   -0.0195    0.0332    0.0476   -0.0099    0.0236
          52    0.0019    0.0121   -0.0004   -0.0221    0.0091   -0.0121   -0.0229    0.0030
          53   -0.0050   -0.0186    0.0057    0.0380   -0.0050    0.0109    0.0169   -0.0483
          54   -0.0039   -0.0384    0.0002    0.0705   -0.0323    0.0402    0.0783    0.0134
          55    0.0013   -0.0184   -0.0046    0.0346   -0.0229    0.0276    0.0576    0.0050
          56   -0.0027   -0.0311    0.0016    0.0474   -0.0152    0.0168    0.0240    0.0199
          57   -0.0012   -0.0316   -0.0012    0.0512   -0.0226    0.0263    0.0481    0.0143
          58    0.0005   -0.0233   -0.0018    0.0364   -0.0131    0.0168    0.0269   -0.0515
          59    0.0001   -0.0228   -0.0030    0.0187   -0.0082    0.0064    0.0055   -0.0216
          60   -0.0021   -0.0796   -0.0069    0.0786   -0.0312    0.0234    0.0135    0.0016
          61   -0.0639   -0.0774    0.0116   -0.0487   -0.0080    0.0174   -0.0134    0.0256
          62    0.0316    0.0399   -0.0126    0.0139    0.0090   -0.0043    0.0131   -0.0169
          63    0.0123    0.0144   -0.0095   -0.0057    0.0060    0.0011    0.0100   -0.0089
          64   -0.0114   -0.0164   -0.0020   -0.0139   -0.0057   -0.0040   -0.0021    0.0038
          65    0.0951    0.0277   -0.0491   -0.0124   -0.0214    0.0234    0.0034   -0.0178
          66    0.1028    0.0236   -0.0575   -0.0237   -0.0266    0.0238    0.0041   -0.0188


   Root No.      41        42        43        44        45        46        47        48

                41 A      42 A      43 A      44 A      45 A      46 A      47 A      48 A   

                1407.7    1410.8    1415.2    1424.2    1436.7    1882.0    2850.2    2944.7
  
           1    0.0007    0.0005    0.0017   -0.0075   -0.0156   -0.0031    0.0210   -0.0002
           2   -0.0015   -0.0004    0.0161   -0.0003   -0.0311   -0.0238    0.0305    0.0000
           3   -0.0017    0.0001    0.0100   -0.0037   -0.0299   -0.0271   -0.0538    0.0002
           4   -0.0047   -0.0005    0.0018    0.0095    0.0074   -0.0015    0.0007   -0.0003
           5   -0.0096    0.0029   -0.0250   -0.0092    0.0081    0.0041   -0.0006   -0.0009
           6   -0.0025    0.0007   -0.0050    0.0007    0.0065    0.0027    0.0038    0.0040
           7    0.0001    0.0024    0.0063   -0.0053    0.0031   -0.0009   -0.0028   -0.0002
           8    0.0008   -0.0078   -0.0089   -0.0078    0.0241   -0.0026   -0.0004   -0.0001
           9    0.0048   -0.0011    0.0104   -0.0239    0.0290   -0.0035    0.0011    0.0001
          10    0.0013    0.0002   -0.0137   -0.0174   -0.0112    0.0036    0.0002    0.0112
          11    0.0061   -0.0020    0.0206    0.0094   -0.0034   -0.0034    0.0002    0.0062
          12    0.0071   -0.0013   -0.0089   -0.0168   -0.0141   -0.0010   -0.0003   -0.0072
          13    0.0007    0.0028   -0.0083    0.0293    0.0391   -0.0347    0.0000   -0.0119
          14   -0.0038    0.0003    0.0031    0.0004   -0.0017    0.0133   -0.0001   -0.0352
          15   -0.0059    0.0016    0.0048    0.0190    0.0187   -0.0003    0.0001    0.0201
          16   -0.0218   -0.0232   -0.0010    0.0033   -0.0042    0.0002    0.0003    0.0001
          17   -0.0184    0.0301   -0.0041    0.0136   -0.0150    0.0009    0.0004    0.0000
          18    0.0099    0.0015   -0.0126    0.0279   -0.0279    0.0013   -0.0001    0.0000
          19    0.0005    0.0002   -0.0048    0.0032    0.0138   -0.1049   -0.0005    0.0000
          20    0.0012    0.0010   -0.0067    0.0090    0.0177    0.1708   -0.0007   -0.0002
          21    0.0015    0.0008   -0.0081    0.0108    0.0256    0.1497   -0.0009    0.0000
          22   -0.0009   -0.0021    0.0116   -0.0187   -0.0340    0.1647   -0.0003   -0.0001
          23    0.0006    0.0001   -0.0036    0.0005    0.0061   -0.1553    0.0005    0.0003
          24    0.0004   -0.0008    0.0002   -0.0080   -0.0078   -0.1072    0.0001    0.0003
          25   -0.0042   -0.0009   -0.0025    0.0085    0.0148   -0.0118   -0.2573    0.0011
          26    0.0087    0.0047   -0.0160   -0.0060    0.0391    0.0032   -0.3770    0.0016
          27    0.0027    0.0033   -0.0103   -0.0006    0.0218   -0.0077    0.6552   -0.0026
          28   -0.0156   -0.0437   -0.0727    0.0774   -0.0475    0.0006    0.0138    0.0007
          29   -0.0032    0.0222    0.0120    0.0111   -0.0334    0.0001    0.0111    0.0010
          30   -0.0081   -0.0107   -0.0290    0.0473   -0.0474   -0.0003   -0.0217   -0.0013
          31    0.0031    0.0029    0.0140   -0.0213    0.0223   -0.0023    0.0176    0.0014
          32    0.0012    0.0405    0.0520   -0.0311   -0.0270   -0.0088    0.0022    0.0000
          33   -0.0164   -0.0262   -0.0605    0.0829   -0.0734   -0.0042    0.0032    0.0003
          34   -0.0133   -0.0027    0.1177    0.1003    0.0401   -0.0023   -0.0002   -0.0406
          35   -0.0086    0.0033   -0.0287   -0.0148    0.0021    0.0021   -0.0032   -0.0803
          36   -0.0127    0.0016    0.0192    0.0239    0.0161    0.0009    0.0029    0.0920
          37    0.0015    0.0001   -0.0096   -0.0136   -0.0094    0.0025    0.0006   -0.0935
          38   -0.0040    0.0030   -0.0870   -0.0649   -0.0170    0.0083    0.0001    0.0016
          39   -0.0202   -0.0018    0.0929    0.0655    0.0177    0.0140    0.0000   -0.0054
          40    0.0304   -0.0031    0.0099   -0.0108    0.0096    0.0156   -0.0054   -0.0083
          41    0.0391   -0.0107    0.0805    0.0285   -0.0136   -0.0035   -0.0099   -0.0087
          42   -0.0320    0.0067   -0.0441   -0.0061    0.0111   -0.0012   -0.0252   -0.0201
          43    0.0261   -0.0008    0.0189   -0.0134   -0.0080    0.0006    0.0065    0.0133
          44    0.0332   -0.0103    0.0577    0.0149   -0.0211   -0.0019    0.0202    0.0222
          45    0.0435   -0.0094    0.0661    0.0088   -0.0235   -0.0014   -0.0225   -0.0256
          46   -0.0108   -0.0031    0.0161   -0.0367   -0.0457   -0.0359    0.0001   -0.0495
          47   -0.0051   -0.0005    0.0065   -0.0073   -0.0119    0.0096   -0.0001    0.2789
          48    0.0184   -0.0006   -0.0430   -0.0346   -0.0143   -0.0082    0.0000    0.0194
          49   -0.0024   -0.0027    0.0059   -0.0323   -0.0364   -0.0162    0.0002    0.1956
          50    0.0221    0.0006   -0.0351   -0.0029    0.0145   -0.0028    0.0004    0.1429
          51    0.0087   -0.0021   -0.0101   -0.0281   -0.0255   -0.0030   -0.0004   -0.2636
          52   -0.0225   -0.0291   -0.0103    0.0244   -0.0240    0.0002   -0.0021   -0.0006
          53    0.2306   -0.1810   -0.0002   -0.0186    0.0262    0.0003    0.0000   -0.0001
          54   -0.0283    0.1707    0.0366   -0.0745    0.0665    0.0004   -0.0005   -0.0002
          55    0.0223    0.2863    0.0162   -0.0359    0.0334   -0.0001   -0.0022    0.0000
          56   -0.1259   -0.1773    0.0321   -0.0595    0.0514    0.0001   -0.0007   -0.0001
          57   -0.0611    0.0481    0.0276   -0.0544    0.0474    0.0003    0.0039    0.0001
          58    0.2675    0.0306   -0.0024   -0.0132    0.0208   -0.0003   -0.0005    0.0000
          59    0.1100    0.0232   -0.0016   -0.0006    0.0029    0.0008    0.0016    0.0001
          60   -0.0557   -0.1930    0.0421   -0.0703    0.0584    0.0002    0.0001    0.0000
          61    0.0073    0.0003   -0.0190    0.0053    0.0310   -0.1035    0.0011   -0.0020
          62   -0.0037   -0.0014    0.0128   -0.0141   -0.0306   -0.0420    0.0019   -0.0039
          63   -0.0013   -0.0012    0.0059   -0.0123   -0.0193   -0.0910    0.0012   -0.0035
          64    0.0008    0.0005   -0.0065    0.0053    0.0189   -0.1259    0.0053   -0.0004
          65   -0.0020   -0.0041    0.0166   -0.0205   -0.0398   -0.0140    0.0001   -0.0003
          66   -0.0019   -0.0039    0.0143   -0.0196   -0.0345   -0.0723   -0.0010    0.0003


   Root No.      49        50        51        52        53        54        55        56

                49 A      50 A      51 A      52 A      53 A      54 A      55 A      56 A   

                2949.2    2954.0    2965.0    3025.9    3029.6    3032.3    3038.6    3043.0
  
           1   -0.0009    0.0006    0.0001    0.0001    0.0001   -0.0005   -0.0002   -0.0001
           2   -0.0010    0.0007   -0.0004    0.0000    0.0006    0.0002   -0.0002   -0.0002
           3    0.0017   -0.0014    0.0004   -0.0001   -0.0002   -0.0001    0.0000    0.0000
           4    0.0002    0.0007    0.0004    0.0013    0.0064   -0.0119    0.0018   -0.0041
           5   -0.0011    0.0068   -0.0015    0.0022    0.0089   -0.0171    0.0023   -0.0050
           6    0.0044   -0.0362    0.0135    0.0006    0.0022   -0.0034    0.0008   -0.0026
           7   -0.0453   -0.0034    0.0006   -0.0002   -0.0092   -0.0041    0.0016   -0.0002
           8   -0.0168   -0.0011    0.0002    0.0003    0.0106    0.0046   -0.0015    0.0001
           9    0.0148    0.0008   -0.0001   -0.0006   -0.0194   -0.0084    0.0025   -0.0003
          10    0.0005   -0.0087   -0.0284   -0.0030   -0.0009    0.0026    0.0014   -0.0190
          11    0.0003   -0.0051   -0.0142    0.0032    0.0014   -0.0032   -0.0010    0.0125
          12   -0.0003    0.0058    0.0161   -0.0046   -0.0015    0.0036    0.0012   -0.0164
          13    0.0002   -0.0019   -0.0027    0.0165   -0.0011    0.0012   -0.0015   -0.0027
          14    0.0008   -0.0063   -0.0097   -0.0181    0.0012   -0.0013    0.0020    0.0037
          15   -0.0004    0.0035    0.0048   -0.0178    0.0011   -0.0011    0.0018    0.0022
          16    0.0025   -0.0004    0.0002    0.0002    0.0019   -0.0009    0.0000   -0.0007
          17    0.0008    0.0000    0.0000   -0.0001   -0.0024   -0.0011    0.0004   -0.0001
          18   -0.0008   -0.0001    0.0000    0.0000    0.0007    0.0004   -0.0001    0.0001
          19   -0.0006    0.0000    0.0000   -0.0013   -0.0020   -0.0029   -0.0329   -0.0037
          20    0.0003    0.0001   -0.0001    0.0002    0.0005    0.0007    0.0060    0.0008
          21    0.0000    0.0000    0.0000   -0.0003   -0.0004   -0.0005   -0.0072   -0.0007
          22    0.0001    0.0000    0.0001    0.0028    0.0003    0.0009    0.0096    0.0000
          23    0.0000    0.0001    0.0000    0.0032    0.0002    0.0009    0.0104   -0.0005
          24    0.0000    0.0001    0.0002    0.0050    0.0003    0.0015    0.0163   -0.0006
          25    0.0063   -0.0090    0.0034   -0.0001   -0.0009   -0.0004   -0.0001   -0.0001
          26    0.0137   -0.0090    0.0024    0.0001   -0.0020   -0.0014    0.0009    0.0006
          27   -0.0199    0.0152   -0.0047    0.0001    0.0023    0.0008   -0.0021   -0.0010
          28    0.1476    0.0101   -0.0014   -0.0040   -0.1337   -0.0581    0.0171   -0.0020
          29    0.1948    0.0121   -0.0014   -0.0044   -0.1463   -0.0626    0.0183   -0.0019
          30   -0.2697   -0.0176    0.0024    0.0059    0.1966    0.0843   -0.0247    0.0026
          31    0.3953    0.0315   -0.0056    0.0072    0.2473    0.1068   -0.0374    0.0033
          32    0.0057    0.0006   -0.0001    0.0004    0.0146    0.0063   -0.0034    0.0001
          33    0.0907    0.0070   -0.0012    0.0011    0.0390    0.0169   -0.0068    0.0005
          34   -0.0021    0.0327    0.0850   -0.0263   -0.0092    0.0230    0.0088   -0.1054
          35   -0.0034    0.0610    0.1752   -0.0438   -0.0156    0.0383    0.0138   -0.1660
          36    0.0047   -0.0781   -0.2106    0.0514    0.0187   -0.0459   -0.0164    0.1987
          37   -0.0034    0.0717    0.2543    0.0605    0.0200   -0.0537   -0.0272    0.3361
          38    0.0001   -0.0016   -0.0035    0.0017    0.0021   -0.0045   -0.0006    0.0120
          39   -0.0002    0.0049    0.0174   -0.0027    0.0001   -0.0001    0.0000    0.0014
          40   -0.0117    0.0939   -0.0396   -0.0087   -0.0406    0.0747   -0.0102    0.0275
          41   -0.0124    0.0995   -0.0411   -0.0075   -0.0400    0.0732   -0.0106    0.0310
          42   -0.0283    0.2295   -0.0965   -0.0240   -0.1160    0.2135   -0.0300    0.0807
          43    0.0139   -0.1038    0.0319   -0.0081   -0.0378    0.0726   -0.0089    0.0195
          44    0.0216   -0.1828    0.0612   -0.0151   -0.0683    0.1339   -0.0165    0.0365
          45   -0.0250    0.2054   -0.0639    0.0190    0.0890   -0.1728    0.0215   -0.0489
          46    0.0012   -0.0095   -0.0144   -0.0432    0.0029   -0.0029    0.0066    0.0072
          47   -0.0067    0.0557    0.0827    0.3578   -0.0244    0.0271   -0.0401   -0.0662
          48   -0.0005    0.0042    0.0063    0.0005   -0.0003    0.0007    0.0006   -0.0026
          49   -0.0040    0.0317    0.0454   -0.1547    0.0100   -0.0106    0.0165    0.0213
          50   -0.0029    0.0230    0.0320   -0.1405    0.0092   -0.0100    0.0146    0.0204
          51    0.0054   -0.0441   -0.0656    0.2148   -0.0137    0.0147   -0.0213   -0.0305
          52   -0.0222    0.0049   -0.0026   -0.0016   -0.0173    0.0102    0.0002    0.0074
          53   -0.0003    0.0013   -0.0006   -0.0002   -0.0027    0.0011    0.0001    0.0009
          54   -0.0021    0.0016   -0.0007   -0.0004   -0.0036    0.0029   -0.0001    0.0018
          55   -0.0094   -0.0005    0.0000    0.0000    0.0054    0.0044   -0.0010    0.0011
          56   -0.0126   -0.0002   -0.0002   -0.0001    0.0046    0.0054   -0.0011    0.0018
          57    0.0124    0.0000    0.0003    0.0001   -0.0065   -0.0077    0.0017   -0.0025
          58   -0.0003    0.0000    0.0000   -0.0004   -0.0109   -0.0040    0.0017    0.0003
          59    0.0017   -0.0005    0.0004    0.0009    0.0242    0.0068   -0.0035   -0.0015
          60   -0.0005    0.0000    0.0000   -0.0001   -0.0029   -0.0010    0.0004    0.0001
          61   -0.0004    0.0002    0.0001   -0.0285   -0.0027   -0.0102   -0.1113    0.0029
          62   -0.0005   -0.0001   -0.0006   -0.0378   -0.0029   -0.0123   -0.1305    0.0043
          63   -0.0007    0.0002   -0.0001   -0.0569   -0.0045   -0.0187   -0.2003    0.0062
          64    0.0051    0.0028   -0.0005    0.0132    0.0223    0.0348    0.3862    0.0435
          65    0.0003   -0.0003   -0.0001   -0.0017   -0.0029   -0.0052   -0.0618   -0.0071
          66    0.0022    0.0008    0.0000    0.0037    0.0058    0.0089    0.0953    0.0106


   Root No.      57        58        59        60

                57 A      58 A      59 A      60 A   

                3060.5    3074.3    3082.5    3178.9
  
           1   -0.0004    0.0000    0.0000   -0.0001
           2    0.0002    0.0000    0.0002    0.0000
           3    0.0004   -0.0002    0.0002    0.0001
           4    0.0005    0.0010   -0.0002    0.0002
[...]
 FREQ.      1398.51        C  3 --  H 10          +20.7% ( 51.7%)     2.7%
 T-DIPOLE    0.0318        C  3 --  H 11          +17.8% ( 48.0%)     4.2%
 TRAVEL      0.1117        C  1 --  C  3          +10.3% ( 36.5%)    92.8%
 RED. MASS   0.3835        C  3 --  C  6           +8.6% ( 33.3%)    40.5%
 EFF. MASS   3.8661

 VIBRATION   40   40A       ATOM PAIR        ENERGY CONTRIBUTION    RADIAL
 FREQ.      1405.98        C  2 --  H 15          +17.1% ( 45.8%)     4.1%
 T-DIPOLE    0.0650        C  2 --  H 14          +15.9% ( 44.0%)     6.3%
 TRAVEL      0.1163        C  2 --  C  4           +8.9% ( 32.9%)    39.9%
 RED. MASS   0.2914        C  4 --  C  5           +7.9% ( 31.2%)    70.2%
 EFF. MASS   3.5475

 VIBRATION   41   41A       ATOM PAIR        ENERGY CONTRIBUTION    RADIAL
 FREQ.      1407.73        C  6 --  H 20          +44.9% ( 59.1%)     0.5%
 T-DIPOLE    0.0523        C  6 --  H 18          +28.2% ( 46.9%)     4.4%
 TRAVEL      0.1682        C  6 --  H 19          +11.1% ( 29.4%)    30.5%
 RED. MASS   0.3625        C  3 --  C  6           +4.5% ( 18.8%)     5.8%
 EFF. MASS   1.6930

 VIBRATION   42   42A       ATOM PAIR        ENERGY CONTRIBUTION    RADIAL
 FREQ.      1410.75        C  6 --  H 19          +47.4% ( 60.7%)     0.1%
 T-DIPOLE    0.0575        C  6 --  H 18          +26.6% ( 45.5%)     3.4%
 TRAVEL      0.1685        C  6 --  H 20          +16.5% ( 35.8%)    22.6%
 RED. MASS   0.3884        C  3 --  C  6           +6.1% ( 21.9%)    12.9%
 EFF. MASS   1.6836

 VIBRATION   43   43A       ATOM PAIR        ENERGY CONTRIBUTION    RADIAL
 FREQ.      1415.24        C  4 --  H 13          +12.7% ( 40.8%)     4.6%
 T-DIPOLE    0.0301        C  4 --  H 12          +12.0% ( 39.6%)     5.4%
 TRAVEL      0.1092        C  2 --  C  4          +10.0% ( 36.2%)    94.4%
 RED. MASS   0.2685        C  2 --  H 14           +8.4% ( 33.2%)     5.1%
 EFF. MASS   3.9942

 VIBRATION   44   44A       ATOM PAIR        ENERGY CONTRIBUTION    RADIAL
 FREQ.      1424.17        C  5 --  C  8           +9.1% ( 38.9%)    86.7%
 T-DIPOLE    0.0501        C  4 --  C  5           +9.0% ( 38.7%)    51.1%
 TRAVEL      0.0906        C  3 --  C  6           +8.8% ( 38.2%)    99.2%
 RED. MASS   0.4970        C  6 --  H 19           +7.1% ( 34.4%)     4.1%
 EFF. MASS   5.7681

 VIBRATION   45   45A       ATOM PAIR        ENERGY CONTRIBUTION    RADIAL
 FREQ.      1436.73        C  1 --  C  7          +10.8% ( 48.5%)    98.4%
 T-DIPOLE    0.0457        C  5 --  C  8          +10.7% ( 48.3%)    96.7%
 TRAVEL      0.0736        C  1 --  C  3           +8.8% ( 43.8%)    28.9%
 RED. MASS   1.0043        C  3 --  C  6           +7.2% ( 39.8%)    98.6%
 EFF. MASS   8.6685

 VIBRATION   46   46A       ATOM PAIR        ENERGY CONTRIBUTION    RADIAL
 FREQ.      1881.99        C  7 --  C  8          +44.4% ( 98.2%)   100.0%
 T-DIPOLE    0.1455        C  5 --  C  8          +14.2% ( 55.6%)    52.7%
 TRAVEL      0.0549        C  1 --  C  7          +14.2% ( 55.5%)    50.7%
 RED. MASS   5.4302        C  7 --  H 22          +13.1% ( 53.5%)     4.2%
 EFF. MASS  11.8789        C  8 --  H 21          +13.1% ( 53.3%)     4.5%

 VIBRATION   47   47A       ATOM PAIR        ENERGY CONTRIBUTION    RADIAL
 FREQ.      2850.25        C  1 --  H  9          +96.5% ( 99.8%)   100.0%
 T-DIPOLE    0.0536        C  1 --  C  2           +1.0% ( 10.2%)     8.8%
 TRAVEL      0.1283        C  1 --  C  3           +1.0% ( 10.2%)     8.9%
 RED. MASS   0.9214        C  1 --  C  7           +1.0% ( 10.1%)     7.1%
 EFF. MASS   1.4365

 VIBRATION   48   48A       ATOM PAIR        ENERGY CONTRIBUTION    RADIAL
 FREQ.      2944.73        C  5 --  H 17          +52.2% ( 75.1%)    97.4%
 T-DIPOLE    0.0203        C  5 --  H 16          +34.1% ( 60.7%)    95.1%
 TRAVEL      0.1218        C  4 --  H 12           +6.8% ( 27.1%)    97.4%
 RED. MASS   0.4283        C  4 --  H 13           +3.8% ( 20.2%)    94.1%
 EFF. MASS   1.5440

 VIBRATION   49   49A       ATOM PAIR        ENERGY CONTRIBUTION    RADIAL
 FREQ.      2949.20        C  3 --  H 11          +52.9% ( 75.6%)    97.0%
 T-DIPOLE    0.0084        C  3 --  H 10          +43.4% ( 68.4%)    95.9%
 TRAVEL      0.1217        C  3 --  C  6           +1.2% ( 11.2%)     0.0%
 RED. MASS   0.5091        C  1 --  C  3           +1.1% ( 11.1%)     0.1%
 EFF. MASS   1.5436

 VIBRATION   50   50A       ATOM PAIR        ENERGY CONTRIBUTION    RADIAL
 FREQ.      2953.99        C  2 --  H 15          +45.9% ( 70.4%)    96.9%
 T-DIPOLE    0.0113        C  2 --  H 14          +38.5% ( 64.5%)    96.0%
 TRAVEL      0.1216        C  4 --  H 12           +5.7% ( 24.8%)    97.8%
 RED. MASS   0.3956        C  4 --  H 13           +2.9% ( 17.6%)    93.9%
 EFF. MASS   1.5431

 VIBRATION   51   51A       ATOM PAIR        ENERGY CONTRIBUTION    RADIAL
 FREQ.      2964.96        C  4 --  H 12          +43.5% ( 68.3%)    97.1%
 T-DIPOLE    0.0116        C  4 --  H 13          +35.2% ( 61.4%)    95.9%
 TRAVEL      0.1216        C  2 --  H 14           +6.6% ( 26.7%)    97.4%
 RED. MASS   0.3490        C  2 --  H 15           +4.8% ( 22.6%)    95.7%
 EFF. MASS   1.5375

 VIBRATION   52   52A       ATOM PAIR        ENERGY CONTRIBUTION    RADIAL
 FREQ.      3025.86        C  5 --  H 16          +54.7% ( 73.0%)    98.6%
 T-DIPOLE    0.0399        C  5 --  H 17          +36.9% ( 60.0%)    96.2%
 TRAVEL      0.1316        C  8 --  H 21           +2.5% ( 15.7%)   100.0%
 RED. MASS   0.4339        C  4 --  H 12           +2.2% ( 14.7%)    98.2%
 EFF. MASS   1.2872

 VIBRATION   53   53A       ATOM PAIR        ENERGY CONTRIBUTION    RADIAL
 FREQ.      3029.59        C  3 --  H 10          +44.1% ( 65.4%)    98.3%
 T-DIPOLE    0.0466        C  3 --  H 11          +35.1% ( 58.4%)    97.1%
 TRAVEL      0.1321        C  2 --  H 14           +9.5% ( 30.3%)    98.2%
 RED. MASS   0.3304        C  2 --  H 15           +7.9% ( 27.6%)    97.0%
 EFF. MASS   1.2751

 VIBRATION   54   54A       ATOM PAIR        ENERGY CONTRIBUTION    RADIAL
 FREQ.      3032.28        C  2 --  H 14          +38.3% ( 61.0%)    97.9%
 T-DIPOLE    0.0340        C  2 --  H 15          +35.7% ( 58.9%)    97.4%
 TRAVEL      0.1321        C  3 --  H 10           +9.7% ( 30.8%)    98.3%
 RED. MASS   0.2892        C  3 --  H 11           +7.9% ( 27.6%)    97.1%
 EFF. MASS   1.2750

 VIBRATION   55   55A       ATOM PAIR        ENERGY CONTRIBUTION    RADIAL
 FREQ.      3038.60        C  7 --  H 22          +66.1% ( 82.4%)   100.0%
 T-DIPOLE    0.2773        C  8 --  H 21          +28.3% ( 54.0%)   100.0%
 TRAVEL      0.1235        C  7 --  C  8           +1.1% ( 10.6%)     2.6%
 RED. MASS   0.5038        C  1 --  C  7           +0.9% (  9.6%)    17.5%
 EFF. MASS   1.4546

 VIBRATION   56   56A       ATOM PAIR        ENERGY CONTRIBUTION    RADIAL
 FREQ.      3042.99        C  4 --  H 13          +53.1% ( 71.8%)    98.6%
 T-DIPOLE    0.0624        C  4 --  H 12          +35.9% ( 59.0%)    96.3%
 TRAVEL      0.1316        C  2 --  H 14           +3.8% ( 19.3%)    98.9%
 RED. MASS   0.4084        C  5 --  H 16           +2.1% ( 14.2%)    99.2%
 EFF. MASS   1.2792

 VIBRATION   57   57A       ATOM PAIR        ENERGY CONTRIBUTION    RADIAL
 FREQ.      3060.53        C  8 --  H 21          +66.0% ( 82.4%)    99.9%
 T-DIPOLE    0.2598        C  7 --  H 22          +28.8% ( 54.4%)    99.7%
 TRAVEL      0.1182        C  7 --  C  8           +2.0% ( 14.2%)    93.6%
 RED. MASS   0.5174        C  5 --  C  8           +1.1% ( 10.4%)    18.6%
 EFF. MASS   1.5777

 VIBRATION   58   58A       ATOM PAIR        ENERGY CONTRIBUTION    RADIAL
 FREQ.      3074.28        C  6 --  H 18          +61.6% ( 80.9%)    98.5%
 T-DIPOLE    0.0095        C  6 --  H 19          +33.0% ( 59.2%)    93.8%
 TRAVEL      0.1209        C  6 --  H 20           +3.9% ( 20.5%)    46.9%
 RED. MASS   0.5166        C  3 --  C  6           +1.0% ( 10.2%)     0.0%
 EFF. MASS   1.5006

 VIBRATION   59   59A       ATOM PAIR        ENERGY CONTRIBUTION    RADIAL
 FREQ.      3082.46        C  6 --  H 20          +57.6% ( 78.3%)    98.4%
 T-DIPOLE    0.0022        C  6 --  H 19          +33.7% ( 59.9%)    93.7%
 TRAVEL      0.1207        C  6 --  H 18           +7.1% ( 27.4%)    64.2%
 RED. MASS   0.4791        C  3 --  C  6           +1.0% ( 10.3%)     0.0%
 EFF. MASS   1.5023

 VIBRATION   60   60A       ATOM PAIR        ENERGY CONTRIBUTION    RADIAL
 FREQ.      3178.89        C  6 --  H 20          +37.8% ( 59.2%)    97.8%
 T-DIPOLE    0.0182        C  6 --  H 19          +32.2% ( 54.6%)    96.9%
 TRAVEL      0.1366        C  6 --  H 18          +29.7% ( 52.5%)    96.5%
 RED. MASS   0.3297        C  3 --  C  6           +0.3% (  5.1%)    99.1%
 EFF. MASS   1.1375

 SYMMETRY NUMBER FOR POINT-GROUP C1  =  1


          SYSTEM IS A GROUND STATE


    NULL



          MOLECULE IS NOT LINEAR

          THERE ARE 60 GENUINE VIBRATIONS IN THIS SYSTEM
          THIS THERMODYNAMICS CALCULATION IS LIMITED TO
          MOLECULES WHICH HAVE NO INTERNAL ROTATIONS




                    CALCULATED THERMODYNAMIC PROPERTIES
                                          *
   TEMP. (K)   PARTITION FUNCTION   H.O.F.    ENTHALPY  HEAT CAPACITY ENTROPY
                                   KCAL/MOL   CAL/MOLE    CAL/K/MOL  CAL/K/MOL


 298.00  VIB.     0.7448D+02                  3411.7491    26.0731    20.0147
         ROT.     0.3496D+06                   888.2813     2.9808    28.3465
         INT.     0.2604D+08                  4300.0304    29.0539    48.3612
         TRA.     0.1118D+28                  1480.4688     4.9680    40.0052
         TOT.                      -15.073    5780.4993    34.0219    88.3665

 200.00  VIB.     0.1217D+02                  1405.7656    15.3273    11.9942
         ROT.     0.1922D+06                   596.1620     2.9808    27.1578
         INT.     0.2338D+07                  2001.9276    18.3082    39.1520
         TRA.     0.6149D+27                   993.6033     4.9680    38.0241
         TOT.                      -17.858    2995.5308    23.2762    77.1761

 210.00  VIB.     0.1453D+02                  1563.7874    16.2831    12.7650
         ROT.     0.2068D+06                   625.9700     2.9808    27.3033
         INT.     0.3005D+07                  2189.7574    19.2639    40.0683
         TRA.     0.6616D+27                  1043.2834     4.9680    38.2665
         TOT.                      -17.621    3233.0408    24.2319    78.3348

 220.00  VIB.     0.1738D+02                  1731.5488    17.2753    13.5453
         ROT.     0.2217D+06                   655.7781     2.9808    27.4419
         INT.     0.3855D+07                  2387.3269    20.2561    40.9872
         TRA.     0.7094D+27                  1092.9636     4.9680    38.4976
         TOT.                      -17.373    3480.2905    25.2241    79.4848

 230.00  VIB.     0.2083D+02                  1909.4139    18.3037    14.3357
         ROT.     0.2370D+06                   685.5862     2.9808    27.5744
         INT.     0.4937D+07                  2595.0002    21.2845    41.9101
         TRA.     0.7583D+27                  1142.6437     4.9680    38.7185
         TOT.                      -17.116    3737.6439    26.2525    80.6286

 240.00  VIB.     0.2500D+02                  2097.7379    19.3667    15.1371
         ROT.     0.2527D+06                   715.3943     2.9808    27.7013
         INT.     0.6316D+07                  2813.1322    22.3476    42.8384
         TRA.     0.8083D+27                  1192.3239     4.9680    38.9299
         TOT.                      -16.848    4005.4561    27.3156    81.7682

 250.00  VIB.     0.3005D+02                  2296.8573    20.4623    15.9498
         ROT.     0.2686D+06                   745.2024     2.9808    27.8230
         INT.     0.8073D+07                  3042.0597    23.4431    43.7727
         TRA.     0.8594D+27                  1242.0041     4.9680    39.1327
         TOT.                      -16.570    4284.0638    28.4112    82.9054

 260.00  VIB.     0.3619D+02                  2507.0835    21.5876    16.7741
         ROT.     0.2849D+06                   775.0105     2.9808    27.9399
         INT.     0.1031D+08                  3282.0941    24.5684    44.7140
         TRA.     0.9114D+27                  1291.6842     4.9680    39.3276
         TOT.                      -16.280    4573.7783    29.5364    84.0416

 270.00  VIB.     0.4365D+02                  2728.6972    22.7392    17.6104
         ROT.     0.3015D+06                   804.8186     2.9808    28.0524
         INT.     0.1316D+08                  3533.5158    25.7200    45.6628
         TRA.     0.9645D+27                  1341.3644     4.9680    39.5150
         TOT.                      -15.979    4874.8802    30.6881    85.1778

 280.00  VIB.     0.5274D+02                  2961.9443    23.9137    18.4585
         ROT.     0.3184D+06                   834.6267     2.9808    28.1608
         INT.     0.1679D+08                  3796.5710    26.8945    46.6193
         TRA.     0.1019D+28                  1391.0445     4.9680    39.6957
         TOT.                      -15.666    5187.6156    31.8625    86.3150

 290.00  VIB.     0.6384D+02                  3207.0341    25.1071    19.3184
         ROT.     0.3356D+06                   864.4348     2.9808    28.2654
         INT.     0.2143D+08                  4071.4689    28.0880    47.5838
         TRA.     0.1074D+28                  1440.7247     4.9680    39.8701
         TOT.                      -15.341    5512.1936    33.0560    87.4539

 300.00  VIB.     0.7742D+02                  3464.1380    26.3159    20.1899
         ROT.     0.3531D+06                   894.2429     2.9808    28.3664
         INT.     0.2734D+08                  4358.3809    29.2967    48.5564
         TRA.     0.1130D+28                  1490.4049     4.9680    40.0385
         TOT.                      -15.005    5848.7858    34.2647    88.5949

 310.00  VIB.     0.9405D+02                  3733.3897    27.5361    21.0727
         ROT.     0.3709D+06                   924.0510     2.9808    28.4642
         INT.     0.3488D+08                  4657.4408    30.5169    49.5369
         TRA.     0.1187D+28                  1540.0850     4.9680    40.2014
         TOT.                      -14.656    6197.5258    35.4849    89.7383

 320.00  VIB.     0.1145D+03                  4014.8863    28.7642    21.9663
         ROT.     0.3890D+06                   953.8591     2.9808    28.5588
         INT.     0.4452D+08                  4968.7454    31.7450    50.5251
         TRA.     0.1244D+28                  1589.7652     4.9680    40.3591
         TOT.                      -14.295    6558.5106    36.7131    90.8842

 330.00  VIB.     0.1396D+03                  4308.6892    29.9968    22.8703
         ROT.     0.4074D+06                   983.6672     2.9808    28.6505
         INT.     0.5685D+08                  5292.3564    32.9776    51.5208
         TRA.     0.1303D+28                  1639.4454     4.9680    40.5120
         TOT.                      -13.922    6931.8017    37.9457    92.0328

 340.00  VIB.     0.1704D+03                  4614.8270    31.2307    23.7841
         ROT.     0.4260D+06                  1013.4753     2.9808    28.7395
         INT.     0.7262D+08                  5628.3023    34.2115    52.5236
         TRA.     0.1363D+28                  1689.1255     4.9680    40.6603
         TOT.                      -13.536    7317.4278    39.1795    93.1839

 350.00  VIB.     0.2086D+03                  4933.2973    32.4629    24.7072
         ROT.     0.4450D+06                  1043.2834     2.9808    28.8259
         INT.     0.9280D+08                  5976.5807    35.4437    53.5331
         TRA.     0.1424D+28                  1738.8057     4.9680    40.8043
         TOT.                      -13.138    7715.3864    40.4117    94.3374

 360.00  VIB.     0.2556D+03                  5264.0696    33.6907    25.6389
         ROT.     0.4642D+06                  1073.0915     2.9808    28.9099
         INT.     0.1187D+09                  6337.1611    36.6715    54.5488
         TRA.     0.1485D+28                  1788.4859     4.9680    40.9443
         TOT.                      -12.728    8125.6470    41.6395    95.4931

 370.00  VIB.     0.3139D+03                  5607.0879    34.9117    26.5787
         ROT.     0.4836D+06                  1102.8996     2.9808    28.9916
         INT.     0.1518D+09                  6709.9875    37.8925    55.5703
         TRA.     0.1547D+28                  1838.1660     4.9680    41.0804
         TOT.                      -12.305    8548.1536    42.8605    96.6507

 380.00  VIB.     0.3860D+03                  5962.2734    36.1238    27.5258
         ROT.     0.5034D+06                  1132.7077     2.9808    29.0711
         INT.     0.1943D+09                  7094.9811    39.1046    56.5969
         TRA.     0.1610D+28                  1887.8462     4.9680    41.2129
         TOT.                      -11.871    8982.8273    44.0726    97.8098

 390.00  VIB.     0.4756D+03                  6329.5271    37.3250    28.4797
         ROT.     0.5234D+06                  1162.5158     2.9808    29.1485
         INT.     0.2489D+09                  7492.0429    40.3058    57.6282
         TRA.     0.1674D+28                  1937.5263     4.9680    41.3419
         TOT.                      -11.424    9429.5692    45.2739    98.9701

 400.00  VIB.     0.5868D+03                  6708.7327    38.5139    29.4397
         ROT.     0.5436D+06                  1192.3239     2.9808    29.2240
         INT.     0.3190D+09                  7901.0566    41.4947    58.6637
         TRA.     0.1739D+28                  1987.2065     4.9680    41.4677
         TOT.                      -10.965    9888.2631    46.4627   100.1314

   *: NOTE: HEATS OF FORMATION ARE RELATIVE TO THE
            ELEMENTS IN THEIR STANDARD STATE AT 298K
              (=  Standard Enthalpy of Formation).

            Hvib:  Zero-point energy is not included.
                   frequencies of less than zero cm-1 are not included.
            Hrot = (3/2)RT
            Htra = (3/2)RT + pV = (5/2)RT

            Heat capacity is Cp, not Cv

           For more information, see: HTTP://OpenMOPAC.net/Manual/thermochemistry.html


           FORCE CONSTANT IN CARTESIAN COORDINATES (Millidynes/A)

    ATOM   CHEMICAL       X               Y               Z
   NUMBER   SYMBOL  FORCE CONSTANT  FORCE CONSTANT  FORCE CONSTANT

      1       C        8.290976        8.429268        8.519994
      2       C        7.944139        8.488779        8.464521
      3       C        8.301589        8.008504        8.439727
      4       C        8.715309        8.102161        8.169232
      5       C        8.840036        8.429011        8.220397
      6       C        8.214216        8.401395        8.221142
      7       C       10.810210        8.381965        8.057816
      8       C       10.551235        8.294022        8.422434
      9       H        1.096102        1.549388        3.239803
     10       H        1.560633        1.920428        2.933381
     11       H        4.771968        0.755524        0.870658
     12       H        1.161909        2.283492        2.959129
     13       H        5.007614        0.713571        0.724881
     14       H        1.191224        1.200919        4.003980
     15       H        1.216121        2.275541        2.910335
     16       H        0.755064        4.874951        0.718990
     17       H        1.876721        1.426258        2.955638
     18       H        5.107735        0.704908        0.923163
     19       H        1.605091        1.942750        3.232928
     20       H        1.423706        4.645833        0.726060
     21       H        1.482959        1.639327        3.127865
     22       H        4.722726        0.664893        0.840357



 TOTAL CPU TIME:             2.36 SECONDS

 == MOPAC DONE ==
