 *******************************************************************************
 ** Site#: 14399           For non-commercial use only        Version 13.159M **
 *******************************************************************************
 ** Cite this work as: MOPAC2012, James J. P. Stewart, Stewart Computational  **
 ** Chemistry, Version 13.159M web: HTTP://OpenMOPAC.net  Days remaining:  93 **
 *******************************************************************************
 **                                                                           **
 **                                MOPAC2012                                  **
 **                                                                           **
 *******************************************************************************

                            PM3 CALCULATION RESULTS


 *******************************************************************************
 *  CALCULATION DONE:                                Fri Mar  7 16:09:04 2014  *
 *  PM3      - The PM3 Hamiltonian to be used
 *  PRECISE  - CRITERIA TO BE INCREASED BY 100 TIMES
 *  NOSYM    - POINT-GROUP SYMMETRY SET TO C1
 *  T=       - A TIME OF 172800.0 SECONDS REQUESTED
 *  DUMP=N   - RESTART FILE WRITTEN EVERY  7200.000 SECONDS
 *******************************************************************************
pm3  precise nosym
 InChI=1S/C12H20/c1-3-5-8-12-10-7-6-9-11(12)4-2/h5-6,8-9,11-12H,3-4,7,10H2,1-2H3

   ATOM   CHEMICAL          X               Y               Z
  NUMBER   SYMBOL      (ANGSTROMS)     (ANGSTROMS)     (ANGSTROMS)
 
     1       C         -0.24160000  *   0.18890000  *   0.74200000  *
     2       C         -0.84360000  *  -1.12210000  *   0.17420000  *
     3       C         -0.32800000  *   0.20040000  *   2.27480000  *
     4       C         -0.96500000  *  -1.14560000  *  -1.36340000  *
     5       C         -1.77870000  *   0.05900000  *   2.75110000  *
     6       C          3.01790000  *   1.55690000  *  -0.90030000  *
     7       C         -1.91440000  *  -0.11580000  *  -1.97380000  *
     8       C          3.43590000  *   0.48420000  *  -1.90050000  *
     9       C          1.19210000  *   0.37070000  *   0.30790000  *
    10       C         -2.14770000  *  -1.51190000  *   0.83900000  *
    11       C          1.59330000  *   1.40020000  *  -0.45140000  *
    12       C         -2.56170000  *  -0.98550000  *   2.00130000  *
    13       H         -0.86350000  *   1.04910000  *   0.39700000  *
    14       H         -0.14860000  *  -1.95710000  *   0.43210000  *
    15       H          0.09780000  *   1.14460000  *   2.68880000  *
    16       H          0.27370000  *  -0.64070000  *   2.69500000  *
    17       H         -1.30050000  *  -2.15890000  *  -1.68750000  *
    18       H          0.04040000  *  -1.01290000  *  -1.82620000  *
    19       H          3.69890000  *   1.54570000  *  -0.01810000  *
    20       H          3.13180000  *   2.55190000  *  -1.38920000  *
    21       H         -1.77640000  *  -0.19860000  *   3.83510000  *
    22       H         -2.31360000  *   1.03050000  *   2.64340000  *
    23       H          2.77290000  *   0.49870000  *  -2.79580000  *
    24       H          4.48040000  *   0.67120000  *  -2.23820000  *
    25       H          3.40210000  *  -0.53030000  *  -1.44230000  *
    26       H         -2.00210000  *  -0.29220000  *  -3.06980000  *
    27       H         -2.93420000  *  -0.19190000  *  -1.53370000  *
    28       H         -1.53150000  *   0.92040000  *  -1.84050000  *
    29       H          0.87760000  *   2.16260000  *  -0.75770000  *
    30       H          1.91710000  *  -0.38300000  *   0.61590000  *
    31       H         -3.51870000  *  -1.30330000  *   2.41240000  *
    32       H         -2.76190000  *  -2.28520000  *   0.37840000  *
 


          CARTESIAN COORDINATES 

    NO.       ATOM         X         Y         Z

     1         C       -0.2416    0.1889    0.7420
     2         C       -0.8436   -1.1221    0.1742
     3         C       -0.3280    0.2004    2.2748
     4         C       -0.9650   -1.1456   -1.3634
     5         C       -1.7787    0.0590    2.7511
     6         C        3.0179    1.5569   -0.9003
     7         C       -1.9144   -0.1158   -1.9738
     8         C        3.4359    0.4842   -1.9005
     9         C        1.1921    0.3707    0.3079
    10         C       -2.1477   -1.5119    0.8390
    11         C        1.5933    1.4002   -0.4514
    12         C       -2.5617   -0.9855    2.0013
    13         H       -0.8635    1.0491    0.3970
    14         H       -0.1486   -1.9571    0.4321
    15         H        0.0978    1.1446    2.6888
    16         H        0.2737   -0.6407    2.6950
    17         H       -1.3005   -2.1589   -1.6875
    18         H        0.0404   -1.0129   -1.8262
    19         H        3.6989    1.5457   -0.0181
    20         H        3.1318    2.5519   -1.3892
    21         H       -1.7764   -0.1986    3.8351
    22         H       -2.3136    1.0305    2.6434
    23         H        2.7729    0.4987   -2.7958
    24         H        4.4804    0.6712   -2.2382
    25         H        3.4021   -0.5303   -1.4423
    26         H       -2.0021   -0.2922   -3.0698
    27         H       -2.9342   -0.1919   -1.5337
    28         H       -1.5315    0.9204   -1.8405
    29         H        0.8776    2.1626   -0.7577
    30         H        1.9171   -0.3830    0.6159
    31         H       -3.5187   -1.3033    2.4124
    32         H       -2.7619   -2.2852    0.3784

  H: (PM3): J. J. P. STEWART, J. COMP. CHEM. 10, 209 (1989).
  C: (PM3): J. J. P. STEWART, J. COMP. CHEM. 10, 209 (1989).

           Empirical Formula: C12 H20  =    32 atoms



      MOLECULAR POINT GROUP   :   C1  


      RHF CALCULATION, NO. OF DOUBLY OCCUPIED LEVELS =   34

      Geometry optimization using EF

          DIAGONAL MATRIX USED AS START HESSIAN

 CYCLE:     1 TIME:   0.019 TIME LEFT:  2.00D  GRAD.:    61.628 HEAT:-4.726444
 CYCLE:     2 TIME:   0.035 TIME LEFT:  2.00D  GRAD.:    58.981 HEAT:-5.903607
 CYCLE:     3 TIME:   0.025 TIME LEFT:  2.00D  GRAD.:    37.266 HEAT:-6.571408
 CYCLE:     4 TIME:   0.014 TIME LEFT:  2.00D  GRAD.:    31.713 HEAT:-6.953349
 CYCLE:     5 TIME:   0.024 TIME LEFT:  2.00D  GRAD.:    33.799 HEAT:-7.147328
 CYCLE:     6 TIME:   0.014 TIME LEFT:  2.00D  GRAD.:    21.790 HEAT:-7.372768
 CYCLE:     7 TIME:   0.014 TIME LEFT:  2.00D  GRAD.:    24.739 HEAT:-7.518655
 CYCLE:     8 TIME:   0.014 TIME LEFT:  2.00D  GRAD.:    21.540 HEAT:-7.713450
 CYCLE:     9 TIME:   0.025 TIME LEFT:  2.00D  GRAD.:    17.390 HEAT:-7.830211
 CYCLE:    10 TIME:   0.014 TIME LEFT:  2.00D  GRAD.:    18.165 HEAT:-7.900806
 CYCLE:    11 TIME:   0.014 TIME LEFT:  2.00D  GRAD.:    15.524 HEAT:-7.988809
 CYCLE:    12 TIME:   0.014 TIME LEFT:  2.00D  GRAD.:    17.333 HEAT:-8.045421
 CYCLE:    13 TIME:   0.029 TIME LEFT:  2.00D  GRAD.:    15.351 HEAT:-8.087521
 CYCLE:    14 TIME:   0.014 TIME LEFT:  2.00D  GRAD.:    14.774 HEAT:-8.126634
 CYCLE:    15 TIME:   0.013 TIME LEFT:  2.00D  GRAD.:     8.621 HEAT:-8.187023
 CYCLE:    16 TIME:   0.014 TIME LEFT:  2.00D  GRAD.:    13.933 HEAT:-8.202866
 CYCLE:    17 TIME:   0.013 TIME LEFT:  2.00D  GRAD.:    13.930 HEAT:-8.232055
 CYCLE:    18 TIME:   0.024 TIME LEFT:  2.00D  GRAD.:     9.836 HEAT:-8.275397
 CYCLE:    19 TIME:   0.013 TIME LEFT:  2.00D  GRAD.:     7.472 HEAT:-8.296699
 CYCLE:    20 TIME:   0.013 TIME LEFT:  2.00D  GRAD.:     8.557 HEAT:-8.322599
 CYCLE:    21 TIME:   0.013 TIME LEFT:  2.00D  GRAD.:     8.974 HEAT:-8.342289
 CYCLE:    22 TIME:   0.024 TIME LEFT:  2.00D  GRAD.:    12.021 HEAT:-8.348792
 CYCLE:    23 TIME:   0.013 TIME LEFT:  2.00D  GRAD.:     7.364 HEAT:-8.379301
 CYCLE:    24 TIME:   0.013 TIME LEFT:  2.00D  GRAD.:     9.639 HEAT:-8.388579
 CYCLE:    25 TIME:   0.013 TIME LEFT:  2.00D  GRAD.:     5.522 HEAT:-8.415126
 CYCLE:    26 TIME:   0.014 TIME LEFT:  2.00D  GRAD.:     8.447 HEAT:-8.418519
 CYCLE:    27 TIME:   0.013 TIME LEFT:  2.00D  GRAD.:     3.908 HEAT:-8.439623
 CYCLE:    28 TIME:   0.014 TIME LEFT:  2.00D  GRAD.:     6.479 HEAT:-8.446980
 CYCLE:    29 TIME:   0.013 TIME LEFT:  2.00D  GRAD.:     4.434 HEAT:-8.464255
 CYCLE:    30 TIME:   0.013 TIME LEFT:  2.00D  GRAD.:     4.934 HEAT:-8.475937
 CYCLE:    31 TIME:   0.013 TIME LEFT:  2.00D  GRAD.:     3.704 HEAT:-8.486293
 CYCLE:    32 TIME:   0.013 TIME LEFT:  2.00D  GRAD.:     4.045 HEAT:-8.494430
 CYCLE:    33 TIME:   0.013 TIME LEFT:  2.00D  GRAD.:     3.089 HEAT:-8.504047
 CYCLE:    34 TIME:   0.013 TIME LEFT:  2.00D  GRAD.:     3.626 HEAT:-8.514890
 CYCLE:    35 TIME:   0.014 TIME LEFT:  2.00D  GRAD.:     3.903 HEAT:-8.524488
 CYCLE:    36 TIME:   0.014 TIME LEFT:  2.00D  GRAD.:     3.822 HEAT:-8.540046
 CYCLE:    37 TIME:   0.013 TIME LEFT:  2.00D  GRAD.:     6.672 HEAT:-8.564979
 CYCLE:    38 TIME:   0.013 TIME LEFT:  2.00D  GRAD.:     7.406 HEAT:-8.613497
 CYCLE:    39 TIME:   0.013 TIME LEFT:  2.00D  GRAD.:     8.952 HEAT:-8.704833
 CYCLE:    40 TIME:   0.014 TIME LEFT:  2.00D  GRAD.:     9.755 HEAT:-8.728705
 CYCLE:    41 TIME:   0.013 TIME LEFT:  2.00D  GRAD.:    11.306 HEAT:-8.777425
 CYCLE:    42 TIME:   0.013 TIME LEFT:  2.00D  GRAD.:     9.721 HEAT:-8.823877
 CYCLE:    43 TIME:   0.013 TIME LEFT:  2.00D  GRAD.:     5.224 HEAT:-8.864391
 CYCLE:    44 TIME:   0.013 TIME LEFT:  2.00D  GRAD.:     5.279 HEAT:-8.882136
 CYCLE:    45 TIME:   0.013 TIME LEFT:  2.00D  GRAD.:     3.119 HEAT:-8.901283
 CYCLE:    46 TIME:   0.013 TIME LEFT:  2.00D  GRAD.:     2.896 HEAT:-8.920025
 CYCLE:    47 TIME:   0.014 TIME LEFT:  2.00D  GRAD.:     3.334 HEAT:-8.934661
 CYCLE:    48 TIME:   0.013 TIME LEFT:  2.00D  GRAD.:     3.131 HEAT:-8.953267
 CYCLE:    49 TIME:   0.014 TIME LEFT:  2.00D  GRAD.:     3.462 HEAT:-8.974184
 CYCLE:    50 TIME:   0.013 TIME LEFT:  2.00D  GRAD.:     2.897 HEAT:-8.989664
 CYCLE:    51 TIME:   0.014 TIME LEFT:  2.00D  GRAD.:     3.120 HEAT:-9.011249
 CYCLE:    52 TIME:   0.013 TIME LEFT:  2.00D  GRAD.:     3.054 HEAT:-9.026102
 CYCLE:    53 TIME:   0.013 TIME LEFT:  2.00D  GRAD.:     2.754 HEAT:-9.042385
 CYCLE:    54 TIME:   0.013 TIME LEFT:  2.00D  GRAD.:     2.982 HEAT:-9.060067
 CYCLE:    55 TIME:   0.013 TIME LEFT:  2.00D  GRAD.:     2.730 HEAT:-9.072730
 CYCLE:    56 TIME:   0.014 TIME LEFT:  2.00D  GRAD.:     1.948 HEAT:-9.081400
 CYCLE:    57 TIME:   0.013 TIME LEFT:  2.00D  GRAD.:     1.635 HEAT:-9.087908
 CYCLE:    58 TIME:   0.014 TIME LEFT:  2.00D  GRAD.:     2.388 HEAT:-9.092581
 CYCLE:    59 TIME:   0.014 TIME LEFT:  2.00D  GRAD.:     2.093 HEAT:-9.099271
 CYCLE:    60 TIME:   0.014 TIME LEFT:  2.00D  GRAD.:     2.127 HEAT:-9.109138
 CYCLE:    61 TIME:   0.014 TIME LEFT:  2.00D  GRAD.:     2.873 HEAT:-9.124879
 CYCLE:    62 TIME:   0.014 TIME LEFT:  2.00D  GRAD.:     3.193 HEAT:-9.139629
 CYCLE:    63 TIME:   0.015 TIME LEFT:  2.00D  GRAD.:     3.367 HEAT:-9.160364
 CYCLE:    64 TIME:   0.014 TIME LEFT:  2.00D  GRAD.:     3.523 HEAT:-9.185552
 CYCLE:    65 TIME:   0.014 TIME LEFT:  2.00D  GRAD.:     4.741 HEAT:-9.214813
 CYCLE:    66 TIME:   0.014 TIME LEFT:  2.00D  GRAD.:     6.038 HEAT:-9.236523
 CYCLE:    67 TIME:   0.013 TIME LEFT:  2.00D  GRAD.:     4.396 HEAT:-9.272744
 CYCLE:    68 TIME:   0.014 TIME LEFT:  2.00D  GRAD.:     3.833 HEAT:-9.314387
 CYCLE:    69 TIME:   0.014 TIME LEFT:  2.00D  GRAD.:     3.756 HEAT:-9.347093
 CYCLE:    70 TIME:   0.014 TIME LEFT:  2.00D  GRAD.:     4.736 HEAT:-9.383787
 CYCLE:    71 TIME:   0.013 TIME LEFT:  2.00D  GRAD.:     4.669 HEAT:-9.406600
 CYCLE:    72 TIME:   0.014 TIME LEFT:  2.00D  GRAD.:     4.102 HEAT:-9.432591
 CYCLE:    73 TIME:   0.013 TIME LEFT:  2.00D  GRAD.:     3.564 HEAT:-9.457692
 CYCLE:    74 TIME:   0.014 TIME LEFT:  2.00D  GRAD.:     3.162 HEAT:-9.482696
 CYCLE:    75 TIME:   0.013 TIME LEFT:  2.00D  GRAD.:     2.887 HEAT:-9.497932
 CYCLE:    76 TIME:   0.013 TIME LEFT:  2.00D  GRAD.:     2.442 HEAT:-9.514354
 CYCLE:    77 TIME:   0.014 TIME LEFT:  2.00D  GRAD.:     2.681 HEAT:-9.527985
 CYCLE:    78 TIME:   0.013 TIME LEFT:  2.00D  GRAD.:     3.011 HEAT:-9.539494
 CYCLE:    79 TIME:   0.013 TIME LEFT:  2.00D  GRAD.:     1.995 HEAT:-9.549037
 CYCLE:    80 TIME:   0.013 TIME LEFT:  2.00D  GRAD.:     1.493 HEAT:-9.556109
 CYCLE:    81 TIME:   0.013 TIME LEFT:  2.00D  GRAD.:     1.247 HEAT:-9.560805
 CYCLE:    82 TIME:   0.013 TIME LEFT:  2.00D  GRAD.:     1.215 HEAT:-9.564708
 CYCLE:    83 TIME:   0.013 TIME LEFT:  2.00D  GRAD.:     1.046 HEAT:-9.567343
 CYCLE:    84 TIME:   0.013 TIME LEFT:  2.00D  GRAD.:     0.994 HEAT:-9.569233
 CYCLE:    85 TIME:   0.013 TIME LEFT:  2.00D  GRAD.:     0.904 HEAT:-9.570922
 CYCLE:    86 TIME:   0.014 TIME LEFT:  2.00D  GRAD.:     0.860 HEAT:-9.572692
 CYCLE:    87 TIME:   0.014 TIME LEFT:  2.00D  GRAD.:     0.939 HEAT:-9.574754
 CYCLE:    88 TIME:   0.014 TIME LEFT:  2.00D  GRAD.:     0.996 HEAT:-9.577158
 CYCLE:    89 TIME:   0.014 TIME LEFT:  2.00D  GRAD.:     1.135 HEAT:-9.580149
 CYCLE:    90 TIME:   0.014 TIME LEFT:  2.00D  GRAD.:     1.256 HEAT:-9.583213
 CYCLE:    91 TIME:   0.014 TIME LEFT:  2.00D  GRAD.:     1.352 HEAT:-9.586702
 CYCLE:    92 TIME:   0.013 TIME LEFT:  2.00D  GRAD.:     1.449 HEAT:-9.590535
 CYCLE:    93 TIME:   0.014 TIME LEFT:  2.00D  GRAD.:     1.549 HEAT:-9.595323
 CYCLE:    94 TIME:   0.013 TIME LEFT:  2.00D  GRAD.:     1.668 HEAT:-9.601030
 CYCLE:    95 TIME:   0.014 TIME LEFT:  2.00D  GRAD.:     1.781 HEAT:-9.607672
 CYCLE:    96 TIME:   0.014 TIME LEFT:  2.00D  GRAD.:     1.787 HEAT:-9.614981
 CYCLE:    97 TIME:   0.014 TIME LEFT:  2.00D  GRAD.:     1.659 HEAT:-9.621734
 CYCLE:    98 TIME:   0.013 TIME LEFT:  2.00D  GRAD.:     1.307 HEAT:-9.627190
 CYCLE:    99 TIME:   0.014 TIME LEFT:  2.00D  GRAD.:     1.548 HEAT:-9.630307
 CYCLE:   100 TIME:   0.014 TIME LEFT:  2.00D  GRAD.:     1.230 HEAT:-9.633371
 CYCLE:   101 TIME:   0.014 TIME LEFT:  2.00D  GRAD.:     1.075 HEAT:-9.636238
 CYCLE:   102 TIME:   0.014 TIME LEFT:  2.00D  GRAD.:     1.064 HEAT:-9.640132
 CYCLE:   103 TIME:   0.014 TIME LEFT:  2.00D  GRAD.:     1.091 HEAT:-9.642737
 CYCLE:   104 TIME:   0.014 TIME LEFT:  2.00D  GRAD.:     1.120 HEAT:-9.646243
 CYCLE:   105 TIME:   0.014 TIME LEFT:  2.00D  GRAD.:     1.228 HEAT:-9.649321
 CYCLE:   106 TIME:   0.014 TIME LEFT:  2.00D  GRAD.:     1.271 HEAT:-9.652676
 CYCLE:   107 TIME:   0.013 TIME LEFT:  2.00D  GRAD.:     1.327 HEAT:-9.656065
 CYCLE:   108 TIME:   0.014 TIME LEFT:  2.00D  GRAD.:     1.342 HEAT:-9.658867
 CYCLE:   109 TIME:   0.013 TIME LEFT:  2.00D  GRAD.:     1.112 HEAT:-9.661996
 CYCLE:   110 TIME:   0.013 TIME LEFT:  2.00D  GRAD.:     1.066 HEAT:-9.664925
 CYCLE:   111 TIME:   0.014 TIME LEFT:  2.00D  GRAD.:     1.071 HEAT:-9.667665
 CYCLE:   112 TIME:   0.014 TIME LEFT:  2.00D  GRAD.:     1.188 HEAT:-9.670576
 CYCLE:   113 TIME:   0.014 TIME LEFT:  2.00D  GRAD.:     1.494 HEAT:-9.675220
 CYCLE:   114 TIME:   0.014 TIME LEFT:  2.00D  GRAD.:     1.801 HEAT:-9.681545
 CYCLE:   115 TIME:   0.014 TIME LEFT:  2.00D  GRAD.:     2.244 HEAT:-9.690882
 CYCLE:   116 TIME:   0.014 TIME LEFT:  2.00D  GRAD.:     2.336 HEAT:-9.701516
 CYCLE:   117 TIME:   0.014 TIME LEFT:  2.00D  GRAD.:     2.179 HEAT:-9.712448
 CYCLE:   118 TIME:   0.014 TIME LEFT:  2.00D  GRAD.:     3.331 HEAT:-9.718674
 CYCLE:   119 TIME:   0.013 TIME LEFT:  2.00D  GRAD.:     3.271 HEAT:-9.720428
 CYCLE:   120 TIME:   0.013 TIME LEFT:  2.00D  GRAD.:     1.509 HEAT:-9.730633
 CYCLE:   121 TIME:   0.014 TIME LEFT:  2.00D  GRAD.:     1.899 HEAT:-9.735197
 CYCLE:   122 TIME:   0.014 TIME LEFT:  2.00D  GRAD.:     2.311 HEAT:-9.740517
 CYCLE:   123 TIME:   0.014 TIME LEFT:  2.00D  GRAD.:     2.018 HEAT:-9.744878
 CYCLE:   124 TIME:   0.013 TIME LEFT:  2.00D  GRAD.:     1.245 HEAT:-9.748297
 CYCLE:   125 TIME:   0.014 TIME LEFT:  2.00D  GRAD.:     1.344 HEAT:-9.751170
 CYCLE:   126 TIME:   0.014 TIME LEFT:  2.00D  GRAD.:     1.192 HEAT:-9.754159
 CYCLE:   127 TIME:   0.015 TIME LEFT:  2.00D  GRAD.:     1.638 HEAT:-9.758867
 CYCLE:   128 TIME:   0.014 TIME LEFT:  2.00D  GRAD.:     1.878 HEAT:-9.765946
 CYCLE:   129 TIME:   0.014 TIME LEFT:  2.00D  GRAD.:     1.801 HEAT:-9.770118
 CYCLE:   130 TIME:   0.013 TIME LEFT:  2.00D  GRAD.:     2.210 HEAT:-9.775223
 CYCLE:   131 TIME:   0.014 TIME LEFT:  2.00D  GRAD.:     2.231 HEAT:-9.779243
 CYCLE:   132 TIME:   0.013 TIME LEFT:  2.00D  GRAD.:     1.470 HEAT:-9.782888
 CYCLE:   133 TIME:   0.014 TIME LEFT:  2.00D  GRAD.:     1.340 HEAT:-9.788644
 CYCLE:   134 TIME:   0.013 TIME LEFT:  2.00D  GRAD.:     1.067 HEAT:-9.790500
 CYCLE:   135 TIME:   0.017 TIME LEFT:  2.00D  GRAD.:     0.649 HEAT:-9.792364
 CYCLE:   136 TIME:   0.015 TIME LEFT:  2.00D  GRAD.:     1.113 HEAT:-9.793242
 CYCLE:   137 TIME:   0.014 TIME LEFT:  2.00D  GRAD.:     1.108 HEAT:-9.794382
 CYCLE:   138 TIME:   0.014 TIME LEFT:  2.00D  GRAD.:     0.599 HEAT:-9.795400
 CYCLE:   139 TIME:   0.014 TIME LEFT:  2.00D  GRAD.:     0.661 HEAT:-9.796522
 CYCLE:   140 TIME:   0.014 TIME LEFT:  2.00D  GRAD.:     0.698 HEAT:-9.797445
 CYCLE:   141 TIME:   0.014 TIME LEFT:  2.00D  GRAD.:     0.704 HEAT:-9.798379
 CYCLE:   142 TIME:   0.014 TIME LEFT:  2.00D  GRAD.:     0.483 HEAT:-9.799176
 CYCLE:   143 TIME:   0.014 TIME LEFT:  2.00D  GRAD.:     0.492 HEAT:-9.799571
 CYCLE:   144 TIME:   0.013 TIME LEFT:  2.00D  GRAD.:     0.341 HEAT:-9.799816
 CYCLE:   145 TIME:   0.013 TIME LEFT:  2.00D  GRAD.:     0.232 HEAT:-9.799996
 CYCLE:   146 TIME:   0.013 TIME LEFT:  2.00D  GRAD.:     0.218 HEAT:-9.800188
 CYCLE:   147 TIME:   0.014 TIME LEFT:  2.00D  GRAD.:     0.236 HEAT:-9.800294
 CYCLE:   148 TIME:   0.014 TIME LEFT:  2.00D  GRAD.:     0.189 HEAT:-9.800372
 CYCLE:   149 TIME:   0.014 TIME LEFT:  2.00D  GRAD.:     0.160 HEAT:-9.800439
 CYCLE:   150 TIME:   0.013 TIME LEFT:  2.00D  GRAD.:     0.123 HEAT:-9.800482
 CYCLE:   151 TIME:   0.014 TIME LEFT:  2.00D  GRAD.:     0.180 HEAT:-9.800503
 CYCLE:   152 TIME:   0.013 TIME LEFT:  2.00D  GRAD.:     0.139 HEAT:-9.800551
 CYCLE:   153 TIME:   0.013 TIME LEFT:  2.00D  GRAD.:     0.122 HEAT:-9.800600
 CYCLE:   154 TIME:   0.014 TIME LEFT:  2.00D  GRAD.:     0.200 HEAT:-9.800735
 CYCLE:   155 TIME:   0.014 TIME LEFT:  2.00D  GRAD.:     0.291 HEAT:-9.800843
 CYCLE:   156 TIME:   0.014 TIME LEFT:  2.00D  GRAD.:     0.271 HEAT:-9.800998
 CYCLE:   157 TIME:   0.014 TIME LEFT:  2.00D  GRAD.:     0.330 HEAT:-9.801247
 CYCLE:   158 TIME:   0.014 TIME LEFT:  2.00D  GRAD.:     0.279 HEAT:-9.801372
 CYCLE:   159 TIME:   0.014 TIME LEFT:  2.00D  GRAD.:     0.433 HEAT:-9.801858
 CYCLE:   160 TIME:   0.013 TIME LEFT:  2.00D  GRAD.:     0.304 HEAT:-9.802104
 CYCLE:   161 TIME:   0.014 TIME LEFT:  2.00D  GRAD.:     0.253 HEAT:-9.802542
 CYCLE:   162 TIME:   0.014 TIME LEFT:  2.00D  GRAD.:     0.221 HEAT:-9.802776
 CYCLE:   163 TIME:   0.014 TIME LEFT:  2.00D  GRAD.:     0.185 HEAT:-9.802858
 CYCLE:   164 TIME:   0.013 TIME LEFT:  2.00D  GRAD.:     0.169 HEAT:-9.802961
 CYCLE:   165 TIME:   0.013 TIME LEFT:  2.00D  GRAD.:     0.172 HEAT:-9.803008
 CYCLE:   166 TIME:   0.013 TIME LEFT:  2.00D  GRAD.:     0.143 HEAT:-9.803047
 CYCLE:   167 TIME:   0.013 TIME LEFT:  2.00D  GRAD.:     0.115 HEAT:-9.803080
 CYCLE:   168 TIME:   0.013 TIME LEFT:  2.00D  GRAD.:     0.112 HEAT:-9.803103
 CYCLE:   169 TIME:   0.013 TIME LEFT:  2.00D  GRAD.:     0.128 HEAT:-9.803130
 CYCLE:   170 TIME:   0.013 TIME LEFT:  2.00D  GRAD.:     0.105 HEAT:-9.803152
 CYCLE:   171 TIME:   0.013 TIME LEFT:  2.00D  GRAD.:     0.148 HEAT:-9.803188
 CYCLE:   172 TIME:   0.015 TIME LEFT:  2.00D  GRAD.:     0.148 HEAT:-9.803223
 CYCLE:   173 TIME:   0.015 TIME LEFT:  2.00D  GRAD.:     0.257 HEAT:-9.803321
 CYCLE:   174 TIME:   0.013 TIME LEFT:  2.00D  GRAD.:     0.194 HEAT:-9.803401
 CYCLE:   175 TIME:   0.014 TIME LEFT:  2.00D  GRAD.:     0.211 HEAT:-9.803588
 CYCLE:   176 TIME:   0.014 TIME LEFT:  2.00D  GRAD.:     0.222 HEAT:-9.803683
 CYCLE:   177 TIME:   0.014 TIME LEFT:  2.00D  GRAD.:     0.173 HEAT:-9.803952
 CYCLE:   178 TIME:   0.014 TIME LEFT:  2.00D  GRAD.:     0.179 HEAT:-9.804098
 CYCLE:   179 TIME:   0.013 TIME LEFT:  2.00D  GRAD.:     0.154 HEAT:-9.804198
 CYCLE:   180 TIME:   0.013 TIME LEFT:  2.00D  GRAD.:     0.149 HEAT:-9.804378
 CYCLE:   181 TIME:   0.013 TIME LEFT:  2.00D  GRAD.:     0.148 HEAT:-9.804450
 CYCLE:   182 TIME:   0.014 TIME LEFT:  2.00D  GRAD.:     0.139 HEAT:-9.804542
 CYCLE:   183 TIME:   0.013 TIME LEFT:  2.00D  GRAD.:     0.105 HEAT:-9.804571
 CYCLE:   184 TIME:   0.014 TIME LEFT:  2.00D  GRAD.:     0.097 HEAT:-9.804574
 CYCLE:   185 TIME:   0.013 TIME LEFT:  2.00D  GRAD.:     0.056 HEAT:-9.804602
 CYCLE:   186 TIME:   0.013 TIME LEFT:  2.00D  GRAD.:     0.049 HEAT:-9.804611

     RMS GRADIENT =  0.04899  IS LESS THAN CUTOFF =  0.05000



 -------------------------------------------------------------------------------
pm3  precise nosym
 InChI=1S/C12H20/c1-3-5-8-12-10-7-6-9-11(12)4-2/h5-6,8-9,11-12H,3-4,7,10H2,1-2H3



     GEOMETRY OPTIMISED USING EIGENVECTOR FOLLOWING (EF).     
     SCF FIELD WAS ACHIEVED                                   


                              PM3 CALCULATION
                                                       MOPAC2012 (Version: 13.159M)
                                                       Fri Mar  7 16:09:07 2014
                                                       No. of days left =  93




          FINAL HEAT OF FORMATION =         -9.80461 KCAL/MOL =     -41.02249 KJ/MOL


          TOTAL ENERGY            =      -1730.76373 EV
          ELECTRONIC ENERGY       =     -11159.78702 EV  POINT GROUP:     C1  
          CORE-CORE REPULSION     =       9429.02329 EV
          COSMO AREA              =        226.82 SQUARE ANGSTROMS
          COSMO VOLUME            =        245.67 CUBIC ANGSTROMS

          GRADIENT NORM           =          0.04899
          IONIZATION POTENTIAL    =          9.615220 EV
          HOMO LUMO ENERGIES (EV) =         -9.615  1.070
          NO. OF FILLED LEVELS    =         34
          MOLECULAR WEIGHT        =        164.290

          MOLECULAR DIMENSIONS (Angstroms)

            Atom       Atom       Distance
            H    24    H    31     9.71204
            H    26    H    15     5.88569
            H    14    H    22     3.57839


          SCF CALCULATIONS        =        195
          COMPUTATION TIME        =          2.642 SECONDS




   ATOM   CHEMICAL          X               Y               Z
  NUMBER   SYMBOL      (ANGSTROMS)     (ANGSTROMS)     (ANGSTROMS)
 
     1       C         -0.24833401  *   0.14171178  *   0.74542064  *
     2       C         -0.80430953  *  -1.21723665  *   0.27876092  *
     3       C         -0.45481922  *   0.32141143  *   2.24823851  *
     4       C         -0.91433022  *  -1.26281023  *  -1.24914780  *
     5       C         -1.93041124  *   0.26344496  *   2.60567364  *
     6       C          3.15019625  *   1.18611166  *  -0.79021471  *
     7       C         -1.87942629  *  -0.23565005  *  -1.79884200  *
     8       C          3.39794133  *   1.07227440  *  -2.27927274  *
     9       C          1.21194219  *   0.23432567  *   0.43000732  *
    10       C         -2.12085256  *  -1.53601840  *   0.91022298  *
    11       C          1.69910459  *   1.08033743  *  -0.47830050  *
    12       C         -2.62058899  *  -0.88268526  *   1.95951111  *
    13       H         -0.81362916  *   0.94582217  *   0.19746308  *
    14       H         -0.09626741  *  -2.02168862  *   0.60296970  *
    15       H         -0.02103427  *   1.28588655  *   2.57529060  *
    16       H          0.10166281  *  -0.46276355  *   2.79974027  *
    17       H         -1.21959352  *  -2.27844694  *  -1.56885242  *
    18       H          0.09347010  *  -1.09661767  *  -1.68156119  *
    19       H          3.73427580  *   0.41544745  *  -0.24823047  *
    20       H          3.51884240  *   2.16145210  *  -0.41353221  *
    21       H         -2.05028063  *   0.20193323  *   3.70503809  *
    22       H         -2.44279535  *   1.19725022  *   2.29648621  *
    23       H          2.86801626  *   1.85356007  *  -2.84020514  *
    24       H          4.46607233  *   1.16702249  *  -2.51242409  *
    25       H          3.05957293  *   0.10409818  *  -2.67083672  *
    26       H         -1.84488241  *  -0.19493469  *  -2.89396475  *
    27       H         -2.91425670  *  -0.45498063  *  -1.50449369  *
    28       H         -1.63627902  *   0.76918091  *  -1.41259168  *
    29       H          1.03570536  *   1.74570875  *  -1.04692293  *
    30       H          1.86934279  *  -0.44158231  *   0.99273404  *
    31       H         -3.58961162  *  -1.16678542  *   2.38481568  *
    32       H         -2.67195059  *  -2.36958456  *   0.45801582  *

           Empirical Formula: C12 H20  =    32 atoms



      MOLECULAR POINT GROUP   :   C1  


                  EIGENVALUES  
 -42.03267 -36.75429 -34.63225 -31.82563 -28.82030 -27.30660 -23.83053 -22.71263
 -21.14767 -20.18992 -19.62782 -17.74252 -17.04812 -16.08207 -15.72930 -15.60968
 -15.22651 -14.91332 -14.41561 -14.22034 -13.88597 -13.65443 -13.55568 -12.93558
 -12.82795 -12.67255 -12.27247 -12.02887 -11.89364 -11.86945 -11.44387 -11.10890
  -9.82623  -9.61522   1.07041   1.18194   3.19788   3.47015   3.51876   3.62246
   3.68750   3.74135   3.78079   3.90142   3.94813   3.98592   3.99131   4.07466
   4.13461   4.17051   4.21769   4.28216   4.43200   4.48937   4.57299   4.65290
   4.67703   4.83312   4.86621   4.87918   4.98215   5.01500   5.13510   5.19342
   5.65744   5.85092   5.98677   6.02523


              NET ATOMIC CHARGES AND DIPOLE CONTRIBUTIONS

  ATOM NO.   TYPE          CHARGE      No. of ELECS.   s-Pop       p-Pop       
    1          C          -0.054674        4.0547     1.17093     2.88374
    2          C          -0.035055        4.0351     1.16744     2.86762
    3          C          -0.091860        4.0919     1.16105     2.93081
    4          C          -0.095821        4.0958     1.16100     2.93482
    5          C          -0.057902        4.0579     1.14569     2.91221
    6          C          -0.061975        4.0620     1.14582     2.91616
    7          C          -0.119848        4.1198     1.14048     2.97937
    8          C          -0.105965        4.1060     1.13769     2.96827
    9          C          -0.147210        4.1472     1.19911     2.94810
   10          C          -0.144313        4.1443     1.19623     2.94809
   11          C          -0.148513        4.1485     1.19807     2.95045
   12          C          -0.150306        4.1503     1.19376     2.95655
   13          H           0.080477        0.9195     0.91952
   14          H           0.068895        0.9311     0.93111
   15          H           0.052414        0.9476     0.94759
   16          H           0.052992        0.9470     0.94701
   17          H           0.048702        0.9513     0.95130
   18          H           0.054857        0.9451     0.94514
   19          H           0.051139        0.9489     0.94886
   20          H           0.053044        0.9470     0.94696
   21          H           0.052882        0.9471     0.94712
   22          H           0.055209        0.9448     0.94479
   23          H           0.037966        0.9620     0.96203
   24          H           0.037002        0.9630     0.96300
   25          H           0.039861        0.9601     0.96014
   26          H           0.038312        0.9617     0.96169
   27          H           0.042306        0.9577     0.95769
   28          H           0.044756        0.9552     0.95524
   29          H           0.102783        0.8972     0.89722
   30          H           0.103338        0.8967     0.89666
   31          H           0.096870        0.9031     0.90313
   32          H           0.099637        0.9004     0.90036
 DIPOLE           X         Y         Z       TOTAL
 POINT-CHG.     0.235     0.207    -0.065     0.319
 HYBRID        -0.050    -0.039    -0.009     0.064
 SUM            0.185     0.167    -0.074     0.260


          ATOMIC ORBITAL ELECTRON POPULATIONS

    Atom      s        px        py        pz   
    1  C   1.17093   0.93720   0.98257   0.96397
    2  C   1.16744   0.95328   0.96635   0.94798
    3  C   1.16105   0.95970   1.01711   0.95400
    4  C   1.16100   0.99876   0.98979   0.94627
    5  C   1.14569   0.95120   0.97054   0.99047
    6  C   1.14582   0.93952   1.01392   0.96272
    7  C   1.14048   0.99187   0.99061   0.99688
    8  C   1.13769   1.00463   1.01120   0.95245
    9  C   1.19911   0.96560   0.99221   0.99029
   10  C   1.19623   0.97485   0.99772   0.97552
   11  C   1.19807   0.97077   0.99295   0.98672
   12  C   1.19376   0.99277   0.98258   0.98119
   13  H   0.91952
   14  H   0.93111
   15  H   0.94759
   16  H   0.94701
   17  H   0.95130
   18  H   0.94514
   19  H   0.94886
   20  H   0.94696
   21  H   0.94712
   22  H   0.94479
   23  H   0.96203
   24  H   0.96300
   25  H   0.96014
   26  H   0.96169
   27  H   0.95769
   28  H   0.95524
   29  H   0.89722
   30  H   0.89666
   31  H   0.90313
   32  H   0.90036
 *******************************************************************************
 ** Site#: 14399           For non-commercial use only        Version 13.159M **
 *******************************************************************************
 ** Cite this work as: MOPAC2012, James J. P. Stewart, Stewart Computational  **
 ** Chemistry, Version 13.159M web: HTTP://OpenMOPAC.net  Days remaining:  93 **
 *******************************************************************************
 **                                                                           **
 **                                MOPAC2012                                  **
 **                                                                           **
 *******************************************************************************

                            PM3 CALCULATION RESULTS


 *******************************************************************************
 *  CALCULATION DONE:                                Fri Mar  7 16:09:07 2014  *
 *  PM3      - The PM3 Hamiltonian to be used
 *  OLDGEO   - PREVIOUS GEOMETRY TO BE USED
 *  PRECISE  - CRITERIA TO BE INCREASED BY 100 TIMES
 *  NOSYM    - POINT-GROUP SYMMETRY SET TO C1
 *  T=       - A TIME OF 172800.0 SECONDS REQUESTED
 *  DUMP=N   - RESTART FILE WRITTEN EVERY  7200.000 SECONDS
 *  THERMO   - THERMODYNAMIC QUANTITIES TO BE CALCULATED
 *******************************************************************************
oldgeo thermo nosym precise  pm3

   ATOM   CHEMICAL          X               Y               Z
  NUMBER   SYMBOL      (ANGSTROMS)     (ANGSTROMS)     (ANGSTROMS)
 
     1       C         -0.24833401  *   0.14171178  *   0.74542064  *
     2       C         -0.80430953  *  -1.21723665  *   0.27876092  *
     3       C         -0.45481922  *   0.32141143  *   2.24823851  *
     4       C         -0.91433022  *  -1.26281023  *  -1.24914780  *
     5       C         -1.93041124  *   0.26344496  *   2.60567364  *
     6       C          3.15019625  *   1.18611166  *  -0.79021471  *
     7       C         -1.87942629  *  -0.23565005  *  -1.79884200  *
     8       C          3.39794133  *   1.07227440  *  -2.27927274  *
     9       C          1.21194219  *   0.23432567  *   0.43000732  *
    10       C         -2.12085256  *  -1.53601840  *   0.91022298  *
    11       C          1.69910459  *   1.08033743  *  -0.47830050  *
    12       C         -2.62058899  *  -0.88268526  *   1.95951111  *
    13       H         -0.81362916  *   0.94582217  *   0.19746308  *
    14       H         -0.09626741  *  -2.02168862  *   0.60296970  *
    15       H         -0.02103427  *   1.28588655  *   2.57529060  *
    16       H          0.10166281  *  -0.46276355  *   2.79974027  *
    17       H         -1.21959352  *  -2.27844694  *  -1.56885242  *
    18       H          0.09347010  *  -1.09661767  *  -1.68156119  *
    19       H          3.73427580  *   0.41544745  *  -0.24823047  *
    20       H          3.51884240  *   2.16145210  *  -0.41353221  *
    21       H         -2.05028063  *   0.20193323  *   3.70503809  *
    22       H         -2.44279535  *   1.19725022  *   2.29648621  *
    23       H          2.86801626  *   1.85356007  *  -2.84020514  *
    24       H          4.46607233  *   1.16702249  *  -2.51242409  *
    25       H          3.05957293  *   0.10409818  *  -2.67083672  *
    26       H         -1.84488241  *  -0.19493469  *  -2.89396475  *
    27       H         -2.91425670  *  -0.45498063  *  -1.50449369  *
    28       H         -1.63627902  *   0.76918091  *  -1.41259168  *
    29       H          1.03570536  *   1.74570875  *  -1.04692293  *
    30       H          1.86934279  *  -0.44158231  *   0.99273404  *
    31       H         -3.58961162  *  -1.16678542  *   2.38481568  *
    32       H         -2.67195059  *  -2.36958456  *   0.45801582  *
 


          CARTESIAN COORDINATES 

    NO.       ATOM         X         Y         Z

     1         C       -0.2483    0.1417    0.7454
     2         C       -0.8043   -1.2172    0.2788
     3         C       -0.4548    0.3214    2.2482
     4         C       -0.9143   -1.2628   -1.2491
     5         C       -1.9304    0.2634    2.6057
     6         C        3.1502    1.1861   -0.7902
     7         C       -1.8794   -0.2357   -1.7988
     8         C        3.3979    1.0723   -2.2793
     9         C        1.2119    0.2343    0.4300
    10         C       -2.1209   -1.5360    0.9102
    11         C        1.6991    1.0803   -0.4783
    12         C       -2.6206   -0.8827    1.9595
    13         H       -0.8136    0.9458    0.1975
    14         H       -0.0963   -2.0217    0.6030
    15         H       -0.0210    1.2859    2.5753
    16         H        0.1017   -0.4628    2.7997
    17         H       -1.2196   -2.2784   -1.5689
    18         H        0.0935   -1.0966   -1.6816
    19         H        3.7343    0.4154   -0.2482
    20         H        3.5188    2.1615   -0.4135
    21         H       -2.0503    0.2019    3.7050
    22         H       -2.4428    1.1973    2.2965
    23         H        2.8680    1.8536   -2.8402
    24         H        4.4661    1.1670   -2.5124
    25         H        3.0596    0.1041   -2.6708
    26         H       -1.8449   -0.1949   -2.8940
    27         H       -2.9143   -0.4550   -1.5045
    28         H       -1.6363    0.7692   -1.4126
    29         H        1.0357    1.7457   -1.0469
    30         H        1.8693   -0.4416    0.9927
    31         H       -3.5896   -1.1668    2.3848
    32         H       -2.6720   -2.3696    0.4580

  H: (PM3): J. J. P. STEWART, J. COMP. CHEM. 10, 209 (1989).
  C: (PM3): J. J. P. STEWART, J. COMP. CHEM. 10, 209 (1989).

           Empirical Formula: C12 H20  =    32 atoms



      MOLECULAR POINT GROUP   :   C1  


      RHF CALCULATION, NO. OF DOUBLY OCCUPIED LEVELS =   34



          HEAT OF FORMATION =      -9.804611 KCALS/MOLE


          INTERNAL COORDINATE DERIVATIVES

   NUMBER  ATOM       BOND         ANGLE      DIHEDRAL

     1       C     -0.000464     0.000721    -0.000573
     2       C      0.000619    -0.000860     0.000845
     3       C      0.003976     0.000208    -0.004595
     4       C      0.000608    -0.000697     0.000805
     5       C     -0.000041     0.001716    -0.001006
     6       C     -0.001310     0.000053     0.009104
     7       C      0.003752     0.001020    -0.000833
     8       C      0.006368    -0.010025    -0.009104
     9       C     -0.004835     0.007478     0.001391
    10       C      0.000504    -0.004391     0.001655
    11       C      0.006692    -0.007745    -0.005410
    12       C     -0.001037     0.005685     0.002701
    13       H     -0.001638     0.002038     0.001720
    14       H      0.006352    -0.000974     0.004621
    15       H      0.001326     0.001913    -0.012849
    16       H      0.004589     0.000305    -0.003264
    17       H      0.002296     0.001460     0.001431
    18       H      0.001662    -0.000796     0.000703
    19       H     -0.001403     0.012849    -0.008439
    20       H     -0.009866     0.004459     0.017294
    21       H      0.001149     0.002869     0.005632
    22       H     -0.002118    -0.002511    -0.005124
    23       H     -0.009197    -0.006445    -0.000266
    24       H     -0.004746    -0.004855    -0.001104
    25       H      0.003542    -0.005815    -0.005673
    26       H      0.002341    -0.001496    -0.001912
    27       H     -0.002237     0.001900    -0.001687
    28       H     -0.004692    -0.002413    -0.003064
    29       H      0.013455    -0.003799     0.011509
    30       H     -0.008790     0.005153    -0.004774
    31       H     -0.003925     0.003130     0.005061
    32       H     -0.002934    -0.000134     0.005205


          GRADIENT NORM =   0.05022


          TIME FOR SCF CALCULATION =    0.01

          TIME FOR DERIVATIVES     =    0.01

          MOLECULAR WEIGHT =  164.29



          ROTATIONAL CONSTANTS IN CM(-1)

          A =    0.05036638   B =    0.01745527   C =    0.01420737



           PRINCIPAL MOMENTS OF INERTIA IN UNITS OF 10**(-40)*GRAM-CM**2

          A =      555.7830   B =     1603.6859   C =     1970.2992


          ORIENTATION OF MOLECULE IN FORCE CALCULATION

    NO.       ATOM         X         Y         Z

     1          C      -0.2924    0.5386    0.1135
     2          C       1.2483    0.5386    0.1135
     3          C      -0.8316    1.9678    0.1135
     4          C       1.7910   -0.8531    0.4561
     5          C      -0.3562    2.7289    1.3395
     6          C      -1.9749   -2.0706   -2.2018
     7          C       1.3997   -1.3101    1.8441
     8          C      -1.5128   -3.5121   -2.2130
     9          C      -0.8055   -0.1860   -1.0916
    10          C       1.8133    1.5658    1.0403
    11          C      -1.4524   -1.3491   -1.0099
    12          C       1.0995    2.5542    1.5800
    13          H      -0.6317    0.0172    1.0512
    14          H       1.6041    0.8103   -0.9128
    15          H      -1.9379    1.9529    0.0793
    16          H      -0.5077    2.4909   -0.8087
    17          H       2.8938   -0.8568    0.3530
    18          H       1.4117   -1.5756   -0.2952
    19          H      -1.6700   -1.5670   -3.1411
    20          H      -3.0823   -2.0229   -2.1820
    21          H      -0.5917    3.8056    1.2301
    22          H      -0.9013    2.3895    2.2439
    23          H      -1.8408   -4.0509   -1.3141
    24          H      -1.9112   -4.0500   -3.0826
    25          H      -0.4181   -3.5837   -2.2542
    26          H       1.6831   -2.3546    2.0199
    27          H       1.8775   -0.6985    2.6208
    28          H       0.3087   -1.2244    1.9864
    29          H      -1.6277   -1.8337   -0.0400
    30          H      -0.6170    0.2969   -2.0596
    31          H       1.5710    3.2836    2.2481
    32          H       2.8844    1.4692    1.2559


    FIRST DERIVATIVES WILL BE USED IN THE CALCULATION OF SECOND DERIVATIVES

          ESTIMATED TIME TO COMPLETE CALCULATION =        7.07 SECONDS

    FOR POINT-GROUP C1   THERE ARE   1 UNIQUE SYMMETRY FUNCTIONS.

 STEP:   1 TIME =     0.06 SECS, INTEGRAL =      0.06 TIME LEFT: 172799.92
 STEP:   2 TIME =     0.06 SECS, INTEGRAL =      0.12 TIME LEFT: 172799.86
 STEP:   3 TIME =     0.06 SECS, INTEGRAL =      0.18 TIME LEFT: 172799.80
 STEP:   4 TIME =     0.07 SECS, INTEGRAL =      0.24 TIME LEFT: 172799.74
 STEP:   5 TIME =     0.06 SECS, INTEGRAL =      0.30 TIME LEFT: 172799.68
 STEP:   6 TIME =     0.06 SECS, INTEGRAL =      0.36 TIME LEFT: 172799.62
 STEP:   7 TIME =     0.06 SECS, INTEGRAL =      0.42 TIME LEFT: 172799.56
 STEP:   8 TIME =     0.06 SECS, INTEGRAL =      0.48 TIME LEFT: 172799.50
 STEP:   9 TIME =     0.06 SECS, INTEGRAL =      0.54 TIME LEFT: 172799.44
 STEP:  10 TIME =     0.06 SECS, INTEGRAL =      0.60 TIME LEFT: 172799.38
 STEP:  11 TIME =     0.06 SECS, INTEGRAL =      0.66 TIME LEFT: 172799.32
 STEP:  12 TIME =     0.06 SECS, INTEGRAL =      0.72 TIME LEFT: 172799.26
 STEP:  13 TIME =     0.06 SECS, INTEGRAL =      0.78 TIME LEFT: 172799.20
 STEP:  14 TIME =     0.06 SECS, INTEGRAL =      0.84 TIME LEFT: 172799.14
 STEP:  15 TIME =     0.06 SECS, INTEGRAL =      0.90 TIME LEFT: 172799.09
 STEP:  16 TIME =     0.06 SECS, INTEGRAL =      0.96 TIME LEFT: 172799.03
 STEP:  17 TIME =     0.06 SECS, INTEGRAL =      1.01 TIME LEFT: 172798.97
 STEP:  18 TIME =     0.06 SECS, INTEGRAL =      1.07 TIME LEFT: 172798.91
 STEP:  19 TIME =     0.06 SECS, INTEGRAL =      1.13 TIME LEFT: 172798.85
 STEP:  20 TIME =     0.06 SECS, INTEGRAL =      1.19 TIME LEFT: 172798.79
 STEP:  21 TIME =     0.06 SECS, INTEGRAL =      1.25 TIME LEFT: 172798.73
 STEP:  22 TIME =     0.06 SECS, INTEGRAL =      1.31 TIME LEFT: 172798.67
 STEP:  23 TIME =     0.06 SECS, INTEGRAL =      1.37 TIME LEFT: 172798.61
 STEP:  24 TIME =     0.06 SECS, INTEGRAL =      1.43 TIME LEFT: 172798.55
 STEP:  25 TIME =     0.06 SECS, INTEGRAL =      1.49 TIME LEFT: 172798.49
 STEP:  26 TIME =     0.06 SECS, INTEGRAL =      1.55 TIME LEFT: 172798.43
 STEP:  27 TIME =     0.06 SECS, INTEGRAL =      1.61 TIME LEFT: 172798.37
 STEP:  28 TIME =     0.06 SECS, INTEGRAL =      1.67 TIME LEFT: 172798.31
 STEP:  29 TIME =     0.06 SECS, INTEGRAL =      1.73 TIME LEFT: 172798.25
 STEP:  30 TIME =     0.06 SECS, INTEGRAL =      1.79 TIME LEFT: 172798.19
 STEP:  31 TIME =     0.06 SECS, INTEGRAL =      1.85 TIME LEFT: 172798.13
 STEP:  32 TIME =     0.06 SECS, INTEGRAL =      1.91 TIME LEFT: 172798.07
 STEP:  33 TIME =     0.06 SECS, INTEGRAL =      1.97 TIME LEFT: 172798.02
 STEP:  34 TIME =     0.06 SECS, INTEGRAL =      2.02 TIME LEFT: 172797.96
 STEP:  35 TIME =     0.06 SECS, INTEGRAL =      2.08 TIME LEFT: 172797.90
 STEP:  36 TIME =     0.06 SECS, INTEGRAL =      2.14 TIME LEFT: 172797.84
 STEP:  37 TIME =     0.06 SECS, INTEGRAL =      2.20 TIME LEFT: 172797.78
 STEP:  38 TIME =     0.06 SECS, INTEGRAL =      2.27 TIME LEFT: 172797.71
 STEP:  39 TIME =     0.06 SECS, INTEGRAL =      2.33 TIME LEFT: 172797.65
 STEP:  40 TIME =     0.06 SECS, INTEGRAL =      2.39 TIME LEFT: 172797.59
 STEP:  41 TIME =     0.06 SECS, INTEGRAL =      2.45 TIME LEFT: 172797.53
 STEP:  42 TIME =     0.06 SECS, INTEGRAL =      2.51 TIME LEFT: 172797.47
 STEP:  43 TIME =     0.06 SECS, INTEGRAL =      2.56 TIME LEFT: 172797.42
 STEP:  44 TIME =     0.06 SECS, INTEGRAL =      2.62 TIME LEFT: 172797.36
 STEP:  45 TIME =     0.06 SECS, INTEGRAL =      2.69 TIME LEFT: 172797.30
 STEP:  46 TIME =     0.06 SECS, INTEGRAL =      2.75 TIME LEFT: 172797.24
 STEP:  47 TIME =     0.06 SECS, INTEGRAL =      2.81 TIME LEFT: 172797.17
 STEP:  48 TIME =     0.06 SECS, INTEGRAL =      2.87 TIME LEFT: 172797.12
 STEP:  49 TIME =     0.06 SECS, INTEGRAL =      2.92 TIME LEFT: 172797.06
 STEP:  50 TIME =     0.06 SECS, INTEGRAL =      2.98 TIME LEFT: 172797.00
 STEP:  51 TIME =     0.06 SECS, INTEGRAL =      3.04 TIME LEFT: 172796.94
 STEP:  52 TIME =     0.06 SECS, INTEGRAL =      3.10 TIME LEFT: 172796.88
 STEP:  53 TIME =     0.06 SECS, INTEGRAL =      3.16 TIME LEFT: 172796.82
 STEP:  54 TIME =     0.06 SECS, INTEGRAL =      3.22 TIME LEFT: 172796.76
 STEP:  55 TIME =     0.06 SECS, INTEGRAL =      3.29 TIME LEFT: 172796.70
 STEP:  56 TIME =     0.06 SECS, INTEGRAL =      3.35 TIME LEFT: 172796.64
 STEP:  57 TIME =     0.06 SECS, INTEGRAL =      3.40 TIME LEFT: 172796.58
 STEP:  58 TIME =     0.06 SECS, INTEGRAL =      3.46 TIME LEFT: 172796.52
 STEP:  59 TIME =     0.06 SECS, INTEGRAL =      3.52 TIME LEFT: 172796.46
 STEP:  60 TIME =     0.06 SECS, INTEGRAL =      3.58 TIME LEFT: 172796.40
 STEP:  61 TIME =     0.06 SECS, INTEGRAL =      3.64 TIME LEFT: 172796.34
 STEP:  62 TIME =     0.06 SECS, INTEGRAL =      3.70 TIME LEFT: 172796.28
 STEP:  63 TIME =     0.06 SECS, INTEGRAL =      3.76 TIME LEFT: 172796.22
 STEP:  64 TIME =     0.06 SECS, INTEGRAL =      3.82 TIME LEFT: 172796.16
 STEP:  65 TIME =     0.06 SECS, INTEGRAL =      3.88 TIME LEFT: 172796.10
 STEP:  66 TIME =     0.06 SECS, INTEGRAL =      3.94 TIME LEFT: 172796.04
 STEP:  67 TIME =     0.06 SECS, INTEGRAL =      4.00 TIME LEFT: 172795.98
 STEP:  68 TIME =     0.06 SECS, INTEGRAL =      4.06 TIME LEFT: 172795.92
 STEP:  69 TIME =     0.06 SECS, INTEGRAL =      4.11 TIME LEFT: 172795.87
 STEP:  70 TIME =     0.06 SECS, INTEGRAL =      4.17 TIME LEFT: 172795.81
 STEP:  71 TIME =     0.06 SECS, INTEGRAL =      4.23 TIME LEFT: 172795.75
 STEP:  72 TIME =     0.06 SECS, INTEGRAL =      4.29 TIME LEFT: 172795.69
 STEP:  73 TIME =     0.06 SECS, INTEGRAL =      4.35 TIME LEFT: 172795.63
 STEP:  74 TIME =     0.06 SECS, INTEGRAL =      4.41 TIME LEFT: 172795.57
 STEP:  75 TIME =     0.06 SECS, INTEGRAL =      4.47 TIME LEFT: 172795.51
 STEP:  76 TIME =     0.06 SECS, INTEGRAL =      4.53 TIME LEFT: 172795.45
 STEP:  77 TIME =     0.06 SECS, INTEGRAL =      4.58 TIME LEFT: 172795.40
 STEP:  78 TIME =     0.06 SECS, INTEGRAL =      4.64 TIME LEFT: 172795.34
 STEP:  79 TIME =     0.06 SECS, INTEGRAL =      4.70 TIME LEFT: 172795.28
 STEP:  80 TIME =     0.06 SECS, INTEGRAL =      4.76 TIME LEFT: 172795.22
 STEP:  81 TIME =     0.06 SECS, INTEGRAL =      4.82 TIME LEFT: 172795.16
 STEP:  82 TIME =     0.06 SECS, INTEGRAL =      4.88 TIME LEFT: 172795.10
 STEP:  83 TIME =     0.06 SECS, INTEGRAL =      4.94 TIME LEFT: 172795.05
 STEP:  84 TIME =     0.06 SECS, INTEGRAL =      5.00 TIME LEFT: 172794.98
 STEP:  85 TIME =     0.06 SECS, INTEGRAL =      5.06 TIME LEFT: 172794.92
 STEP:  86 TIME =     0.06 SECS, INTEGRAL =      5.12 TIME LEFT: 172794.86
 STEP:  87 TIME =     0.06 SECS, INTEGRAL =      5.18 TIME LEFT: 172794.80
 STEP:  88 TIME =     0.06 SECS, INTEGRAL =      5.24 TIME LEFT: 172794.74
 STEP:  89 TIME =     0.06 SECS, INTEGRAL =      5.30 TIME LEFT: 172794.68
 STEP:  90 TIME =     0.06 SECS, INTEGRAL =      5.36 TIME LEFT: 172794.62
 STEP:  91 TIME =     0.06 SECS, INTEGRAL =      5.42 TIME LEFT: 172794.56
 STEP:  92 TIME =     0.06 SECS, INTEGRAL =      5.48 TIME LEFT: 172794.50
 STEP:  93 TIME =     0.06 SECS, INTEGRAL =      5.54 TIME LEFT: 172794.44
 STEP:  94 TIME =     0.06 SECS, INTEGRAL =      5.60 TIME LEFT: 172794.38
 STEP:  95 TIME =     0.07 SECS, INTEGRAL =      5.67 TIME LEFT: 172794.31
 STEP:  96 TIME =     0.06 SECS, INTEGRAL =      5.73 TIME LEFT: 172794.25

(To convert to Hartree/Bohr^2, multiply by (10^(-21) x N x a0^2)/(4.184 x 627.51) = 0.0642)


           FORCE MATRIX IN MILLIDYNES/ANGSTROM


                  C  1       C  2       C  3       C  4       C  5       C  6
 ------------------------------------------------------------------------------
     C    1  14.561904
     C    2   3.502479  14.462753
     C    3   3.915048   0.630482  14.419284
     C    4   0.604801   3.755439   0.050648  14.284230
     C    5   0.657111   0.098631   4.211390   0.009386  14.777129
     C    6   0.139823   0.019753   0.019205   0.001061   0.004108  14.697973
     C    7   0.078218   0.618612   0.005336   4.440003   0.001212   0.000707
     C    8   0.019521   0.004239   0.002110   0.000579   0.000679   4.403900
     C    9   4.663576   0.664997   0.708551   0.049340   0.053733   0.819745
     C   10   0.639836   4.707969   0.067486   0.693773   0.843737   0.004418
     C   11   0.799723   0.033979   0.039823   0.018018   0.006782   4.968559
     C   12   0.062364   0.794176   0.702418   0.044571   5.030015   0.000983
     H   13   3.979048   0.429961   0.425206   0.049175   0.026423   0.002132
     H   14   0.436148   4.140798   0.013147   0.422998   0.013048   0.000730
     H   15   0.440660   0.048944   4.498492   0.008925   0.432542   0.000693
     H   16   0.450824   0.020743   4.445674   0.001714   0.440457   0.000797
     H   17   0.047280   0.439798   0.008809   4.467178   0.001136   0.000401
     H   18   0.028649   0.434826   0.001768   4.427439   0.001413   0.001149
     H   19   0.002366   0.000420   0.000972   0.000196   0.000210   4.442155
     H   20   0.018351   0.002440   0.003447   0.000333   0.000913   4.426846
     H   21   0.048344   0.008888   0.430486   0.000670   4.466536   0.000809
     H   22   0.014389   0.013893   0.445365   0.000790   4.407415   0.000364
     H   23   0.000716   0.000290   0.000265   0.000195   0.000181   0.463914
     H   24   0.003225   0.000706   0.000347   0.000396   0.000222   0.450076
     H   25   0.000875   0.000408   0.000298   0.001128   0.000318   0.460853
     H   26   0.005813   0.051494   0.000685   0.452037   0.000318   0.000532
     H   27   0.003311   0.015060   0.000438   0.464123   0.000640   0.000462
     H   28   0.085438   0.026516   0.002029   0.464009   0.000644   0.000458
     H   29   0.083525   0.010423   0.008198   0.002196   0.001996   0.429364
     H   30   0.433612   0.017764   0.027401   0.002591   0.001851   0.082969
     H   31   0.004143   0.119482   0.042761   0.015260   0.425991   0.000347
     H   32   0.040046   0.431357   0.004224   0.036122   0.121306   0.000694


                  C  7       C  8       C  9       C 10       C 11       C 12
 ------------------------------------------------------------------------------
     C    7  14.325984
     C    8   0.000232  14.346095
     C    9   0.005852   0.040262  18.183165
     C   10   0.049354   0.001345   0.048619  18.240378
     C   11   0.003906   0.719739  10.717354   0.006301  18.196857
     C   12   0.005738   0.001094   0.005234  10.719516   0.003079  18.232062
     H   13   0.100442   0.001007   0.441182   0.010521   0.057120   0.006740
     H   14   0.049069   0.000214   0.048842   0.385658   0.002524   0.031695
     H   15   0.000469   0.000359   0.028887   0.004347   0.002587   0.050990
     H   16   0.000587   0.000190   0.033584   0.006831   0.001695   0.010809
     H   17   0.438482   0.000298   0.002486   0.029880   0.000939   0.002339
     H   18   0.436712   0.001164   0.011486   0.050301   0.010854   0.007982
     H   19   0.000279   0.434906   0.050290   0.000364   0.459585   0.000347
     H   20   0.000161   0.445898   0.032954   0.000416   0.409957   0.000402
     H   21   0.000256   0.000255   0.009493   0.043632   0.001204   0.432639
     H   22   0.000418   0.000226   0.001081   0.029649   0.000571   0.411413
     H   23   0.000218   4.727129   0.001701   0.000344   0.026860   0.000385
     H   24   0.000223   4.752234   0.006829   0.000302   0.052321   0.000274
     H   25   0.000383   4.743907   0.002419   0.000494   0.017273   0.000341
     H   26   4.779468   0.000211   0.000899   0.004044   0.000877   0.000621
     H   27   4.730549   0.000146   0.000948   0.009164   0.000547   0.004249
     H   28   4.541781   0.000313   0.002130   0.003020   0.003556   0.000897
     H   29   0.003673   0.024491   0.468632   0.002683   4.746555   0.000810
     H   30   0.000757   0.008602   4.749980   0.001630   0.468056   0.001009
     H   31   0.000958   0.000677   0.001462   0.442848   0.000224   4.824496
     H   32   0.008352   0.000557   0.007703   4.788232   0.001047   0.442263


                  H 13       H 14       H 15       H 16       H 17       H 18
 ------------------------------------------------------------------------------
     H   13   4.527895
     H   14   0.039293   4.610580
     H   15   0.026379   0.001225   5.112471
     H   16   0.041581   0.008401   0.565541   5.062175
     H   17   0.002300   0.035335   0.001768   0.000473   5.080601
     H   18   0.003383   0.034162   0.000525   0.000443   0.556766   5.024445
     H   19   0.000571   0.000217   0.000185   0.000165   0.000093   0.000250
     H   20   0.000472   0.000264   0.000243   0.000178   0.000157   0.000374
     H   21   0.002045   0.000958   0.024877   0.035770   0.000302   0.000313
     H   22   0.010286   0.001919   0.034234   0.043538   0.000348   0.000166
     H   23   0.000223   0.000061   0.000092   0.000081   0.000095   0.000176
     H   24   0.000232   0.000110   0.000121   0.000095   0.000080   0.000204
     H   25   0.000152   0.000119   0.000097   0.000081   0.000163   0.003832
     H   26   0.002595   0.008258   0.000202   0.000253   0.024903   0.033817
     H   27   0.001153   0.001749   0.000077   0.000120   0.028486   0.047869
     H   28   0.105990   0.002521   0.000338   0.000529   0.048540   0.022347
     H   29   0.029372   0.000814   0.000617   0.000651   0.000540   0.001798
     H   30   0.035241   0.020136   0.002814   0.022109   0.000366   0.001314
     H   31   0.000590   0.015556   0.007014   0.001398   0.000600   0.002371
     H   32   0.000947   0.020170   0.000943   0.000504   0.025507   0.002160


                  H 19       H 20       H 21       H 22       H 23       H 24
 ------------------------------------------------------------------------------
     H   19   5.053336
     H   20   0.565751   5.024769
     H   21   0.000068   0.000266   5.063664
     H   22   0.000083   0.000094   0.566968   5.006653
     H   23   0.047318   0.024258   0.000110   0.000117   5.471593
     H   24   0.030368   0.028076   0.000089   0.000063   0.571262   5.488942
     H   25   0.024301   0.048956   0.000080   0.000095   0.578027   0.571490
     H   26   0.000136   0.000138   0.000071   0.000193   0.000096   0.000116
     H   27   0.000104   0.000087   0.000213   0.000311   0.000117   0.000080
     H   28   0.000157   0.000096   0.000250   0.000337   0.000110   0.000126
     H   29   0.038390   0.018870   0.000358   0.000309   0.018520   0.001962
     H   30   0.029973   0.009441   0.000522   0.000697   0.000588   0.001653
     H   31   0.000110   0.000121   0.035371   0.018110   0.000095   0.000102
     H   32   0.000086   0.000125   0.013692   0.016860   0.000076   0.000144


                  H 25       H 26       H 27       H 28       H 29       H 30
 ------------------------------------------------------------------------------
     H   25   5.479101
     H   26   0.000120   5.497339
     H   27   0.000112   0.563023   5.459559
     H   28   0.000133   0.547057   0.567015   5.306006
     H   29   0.002627   0.000485   0.000573   0.007413   5.125883
     H   30   0.000547   0.000306   0.000354   0.000527   0.104231   5.136896
     H   31   0.000110   0.000177   0.000564   0.000328   0.000217   0.000600
     H   32   0.000136   0.000775   0.005912   0.000853   0.000460   0.000548


                  H 31       H 32
 ------------------------------
     H   31   5.199497
     H   32   0.069020   5.169077


          HEAT OF FORMATION =      -9.804611 KCALS/MOLE

          ZERO POINT ENERGY     180.958 KCAL/MOL


           NORMAL COORDINATE ANALYSIS (Total motion = 1 Angstrom)


   Root No.       1         2         3         4         5         6         7         8

                 1 A       2 A       3 A       4 A       5 A       6 A       7 A       8 A   

                  38.1      54.3      78.2     108.4     132.0     134.4     190.1     222.7
  
           1   -0.0109    0.0024   -0.0119    0.0011    0.0028   -0.0095    0.0028   -0.0011
           2    0.0061   -0.0142    0.0061    0.0030    0.0089   -0.0011    0.0026   -0.0036
           3    0.0039    0.0040    0.0030    0.0087   -0.0181    0.0115   -0.0030   -0.0006
           4   -0.0108    0.0025   -0.0115    0.0007    0.0026   -0.0094    0.0030   -0.0007
           5   -0.0076   -0.0097   -0.0030    0.0048    0.0020   -0.0033    0.0018    0.0002
           6   -0.0038    0.0013   -0.0073    0.0087   -0.0082    0.0070   -0.0050   -0.0086
           7    0.0018   -0.0052   -0.0070    0.0017    0.0146   -0.0044    0.0126   -0.0040
           8    0.0108   -0.0168    0.0076    0.0039    0.0131    0.0013    0.0066   -0.0047
           9    0.0025    0.0060    0.0200   -0.0041   -0.0170   -0.0026   -0.0126    0.0081
          10   -0.0217    0.0055   -0.0199    0.0046   -0.0096   -0.0113    0.0041    0.0057
          11   -0.0116   -0.0024   -0.0045    0.0053   -0.0021   -0.0087    0.0037    0.0035
          12   -0.0026    0.0273    0.0006    0.0038   -0.0064   -0.0133   -0.0002   -0.0065
          13    0.0150   -0.0007    0.0105    0.0017   -0.0060    0.0057   -0.0030    0.0117
          14    0.0102   -0.0113   -0.0031    0.0193   -0.0135    0.0256   -0.0082    0.0117
          15   -0.0022    0.0005    0.0201   -0.0139    0.0078   -0.0217    0.0026   -0.0075
          16   -0.0070   -0.0184    0.0294   -0.0001   -0.0104    0.0103   -0.0081   -0.0023
          17   -0.0077    0.0092   -0.0046   -0.0022   -0.0072    0.0028   -0.0005   -0.0031
          18    0.0168   -0.0088   -0.0155    0.0141    0.0117   -0.0103    0.0117   -0.0039
          19   -0.0198    0.0204   -0.0081   -0.0095    0.0119    0.0382   -0.0043   -0.0023
          20   -0.0045    0.0306    0.0138   -0.0115    0.0252    0.0036    0.0071    0.0253
          21    0.0003    0.0424    0.0100   -0.0058    0.0088    0.0044   -0.0014   -0.0017
          22    0.0555   -0.0069   -0.0081   -0.0279   -0.0039    0.0005   -0.0014    0.0005
          23    0.0125    0.0132   -0.0168   -0.0099   -0.0050   -0.0002    0.0022   -0.0025
          24   -0.0157   -0.0373    0.0047   -0.0373    0.0021   -0.0060   -0.0118    0.0004
          25   -0.0208    0.0017   -0.0158   -0.0030   -0.0026   -0.0080   -0.0073   -0.0063
          26    0.0057   -0.0110    0.0152   -0.0031    0.0076   -0.0027   -0.0052    0.0004
          27    0.0085    0.0021   -0.0011    0.0138   -0.0148    0.0117    0.0073   -0.0018
          28    0.0033    0.0053    0.0052   -0.0020   -0.0037   -0.0087    0.0011    0.0001
          29   -0.0098    0.0066   -0.0009    0.0053   -0.0096   -0.0153    0.0024   -0.0149
          30   -0.0101   -0.0185   -0.0202    0.0101    0.0096    0.0194   -0.0033    0.0081
          31   -0.0047   -0.0107    0.0230    0.0421    0.0141   -0.0073    0.0029   -0.0050
          32   -0.0030   -0.0044   -0.0071   -0.0285   -0.0012   -0.0037   -0.0108   -0.0006
          33    0.0130   -0.0037   -0.0112    0.0120   -0.0031    0.0019    0.0136   -0.0039
          34    0.0147    0.0041    0.0153   -0.0012   -0.0089   -0.0022   -0.0025    0.0035
          35   -0.0020    0.0052   -0.0008    0.0124   -0.0203   -0.0025   -0.0042   -0.0177
          36   -0.0093   -0.0177   -0.0072   -0.0018    0.0227    0.0043    0.0045    0.0163
          37   -0.0112    0.0054   -0.0096    0.0005   -0.0014   -0.0058    0.0026    0.0055
          38    0.0119   -0.0167    0.0000    0.0094    0.0127    0.0029    0.0119   -0.0109
          39    0.0070    0.0037    0.0005    0.0117   -0.0168    0.0148    0.0020   -0.0025
          40   -0.0138    0.0000   -0.0172   -0.0007    0.0120   -0.0119    0.0022   -0.0037
          41   -0.0140   -0.0281   -0.0139    0.0079    0.0060    0.0100    0.0001    0.0081
          42   -0.0066   -0.0044   -0.0121    0.0091   -0.0035    0.0096   -0.0055   -0.0069
          43    0.0015   -0.0054   -0.0075    0.0016    0.0154   -0.0048    0.0133   -0.0048
          44    0.0205   -0.0233    0.0112    0.0037    0.0252    0.0038    0.0173   -0.0095
          45    0.0084    0.0142    0.0336   -0.0032   -0.0449    0.0067   -0.0358    0.0294
          46    0.0015   -0.0150   -0.0167    0.0009    0.0436   -0.0112    0.0374   -0.0247
          47    0.0054   -0.0165    0.0140   -0.0058    0.0224   -0.0153    0.0078   -0.0093
          48   -0.0007    0.0028    0.0203   -0.0100   -0.0014   -0.0146   -0.0032   -0.0019
          49   -0.0222    0.0044   -0.0212    0.0059   -0.0120   -0.0157    0.0048    0.0064
          50   -0.0217   -0.0052   -0.0155    0.0128   -0.0199   -0.0225    0.0060    0.0098
          51   -0.0074    0.0157   -0.0121    0.0171   -0.0299   -0.0582    0.0068    0.0001
          52   -0.0316   -0.0027   -0.0354    0.0180   -0.0370   -0.0510    0.0103    0.0148
          53   -0.0102   -0.0194   -0.0089    0.0099   -0.0056   -0.0060    0.0011   -0.0070
          54    0.0010    0.0479    0.0126   -0.0074    0.0108    0.0039   -0.0008   -0.0003
          55   -0.0539   -0.0338    0.0609   -0.0233   -0.0378    0.0326   -0.0167   -0.0013
          56    0.0185    0.0261   -0.0197    0.0135   -0.0071    0.0033    0.0130   -0.0045
          57    0.0156   -0.0047   -0.0133    0.0148    0.0030   -0.0030    0.0158   -0.0043
          58   -0.0084   -0.0185    0.0302    0.0011   -0.0102    0.0102   -0.0080   -0.0024
          59   -0.0557    0.0000    0.0237    0.0158   -0.0131    0.0106   -0.0050   -0.0052
          60    0.0472    0.0051   -0.0377    0.0518    0.0410   -0.0327    0.0194   -0.0062
          61    0.0240   -0.0148    0.0046    0.0110   -0.0038    0.0362   -0.0097    0.0461
          62    0.0120   -0.0141   -0.0029    0.0195   -0.0109    0.0287   -0.0082    0.0163
          63   -0.0043    0.0032    0.0351   -0.0327    0.0290   -0.0586    0.0189   -0.0403
          64    0.0167    0.0139    0.0272   -0.0060   -0.0200   -0.0137   -0.0063   -0.0080
          65    0.0178   -0.0178   -0.0145    0.0386   -0.0343    0.0696   -0.0272    0.0545
          66    0.0016    0.0069    0.0258   -0.0114   -0.0084   -0.0170   -0.0065   -0.0035
          67    0.1022    0.0140   -0.0436    0.0067    0.0340   -0.0323   -0.1426    0.0043
          68   -0.0143   -0.0018   -0.0028   -0.0222   -0.0016   -0.0043   -0.0580    0.0004
          69   -0.0147   -0.0388    0.0002   -0.0321    0.0180   -0.0203   -0.0996    0.0036
          70    0.0563   -0.0185   -0.0017   -0.0818   -0.0356    0.0248    0.1387   -0.0010
          71    0.0075    0.0220   -0.0119    0.0155   -0.0119    0.0088    0.0591   -0.0069
          72   -0.0129   -0.0375   -0.0013   -0.0285    0.0208   -0.0227   -0.1111    0.0038
          73    0.0576   -0.0071   -0.0090   -0.0314   -0.0052    0.0014    0.0055    0.0005
          74    0.0608    0.0226   -0.0460   -0.0305   -0.0001   -0.0077    0.0092   -0.0005
          75   -0.0449   -0.0585    0.0310   -0.0939   -0.0406    0.0289    0.1580   -0.0026
          76   -0.0268    0.0202   -0.0117   -0.0028   -0.0086    0.0112    0.0045    0.1365
          77   -0.0061    0.0341    0.0144   -0.0108    0.0211   -0.0057    0.0109    0.0760
          78    0.0023    0.0635    0.0193   -0.0126    0.0170   -0.0081    0.0069    0.0749
          79   -0.0123    0.0303    0.0029   -0.0247    0.0435    0.0939   -0.0176   -0.1305
          80   -0.0058    0.0476    0.0205   -0.0151    0.0249   -0.0123    0.0163    0.1405
          81   -0.0034    0.0229   -0.0020    0.0064   -0.0103   -0.0173   -0.0004   -0.0127
          82   -0.0186    0.0221   -0.0063   -0.0121    0.0168    0.0472   -0.0064   -0.0215
          83    0.0039    0.0359    0.0208   -0.0224    0.0529    0.0414   -0.0029   -0.1158
          84    0.0041    0.0525    0.0199   -0.0187    0.0308    0.0516   -0.0115   -0.0660
          85    0.0143   -0.0181    0.0523    0.1000    0.0428   -0.0178    0.0212   -0.0032
          86   -0.0087   -0.0074   -0.0279   -0.0599   -0.0036   -0.0086   -0.0204   -0.0019
          87    0.0136   -0.0067   -0.0161    0.0067    0.0012   -0.0029    0.0117   -0.0041
          88   -0.0397    0.0090   -0.0469   -0.0541   -0.0258   -0.0027   -0.0269   -0.0087
          89    0.0113   -0.0111    0.0381    0.0212    0.0134   -0.0019   -0.0027    0.0030
          90    0.0076    0.0034    0.0043    0.0159   -0.0160    0.0128    0.0045   -0.0010
          91    0.0246    0.0067    0.0275   -0.0027   -0.0154   -0.0018   -0.0056    0.0022
          92   -0.0042    0.0155   -0.0002    0.0137   -0.0331   -0.0101   -0.0069   -0.0370
          93   -0.0138   -0.0308   -0.0166   -0.0022    0.0412    0.0125    0.0094    0.0385
          94    0.0035    0.0092    0.0094   -0.0045   -0.0052   -0.0147    0.0021   -0.0032
          95   -0.0187    0.0185   -0.0003    0.0007   -0.0126   -0.0347    0.0067   -0.0278
          96   -0.0154   -0.0325   -0.0408    0.0204    0.0153    0.0407   -0.0066    0.0197


   Root No.       9        10        11        12        13        14        15        16

                 9 A      10 A      11 A      12 A      13 A      14 A      15 A      16 A   

                 243.4     274.2     286.1     313.7     388.8     420.9     441.4     476.5
  
           1   -0.0080   -0.0084   -0.0080   -0.0062    0.0049    0.0086   -0.0316   -0.0153
           2    0.0029   -0.0018   -0.0030    0.0014   -0.0141   -0.0160   -0.0098    0.0090
           3    0.0116    0.0032   -0.0047   -0.0025    0.0053    0.0147    0.0230   -0.0149
           4   -0.0064   -0.0084   -0.0047   -0.0056    0.0069    0.0078   -0.0360   -0.0145
           5    0.0025   -0.0170    0.0024    0.0112    0.0009    0.0115   -0.0109    0.0240
           6   -0.0009    0.0118   -0.0028    0.0205    0.0076    0.0023    0.0057    0.0055
           7    0.0240    0.0117    0.0078    0.0101    0.0043    0.0186    0.0037   -0.0240
           8    0.0161    0.0082    0.0052    0.0088   -0.0172   -0.0154    0.0060    0.0021
           9   -0.0172   -0.0136    0.0072    0.0069   -0.0023    0.0016   -0.0002   -0.0225
          10    0.0016    0.0120    0.0325   -0.0164    0.0108   -0.0204    0.0081   -0.0167
          11    0.0064   -0.0101    0.0218    0.0031    0.0013    0.0010    0.0083    0.0306
          12   -0.0046    0.0133    0.0183   -0.0049   -0.0141   -0.0030   -0.0058    0.0163
          13   -0.0001   -0.0104    0.0151    0.0110    0.0027   -0.0005    0.0048    0.0194
          14   -0.0074   -0.0018    0.0130    0.0035   -0.0150    0.0039    0.0024   -0.0274
          15    0.0075   -0.0020    0.0017    0.0135   -0.0059   -0.0027    0.0041   -0.0187
          16    0.0189   -0.0042   -0.0136   -0.0172   -0.0062   -0.0180   -0.0083   -0.0023
          17   -0.0001    0.0069   -0.0196   -0.0257    0.0086    0.0033    0.0090    0.0098
          18   -0.0109   -0.0052   -0.0143   -0.0047   -0.0124   -0.0209   -0.0017   -0.0053
          19    0.0003    0.0300    0.0003    0.0070   -0.0151   -0.0061   -0.0004    0.0092
          20    0.0054   -0.0290    0.0026   -0.0042    0.0276   -0.0044    0.0135   -0.0135
          21   -0.0058    0.0110    0.0036   -0.0017   -0.0130   -0.0004   -0.0083    0.0102
          22   -0.0011    0.0037    0.0010   -0.0029    0.0033    0.0026   -0.0005    0.0009
          23   -0.0063    0.0092   -0.0170   -0.0234    0.0119    0.0092    0.0137    0.0136
          24   -0.0126    0.0136   -0.0029   -0.0108    0.0114    0.0131    0.0103    0.0068
          25   -0.0133   -0.0248   -0.0283    0.0104   -0.0184   -0.0007    0.0361   -0.0027
          26   -0.0170    0.0240    0.0048   -0.0074   -0.0008   -0.0106   -0.0141   -0.0142
          27    0.0277   -0.0049   -0.0070   -0.0135    0.0086    0.0114   -0.0009   -0.0039
          28    0.0008   -0.0115    0.0008    0.0027    0.0022    0.0092   -0.0138    0.0236
          29    0.0051   -0.0025   -0.0001    0.0072   -0.0145    0.0305   -0.0153   -0.0022
          30   -0.0065   -0.0013   -0.0012    0.0230    0.0320   -0.0153   -0.0107    0.0080
          31   -0.0263    0.0066   -0.0180   -0.0080   -0.0003    0.0056    0.0272    0.0042
          32   -0.0109    0.0072   -0.0033   -0.0001   -0.0106   -0.0152   -0.0069   -0.0166
          33    0.0181   -0.0117   -0.0192   -0.0208   -0.0034   -0.0180   -0.0120    0.0068
          34    0.0021   -0.0069    0.0085    0.0170    0.0081   -0.0043    0.0047    0.0188
          35    0.0007    0.0092   -0.0069    0.0317    0.0161    0.0022   -0.0076   -0.0093
          36    0.0041   -0.0154    0.0190   -0.0028   -0.0163    0.0212   -0.0033    0.0068
          37   -0.0086   -0.0101   -0.0091   -0.0146    0.0000    0.0128   -0.0554   -0.0102
          38    0.0234   -0.0050   -0.0047   -0.0059   -0.0095   -0.0150   -0.0035    0.0089
          39    0.0218    0.0008   -0.0069   -0.0095    0.0053    0.0159    0.0161   -0.0118
          40   -0.0168   -0.0078   -0.0108    0.0015    0.0056   -0.0019   -0.0627   -0.0128
          41    0.0028   -0.0242   -0.0019    0.0269    0.0305    0.0023   -0.0022    0.0236
          42   -0.0047    0.0095   -0.0057    0.0266    0.0156   -0.0036   -0.0027    0.0058
          43    0.0256    0.0128    0.0075    0.0103    0.0041    0.0195    0.0049   -0.0259
          44    0.0490    0.0265    0.0165    0.0235   -0.0183   -0.0056    0.0461    0.0025
          45   -0.0651   -0.0495    0.0127    0.0022   -0.0027   -0.0224   -0.0314    0.0207
          46    0.0806    0.0510    0.0080    0.0214    0.0044    0.0439    0.0497   -0.0622
          47    0.0082    0.0030    0.0012    0.0102   -0.0201   -0.0291   -0.0133    0.0051
          48   -0.0019   -0.0032    0.0047    0.0118   -0.0041    0.0017    0.0045   -0.0332
          49    0.0019    0.0120    0.0373   -0.0190    0.0116   -0.0235    0.0104   -0.0168
          50    0.0134    0.0121    0.0651   -0.0118   -0.0019   -0.0338    0.0529    0.0420
          51   -0.0024    0.0089    0.0610   -0.0302   -0.0026   -0.0267    0.0112    0.0095
          52    0.0079    0.0237    0.0920   -0.0445    0.0165   -0.0616    0.0505   -0.0141
          53    0.0047   -0.0152    0.0079    0.0158    0.0025    0.0167   -0.0071    0.0336
          54   -0.0061    0.0124    0.0029   -0.0037   -0.0174    0.0011   -0.0113    0.0117
          55    0.0667   -0.0107   -0.0205   -0.0461    0.0024   -0.0297   -0.0403    0.0092
          56    0.0043    0.0003   -0.0248   -0.0284    0.0070   -0.0013    0.0082    0.0135
          57    0.0064   -0.0105   -0.0189   -0.0151   -0.0102   -0.0263   -0.0117    0.0002
          58    0.0187   -0.0041   -0.0142   -0.0178   -0.0059   -0.0178   -0.0077   -0.0017
          59    0.0137    0.0043   -0.0331   -0.0433    0.0103   -0.0023    0.0100    0.0186
          60   -0.0607    0.0016   -0.0134    0.0199   -0.0212   -0.0094    0.0377   -0.0145
          61   -0.0142   -0.0296    0.0408   -0.0212   -0.0354    0.0183    0.0129    0.0133
          62   -0.0079   -0.0043    0.0168   -0.0017   -0.0222    0.0048    0.0042   -0.0263
          63    0.0365    0.0177   -0.0205    0.0344    0.0107   -0.0399    0.0054    0.0125
          64   -0.0016   -0.0036   -0.0023    0.0337    0.0287   -0.0281    0.0026    0.0289
          65   -0.0416   -0.0283    0.0421   -0.0268   -0.0449    0.0381    0.0045   -0.0576
          66   -0.0063   -0.0077    0.0018    0.0161   -0.0008   -0.0074    0.0032   -0.0234
          67    0.0283    0.0063    0.0023   -0.0083    0.0085    0.0074   -0.0017    0.0036
          68    0.0080    0.0200   -0.0146   -0.0348    0.0280    0.0296    0.0215    0.0241
          69    0.0066    0.0212   -0.0009   -0.0198    0.0233    0.0277    0.0149    0.0144
          70   -0.0452    0.0086    0.0105    0.0118    0.0095    0.0204    0.0111    0.0059
          71   -0.0099   -0.0063   -0.0271   -0.0190   -0.0112   -0.0257   -0.0001   -0.0009
          72    0.0096    0.0212   -0.0010   -0.0205    0.0234    0.0274    0.0142    0.0141
          73   -0.0039    0.0044    0.0018   -0.0020    0.0043    0.0047    0.0008    0.0018
          74   -0.0232    0.0162   -0.0067   -0.0136    0.0227    0.0311    0.0248    0.0212
          75   -0.0579    0.0165    0.0026    0.0007    0.0145    0.0248    0.0203    0.0102
          76    0.0195    0.0932   -0.0595    0.0435   -0.0509    0.0049   -0.0153    0.0419
          77    0.0120   -0.0107   -0.0192    0.0064    0.0214   -0.0031    0.0105   -0.0123
          78    0.0020    0.0180   -0.0285    0.0017    0.0053   -0.0086   -0.0041   -0.0323
          79   -0.0177   -0.0158    0.0309   -0.0098   -0.0017   -0.0023    0.0050    0.0017
          80    0.0193    0.0034   -0.0505    0.0162    0.0253   -0.0039    0.0100   -0.0306
          81   -0.0055    0.0138    0.0263   -0.0074   -0.0190   -0.0034   -0.0087    0.0279
          82   -0.0024    0.0230    0.0044    0.0047   -0.0133   -0.0050    0.0001    0.0084
          83   -0.0139   -0.0887    0.0555   -0.0367    0.0591   -0.0157    0.0276   -0.0444
          84   -0.0146   -0.0073    0.0036   -0.0003   -0.0159    0.0134   -0.0107    0.0191
          85   -0.0657    0.0517   -0.0055   -0.0295    0.0360    0.0330    0.0116    0.0158
          86   -0.0089   -0.0153   -0.0111    0.0182   -0.0423   -0.0473   -0.0006   -0.0285
          87    0.0111   -0.0143   -0.0205   -0.0150   -0.0126   -0.0285   -0.0111    0.0026
          88    0.0080   -0.0679   -0.0461    0.0407   -0.0613   -0.0254    0.0845   -0.0150
          89   -0.0337    0.0559    0.0187   -0.0180    0.0264    0.0159   -0.0217   -0.0226
          90    0.0226    0.0029   -0.0035   -0.0126    0.0137    0.0195    0.0049   -0.0107
          91    0.0029   -0.0005    0.0102    0.0235    0.0062   -0.0174    0.0211   -0.0032
          92    0.0005    0.0236   -0.0253    0.0542    0.0437   -0.0107   -0.0100   -0.0139
          93    0.0035   -0.0359    0.0378   -0.0323   -0.0453    0.0446   -0.0128    0.0269
          94    0.0036   -0.0105    0.0016    0.0006   -0.0072    0.0179   -0.0102    0.0216
          95    0.0091    0.0032   -0.0046   -0.0066   -0.0374    0.0561   -0.0228   -0.0243
          96   -0.0190   -0.0034   -0.0057    0.0269    0.0684   -0.0485   -0.0307    0.0073


   Root No.      17        18        19        20        21        22        23        24

                17 A      18 A      19 A      20 A      21 A      22 A      23 A      24 A   

                 522.4     555.0     635.7     711.0     785.2     818.6     837.7     865.8
  
           1   -0.0105    0.0071   -0.0150    0.0012   -0.0170   -0.0074    0.0027    0.0115
           2   -0.0174    0.0326    0.0053   -0.0030   -0.0072   -0.0004    0.0038   -0.0082
           3    0.0316    0.0302   -0.0149    0.0090    0.0019   -0.0081   -0.0033   -0.0011
           4   -0.0090    0.0190   -0.0037   -0.0056    0.0069    0.0043   -0.0025   -0.0072
           5    0.0064   -0.0013   -0.0180   -0.0081    0.0027    0.0017    0.0032   -0.0092
           6    0.0187    0.0060    0.0444   -0.0133    0.0098   -0.0029   -0.0016    0.0274
           7    0.0010   -0.0295   -0.0148    0.0035   -0.0114   -0.0041   -0.0035    0.0287
           8   -0.0265    0.0296    0.0102   -0.0012    0.0020   -0.0029   -0.0023    0.0039
           9   -0.0122   -0.0139   -0.0105   -0.0131    0.0122    0.0028    0.0042    0.0022
          10   -0.0052    0.0114    0.0208    0.0054    0.0125    0.0058   -0.0304   -0.0107
          11    0.0109   -0.0108   -0.0324   -0.0177   -0.0049   -0.0024   -0.0181    0.0134
          12   -0.0037   -0.0017   -0.0115   -0.0036    0.0016    0.0011   -0.0130    0.0015
          13    0.0041   -0.0121    0.0052    0.0204   -0.0081   -0.0006   -0.0049   -0.0055
          14   -0.0257   -0.0020   -0.0043    0.0004    0.0112   -0.0047   -0.0012    0.0283
          15   -0.0231   -0.0062   -0.0028   -0.0178    0.0018    0.0019    0.0016   -0.0042
          16    0.0135   -0.0169    0.0003    0.0022   -0.0031    0.0283    0.0012    0.0052
          17   -0.0080   -0.0120    0.0024    0.0001   -0.0008    0.0096    0.0004    0.0019
          18    0.0194   -0.0200    0.0016   -0.0002    0.0043   -0.0114   -0.0013   -0.0023
          19   -0.0044    0.0000    0.0025   -0.0003    0.0013    0.0010   -0.0050   -0.0013
          20    0.0077    0.0008    0.0046   -0.0036   -0.0007   -0.0012   -0.0093    0.0082
          21   -0.0057   -0.0014   -0.0114    0.0008   -0.0008    0.0011   -0.0005   -0.0076
          22   -0.0010   -0.0006   -0.0001    0.0002   -0.0009    0.0055    0.0003    0.0028
          23   -0.0155   -0.0132    0.0048   -0.0016    0.0026    0.0076    0.0003    0.0014
          24   -0.0089   -0.0007    0.0008    0.0001    0.0007   -0.0009   -0.0004   -0.0009
          25   -0.0049    0.0094   -0.0065    0.0021   -0.0024   -0.0177   -0.0007    0.0021
          26    0.0362    0.0056   -0.0062    0.0046   -0.0032   -0.0011   -0.0008   -0.0050
          27   -0.0012    0.0423   -0.0157    0.0104   -0.0165    0.0022   -0.0010   -0.0071
          28    0.0217    0.0269    0.0141   -0.0316    0.0288    0.0048    0.0189    0.0084
          29    0.0068   -0.0066    0.0212    0.0179    0.0149    0.0040    0.0097   -0.0082
          30   -0.0009    0.0003    0.0032   -0.0129   -0.0109    0.0013    0.0034   -0.0020
          31   -0.0031    0.0027   -0.0020    0.0026   -0.0002    0.0030    0.0000   -0.0059
          32    0.0366    0.0036   -0.0085    0.0054   -0.0050   -0.0086   -0.0012   -0.0009
          33   -0.0053   -0.0267    0.0080   -0.0049    0.0035    0.0010    0.0009    0.0037
          34    0.0035   -0.0087    0.0038    0.0113   -0.0017    0.0016    0.0014   -0.0146
          35   -0.0100   -0.0229    0.0046    0.0306    0.0016    0.0033    0.0052   -0.0180
          36    0.0032   -0.0156    0.0233    0.0248   -0.0230   -0.0005   -0.0042   -0.0178
          37   -0.0217    0.0156   -0.0522    0.0055   -0.0335   -0.0030    0.0212   -0.0173
          38   -0.0238    0.0653    0.0101    0.0102   -0.0259   -0.0061   -0.0059   -0.0133
          39    0.0228    0.0503   -0.0257    0.0179   -0.0160   -0.0099   -0.0010   -0.0130
          40   -0.0366    0.0097   -0.0014   -0.0113   -0.0141    0.0083    0.0075   -0.0113
          41    0.0153   -0.0084   -0.0136   -0.0298   -0.0139   -0.0009    0.0024   -0.0034
          42    0.0108    0.0015    0.0458   -0.0205   -0.0011   -0.0017    0.0021    0.0263
          43    0.0013   -0.0301   -0.0167   -0.0001   -0.0091   -0.0035   -0.0021    0.0262
          44   -0.0072    0.0071    0.0089   -0.0244    0.0465    0.0153    0.0046   -0.0602
          45   -0.0332    0.0012    0.0221    0.0606   -0.0417   -0.0159   -0.0246    0.0746
          46    0.0275   -0.0550   -0.0471   -0.0701    0.0565    0.0199    0.0249   -0.0564
          47   -0.0544    0.0342    0.0175   -0.0139   -0.0102   -0.0025    0.0015    0.0068
          48   -0.0202   -0.0188   -0.0166   -0.0440    0.0278    0.0107    0.0154   -0.0231
          49   -0.0059    0.0115    0.0198    0.0059    0.0086    0.0041   -0.0121   -0.0098
          50    0.0106   -0.0211   -0.0308   -0.0124   -0.0405   -0.0194    0.0927    0.0323
          51   -0.0096    0.0003   -0.0195    0.0032   -0.0283   -0.0116    0.1328    0.0038
          52   -0.0104    0.0059    0.0174    0.0162   -0.0301   -0.0133    0.1469   -0.0015
          53    0.0186   -0.0068   -0.0233   -0.0277    0.0069   -0.0003   -0.0368    0.0247
          54   -0.0086   -0.0024   -0.0182    0.0009    0.0103    0.0082   -0.0775   -0.0143
          55   -0.0012   -0.0582    0.0180   -0.0158    0.0282   -0.1299   -0.0076   -0.0217
          56   -0.0133   -0.0210    0.0056   -0.0006   -0.0037    0.0546    0.0037    0.0179
          57    0.0119   -0.0363    0.0083   -0.0058    0.0118   -0.0343   -0.0022   -0.0017
          58    0.0127   -0.0177    0.0006    0.0019   -0.0022    0.0237    0.0009    0.0034
          59   -0.0170   -0.0340    0.0109   -0.0065    0.0169   -0.0707   -0.0052   -0.0271
          60    0.0335    0.0177   -0.0158    0.0185   -0.0241    0.1360    0.0058    0.0138
          61    0.0091   -0.0038    0.0274   -0.0580   -0.0271    0.0078   -0.0046   -0.0530
          62   -0.0264    0.0042    0.0004   -0.0122    0.0088   -0.0045   -0.0023    0.0249
          63   -0.0398    0.0416   -0.0089    0.0535    0.0174   -0.0197   -0.0155    0.0768
          64   -0.0087   -0.0050   -0.0180    0.0581    0.0287   -0.0030   -0.0019    0.0205
          65   -0.0160   -0.0340    0.0074   -0.1031    0.0009    0.0181    0.0164   -0.0554
          66   -0.0273   -0.0129   -0.0128   -0.0308    0.0209    0.0084    0.0096   -0.0168
          67   -0.0077   -0.0004    0.0025   -0.0039    0.0097   -0.0671   -0.0043   -0.0191
          68   -0.0382   -0.0024    0.0047    0.0000   -0.0083    0.0824    0.0064    0.0227
          69   -0.0256    0.0062    0.0016   -0.0004   -0.0024    0.0207    0.0018    0.0048
          70   -0.0181    0.0146    0.0007   -0.0029    0.0041   -0.0380   -0.0015   -0.0122
          71    0.0210   -0.0356    0.0037    0.0009    0.0050    0.0035   -0.0020    0.0019
[...]
 EFF. MASS  11.7983        C  9 --  H 30          +13.2% ( 53.5%)     3.9%

 VIBRATION   71   71A       ATOM PAIR        ENERGY CONTRIBUTION    RADIAL
 FREQ.      2810.99        C  1 --  H 13          +95.6% ( 99.4%)   100.0%
 T-DIPOLE    0.1108        C  1 --  C  2           +1.1% ( 10.6%)     7.9%
 TRAVEL      0.1291        C  1 --  C  9           +1.1% ( 10.5%)    12.4%
 RED. MASS   0.9084        C  1 --  C  3           +1.1% ( 10.5%)     9.4%
 EFF. MASS   1.4402

 VIBRATION   72   72A       ATOM PAIR        ENERGY CONTRIBUTION    RADIAL
 FREQ.      2853.68        C  2 --  H 14          +96.1% ( 99.5%)   100.0%
 T-DIPOLE    0.0627        C  2 --  C  4           +1.0% ( 10.2%)     8.2%
 TRAVEL      0.1283        C  2 --  C 10           +1.0% ( 10.2%)     7.0%
 RED. MASS   0.9128        C  1 --  C  2           +1.0% ( 10.0%)     9.3%
 EFF. MASS   1.4361

 VIBRATION   73   73A       ATOM PAIR        ENERGY CONTRIBUTION    RADIAL
 FREQ.      2944.76        C  5 --  H 22          +52.7% ( 75.4%)    97.5%
 T-DIPOLE    0.0123        C  5 --  H 21          +34.2% ( 60.8%)    95.1%
 TRAVEL      0.1219        C  3 --  H 16           +7.1% ( 27.7%)    97.6%
 RED. MASS   0.4345        C  3 --  H 15           +3.7% ( 19.9%)    93.8%
 EFF. MASS   1.5421

 VIBRATION   74   74A       ATOM PAIR        ENERGY CONTRIBUTION    RADIAL
 FREQ.      2946.04        C  6 --  H 20          +51.3% ( 74.4%)    96.7%
 T-DIPOLE    0.0158        C  6 --  H 19          +45.8% ( 70.3%)    96.2%
 TRAVEL      0.1217        C  6 --  C  8           +1.2% ( 11.2%)     0.0%
 RED. MASS   0.5148        C  6 --  C 11           +1.2% ( 11.2%)     0.2%
 EFF. MASS   1.5445

 VIBRATION   75   75A       ATOM PAIR        ENERGY CONTRIBUTION    RADIAL
 FREQ.      2950.94        C  4 --  H 18          +58.3% ( 79.3%)    97.6%
 T-DIPOLE    0.0297        C  4 --  H 17          +38.9% ( 64.7%)    95.1%
 TRAVEL      0.1215        C  4 --  C  7           +1.2% ( 11.4%)     0.1%
 RED. MASS   0.5335        C  2 --  C  4           +1.2% ( 11.3%)     0.1%
 EFF. MASS   1.5475

 VIBRATION   76   76A       ATOM PAIR        ENERGY CONTRIBUTION    RADIAL
 FREQ.      2962.04        C  3 --  H 16          +51.3% ( 74.2%)    97.4%
 T-DIPOLE    0.0237        C  3 --  H 15          +35.7% ( 61.9%)    95.4%
 TRAVEL      0.1217        C  5 --  H 22           +5.4% ( 24.2%)    97.0%
 RED. MASS   0.4283        C  5 --  H 21           +5.2% ( 23.7%)    96.7%
 EFF. MASS   1.5361

 VIBRATION   77   77A       ATOM PAIR        ENERGY CONTRIBUTION    RADIAL
 FREQ.      3025.02        C  6 --  H 19          +48.2% ( 68.6%)    97.9%
 T-DIPOLE    0.0528        C  6 --  H 20          +44.6% ( 66.0%)    97.5%
 TRAVEL      0.1312        C 11 --  H 29           +4.3% ( 20.4%)    99.9%
 RED. MASS   0.4342        C  9 --  H 30           +0.8% (  9.0%)    99.6%
 EFF. MASS   1.2949

 VIBRATION   78   78A       ATOM PAIR        ENERGY CONTRIBUTION    RADIAL
 FREQ.      3025.89        C  5 --  H 21          +54.9% ( 73.1%)    98.6%
 T-DIPOLE    0.0405        C  5 --  H 22          +36.9% ( 60.0%)    96.2%
 TRAVEL      0.1317        C  3 --  H 16           +2.6% ( 15.9%)    97.7%
 RED. MASS   0.4351        C  3 --  H 15           +2.3% ( 15.0%)    97.5%
 EFF. MASS   1.2853

 VIBRATION   79   79A       ATOM PAIR        ENERGY CONTRIBUTION    RADIAL
 FREQ.      3026.64        C  4 --  H 17          +56.9% ( 74.5%)    98.5%
 T-DIPOLE    0.0535        C  4 --  H 18          +37.8% ( 60.7%)    96.0%
 TRAVEL      0.1317        C  7 --  H 28           +2.5% ( 15.7%)    98.8%
 RED. MASS   0.4638        C  4 --  C  7           +0.7% (  8.0%)    22.9%
 EFF. MASS   1.2847

 VIBRATION   80   80A       ATOM PAIR        ENERGY CONTRIBUTION    RADIAL
 FREQ.      3031.41        C 11 --  H 29          +82.0% ( 91.5%)   100.0%
 T-DIPOLE    0.3033        C  9 --  H 30          +12.0% ( 35.0%)    99.9%
 TRAVEL      0.1238        C  6 --  H 19           +1.9% ( 14.0%)    99.2%
 RED. MASS   0.6667        C  6 --  C 11           +1.1% ( 10.4%)    14.3%
 EFF. MASS   1.4521

 VIBRATION   81   81A       ATOM PAIR        ENERGY CONTRIBUTION    RADIAL
 FREQ.      3034.52        C  9 --  H 30          +83.9% ( 93.1%)   100.0%
 T-DIPOLE    0.1480        C 11 --  H 29          +10.2% ( 32.4%)    99.7%
 TRAVEL      0.1195        C  9 --  C 11           +1.9% ( 14.1%)    40.4%
 RED. MASS   0.7105        C  6 --  H 19           +1.6% ( 12.7%)    99.2%
 EFF. MASS   1.5558

 VIBRATION   82   82A       ATOM PAIR        ENERGY CONTRIBUTION    RADIAL
 FREQ.      3039.06        C 10 --  H 32          +55.4% ( 75.1%)   100.0%
 T-DIPOLE    0.2257        C 12 --  H 31          +22.4% ( 47.7%)   100.0%
 TRAVEL      0.1249        C  3 --  H 15          +11.3% ( 33.9%)    98.7%
 RED. MASS   0.3614        C  3 --  H 16           +7.3% ( 27.2%)    96.1%
 EFF. MASS   1.4234

 VIBRATION   83   83A       ATOM PAIR        ENERGY CONTRIBUTION    RADIAL
 FREQ.      3040.07        C  3 --  H 15          +44.6% ( 66.2%)    98.7%
 T-DIPOLE    0.1599        C  3 --  H 16          +28.0% ( 52.5%)    95.9%
 TRAVEL      0.1298        C 10 --  H 32          +15.4% ( 38.9%)   100.0%
 RED. MASS   0.3036        C  5 --  H 21           +3.5% ( 18.7%)    99.1%
 EFF. MASS   1.3172

 VIBRATION   84   84A       ATOM PAIR        ENERGY CONTRIBUTION    RADIAL
 FREQ.      3041.08        C  7 --  H 28          +75.3% ( 89.0%)    99.4%
 T-DIPOLE    0.0351        C  7 --  H 27          +12.4% ( 36.1%)    83.5%
 TRAVEL      0.1227        C  7 --  H 26           +3.9% ( 20.4%)    55.2%
 RED. MASS   0.5991        C  4 --  H 17           +2.6% ( 16.4%)    99.6%
 EFF. MASS   1.4735

 VIBRATION   85   85A       ATOM PAIR        ENERGY CONTRIBUTION    RADIAL
 FREQ.      3062.07        C 12 --  H 31          +69.8% ( 84.7%)    99.9%
 T-DIPOLE    0.2814        C 10 --  H 32          +25.3% ( 51.0%)    99.9%
 TRAVEL      0.1182        C 10 --  C 12           +1.9% ( 14.1%)    90.9%
 RED. MASS   0.5492        C  5 --  C 12           +1.1% ( 10.7%)    18.7%
 EFF. MASS   1.5770

 VIBRATION   86   86A       ATOM PAIR        ENERGY CONTRIBUTION    RADIAL
 FREQ.      3080.88        C  8 --  H 23          +59.9% ( 79.9%)    98.3%
 T-DIPOLE    0.0094        C  8 --  H 25          +35.5% ( 61.4%)    94.4%
 TRAVEL      0.1207        C  8 --  H 24           +3.4% ( 19.0%)    41.2%
 RED. MASS   0.5138        C  6 --  C  8           +1.0% ( 10.2%)     0.0%
 EFF. MASS   1.5015

 VIBRATION   87   87A       ATOM PAIR        ENERGY CONTRIBUTION    RADIAL
 FREQ.      3086.05        C  8 --  H 24          +60.9% ( 80.5%)    98.6%
 T-DIPOLE    0.0086        C  8 --  H 25          +30.2% ( 56.6%)    92.6%
 TRAVEL      0.1205        C  8 --  H 23           +7.5% ( 28.2%)    66.0%
 RED. MASS   0.4962        C  6 --  C  8           +1.0% ( 10.3%)     0.0%
 EFF. MASS   1.5045

 VIBRATION   88   88A       ATOM PAIR        ENERGY CONTRIBUTION    RADIAL
 FREQ.      3086.42        C  7 --  H 27          +48.5% ( 71.8%)    96.7%
 T-DIPOLE    0.0172        C  7 --  H 26          +47.7% ( 71.2%)    97.3%
 TRAVEL      0.1204        C  7 --  H 28           +2.4% ( 16.1%)    27.6%
 RED. MASS   0.4934        C  4 --  C  7           +1.0% ( 10.4%)     0.0%
 EFF. MASS   1.5067

 VIBRATION   89   89A       ATOM PAIR        ENERGY CONTRIBUTION    RADIAL
 FREQ.      3166.07        C  7 --  H 26          +48.5% ( 67.3%)    98.5%
 T-DIPOLE    0.0140        C  7 --  H 27          +37.9% ( 59.5%)    97.2%
 TRAVEL      0.1357        C  7 --  H 28          +13.3% ( 35.3%)    88.4%
 RED. MASS   0.3815        C  4 --  C  7           +0.3% (  5.5%)    82.9%
 EFF. MASS   1.1564

 VIBRATION   90   90A       ATOM PAIR        ENERGY CONTRIBUTION    RADIAL
 FREQ.      3182.45        C  8 --  H 24          +34.8% ( 56.8%)    97.4%
 T-DIPOLE    0.0179        C  8 --  H 25          +33.5% ( 55.7%)    97.2%
 TRAVEL      0.1366        C  8 --  H 23          +31.4% ( 53.9%)    96.8%
 RED. MASS   0.3275        C  6 --  C  8           +0.3% (  5.1%)    99.8%
 EFF. MASS   1.1359

 SYMMETRY NUMBER FOR POINT-GROUP C1  =  1


          SYSTEM IS A GROUND STATE


    NULL



          MOLECULE IS NOT LINEAR

          THERE ARE 90 GENUINE VIBRATIONS IN THIS SYSTEM
          THIS THERMODYNAMICS CALCULATION IS LIMITED TO
          MOLECULES WHICH HAVE NO INTERNAL ROTATIONS




                    CALCULATED THERMODYNAMIC PROPERTIES
                                          *
   TEMP. (K)   PARTITION FUNCTION   H.O.F.    ENTHALPY  HEAT CAPACITY ENTROPY
                                   KCAL/MOL   CAL/MOLE    CAL/K/MOL  CAL/K/MOL


 298.00  VIB.     0.2141D+05                  6504.6594    44.4495    41.6435
         ROT.     0.1495D+07                   888.2813     2.9808    31.2341
         INT.     0.3201D+11                  7392.9407    47.4303    72.8776
         TRA.     0.2036D+28                  1480.4688     4.9680    41.1956
         TOT.                       -9.805    8873.4096    52.3983   114.0733

 200.00  VIB.     0.5786D+03                  2946.8986    28.7335    27.3743
         ROT.     0.8219D+06                   596.1620     2.9808    30.0454
         INT.     0.4756D+09                  3543.0606    31.7143    57.4197
         TRA.     0.1119D+28                   993.6033     4.9680    39.2145
         TOT.                      -14.141    4536.6638    36.6823    96.6342

 210.00  VIB.     0.8379D+03                  3241.3526    30.1644    28.8106
         ROT.     0.8843D+06                   625.9700     2.9808    30.1908
         INT.     0.7410D+09                  3867.3227    33.1452    59.0015
         TRA.     0.1204D+28                  1043.2834     4.9680    39.4569
         TOT.                      -13.767    4910.6061    38.1132    98.4584

 220.00  VIB.     0.1212D+04                  3550.3302    31.6384    30.2477
         ROT.     0.9483D+06                   655.7781     2.9808    30.3295
         INT.     0.1150D+10                  4206.1083    34.6192    60.5772
         TRA.     0.1291D+28                  1092.9636     4.9680    39.6880
         TOT.                      -13.379    5299.0719    39.5872   100.2652

 230.00  VIB.     0.1753D+04                  3874.2668    33.1562    31.6874
         ROT.     0.1014D+07                   685.5862     2.9808    30.4620
         INT.     0.1777D+10                  4559.8530    36.1370    62.1494
         TRA.     0.1380D+28                  1142.6437     4.9680    39.9088
         TOT.                      -12.976    5702.4968    41.1050   102.0583

 240.00  VIB.     0.2534D+04                  4213.5962    34.7167    33.1314
         ROT.     0.1080D+07                   715.3943     2.9808    30.5889
         INT.     0.2738D+10                  4928.9905    37.6975    63.7202
         TRA.     0.1471D+28                  1192.3239     4.9680    40.1203
         TOT.                      -12.557    6121.3144    42.6655   103.8405

 250.00  VIB.     0.3661D+04                  4568.7363    36.3178    34.5809
         ROT.     0.1149D+07                   745.2024     2.9808    30.7106
         INT.     0.4205D+10                  5313.9387    39.2987    65.2914
         TRA.     0.1564D+28                  1242.0041     4.9680    40.3231
         TOT.                      -12.122    6555.9428    44.2667   105.6145

 260.00  VIB.     0.5288D+04                  4940.0779    37.9564    36.0371
         ROT.     0.1218D+07                   775.0105     2.9808    30.8275
         INT.     0.6443D+10                  5715.0884    40.9372    66.8646
         TRA.     0.1659D+28                  1291.6842     4.9680    40.5179
         TOT.                      -11.671    7006.7727    45.9052   107.3825

 270.00  VIB.     0.7639D+04                  5327.9762    39.6285    37.5008
         ROT.     0.1289D+07                   804.8186     2.9808    30.9400
         INT.     0.9848D+10                  6132.7948    42.6093    68.4408
         TRA.     0.1756D+28                  1341.3644     4.9680    40.7054
         TOT.                      -11.204    7474.1592    47.5773   109.1463

 280.00  VIB.     0.1104D+05                  5732.7442    41.3296    38.9727
         ROT.     0.1362D+07                   834.6267     2.9808    31.0484
         INT.     0.1503D+11                  6567.3709    44.3104    70.0211
         TRA.     0.1854D+28                  1391.0445     4.9680    40.8861
         TOT.                      -10.720    7958.4155    49.2784   110.9072

 290.00  VIB.     0.1595D+05                  6154.6488    43.0550    40.4531
         ROT.     0.1435D+07                   864.4348     2.9808    31.1530
         INT.     0.2288D+11                  7019.0836    46.0358    71.6060
         TRA.     0.1954D+28                  1440.7247     4.9680    41.0604
         TOT.                      -10.218    8459.8084    51.0038   112.6665

 300.00  VIB.     0.2305D+05                  6593.9086    44.7998    41.9420
         ROT.     0.1510D+07                   894.2429     2.9808    31.2540
         INT.     0.3481D+11                  7488.1516    47.7806    73.1961
         TRA.     0.2056D+28                  1490.4049     4.9680    41.2289
         TOT.                       -9.699    8978.5564    52.7486   114.4249

 310.00  VIB.     0.3334D+05                  7050.6931    46.5591    43.4397
         ROT.     0.1586D+07                   924.0510     2.9808    31.3518
         INT.     0.5287D+11                  7974.7442    49.5399    74.7914
         TRA.     0.2160D+28                  1540.0850     4.9680    41.3918
         TOT.                       -9.163    9514.8292    54.5079   116.1832

 320.00  VIB.     0.4824D+05                  7525.1234    48.3282    44.9458
         ROT.     0.1663D+07                   953.8591     2.9808    31.4464
         INT.     0.8024D+11                  8478.9825    51.3090    76.3922
         TRA.     0.2265D+28                  1589.7652     4.9680    41.5495
         TOT.                       -8.609   10068.7477    56.2770   117.9417

 330.00  VIB.     0.6984D+05                  8017.2737    50.1024    46.4601
         ROT.     0.1742D+07                   983.6672     2.9808    31.5381
         INT.     0.1217D+12                  9000.9409    53.0832    77.9982
         TRA.     0.2372D+28                  1639.4454     4.9680    41.7024
         TOT.                       -8.038   10640.3863    58.0512   119.7006

 340.00  VIB.     0.1012D+06                  8527.1739    51.8775    47.9821
         ROT.     0.1822D+07                  1013.4753     2.9808    31.6271
         INT.     0.1844D+12                  9540.6492    54.8583    79.6093
         TRA.     0.2481D+28                  1689.1255     4.9680    41.8507
         TOT.                       -7.448   11229.7748    59.8263   121.4599

 350.00  VIB.     0.1467D+06                  9054.8125    53.6494    49.5115
         ROT.     0.1903D+07                  1043.2834     2.9808    31.7135
         INT.     0.2792D+12                 10098.0959    56.6302    81.2250
         TRA.     0.2591D+28                  1738.8057     4.9680    41.9947
         TOT.                       -6.841   11836.9016    61.5982   123.2197

 360.00  VIB.     0.2129D+06                  9600.1397    55.4146    51.0476
         ROT.     0.1985D+07                  1073.0915     2.9808    31.7975
         INT.     0.4227D+12                 10673.2312    58.3954    82.8451
         TRA.     0.2703D+28                  1788.4859     4.9680    42.1347
         TOT.                       -6.216   12461.7171    63.3634   124.9798

 370.00  VIB.     0.3093D+06                 10163.0711    57.1697    52.5899
         ROT.     0.2068D+07                  1102.8996     2.9808    31.8792
         INT.     0.6396D+12                 11265.9707    60.1505    84.4691
         TRA.     0.2817D+28                  1838.1660     4.9680    42.2708
         TOT.                       -5.574   13104.1367    65.1186   126.7398

 380.00  VIB.     0.4495D+06                 10743.4911    58.9119    54.1377
         ROT.     0.2153D+07                  1132.7077     2.9808    31.9587
         INT.     0.9676D+12                 11876.1988    61.8927    86.0963
         TRA.     0.2932D+28                  1887.8462     4.9680    42.4033
         TOT.                       -4.914   13764.0450    66.8607   128.4996

 390.00  VIB.     0.6539D+06                 11341.2567    60.6385    55.6903
         ROT.     0.2238D+07                  1162.5158     2.9808    32.0361
         INT.     0.1464D+13                 12503.7725    63.6193    87.7264
         TRA.     0.3048D+28                  1937.5263     4.9680    42.5323
         TOT.                       -4.237   14441.2989    68.5873   130.2587

 400.00  VIB.     0.9520D+06                 11956.2008    62.3472    57.2471
         ROT.     0.2325D+07                  1192.3239     2.9808    32.1116
         INT.     0.2213D+13                 13148.5247    65.3280    89.3587
         TRA.     0.3166D+28                  1987.2065     4.9680    42.6581
         TOT.                       -3.542   15135.7312    70.2961   132.0167

   *: NOTE: HEATS OF FORMATION ARE RELATIVE TO THE
            ELEMENTS IN THEIR STANDARD STATE AT 298K
              (=  Standard Enthalpy of Formation).

            Hvib:  Zero-point energy is not included.
                   frequencies of less than zero cm-1 are not included.
            Hrot = (3/2)RT
            Htra = (3/2)RT + pV = (5/2)RT

            Heat capacity is Cp, not Cv

           For more information, see: HTTP://OpenMOPAC.net/Manual/thermochemistry.html


           FORCE CONSTANT IN CARTESIAN COORDINATES (Millidynes/A)

    ATOM   CHEMICAL       X               Y               Z
   NUMBER   SYMBOL  FORCE CONSTANT  FORCE CONSTANT  FORCE CONSTANT

      1       C        7.670107        8.608569        8.861568
      2       C        8.046772        8.541135        8.421307
      3       C        8.652165        7.971398        8.333574
      4       C        8.452022        7.957080        8.317766
      5       C        8.917271        8.503485        8.132408
      6       C        8.117033        8.499589        8.813619
      7       C        8.081180        8.503089        8.218656
      8       C        8.212260        8.300382        8.332940
      9       C        5.747730       12.433004        9.108434
     10       C       10.942552       10.423900        5.910459
     11       C        5.499827       12.485351        9.225046
     12       C       10.780947       10.358530        6.173871
     13       H        1.156928        1.574265        3.280230
     14       H        1.124040        0.910822        3.871943
     15       H        5.008783        0.718355        0.713253
     16       H        1.109241        1.688812        3.604177
     17       H        4.951406        0.728362        0.741815
     18       H        1.230172        2.504482        2.615138
     19       H        1.070022        1.599911        3.732538
     20       H        4.920268        0.694682        0.671319
     21       H        0.840283        4.745405        0.768047
     22       H        1.641057        1.125793        3.493105
     23       H        1.130602        1.774062        3.881995
     24       H        1.337415        1.765381        3.690708
     25       H        5.374858        0.726272        0.674378
     26       H        0.991069        4.983830        0.812756
     27       H        1.611602        2.180534        2.960473
     28       H        5.110568        0.769792        0.831364
     29       H        0.561369        1.510528        4.121535
     30       H        0.585659        1.505794        4.126960
     31       H        1.576707        2.551003        2.128402
     32       H        4.878006        0.677330        0.682042



 TOTAL CPU TIME:             8.42 SECONDS

 == MOPAC DONE ==
