 *******************************************************************************
 ** Site#: 14399           For non-commercial use only        Version 13.159M **
 *******************************************************************************
 ** Cite this work as: MOPAC2012, James J. P. Stewart, Stewart Computational  **
 ** Chemistry, Version 13.159M web: HTTP://OpenMOPAC.net  Days remaining:   6 **
 *******************************************************************************
 **                                                                           **
 **                                MOPAC2012                                  **
 **                                                                           **
 *******************************************************************************

                            PM3 CALCULATION RESULTS


 *******************************************************************************
 *  CALCULATION DONE:                                Mon Jun  2 11:05:12 2014  *
 *  PM3      - The PM3 Hamiltonian to be used
 *  PRECISE  - CRITERIA TO BE INCREASED BY 100 TIMES
 *  NOSYM    - POINT-GROUP SYMMETRY SET TO C1
 *  T=       - A TIME OF 172800.0 SECONDS REQUESTED
 *  DUMP=N   - RESTART FILE WRITTEN EVERY  7200.000 SECONDS
 *******************************************************************************
pm3  precise nosym
 InChI=1S/C11H18/c1-4-10-8-6-7-9(3)11(10)5-2/h5-6,8-11H,2,4,7H2,1,3H3

   ATOM   CHEMICAL          X               Y               Z
  NUMBER   SYMBOL      (ANGSTROMS)     (ANGSTROMS)     (ANGSTROMS)
 
     1       C         -1.39700000  *   0.92140000  *  -0.15460000  *
     2       C         -0.42040000  *  -0.27780000  *  -0.12610000  *
     3       C          0.71020000  *  -0.05090000  *   0.91430000  *
     4       C          1.85770000  *  -1.08010000  *   0.83660000  *
     5       C         -0.63810000  *   2.22850000  *  -0.45460000  *
     6       C         -2.55260000  *   0.75190000  *  -1.15120000  *
     7       C          2.68210000  *  -1.06680000  *  -0.45010000  *
     8       C          1.25030000  *   1.36240000  *   0.93030000  *
     9       C         -1.14290000  *  -1.57340000  *   0.16830000  *
    10       C          0.64020000  *   2.38640000  *   0.32010000  *
    11       C         -1.15860000  *  -2.60360000  *  -0.68140000  *
    12       H         -1.85410000  *   1.02440000  *   0.85960000  *
    13       H          0.03950000  *  -0.31720000  *  -1.14230000  *
    14       H          0.26670000  *  -0.17250000  *   1.93190000  *
    15       H          2.55410000  *  -0.91640000  *   1.69270000  *
    16       H          1.45870000  *  -2.11000000  *   0.98610000  *
    17       H         -1.29680000  *   3.09540000  *  -0.21500000  *
    18       H         -0.37510000  *   2.30330000  *  -1.53550000  *
    19       H          3.09100000  *  -0.05320000  *  -0.66160000  *
    20       H          3.54240000  *  -1.76650000  *  -0.34980000  *
    21       H          2.08330000  *  -1.41180000  *  -1.32190000  *
    22       H         -3.20900000  *   1.65220000  *  -1.15720000  *
    23       H         -3.20330000  *  -0.10870000  *  -0.87600000  *
    24       H         -2.17300000  *   0.58620000  *  -2.18550000  *
    25       H         -1.67330000  *  -1.67130000  *   1.11500000  *
    26       H          1.09860000  *   3.37350000  *   0.36160000  *
    27       H          2.15680000  *   1.57130000  *   1.49810000  *
    28       H         -1.69340000  *  -3.51520000  *  -0.42240000  *
    29       H         -0.64390000  *  -2.56110000  *  -1.63980000  *
 


          CARTESIAN COORDINATES 

    NO.       ATOM         X         Y         Z

     1         C       -1.3970    0.9214   -0.1546
     2         C       -0.4204   -0.2778   -0.1261
     3         C        0.7102   -0.0509    0.9143
     4         C        1.8577   -1.0801    0.8366
     5         C       -0.6381    2.2285   -0.4546
     6         C       -2.5526    0.7519   -1.1512
     7         C        2.6821   -1.0668   -0.4501
     8         C        1.2503    1.3624    0.9303
     9         C       -1.1429   -1.5734    0.1683
    10         C        0.6402    2.3864    0.3201
    11         C       -1.1586   -2.6036   -0.6814
    12         H       -1.8541    1.0244    0.8596
    13         H        0.0395   -0.3172   -1.1423
    14         H        0.2667   -0.1725    1.9319
    15         H        2.5541   -0.9164    1.6927
    16         H        1.4587   -2.1100    0.9861
    17         H       -1.2968    3.0954   -0.2150
    18         H       -0.3751    2.3033   -1.5355
    19         H        3.0910   -0.0532   -0.6616
    20         H        3.5424   -1.7665   -0.3498
    21         H        2.0833   -1.4118   -1.3219
    22         H       -3.2090    1.6522   -1.1572
    23         H       -3.2033   -0.1087   -0.8760
    24         H       -2.1730    0.5862   -2.1855
    25         H       -1.6733   -1.6713    1.1150
    26         H        1.0986    3.3735    0.3616
    27         H        2.1568    1.5713    1.4981
    28         H       -1.6934   -3.5152   -0.4224
    29         H       -0.6439   -2.5611   -1.6398

  H: (PM3): J. J. P. STEWART, J. COMP. CHEM. 10, 209 (1989).
  C: (PM3): J. J. P. STEWART, J. COMP. CHEM. 10, 209 (1989).

           Empirical Formula: C11 H18  =    29 atoms



      MOLECULAR POINT GROUP   :   C1  


      RHF CALCULATION, NO. OF DOUBLY OCCUPIED LEVELS =   31

      Geometry optimization using EF

          DIAGONAL MATRIX USED AS START HESSIAN

 CYCLE:     1 TIME:   0.015 TIME LEFT:  2.00D  GRAD.:    58.556 HEAT: 5.270896
 CYCLE:     2 TIME:   0.030 TIME LEFT:  2.00D  GRAD.:    56.528 HEAT: 4.210384
 CYCLE:     3 TIME:   0.012 TIME LEFT:  2.00D  GRAD.:    80.815 HEAT: 4.165267
 CYCLE:     4 TIME:   0.011 TIME LEFT:  2.00D  GRAD.:    66.131 HEAT: 3.573748
 CYCLE:     5 TIME:   0.021 TIME LEFT:  2.00D  GRAD.:    43.267 HEAT: 2.853134
 CYCLE:     6 TIME:   0.021 TIME LEFT:  2.00D  GRAD.:    18.185 HEAT: 2.492433
 CYCLE:     7 TIME:   0.012 TIME LEFT:  2.00D  GRAD.:    27.627 HEAT: 2.403278
 CYCLE:     8 TIME:   0.011 TIME LEFT:  2.00D  GRAD.:    18.545 HEAT: 2.095241
 CYCLE:     9 TIME:   0.020 TIME LEFT:  2.00D  GRAD.:    16.301 HEAT: 1.974930
 CYCLE:    10 TIME:   0.011 TIME LEFT:  2.00D  GRAD.:    21.220 HEAT: 1.880410
 CYCLE:    11 TIME:   0.011 TIME LEFT:  2.00D  GRAD.:    17.127 HEAT: 1.747619
 CYCLE:    12 TIME:   0.011 TIME LEFT:  2.00D  GRAD.:    20.718 HEAT: 1.716959
 CYCLE:    13 TIME:   0.011 TIME LEFT:  2.00D  GRAD.:    20.001 HEAT: 1.679632
 CYCLE:    14 TIME:   0.011 TIME LEFT:  2.00D  GRAD.:    22.144 HEAT: 1.660961
 CYCLE:    15 TIME:   0.020 TIME LEFT:  2.00D  GRAD.:    12.004 HEAT: 1.551301
 CYCLE:    16 TIME:   0.020 TIME LEFT:  2.00D  GRAD.:     9.713 HEAT: 1.519391
 CYCLE:    17 TIME:   0.011 TIME LEFT:  2.00D  GRAD.:     8.442 HEAT: 1.492846
 CYCLE:    18 TIME:   0.020 TIME LEFT:  2.00D  GRAD.:     7.000 HEAT: 1.469978
 CYCLE:    19 TIME:   0.011 TIME LEFT:  2.00D  GRAD.:     7.946 HEAT: 1.450253
 CYCLE:    20 TIME:   0.011 TIME LEFT:  2.00D  GRAD.:     8.456 HEAT: 1.418739
 CYCLE:    21 TIME:   0.011 TIME LEFT:  2.00D  GRAD.:    11.901 HEAT: 1.396452
 CYCLE:    22 TIME:   0.011 TIME LEFT:  2.00D  GRAD.:     6.415 HEAT: 1.339420
 CYCLE:    23 TIME:   0.020 TIME LEFT:  2.00D  GRAD.:    11.813 HEAT: 1.337064
 CYCLE:    24 TIME:   0.011 TIME LEFT:  2.00D  GRAD.:     6.719 HEAT: 1.289625
 CYCLE:    25 TIME:   0.020 TIME LEFT:  2.00D  GRAD.:    11.335 HEAT: 1.289518
 CYCLE:    26 TIME:   0.011 TIME LEFT:  2.00D  GRAD.:     4.923 HEAT: 1.250326
 CYCLE:    27 TIME:   0.011 TIME LEFT:  2.00D  GRAD.:     9.588 HEAT: 1.249550
 CYCLE:    28 TIME:   0.011 TIME LEFT:  2.00D  GRAD.:     5.406 HEAT: 1.218848
 CYCLE:    29 TIME:   0.020 TIME LEFT:  2.00D  GRAD.:     6.956 HEAT: 1.213370
 CYCLE:    30 TIME:   0.011 TIME LEFT:  2.00D  GRAD.:     2.799 HEAT: 1.193007
 CYCLE:    31 TIME:   0.011 TIME LEFT:  2.00D  GRAD.:     4.308 HEAT: 1.184292
 CYCLE:    32 TIME:   0.011 TIME LEFT:  2.00D  GRAD.:     3.529 HEAT: 1.171622
 CYCLE:    33 TIME:   0.011 TIME LEFT:  2.00D  GRAD.:     5.763 HEAT: 1.169886
 CYCLE:    34 TIME:   0.011 TIME LEFT:  2.00D  GRAD.:     3.766 HEAT: 1.159087
 CYCLE:    35 TIME:   0.011 TIME LEFT:  2.00D  GRAD.:     4.435 HEAT: 1.155231
 CYCLE:    36 TIME:   0.011 TIME LEFT:  2.00D  GRAD.:     1.931 HEAT: 1.146584
 CYCLE:    37 TIME:   0.011 TIME LEFT:  2.00D  GRAD.:     2.961 HEAT: 1.140907
 CYCLE:    38 TIME:   0.011 TIME LEFT:  2.00D  GRAD.:     2.562 HEAT: 1.133396
 CYCLE:    39 TIME:   0.011 TIME LEFT:  2.00D  GRAD.:     2.567 HEAT: 1.126612
 CYCLE:    40 TIME:   0.011 TIME LEFT:  2.00D  GRAD.:     2.376 HEAT: 1.120153
 CYCLE:    41 TIME:   0.011 TIME LEFT:  2.00D  GRAD.:     2.233 HEAT: 1.112359
 CYCLE:    42 TIME:   0.011 TIME LEFT:  2.00D  GRAD.:     1.850 HEAT: 1.103649
 CYCLE:    43 TIME:   0.011 TIME LEFT:  2.00D  GRAD.:     1.756 HEAT: 1.098479
 CYCLE:    44 TIME:   0.011 TIME LEFT:  2.00D  GRAD.:     2.322 HEAT: 1.089884
 CYCLE:    45 TIME:   0.012 TIME LEFT:  2.00D  GRAD.:     3.312 HEAT: 1.075143
 CYCLE:    46 TIME:   0.011 TIME LEFT:  2.00D  GRAD.:     3.953 HEAT: 1.052381
 CYCLE:    47 TIME:   0.011 TIME LEFT:  2.00D  GRAD.:     4.373 HEAT: 1.028470
 CYCLE:    48 TIME:   0.011 TIME LEFT:  2.00D  GRAD.:     4.143 HEAT:0.9968501
 CYCLE:    49 TIME:   0.011 TIME LEFT:  2.00D  GRAD.:     5.543 HEAT:0.9568306
 CYCLE:    50 TIME:   0.011 TIME LEFT:  2.00D  GRAD.:     6.264 HEAT:0.9279323
 CYCLE:    51 TIME:   0.011 TIME LEFT:  2.00D  GRAD.:     6.397 HEAT:0.8855658
 CYCLE:    52 TIME:   0.011 TIME LEFT:  2.00D  GRAD.:     4.282 HEAT:0.8439397
 CYCLE:    53 TIME:   0.011 TIME LEFT:  2.00D  GRAD.:     5.412 HEAT:0.7916697
 CYCLE:    54 TIME:   0.011 TIME LEFT:  2.00D  GRAD.:     4.836 HEAT:0.7566219
 CYCLE:    55 TIME:   0.011 TIME LEFT:  2.00D  GRAD.:     2.996 HEAT:0.7284399
 CYCLE:    56 TIME:   0.011 TIME LEFT:  2.00D  GRAD.:     3.343 HEAT:0.7143282
 CYCLE:    57 TIME:   0.011 TIME LEFT:  2.00D  GRAD.:     3.189 HEAT:0.7020096
 CYCLE:    58 TIME:   0.011 TIME LEFT:  2.00D  GRAD.:     2.607 HEAT:0.6892962
 CYCLE:    59 TIME:   0.011 TIME LEFT:  2.00D  GRAD.:     2.143 HEAT:0.6744212
 CYCLE:    60 TIME:   0.011 TIME LEFT:  2.00D  GRAD.:     2.110 HEAT:0.6667409
 CYCLE:    61 TIME:   0.011 TIME LEFT:  2.00D  GRAD.:     1.951 HEAT:0.6565256
 CYCLE:    62 TIME:   0.011 TIME LEFT:  2.00D  GRAD.:     1.794 HEAT:0.6499331
 CYCLE:    63 TIME:   0.011 TIME LEFT:  2.00D  GRAD.:     1.627 HEAT:0.6437363
 CYCLE:    64 TIME:   0.011 TIME LEFT:  2.00D  GRAD.:     1.688 HEAT:0.6384927
 CYCLE:    65 TIME:   0.011 TIME LEFT:  2.00D  GRAD.:     1.498 HEAT:0.6344141
 CYCLE:    66 TIME:   0.011 TIME LEFT:  2.00D  GRAD.:     1.157 HEAT:0.6313198
 CYCLE:    67 TIME:   0.011 TIME LEFT:  2.00D  GRAD.:     0.940 HEAT:0.6289173
 CYCLE:    68 TIME:   0.011 TIME LEFT:  2.00D  GRAD.:     0.865 HEAT:0.6270032
 CYCLE:    69 TIME:   0.011 TIME LEFT:  2.00D  GRAD.:     0.751 HEAT:0.6257075
 CYCLE:    70 TIME:   0.011 TIME LEFT:  2.00D  GRAD.:     0.647 HEAT:0.6244977
 CYCLE:    71 TIME:   0.011 TIME LEFT:  2.00D  GRAD.:     0.669 HEAT:0.6233635
 CYCLE:    72 TIME:   0.011 TIME LEFT:  2.00D  GRAD.:     0.726 HEAT:0.6222549
 CYCLE:    73 TIME:   0.011 TIME LEFT:  2.00D  GRAD.:     0.749 HEAT:0.6209548
 CYCLE:    74 TIME:   0.011 TIME LEFT:  2.00D  GRAD.:     0.824 HEAT:0.6193161
 CYCLE:    75 TIME:   0.011 TIME LEFT:  2.00D  GRAD.:     0.913 HEAT:0.6174061
 CYCLE:    76 TIME:   0.011 TIME LEFT:  2.00D  GRAD.:     0.916 HEAT:0.6155213
 CYCLE:    77 TIME:   0.011 TIME LEFT:  2.00D  GRAD.:     0.922 HEAT:0.6136613
 CYCLE:    78 TIME:   0.011 TIME LEFT:  2.00D  GRAD.:     0.979 HEAT:0.6114698
 CYCLE:    79 TIME:   0.012 TIME LEFT:  2.00D  GRAD.:     1.168 HEAT:0.6081562
 CYCLE:    80 TIME:   0.012 TIME LEFT:  2.00D  GRAD.:     1.260 HEAT:0.6037541
 CYCLE:    81 TIME:   0.012 TIME LEFT:  2.00D  GRAD.:     1.045 HEAT:0.5993003
 CYCLE:    82 TIME:   0.011 TIME LEFT:  2.00D  GRAD.:     0.747 HEAT:0.5977993
 CYCLE:    83 TIME:   0.011 TIME LEFT:  2.00D  GRAD.:     0.581 HEAT:0.5963181
 CYCLE:    84 TIME:   0.011 TIME LEFT:  2.00D  GRAD.:     0.508 HEAT:0.5957610
 CYCLE:    85 TIME:   0.012 TIME LEFT:  2.00D  GRAD.:     0.412 HEAT:0.5950866
 CYCLE:    86 TIME:   0.011 TIME LEFT:  2.00D  GRAD.:     0.324 HEAT:0.5948676
 CYCLE:    87 TIME:   0.011 TIME LEFT:  2.00D  GRAD.:     0.346 HEAT:0.5944830
 CYCLE:    88 TIME:   0.011 TIME LEFT:  2.00D  GRAD.:     0.437 HEAT:0.5940925
 CYCLE:    89 TIME:   0.012 TIME LEFT:  2.00D  GRAD.:     0.670 HEAT:0.5929861
 CYCLE:    90 TIME:   0.012 TIME LEFT:  2.00D  GRAD.:     0.677 HEAT:0.5923348
 CYCLE:    91 TIME:   0.012 TIME LEFT:  2.00D  GRAD.:     0.952 HEAT:0.5902737
 CYCLE:    92 TIME:   0.011 TIME LEFT:  2.00D  GRAD.:     0.832 HEAT:0.5891454
 CYCLE:    93 TIME:   0.012 TIME LEFT:  2.00D  GRAD.:     1.109 HEAT:0.5855662
 CYCLE:    94 TIME:   0.012 TIME LEFT:  2.00D  GRAD.:     0.614 HEAT:0.5843083
 CYCLE:    95 TIME:   0.011 TIME LEFT:  2.00D  GRAD.:     0.439 HEAT:0.5837294
 CYCLE:    96 TIME:   0.012 TIME LEFT:  2.00D  GRAD.:     0.364 HEAT:0.5827410
 CYCLE:    97 TIME:   0.012 TIME LEFT:  2.00D  GRAD.:     0.379 HEAT:0.5821465
 CYCLE:    98 TIME:   0.012 TIME LEFT:  2.00D  GRAD.:     0.314 HEAT:0.5818814
 CYCLE:    99 TIME:   0.012 TIME LEFT:  2.00D  GRAD.:     0.234 HEAT:0.5815914
 CYCLE:   100 TIME:   0.011 TIME LEFT:  2.00D  GRAD.:     0.173 HEAT:0.5815047
 CYCLE:   101 TIME:   0.012 TIME LEFT:  2.00D  GRAD.:     0.420 HEAT:0.5815444
 CYCLE:   102 TIME:   0.011 TIME LEFT:  2.00D  GRAD.:     0.116 HEAT:0.5813944
 CYCLE:   103 TIME:   0.011 TIME LEFT:  2.00D  GRAD.:     0.102 HEAT:0.5813706
 CYCLE:   104 TIME:   0.011 TIME LEFT:  2.00D  GRAD.:     0.150 HEAT:0.5813046
 CYCLE:   105 TIME:   0.011 TIME LEFT:  2.00D  GRAD.:     0.157 HEAT:0.5812657
 CYCLE:   106 TIME:   0.011 TIME LEFT:  2.00D  GRAD.:     0.226 HEAT:0.5811392
 CYCLE:   107 TIME:   0.011 TIME LEFT:  2.00D  GRAD.:     0.191 HEAT:0.5810705
 CYCLE:   108 TIME:   0.011 TIME LEFT:  2.00D  GRAD.:     0.194 HEAT:0.5809275
 CYCLE:   109 TIME:   0.011 TIME LEFT:  2.00D  GRAD.:     0.236 HEAT:0.5808185
 CYCLE:   110 TIME:   0.011 TIME LEFT:  2.00D  GRAD.:     0.303 HEAT:0.5806037
 CYCLE:   111 TIME:   0.011 TIME LEFT:  2.00D  GRAD.:     0.325 HEAT:0.5803089
 CYCLE:   112 TIME:   0.012 TIME LEFT:  2.00D  GRAD.:     0.350 HEAT:0.5798118
 CYCLE:   113 TIME:   0.011 TIME LEFT:  2.00D  GRAD.:     0.243 HEAT:0.5796056
 CYCLE:   114 TIME:   0.011 TIME LEFT:  2.00D  GRAD.:     0.225 HEAT:0.5794403
 CYCLE:   115 TIME:   0.011 TIME LEFT:  2.00D  GRAD.:     0.149 HEAT:0.5793766
 CYCLE:   116 TIME:   0.011 TIME LEFT:  2.00D  GRAD.:     0.130 HEAT:0.5793066
 CYCLE:   117 TIME:   0.011 TIME LEFT:  2.00D  GRAD.:     0.117 HEAT:0.5792376
 CYCLE:   118 TIME:   0.011 TIME LEFT:  2.00D  GRAD.:     0.139 HEAT:0.5791514
 CYCLE:   119 TIME:   0.011 TIME LEFT:  2.00D  GRAD.:     0.130 HEAT:0.5790909
 CYCLE:   120 TIME:   0.012 TIME LEFT:  2.00D  GRAD.:     0.121 HEAT:0.5790439
 CYCLE:   121 TIME:   0.012 TIME LEFT:  2.00D  GRAD.:     0.181 HEAT:0.5789859
 CYCLE:   122 TIME:   0.011 TIME LEFT:  2.00D  GRAD.:     0.110 HEAT:0.5789470
 CYCLE:   123 TIME:   0.011 TIME LEFT:  2.00D  GRAD.:     0.094 HEAT:0.5789030
 CYCLE:   124 TIME:   0.010 TIME LEFT:  2.00D  GRAD.:     0.088 HEAT:0.5788834
 CYCLE:   125 TIME:   0.011 TIME LEFT:  2.00D  GRAD.:     0.103 HEAT:0.5788430
 CYCLE:   126 TIME:   0.011 TIME LEFT:  2.00D  GRAD.:     0.098 HEAT:0.5788181
 CYCLE:   127 TIME:   0.011 TIME LEFT:  2.00D  GRAD.:     0.105 HEAT:0.5787699
 CYCLE:   128 TIME:   0.011 TIME LEFT:  2.00D  GRAD.:     0.103 HEAT:0.5787350
 CYCLE:   129 TIME:   0.011 TIME LEFT:  2.00D  GRAD.:     0.101 HEAT:0.5786856
 CYCLE:   130 TIME:   0.011 TIME LEFT:  2.00D  GRAD.:     0.079 HEAT:0.5786699
 CYCLE:   131 TIME:   0.011 TIME LEFT:  2.00D  GRAD.:     0.094 HEAT:0.5786480
 CYCLE:   132 TIME:   0.015 TIME LEFT:  2.00D  GRAD.:     0.062 HEAT:0.5786368
 CYCLE:   133 TIME:   0.012 TIME LEFT:  2.00D  GRAD.:     0.060 HEAT:0.5786231
 CYCLE:   134 TIME:   0.010 TIME LEFT:  2.00D  GRAD.:     0.071 HEAT:0.5786027
 CYCLE:   135 TIME:   0.010 TIME LEFT:  2.00D  GRAD.:     0.072 HEAT:0.5785888
 CYCLE:   136 TIME:   0.011 TIME LEFT:  2.00D  GRAD.:     0.141 HEAT:0.5785479
 CYCLE:   137 TIME:   0.011 TIME LEFT:  2.00D  GRAD.:     0.106 HEAT:0.5785232
 CYCLE:   138 TIME:   0.011 TIME LEFT:  2.00D  GRAD.:     0.084 HEAT:0.5784901
 CYCLE:   139 TIME:   0.011 TIME LEFT:  2.00D  GRAD.:     0.087 HEAT:0.5784693
 CYCLE:   140 TIME:   0.011 TIME LEFT:  2.00D  GRAD.:     0.060 HEAT:0.5784368
 CYCLE:   141 TIME:   0.011 TIME LEFT:  2.00D  GRAD.:     0.049 HEAT:0.5784121

     RMS GRADIENT =  0.04894  IS LESS THAN CUTOFF =  0.05000



 -------------------------------------------------------------------------------
pm3  precise nosym
 InChI=1S/C11H18/c1-4-10-8-6-7-9(3)11(10)5-2/h5-6,8-11H,2,4,7H2,1,3H3



     GEOMETRY OPTIMISED USING EIGENVECTOR FOLLOWING (EF).     
     SCF FIELD WAS ACHIEVED                                   


                              PM3 CALCULATION
                                                       MOPAC2012 (Version: 13.159M)
                                                       Mon Jun  2 11:05:14 2014
                                                       No. of days left =   6




          FINAL HEAT OF FORMATION =          0.57841 KCAL/MOL =       2.42008 KJ/MOL


          TOTAL ENERGY            =      -1581.00771 EV
          ELECTRONIC ENERGY       =      -9994.41990 EV  POINT GROUP:     C1  
          CORE-CORE REPULSION     =       8413.41219 EV
          COSMO AREA              =        202.99 SQUARE ANGSTROMS
          COSMO VOLUME            =        224.78 CUBIC ANGSTROMS

          GRADIENT NORM           =          0.04894
          IONIZATION POTENTIAL    =          9.638514 EV
          HOMO LUMO ENERGIES (EV) =         -9.639  1.121
          NO. OF FILLED LEVELS    =         31
          MOLECULAR WEIGHT        =        150.263

          MOLECULAR DIMENSIONS (Angstroms)

            Atom       Atom       Distance
            H    28    H    26     7.39734
            H    28    H    26     7.35914
            H    24    H    14     3.95627


          SCF CALCULATIONS        =        153
          COMPUTATION TIME        =          1.692 SECONDS




   ATOM   CHEMICAL          X               Y               Z
  NUMBER   SYMBOL      (ANGSTROMS)     (ANGSTROMS)     (ANGSTROMS)
 
     1       C         -1.35788385  *   0.93361380  *  -0.16609909  *
     2       C         -0.41762439  *  -0.28050770  *  -0.11451753  *
     3       C          0.67268504  *  -0.08871516  *   0.95950117  *
     4       C          1.81206580  *  -1.09427151  *   0.75647351  *
     5       C         -0.56594181  *   2.20366850  *  -0.47378339  *
     6       C         -2.44820986  *   0.74384890  *  -1.20781065  *
     7       C          2.53138239  *  -0.90744992  *  -0.56113921  *
     8       C          1.20983396  *   1.30398606  *   0.99962840  *
     9       C         -1.19377627  *  -1.52470170  *   0.19712725  *
    10       C          0.64817641  *   2.33518209  *   0.36954497  *
    11       C         -1.05984820  *  -2.65183818  *  -0.49214289  *
    12       H         -1.83689370  *   1.04656547  *   0.83792882  *
    13       H          0.09448130  *  -0.38650147  *  -1.11113484  *
    14       H          0.21548594  *  -0.27586308  *   1.96451642  *
    15       H          2.53064824  *  -1.01473416  *   1.59555746  *
    16       H          1.39262720  *  -2.11990789  *   0.80927694  *
    17       H         -1.21705122  *   3.08979422  *  -0.33694029  *
    18       H         -0.25416566  *   2.21853786  *  -1.53886876  *
    19       H          3.07380274  *   0.04660852  *  -0.59412464  *
    20       H          3.25571418  *  -1.71028797  *  -0.74267989  *
    21       H          1.81099149  *  -0.90289947  *  -1.39720015  *
    22       H         -3.11835932  *   1.61257270  *  -1.24245855  *
    23       H         -3.06049154  *  -0.14053741  *  -0.98575854  *
    24       H         -2.03034952  *   0.60869656  *  -2.21473806  *
    25       H         -1.88424053  *  -1.45738474  *   1.04746570  *
    26       H          1.08245831  *   3.33866020  *   0.44089739  *
    27       H          2.11593813  *   1.44333180  *   1.60182960  *
    28       H         -1.61860328  *  -3.55233943  *  -0.25675727  *
    29       H         -0.38265200  *  -2.75497166  *  -1.33643072  *

           Empirical Formula: C11 H18  =    29 atoms



      MOLECULAR POINT GROUP   :   C1  


                  EIGENVALUES  
 -42.39480 -35.51390 -33.86805 -30.71357 -27.93993 -25.68708 -23.78842 -21.13045
 -20.27274 -19.56456 -17.95804 -16.81234 -16.31375 -15.72304 -15.62130 -15.06708
 -14.48086 -14.33193 -13.84436 -13.56036 -13.36339 -13.22421 -12.64416 -12.42280
 -12.28197 -12.06162 -11.72662 -11.33292 -11.24766 -10.17726  -9.63851   1.12088
   1.17241   3.21023   3.43554   3.48308   3.57027   3.64600   3.71959   3.86731
   3.93069   3.97975   4.05338   4.10011   4.15668   4.23492   4.26591   4.39899
   4.40919   4.49700   4.55600   4.65031   4.88149   4.91190   4.99685   5.02639
   5.14231   5.19600   5.57378   5.81830   5.88540   6.00418


              NET ATOMIC CHARGES AND DIPOLE CONTRIBUTIONS

  ATOM NO.   TYPE          CHARGE      No. of ELECS.   s-Pop       p-Pop       
    1          C          -0.069240        4.0692     1.17621     2.89303
    2          C          -0.057932        4.0579     1.17486     2.88307
    3          C          -0.034376        4.0344     1.16746     2.86691
    4          C          -0.096810        4.0968     1.16130     2.93551
    5          C          -0.061353        4.0614     1.14948     2.91187
    6          C          -0.114908        4.1149     1.14232     2.97259
    7          C          -0.120115        4.1201     1.14049     2.97963
    8          C          -0.145535        4.1455     1.19584     2.94970
    9          C          -0.130730        4.1307     1.19775     2.93298
   10          C          -0.148341        4.1483     1.19319     2.95515
   11          C          -0.167014        4.1670     1.18338     2.98364
   12          H           0.066049        0.9340     0.93395
   13          H           0.083462        0.9165     0.91654
   14          H           0.068465        0.9315     0.93154
   15          H           0.049320        0.9507     0.95068
   16          H           0.054633        0.9454     0.94537
   17          H           0.054623        0.9454     0.94538
   18          H           0.058967        0.9410     0.94103
   19          H           0.042754        0.9572     0.95725
   20          H           0.038567        0.9614     0.96143
   21          H           0.045070        0.9549     0.95493
   22          H           0.039158        0.9608     0.96084
   23          H           0.045129        0.9549     0.95487
   24          H           0.040844        0.9592     0.95916
   25          H           0.098998        0.9010     0.90100
   26          H           0.097438        0.9026     0.90256
   27          H           0.100165        0.8998     0.89983
   28          H           0.079487        0.9205     0.92051
   29          H           0.083223        0.9168     0.91678
 DIPOLE           X         Y         Z       TOTAL
 POINT-CHG.    -0.101    -0.011    -0.053     0.114
 HYBRID         0.027     0.008    -0.001     0.028
 SUM           -0.073    -0.004    -0.054     0.091


          ATOMIC ORBITAL ELECTRON POPULATIONS

    Atom      s        px        py        pz   
    1  C   1.17621   0.95471   0.94367   0.99466
    2  C   1.17486   0.95013   0.93291   1.00003
    3  C   1.16746   0.94938   0.93384   0.98369
    4  C   1.16130   0.97039   0.98854   0.97658
    5  C   1.14948   0.95307   0.97084   0.98795
    6  C   1.14232   0.97863   1.01125   0.98271
    7  C   1.14049   0.99622   1.01067   0.97274
    8  C   1.19584   0.99432   0.95139   1.00399
    9  C   1.19775   0.98743   0.95481   0.99074
   10  C   1.19319   0.98153   0.97926   0.99436
   11  C   1.18338   1.01187   0.97094   1.00083
   12  H   0.93395
   13  H   0.91654
   14  H   0.93154
   15  H   0.95068
   16  H   0.94537
   17  H   0.94538
   18  H   0.94103
   19  H   0.95725
   20  H   0.96143
   21  H   0.95493
   22  H   0.96084
   23  H   0.95487
   24  H   0.95916
   25  H   0.90100
   26  H   0.90256
   27  H   0.89983
   28  H   0.92051
   29  H   0.91678
 *******************************************************************************
 ** Site#: 14399           For non-commercial use only        Version 13.159M **
 *******************************************************************************
 ** Cite this work as: MOPAC2012, James J. P. Stewart, Stewart Computational  **
 ** Chemistry, Version 13.159M web: HTTP://OpenMOPAC.net  Days remaining:   6 **
 *******************************************************************************
 **                                                                           **
 **                                MOPAC2012                                  **
 **                                                                           **
 *******************************************************************************

                            PM3 CALCULATION RESULTS


 *******************************************************************************
 *  CALCULATION DONE:                                Mon Jun  2 11:05:14 2014  *
 *  PM3      - The PM3 Hamiltonian to be used
 *  OLDGEO   - PREVIOUS GEOMETRY TO BE USED
 *  PRECISE  - CRITERIA TO BE INCREASED BY 100 TIMES
 *  NOSYM    - POINT-GROUP SYMMETRY SET TO C1
 *  T=       - A TIME OF 172800.0 SECONDS REQUESTED
 *  DUMP=N   - RESTART FILE WRITTEN EVERY  7200.000 SECONDS
 *  THERMO   - THERMODYNAMIC QUANTITIES TO BE CALCULATED
 *******************************************************************************
oldgeo thermo nosym precise  pm3

   ATOM   CHEMICAL          X               Y               Z
  NUMBER   SYMBOL      (ANGSTROMS)     (ANGSTROMS)     (ANGSTROMS)
 
     1       C         -1.35788385  *   0.93361380  *  -0.16609909  *
     2       C         -0.41762439  *  -0.28050770  *  -0.11451753  *
     3       C          0.67268504  *  -0.08871516  *   0.95950117  *
     4       C          1.81206580  *  -1.09427151  *   0.75647351  *
     5       C         -0.56594181  *   2.20366850  *  -0.47378339  *
     6       C         -2.44820986  *   0.74384890  *  -1.20781065  *
     7       C          2.53138239  *  -0.90744992  *  -0.56113921  *
     8       C          1.20983396  *   1.30398606  *   0.99962840  *
     9       C         -1.19377627  *  -1.52470170  *   0.19712725  *
    10       C          0.64817641  *   2.33518209  *   0.36954497  *
    11       C         -1.05984820  *  -2.65183818  *  -0.49214289  *
    12       H         -1.83689370  *   1.04656547  *   0.83792882  *
    13       H          0.09448130  *  -0.38650147  *  -1.11113484  *
    14       H          0.21548594  *  -0.27586308  *   1.96451642  *
    15       H          2.53064824  *  -1.01473416  *   1.59555746  *
    16       H          1.39262720  *  -2.11990789  *   0.80927694  *
    17       H         -1.21705122  *   3.08979422  *  -0.33694029  *
    18       H         -0.25416566  *   2.21853786  *  -1.53886876  *
    19       H          3.07380274  *   0.04660852  *  -0.59412464  *
    20       H          3.25571418  *  -1.71028797  *  -0.74267989  *
    21       H          1.81099149  *  -0.90289947  *  -1.39720015  *
    22       H         -3.11835932  *   1.61257270  *  -1.24245855  *
    23       H         -3.06049154  *  -0.14053741  *  -0.98575854  *
    24       H         -2.03034952  *   0.60869656  *  -2.21473806  *
    25       H         -1.88424053  *  -1.45738474  *   1.04746570  *
    26       H          1.08245831  *   3.33866020  *   0.44089739  *
    27       H          2.11593813  *   1.44333180  *   1.60182960  *
    28       H         -1.61860328  *  -3.55233943  *  -0.25675727  *
    29       H         -0.38265200  *  -2.75497166  *  -1.33643072  *
 


          CARTESIAN COORDINATES 

    NO.       ATOM         X         Y         Z

     1         C       -1.3579    0.9336   -0.1661
     2         C       -0.4176   -0.2805   -0.1145
     3         C        0.6727   -0.0887    0.9595
     4         C        1.8121   -1.0943    0.7565
     5         C       -0.5659    2.2037   -0.4738
     6         C       -2.4482    0.7438   -1.2078
     7         C        2.5314   -0.9074   -0.5611
     8         C        1.2098    1.3040    0.9996
     9         C       -1.1938   -1.5247    0.1971
    10         C        0.6482    2.3352    0.3695
    11         C       -1.0598   -2.6518   -0.4921
    12         H       -1.8369    1.0466    0.8379
    13         H        0.0945   -0.3865   -1.1111
    14         H        0.2155   -0.2759    1.9645
    15         H        2.5306   -1.0147    1.5956
    16         H        1.3926   -2.1199    0.8093
    17         H       -1.2171    3.0898   -0.3369
    18         H       -0.2542    2.2185   -1.5389
    19         H        3.0738    0.0466   -0.5941
    20         H        3.2557   -1.7103   -0.7427
    21         H        1.8110   -0.9029   -1.3972
    22         H       -3.1184    1.6126   -1.2425
    23         H       -3.0605   -0.1405   -0.9858
    24         H       -2.0303    0.6087   -2.2147
    25         H       -1.8842   -1.4574    1.0475
    26         H        1.0825    3.3387    0.4409
    27         H        2.1159    1.4433    1.6018
    28         H       -1.6186   -3.5523   -0.2568
    29         H       -0.3827   -2.7550   -1.3364

  H: (PM3): J. J. P. STEWART, J. COMP. CHEM. 10, 209 (1989).
  C: (PM3): J. J. P. STEWART, J. COMP. CHEM. 10, 209 (1989).

           Empirical Formula: C11 H18  =    29 atoms



      MOLECULAR POINT GROUP   :   C1  


      RHF CALCULATION, NO. OF DOUBLY OCCUPIED LEVELS =   31



          HEAT OF FORMATION =       0.578412 KCALS/MOLE


          INTERNAL COORDINATE DERIVATIVES

   NUMBER  ATOM       BOND         ANGLE      DIHEDRAL

     1       C      0.001070     0.000758     0.000180
     2       C      0.000405     0.001481    -0.000311
     3       C      0.000686     0.000536    -0.001234
     4       C     -0.004661     0.000467    -0.002134
     5       C      0.000169    -0.000766    -0.005483
     6       C     -0.003887    -0.003812     0.001952
     7       C     -0.000004    -0.008586    -0.004644
     8       C      0.004870     0.002241    -0.008253
     9       C     -0.007333     0.011324     0.003367
    10       C      0.006663     0.002298    -0.008408
    11       C      0.004515    -0.003187    -0.003163
    12       H      0.002710    -0.000215     0.000086
    13       H      0.010104    -0.007028     0.007047
    14       H      0.011853    -0.008176     0.004228
    15       H     -0.010783     0.000296     0.005173
    16       H     -0.003758    -0.003861    -0.001765
    17       H     -0.005153    -0.013040     0.013079
    18       H      0.000587     0.009363    -0.006356
    19       H      0.004604    -0.002532     0.004078
    20       H     -0.000104     0.005298    -0.001035
    21       H     -0.004772     0.009031     0.004881
    22       H      0.000454    -0.000131    -0.000538
    23       H     -0.003373    -0.008706     0.005809
    24       H      0.000676     0.003193    -0.000624
    25       H      0.004771     0.001625    -0.001272
    26       H     -0.003656     0.003195    -0.003324
    27       H      0.004059     0.002227     0.000560
    28       H     -0.003692    -0.003375     0.000166
    29       H     -0.007019     0.010081    -0.002061


          GRADIENT NORM =   0.04844


          TIME FOR SCF CALCULATION =    0.01

          TIME FOR DERIVATIVES     =    0.01

          MOLECULAR WEIGHT =  150.26



          ROTATIONAL CONSTANTS IN CM(-1)

          A =    0.04075042   B =    0.03778512   C =    0.02295853



           PRINCIPAL MOMENTS OF INERTIA IN UNITS OF 10**(-40)*GRAM-CM**2

          A =      686.9322   B =      740.8413   C =     1219.2758


          ORIENTATION OF MOLECULE IN FORCE CALCULATION

    NO.       ATOM         X         Y         Z

     1          C      -1.5100   -0.4478    0.3158
     2          C       0.0265   -0.4478    0.3158
     3          C       0.5782    0.9926    0.3158
     4          C       2.0632    1.0010   -0.0653
     5          C      -2.0393    0.2941   -0.9107
     6          C      -2.0622   -1.8636    0.3369
     7          C       2.3115    0.4927   -1.4684
     8          C      -0.1922    1.9097   -0.5759
     9          C       0.5451   -1.1672    1.5245
    10          C      -1.3719    1.6039   -1.1151
    11          C       1.4946   -2.0936    1.4622
    12          H      -1.8587    0.0869    1.2338
    13          H       0.3902   -0.9567   -0.6199
    14          H       0.4801    1.4086    1.3509
    15          H       2.4683    2.0260    0.0440
    16          H       2.6188    0.3735    0.6615
    17          H      -3.1333    0.4403   -0.8130
    18          H      -1.8960   -0.3170   -1.8261
    19          H       1.8885    1.1678   -2.2239
    20          H       3.3831    0.3883   -1.6758
    21          H       1.8390   -0.4944   -1.6109
    22          H      -3.1600   -1.8606    0.3368
    23          H      -1.7306   -2.4063    1.2323
    24          H      -1.7335   -2.4420   -0.5373
    25          H       0.0980   -0.8756    2.4833
    26          H      -1.8967    2.3204   -1.7568
    27          H       0.2724    2.8852   -0.7646
    28          H       1.8721   -2.6055    2.3419
    29          H       1.9622   -2.4033    0.5308


    FIRST DERIVATIVES WILL BE USED IN THE CALCULATION OF SECOND DERIVATIVES

          ESTIMATED TIME TO COMPLETE CALCULATION =        5.41 SECONDS

    FOR POINT-GROUP C1   THERE ARE   1 UNIQUE SYMMETRY FUNCTIONS.

 STEP:   1 TIME =     0.05 SECS, INTEGRAL =      0.05 TIME LEFT: 172799.94
 STEP:   2 TIME =     0.05 SECS, INTEGRAL =      0.10 TIME LEFT: 172799.89
 STEP:   3 TIME =     0.05 SECS, INTEGRAL =      0.15 TIME LEFT: 172799.84
 STEP:   4 TIME =     0.05 SECS, INTEGRAL =      0.19 TIME LEFT: 172799.79
 STEP:   5 TIME =     0.05 SECS, INTEGRAL =      0.24 TIME LEFT: 172799.74
 STEP:   6 TIME =     0.05 SECS, INTEGRAL =      0.29 TIME LEFT: 172799.69
 STEP:   7 TIME =     0.05 SECS, INTEGRAL =      0.34 TIME LEFT: 172799.64
 STEP:   8 TIME =     0.05 SECS, INTEGRAL =      0.39 TIME LEFT: 172799.59
 STEP:   9 TIME =     0.05 SECS, INTEGRAL =      0.44 TIME LEFT: 172799.54
 STEP:  10 TIME =     0.05 SECS, INTEGRAL =      0.49 TIME LEFT: 172799.49
 STEP:  11 TIME =     0.05 SECS, INTEGRAL =      0.54 TIME LEFT: 172799.45
 STEP:  12 TIME =     0.05 SECS, INTEGRAL =      0.59 TIME LEFT: 172799.40
 STEP:  13 TIME =     0.05 SECS, INTEGRAL =      0.64 TIME LEFT: 172799.35
 STEP:  14 TIME =     0.05 SECS, INTEGRAL =      0.68 TIME LEFT: 172799.30
 STEP:  15 TIME =     0.05 SECS, INTEGRAL =      0.73 TIME LEFT: 172799.25
 STEP:  16 TIME =     0.05 SECS, INTEGRAL =      0.78 TIME LEFT: 172799.20
 STEP:  17 TIME =     0.06 SECS, INTEGRAL =      0.84 TIME LEFT: 172799.15
 STEP:  18 TIME =     0.05 SECS, INTEGRAL =      0.89 TIME LEFT: 172799.10
 STEP:  19 TIME =     0.05 SECS, INTEGRAL =      0.93 TIME LEFT: 172799.05
 STEP:  20 TIME =     0.05 SECS, INTEGRAL =      0.98 TIME LEFT: 172799.00
 STEP:  21 TIME =     0.05 SECS, INTEGRAL =      1.03 TIME LEFT: 172798.95
 STEP:  22 TIME =     0.05 SECS, INTEGRAL =      1.08 TIME LEFT: 172798.90
 STEP:  23 TIME =     0.05 SECS, INTEGRAL =      1.13 TIME LEFT: 172798.85
 STEP:  24 TIME =     0.05 SECS, INTEGRAL =      1.18 TIME LEFT: 172798.80
 STEP:  25 TIME =     0.05 SECS, INTEGRAL =      1.23 TIME LEFT: 172798.75
 STEP:  26 TIME =     0.05 SECS, INTEGRAL =      1.28 TIME LEFT: 172798.70
 STEP:  27 TIME =     0.05 SECS, INTEGRAL =      1.34 TIME LEFT: 172798.65
 STEP:  28 TIME =     0.05 SECS, INTEGRAL =      1.39 TIME LEFT: 172798.60
 STEP:  29 TIME =     0.05 SECS, INTEGRAL =      1.44 TIME LEFT: 172798.54
 STEP:  30 TIME =     0.05 SECS, INTEGRAL =      1.49 TIME LEFT: 172798.49
 STEP:  31 TIME =     0.05 SECS, INTEGRAL =      1.54 TIME LEFT: 172798.44
 STEP:  32 TIME =     0.05 SECS, INTEGRAL =      1.59 TIME LEFT: 172798.39
 STEP:  33 TIME =     0.05 SECS, INTEGRAL =      1.64 TIME LEFT: 172798.35
 STEP:  34 TIME =     0.05 SECS, INTEGRAL =      1.69 TIME LEFT: 172798.29
 STEP:  35 TIME =     0.06 SECS, INTEGRAL =      1.75 TIME LEFT: 172798.24
 STEP:  36 TIME =     0.05 SECS, INTEGRAL =      1.80 TIME LEFT: 172798.19
 STEP:  37 TIME =     0.05 SECS, INTEGRAL =      1.85 TIME LEFT: 172798.14
 STEP:  38 TIME =     0.05 SECS, INTEGRAL =      1.90 TIME LEFT: 172798.09
 STEP:  39 TIME =     0.05 SECS, INTEGRAL =      1.94 TIME LEFT: 172798.04
 STEP:  40 TIME =     0.05 SECS, INTEGRAL =      2.00 TIME LEFT: 172797.99
 STEP:  41 TIME =     0.05 SECS, INTEGRAL =      2.05 TIME LEFT: 172797.94
 STEP:  42 TIME =     0.05 SECS, INTEGRAL =      2.10 TIME LEFT: 172797.89
 STEP:  43 TIME =     0.05 SECS, INTEGRAL =      2.15 TIME LEFT: 172797.84
 STEP:  44 TIME =     0.05 SECS, INTEGRAL =      2.20 TIME LEFT: 172797.79
 STEP:  45 TIME =     0.05 SECS, INTEGRAL =      2.25 TIME LEFT: 172797.74
 STEP:  46 TIME =     0.05 SECS, INTEGRAL =      2.30 TIME LEFT: 172797.69
 STEP:  47 TIME =     0.05 SECS, INTEGRAL =      2.35 TIME LEFT: 172797.63
 STEP:  48 TIME =     0.05 SECS, INTEGRAL =      2.40 TIME LEFT: 172797.58
 STEP:  49 TIME =     0.05 SECS, INTEGRAL =      2.45 TIME LEFT: 172797.54
 STEP:  50 TIME =     0.05 SECS, INTEGRAL =      2.50 TIME LEFT: 172797.49
 STEP:  51 TIME =     0.05 SECS, INTEGRAL =      2.55 TIME LEFT: 172797.44
 STEP:  52 TIME =     0.05 SECS, INTEGRAL =      2.60 TIME LEFT: 172797.38
 STEP:  53 TIME =     0.05 SECS, INTEGRAL =      2.65 TIME LEFT: 172797.33
 STEP:  54 TIME =     0.05 SECS, INTEGRAL =      2.70 TIME LEFT: 172797.29
 STEP:  55 TIME =     0.05 SECS, INTEGRAL =      2.75 TIME LEFT: 172797.23
 STEP:  56 TIME =     0.05 SECS, INTEGRAL =      2.80 TIME LEFT: 172797.18
 STEP:  57 TIME =     0.05 SECS, INTEGRAL =      2.85 TIME LEFT: 172797.14
 STEP:  58 TIME =     0.05 SECS, INTEGRAL =      2.90 TIME LEFT: 172797.09
 STEP:  59 TIME =     0.05 SECS, INTEGRAL =      2.95 TIME LEFT: 172797.04
 STEP:  60 TIME =     0.05 SECS, INTEGRAL =      3.00 TIME LEFT: 172796.99
 STEP:  61 TIME =     0.05 SECS, INTEGRAL =      3.05 TIME LEFT: 172796.94
 STEP:  62 TIME =     0.05 SECS, INTEGRAL =      3.10 TIME LEFT: 172796.89
 STEP:  63 TIME =     0.05 SECS, INTEGRAL =      3.15 TIME LEFT: 172796.84
 STEP:  64 TIME =     0.05 SECS, INTEGRAL =      3.20 TIME LEFT: 172796.79
 STEP:  65 TIME =     0.05 SECS, INTEGRAL =      3.25 TIME LEFT: 172796.74
 STEP:  66 TIME =     0.05 SECS, INTEGRAL =      3.30 TIME LEFT: 172796.69
 STEP:  67 TIME =     0.05 SECS, INTEGRAL =      3.35 TIME LEFT: 172796.64
 STEP:  68 TIME =     0.05 SECS, INTEGRAL =      3.40 TIME LEFT: 172796.58
 STEP:  69 TIME =     0.05 SECS, INTEGRAL =      3.45 TIME LEFT: 172796.53
 STEP:  70 TIME =     0.05 SECS, INTEGRAL =      3.50 TIME LEFT: 172796.48
 STEP:  71 TIME =     0.05 SECS, INTEGRAL =      3.55 TIME LEFT: 172796.43
 STEP:  72 TIME =     0.05 SECS, INTEGRAL =      3.60 TIME LEFT: 172796.38
 STEP:  73 TIME =     0.05 SECS, INTEGRAL =      3.65 TIME LEFT: 172796.33
 STEP:  74 TIME =     0.05 SECS, INTEGRAL =      3.71 TIME LEFT: 172796.28
 STEP:  75 TIME =     0.05 SECS, INTEGRAL =      3.76 TIME LEFT: 172796.23
 STEP:  76 TIME =     0.05 SECS, INTEGRAL =      3.81 TIME LEFT: 172796.18
 STEP:  77 TIME =     0.05 SECS, INTEGRAL =      3.86 TIME LEFT: 172796.13
 STEP:  78 TIME =     0.05 SECS, INTEGRAL =      3.91 TIME LEFT: 172796.08
 STEP:  79 TIME =     0.05 SECS, INTEGRAL =      3.96 TIME LEFT: 172796.03
 STEP:  80 TIME =     0.05 SECS, INTEGRAL =      4.01 TIME LEFT: 172795.98
 STEP:  81 TIME =     0.05 SECS, INTEGRAL =      4.06 TIME LEFT: 172795.93
 STEP:  82 TIME =     0.05 SECS, INTEGRAL =      4.11 TIME LEFT: 172795.88
 STEP:  83 TIME =     0.05 SECS, INTEGRAL =      4.16 TIME LEFT: 172795.82
 STEP:  84 TIME =     0.05 SECS, INTEGRAL =      4.21 TIME LEFT: 172795.77
 STEP:  85 TIME =     0.05 SECS, INTEGRAL =      4.26 TIME LEFT: 172795.72
 STEP:  86 TIME =     0.05 SECS, INTEGRAL =      4.31 TIME LEFT: 172795.67
 STEP:  87 TIME =     0.05 SECS, INTEGRAL =      4.36 TIME LEFT: 172795.62

(To convert to Hartree/Bohr^2, multiply by (10^(-21) x N x a0^2)/(4.184 x 627.51) = 0.0642)


           FORCE MATRIX IN MILLIDYNES/ANGSTROM


                  C  1       C  2       C  3       C  4       C  5       C  6
 ------------------------------------------------------------------------------
     C    1  14.355969
     C    2   3.629494  14.426940
     C    3   0.603491   3.457092  14.452742
     C    4   0.048991   0.604285   3.735809  14.276829
     C    5   3.923494   0.634611   0.099786   0.009596  14.786093
     C    6   4.196428   0.619938   0.051697   0.010185   0.674247  14.370839
     C    7   0.005428   0.077548   0.618106   4.441428   0.001136   0.000823
     C    8   0.066420   0.625518   4.749833   0.700576   0.850469   0.004444
     C    9   0.674621   4.593826   0.688048   0.052344   0.052876   0.067871
     C   10   0.675154   0.059951   0.801201   0.044683   5.080857   0.053811
     C   11   0.044726   0.798114   0.037494   0.025628   0.009191   0.010933
     H   12   4.198257   0.432835   0.024619   0.001448   0.423005   0.418680
     H   13   0.430403   3.975244   0.431313   0.051350   0.025108   0.021527
     H   14   0.013191   0.435699   4.134630   0.423460   0.012948   0.001356
     H   15   0.008273   0.047101   0.439469   4.470000   0.001098   0.002000
     H   16   0.002005   0.029171   0.435939   4.418854   0.001193   0.000927
     H   17   0.434210   0.047071   0.009001   0.000738   4.451384   0.023730
     H   18   0.453210   0.014100   0.014070   0.000910   4.381824   0.040755
     H   19   0.000613   0.003185   0.015392   0.464508   0.000470   0.000524
     H   20   0.000538   0.005833   0.051500   0.452078   0.000164   0.000282
     H   21   0.002052   0.085136   0.026150   0.463809   0.000612   0.000336
     H   22   0.455259   0.049382   0.008869   0.001950   0.030302   4.740914
     H   23   0.455742   0.025385   0.002139   0.000860   0.049536   4.722015
     H   24   0.468100   0.021168   0.001862   0.000571   0.025783   4.712351
     H   25   0.029360   0.436006   0.016294   0.002272   0.002113   0.008601
     H   26   0.041346   0.004070   0.119679   0.015392   0.425868   0.008088
     H   27   0.004673   0.040243   0.430972   0.035565   0.121101   0.001028
     H   28   0.016102   0.133354   0.019347   0.001432   0.003112   0.000880
     H   29   0.009793   0.095809   0.013079   0.003250   0.002236   0.000799


                  C  7       C  8       C  9       C 10       C 11       H 12
 ------------------------------------------------------------------------------
     C    7  14.326280
     C    8   0.049587  18.290449
     C    9   0.006281   0.049149  18.113620
     C   10   0.007062  10.752622   0.004727  18.282113
     C   11   0.005456   0.008677  11.080963   0.001900  18.027286
     H   12   0.000667   0.007267   0.031285   0.013436   0.001711   4.680281
     H   13   0.100916   0.008742   0.441068   0.006490   0.051339   0.039257
     H   14   0.049260   0.385624   0.057557   0.032478   0.002651   0.008830
     H   15   0.438533   0.030869   0.002726   0.002235   0.001289   0.000386
     H   16   0.436628   0.050686   0.016447   0.008216   0.015696   0.000439
     H   17   0.000150   0.044434   0.009174   0.432992   0.001985   0.035576
     H   18   0.000408   0.028764   0.000979   0.410104   0.000992   0.041760
     H   19   4.732121   0.009398   0.000836   0.004472   0.000867   0.000098
     H   20   4.780695   0.004115   0.000927   0.000604   0.000910   0.000255
     H   21   4.540830   0.003016   0.001948   0.001128   0.003171   0.000534
     H   22   0.000267   0.001356   0.003846   0.002083   0.000800   0.028896
     H   23   0.000272   0.001162   0.024298   0.009256   0.006845   0.030187
     H   24   0.000330   0.000626   0.003047   0.001967   0.001126   0.044948
     H   25   0.000783   0.001785   4.770306   0.001242   0.453426   0.023541
     H   26   0.000974   0.443356   0.001367   4.824060   0.000365   0.001246
     H   27   0.008035   4.787898   0.007912   0.442646   0.001685   0.000533
     H   28   0.000876   0.003210   0.462349   0.000611   5.108351   0.000498
     H   29   0.003470   0.003376   0.490072   0.000484   5.057305   0.000628


                  H 13       H 14       H 15       H 16       H 17       H 18
 ------------------------------------------------------------------------------
     H   13   4.528851
     H   14   0.038641   4.603970
     H   15   0.002443   0.035305   5.083265
     H   16   0.003775   0.033892   0.555533   5.018933
     H   17   0.002026   0.000991   0.000293   0.000303   5.049380
     H   18   0.010531   0.001924   0.000296   0.000144   0.565890   4.988135
     H   19   0.001123   0.001785   0.028120   0.047897   0.000228   0.000265
     H   20   0.002612   0.008280   0.025066   0.033699   0.000093   0.000194
     H   21   0.108220   0.002520   0.048462   0.022942   0.000204   0.000439
     H   22   0.001819   0.000363   0.000486   0.000239   0.017425   0.002522
     H   23   0.001716   0.000313   0.000174   0.000301   0.001142   0.002249
     H   24   0.015519   0.000450   0.000140   0.000144   0.001400   0.025196
     H   25   0.035322   0.018003   0.000328   0.001166   0.000483   0.000611
     H   26   0.000547   0.015723   0.000617   0.002505   0.035896   0.017570
     H   27   0.000891   0.021729   0.025806   0.002105   0.013398   0.016928
     H   28   0.002603   0.000821   0.000322   0.000864   0.000677   0.000184
     H   29   0.029581   0.000828   0.000573   0.003256   0.000445   0.000215


                  H 19       H 20       H 21       H 22       H 23       H 24
 ------------------------------------------------------------------------------
     H   19   5.460420
     H   20   0.563928   5.497781
     H   21   0.566102   0.545368   5.306306
     H   22   0.000090   0.000119   0.000184   5.474665
     H   23   0.000139   0.000149   0.000180   0.563304   5.457164
     H   24   0.000122   0.000091   0.000257   0.569650   0.570797   5.455119
     H   25   0.000356   0.000366   0.000547   0.000701   0.009603   0.000616
     H   26   0.000641   0.000209   0.000274   0.000487   0.001647   0.000420
     H   27   0.005350   0.000772   0.000830   0.000258   0.000282   0.000315
     H   28   0.000333   0.000348   0.000444   0.000231   0.000834   0.000194
     H   29   0.000621   0.000402   0.007186   0.000287   0.000675   0.000464


                  H 25       H 26       H 27       H 28       H 29
 ------------------------------------------------------------------
     H   25   5.151075
     H   26   0.000541   5.198181
     H   27   0.000648   0.068890   5.168412
     H   28   0.078373   0.000239   0.000570   5.494812
     H   29   0.116942   0.000213   0.000583   0.418031   5.448731


          HEAT OF FORMATION =       0.578412 KCALS/MOLE

          ZERO POINT ENERGY     163.242 KCAL/MOL


           NORMAL COORDINATE ANALYSIS (Total motion = 1 Angstrom)


   Root No.       1         2         3         4         5         6         7         8

                 1 A       2 A       3 A       4 A       5 A       6 A       7 A       8 A   

                  60.3      87.8     108.1     139.4     199.0     212.2     226.3     285.1
  
           1    0.0037   -0.0121   -0.0033   -0.0023    0.0038    0.0000    0.0058    0.0042
           2   -0.0066   -0.0007    0.0063   -0.0038   -0.0047   -0.0017   -0.0017    0.0013
           3   -0.0098   -0.0029   -0.0028    0.0070   -0.0088   -0.0028   -0.0038    0.0060
           4    0.0036   -0.0124   -0.0032   -0.0018    0.0052    0.0009    0.0079    0.0059
           5   -0.0036   -0.0070   -0.0077   -0.0057   -0.0113   -0.0048   -0.0126   -0.0029
           6    0.0079   -0.0035    0.0018   -0.0018   -0.0159   -0.0109   -0.0127    0.0111
           7    0.0090   -0.0035   -0.0003    0.0020    0.0020    0.0023    0.0040    0.0017
           8   -0.0055   -0.0103   -0.0081   -0.0074   -0.0089   -0.0052   -0.0097    0.0014
           9    0.0047    0.0006    0.0098   -0.0064   -0.0131   -0.0129   -0.0060    0.0112
          10    0.0021   -0.0021   -0.0013    0.0063    0.0033    0.0036    0.0040   -0.0047
          11   -0.0127   -0.0188   -0.0091   -0.0173    0.0068    0.0001    0.0161    0.0386
          12   -0.0238    0.0057    0.0068    0.0110   -0.0067   -0.0086   -0.0045   -0.0174
          13    0.0139   -0.0132    0.0206   -0.0227   -0.0007   -0.0033   -0.0083   -0.0010
          14    0.0017    0.0150   -0.0144    0.0128   -0.0032   -0.0030    0.0063    0.0028
          15   -0.0089    0.0068   -0.0258    0.0260   -0.0052   -0.0012    0.0078    0.0086
          16    0.0094   -0.0157   -0.0260    0.0001   -0.0162   -0.0034   -0.0150   -0.0108
          17   -0.0094    0.0001    0.0165   -0.0056    0.0040    0.0002    0.0070    0.0064
          18   -0.0291   -0.0209    0.0313   -0.0099    0.0076    0.0096    0.0029   -0.0110
          19   -0.0293    0.0035   -0.0149    0.0046    0.0270    0.0287    0.0083   -0.0071
          20    0.0035   -0.0342    0.0306    0.0418    0.0055    0.0017    0.0126   -0.0024
          21   -0.0353    0.0123   -0.0099   -0.0105   -0.0015   -0.0045   -0.0017   -0.0042
          22    0.0015    0.0034    0.0034    0.0156   -0.0086   -0.0099    0.0025    0.0005
          23    0.0071   -0.0027   -0.0040   -0.0165    0.0004    0.0022   -0.0069   -0.0028
          24    0.0243    0.0031    0.0098   -0.0268    0.0058    0.0057   -0.0027    0.0067
          25   -0.0110   -0.0071   -0.0047   -0.0047   -0.0015   -0.0039   -0.0054   -0.0048
          26    0.0061   -0.0082   -0.0162    0.0002   -0.0003   -0.0003   -0.0131   -0.0227
          27    0.0203   -0.0063   -0.0032    0.0036   -0.0057   -0.0063   -0.0064    0.0050
          28    0.0039   -0.0017    0.0142    0.0059   -0.0152   -0.0179   -0.0015    0.0149
          29    0.0107    0.0091   -0.0085   -0.0080    0.0076    0.0081    0.0010   -0.0115
          30    0.0174    0.0079   -0.0119   -0.0101    0.0159    0.0192    0.0023   -0.0174
          31   -0.0058    0.0585    0.0182   -0.0003   -0.0004   -0.0017    0.0021    0.0062
          32    0.0101    0.0585    0.0073    0.0041   -0.0005    0.0014   -0.0068   -0.0120
          33    0.0415   -0.0025   -0.0065    0.0165    0.0202    0.0077    0.0192    0.0071
          34   -0.0088   -0.0100   -0.0013    0.0063    0.0171    0.0047    0.0212    0.0061
          35   -0.0157   -0.0111    0.0343   -0.0186    0.0036    0.0047    0.0015   -0.0033
          36   -0.0093    0.0039   -0.0182    0.0191   -0.0080   -0.0046    0.0008    0.0093
          37    0.0124   -0.0164   -0.0035   -0.0013    0.0083    0.0002    0.0140    0.0029
          38   -0.0114   -0.0077   -0.0026   -0.0054   -0.0141   -0.0063   -0.0107   -0.0009
          39    0.0154   -0.0047   -0.0013   -0.0017   -0.0122   -0.0102   -0.0104    0.0094
          40    0.0306   -0.0035    0.0001   -0.0102    0.0015    0.0066   -0.0019    0.0086
          41   -0.0104   -0.0128   -0.0135    0.0022   -0.0172   -0.0099   -0.0170   -0.0046
          42    0.0087    0.0017    0.0118   -0.0116   -0.0091   -0.0099   -0.0035    0.0136
          43    0.0124    0.0009    0.0079    0.0248   -0.0100   -0.0011   -0.0184   -0.0400
          44   -0.0173   -0.0192   -0.0159   -0.0302    0.0122    0.0014    0.0262    0.0580
          45   -0.0188   -0.0023    0.0356    0.0613   -0.0061   -0.0033   -0.0129   -0.0631
          46    0.0111   -0.0072   -0.0040   -0.0126    0.0046   -0.0020    0.0201    0.0314
          47   -0.0264   -0.0143   -0.0359   -0.0612    0.0162    0.0017    0.0340    0.0877
          48   -0.0424    0.0140   -0.0141   -0.0121    0.0005   -0.0026   -0.0019   -0.0039
          49    0.0109   -0.0108    0.0162   -0.0144   -0.0035   -0.0064   -0.0053    0.0040
          50   -0.0112    0.0262   -0.0260    0.0477   -0.0216   -0.0206    0.0169    0.0286
          51   -0.0233    0.0170   -0.0592    0.0684   -0.0110   -0.0100    0.0286    0.0304
          52    0.0340   -0.0277    0.0549   -0.0783    0.0154    0.0147   -0.0313   -0.0344
          53    0.0140    0.0200   -0.0216    0.0060    0.0094    0.0055    0.0076   -0.0092
          54   -0.0140    0.0012   -0.0155    0.0218   -0.0111   -0.0038    0.0036    0.0115
          55   -0.0443    0.0061   -0.0124    0.0427    0.0593    0.1141   -0.0969    0.0622
          56    0.0133   -0.0429    0.0577    0.0964    0.0148    0.0423   -0.0512    0.0139
          57   -0.0182    0.0032    0.0128    0.0168   -0.0110   -0.0155   -0.0003   -0.0279
          58   -0.0339    0.0045   -0.0174    0.0028    0.0302    0.0310    0.0115   -0.0087
          59    0.0040   -0.0357    0.0250    0.0067   -0.0150   -0.0742    0.1269   -0.0826
          60   -0.0596    0.0179   -0.0199   -0.0023    0.0248    0.0438   -0.0414    0.0261
          61   -0.0339    0.0053   -0.0273   -0.0365    0.0112   -0.0351    0.1067   -0.0682
          62    0.0060   -0.0363    0.0401    0.0688    0.0148    0.0371   -0.0407    0.0266
          63   -0.0369    0.0209   -0.0348   -0.0614   -0.0137   -0.0390    0.0423   -0.0037
          64    0.0094   -0.0157   -0.0260    0.0001   -0.0162   -0.0035   -0.0152   -0.0110
          65   -0.0143    0.0027    0.0350   -0.0076    0.0242   -0.0003    0.0234    0.0202
          66   -0.0408   -0.0222    0.0315   -0.0034    0.1430   -0.1105   -0.0429   -0.0126
          67    0.0023   -0.0181   -0.0352    0.0065    0.0833   -0.1009   -0.0607   -0.0192
          68   -0.0162   -0.0115    0.0325   -0.0181   -0.0341    0.0467    0.0209   -0.0098
          69   -0.0306   -0.0271    0.0444   -0.0199   -0.0520    0.0737    0.0281   -0.0180
          70    0.0213   -0.0161   -0.0359   -0.0040   -0.1342    0.0921    0.0127   -0.0173
          71    0.0002    0.0099   -0.0097    0.0075    0.0288   -0.0439   -0.0157    0.0138
          72   -0.0310   -0.0275    0.0451   -0.0202   -0.0529    0.0747    0.0285   -0.0183
          73   -0.0263   -0.0548   -0.0236   -0.0113   -0.0098   -0.0119   -0.0271   -0.0298
          74    0.0109   -0.0632   -0.0419    0.0033    0.0116    0.0024   -0.0177   -0.0527
          75    0.0118   -0.0119   -0.0043   -0.0001   -0.0128   -0.0106   -0.0147    0.0025
          76   -0.0001    0.0024    0.0194    0.0162   -0.0280   -0.0326    0.0000    0.0330
          77    0.0199    0.0153   -0.0086   -0.0136    0.0185    0.0189    0.0042   -0.0245
          78    0.0311    0.0113   -0.0160   -0.0251    0.0387    0.0434    0.0046   -0.0468
          79   -0.0043    0.0120   -0.0007    0.0339   -0.0137   -0.0153    0.0056   -0.0026
          80    0.0137   -0.0069    0.0010   -0.0310    0.0050    0.0064   -0.0086   -0.0010
          81    0.0441    0.0023    0.0258   -0.0569    0.0171    0.0144   -0.0050    0.0073
          82   -0.0164    0.0694    0.0202   -0.0047   -0.0115   -0.0093   -0.0169   -0.0109
          83    0.0187    0.0627    0.0027    0.0118    0.0143    0.0077   -0.0009   -0.0287
          84    0.0511   -0.0048   -0.0101    0.0229    0.0337    0.0147    0.0310    0.0049
          85    0.0091    0.1068    0.0368    0.0076    0.0113    0.0076    0.0278    0.0341
          86    0.0047    0.1160    0.0334   -0.0005   -0.0158   -0.0038   -0.0064    0.0150
          87    0.0509    0.0025   -0.0059    0.0222    0.0313    0.0143    0.0322    0.0122


   Root No.       9        10        11        12        13        14        15        16

                 9 A      10 A      11 A      12 A      13 A      14 A      15 A      16 A   

                 291.5     336.9     367.6     415.9     442.2     464.9     490.8     535.8
  
           1    0.0026   -0.0139   -0.0095   -0.0050    0.0176   -0.0143    0.0319   -0.0276
           2   -0.0105   -0.0065   -0.0104   -0.0201   -0.0151   -0.0222   -0.0255   -0.0132
           3    0.0022    0.0177   -0.0137   -0.0081    0.0067    0.0230   -0.0342   -0.0267
           4    0.0042   -0.0112   -0.0090   -0.0044    0.0158   -0.0169    0.0237   -0.0105
           5   -0.0144    0.0101   -0.0023   -0.0061    0.0218   -0.0035   -0.0096    0.0267
           6    0.0054    0.0267   -0.0188   -0.0171   -0.0176   -0.0013    0.0110    0.0259
           7   -0.0090    0.0147    0.0060    0.0121    0.0096   -0.0263   -0.0094    0.0124
           8   -0.0057    0.0010   -0.0091   -0.0085    0.0302    0.0067    0.0040    0.0288
           9   -0.0011   -0.0004    0.0141   -0.0023    0.0017   -0.0107   -0.0055    0.0148
          10   -0.0086    0.0155    0.0038    0.0135    0.0132   -0.0309   -0.0107    0.0185
          11    0.0009    0.0052   -0.0009    0.0263   -0.0075   -0.0035   -0.0052    0.0030
          12    0.0064   -0.0166   -0.0062    0.0104    0.0084   -0.0139   -0.0003   -0.0030
          13    0.0085    0.0049   -0.0162    0.0090    0.0068    0.0353    0.0030   -0.0259
          14   -0.0019   -0.0165    0.0035    0.0005   -0.0204    0.0128    0.0118    0.0075
          15    0.0013    0.0060   -0.0021    0.0019    0.0162    0.0201   -0.0020   -0.0239
          16   -0.0508   -0.0234   -0.0020   -0.0090   -0.0209   -0.0092   -0.0080   -0.0165
          17    0.0100   -0.0063   -0.0138   -0.0223   -0.0031   -0.0336   -0.0105   -0.0248
          18   -0.0293   -0.0145    0.0124    0.0113   -0.0064    0.0122    0.0108    0.0089
          19   -0.0100    0.0343    0.0117   -0.0281   -0.0087    0.0139   -0.0020    0.0066
          20    0.0006    0.0120   -0.0001    0.0016   -0.0085    0.0024   -0.0026   -0.0010
          21    0.0066   -0.0155   -0.0054    0.0126    0.0043   -0.0091   -0.0002   -0.0054
          22   -0.0015    0.0050   -0.0026    0.0349   -0.0074    0.0145   -0.0046    0.0051
          23   -0.0021   -0.0098    0.0030   -0.0106    0.0183    0.0414    0.0122    0.0043
          24   -0.0020   -0.0006    0.0419   -0.0187    0.0031   -0.0083   -0.0048   -0.0068
          25    0.0534   -0.0166   -0.0018   -0.0130   -0.0039    0.0006   -0.0050    0.0223
          26    0.0261    0.0093    0.0243    0.0131    0.0090   -0.0069    0.0038   -0.0121
          27    0.0100    0.0261   -0.0101   -0.0084   -0.0243   -0.0110    0.0389   -0.0038
          28   -0.0013    0.0005    0.0273    0.0107    0.0009    0.0234   -0.0041   -0.0032
          29    0.0002   -0.0149   -0.0179    0.0064   -0.0201    0.0210    0.0165    0.0056
          30   -0.0015    0.0121   -0.0121    0.0268    0.0038   -0.0100   -0.0070    0.0063
          31    0.0206   -0.0141   -0.0097   -0.0126   -0.0090    0.0032   -0.0067    0.0191
          32   -0.0083    0.0156    0.0178    0.0157    0.0041   -0.0055    0.0048   -0.0214
          33    0.0055   -0.0255   -0.0064   -0.0088    0.0021    0.0069   -0.0130    0.0124
          34    0.0090   -0.0297   -0.0033   -0.0034    0.0285   -0.0224    0.0405   -0.0601
          35   -0.0148   -0.0147   -0.0097   -0.0225   -0.0218   -0.0426   -0.0217   -0.0154
          36    0.0069    0.0156   -0.0110   -0.0056    0.0154    0.0310   -0.0301   -0.0378
          37    0.0014   -0.0040   -0.0057   -0.0100    0.0139   -0.0190    0.0594   -0.0016
          38   -0.0213    0.0091    0.0031   -0.0132    0.0340    0.0062   -0.0232    0.0463
          39    0.0088    0.0281   -0.0199   -0.0142   -0.0239   -0.0079    0.0319    0.0184
          40   -0.0180    0.0347    0.0265   -0.0126    0.0121   -0.0264   -0.0163    0.0311
          41   -0.0029    0.0157   -0.0341   -0.0109    0.0272    0.0007    0.0088    0.0521
          42   -0.0026   -0.0044    0.0266   -0.0038    0.0023   -0.0083   -0.0080    0.0058
          43   -0.0121    0.0053   -0.0062   -0.0151    0.0522   -0.0299    0.0010    0.0412
          44    0.0023    0.0095    0.0037    0.0416   -0.0249   -0.0046   -0.0110   -0.0059
          45    0.0064   -0.0151   -0.0105   -0.0222    0.0187   -0.0040    0.0081   -0.0052
          46   -0.0072    0.0225    0.0149    0.0442   -0.0131   -0.0421   -0.0234    0.0113
          47    0.0038    0.0098    0.0063    0.0630   -0.0374   -0.0077   -0.0164   -0.0096
          48    0.0079   -0.0181   -0.0085    0.0165    0.0037   -0.0085    0.0004   -0.0083
          49    0.0073    0.0009   -0.0055    0.0066    0.0080    0.0340    0.0107   -0.0237
          50   -0.0067   -0.0278    0.0612   -0.0090   -0.0175    0.0175    0.0319    0.0241
          51   -0.0028   -0.0231    0.0391   -0.0160    0.0299   -0.0106    0.0669   -0.0191
          52    0.0150    0.0348   -0.0835    0.0309   -0.0067    0.0608   -0.0638   -0.0417
          53    0.0004   -0.0191   -0.0066    0.0198   -0.0249    0.0083    0.0310    0.0252
          54    0.0004    0.0117   -0.0047   -0.0078    0.0167    0.0266   -0.0235   -0.0372
          55   -0.0010    0.0119    0.0132   -0.0219   -0.0135    0.0227    0.0065   -0.0015
          56    0.0067   -0.0065   -0.0031    0.0099   -0.0009   -0.0109    0.0000   -0.0040
          57    0.0070   -0.0194   -0.0086    0.0159    0.0136   -0.0255   -0.0024   -0.0035
          58   -0.0106    0.0381    0.0137   -0.0377   -0.0128    0.0242    0.0004    0.0041
          59   -0.0104    0.0486    0.0056   -0.0420   -0.0187    0.0311   -0.0026   -0.0029
          60    0.0091   -0.0146    0.0009   -0.0124   -0.0114    0.0274    0.0111   -0.0180
          61   -0.0193    0.0624    0.0172   -0.0645   -0.0165    0.0412    0.0015    0.0033
          62    0.0056   -0.0032   -0.0024    0.0164   -0.0043   -0.0091   -0.0029   -0.0008
          63    0.0026   -0.0033   -0.0066    0.0274    0.0012   -0.0167   -0.0090    0.0044
          64   -0.0514   -0.0237   -0.0018   -0.0090   -0.0217   -0.0089   -0.0084   -0.0166
          65    0.0563    0.0039   -0.0205   -0.0187    0.0407   -0.0431    0.0335   -0.0388
          66   -0.0667   -0.0204    0.0190    0.0157   -0.0147    0.0108    0.0252    0.0257
          67   -0.1020   -0.0329    0.0068   -0.0080   -0.0504   -0.0058   -0.0209    0.0017
          68   -0.0111   -0.0311    0.0075   -0.0073   -0.0247   -0.0348    0.0142    0.0102
          69   -0.0243   -0.0267    0.0225    0.0204   -0.0095    0.0106    0.0310    0.0242
          70   -0.0470   -0.0251   -0.0030   -0.0144   -0.0387   -0.0034   -0.0419   -0.0228
          71    0.0055    0.0117   -0.0300   -0.0391   -0.0074   -0.0286   -0.0587   -0.0518
          72   -0.0249   -0.0272    0.0232    0.0209   -0.0099    0.0113    0.0315    0.0256
          73    0.1309   -0.0109    0.0283   -0.0088   -0.0428   -0.0032   -0.0192    0.0273
          74    0.1030   -0.0110    0.0668    0.0291   -0.0141   -0.0109   -0.0203   -0.0311
          75    0.0225    0.0337   -0.0088   -0.0114   -0.0347   -0.0109    0.0379    0.0048
          76   -0.0040   -0.0064    0.0605   -0.0024   -0.0104    0.0189   -0.0101    0.0036
          77   -0.0017   -0.0144   -0.0250    0.0226   -0.0401   -0.0070    0.0166    0.0196
          78   -0.0012    0.0182   -0.0476    0.0555   -0.0097   -0.0374   -0.0021    0.0153
          79    0.0019   -0.0013   -0.0221    0.0556   -0.0317    0.0296   -0.0009    0.0069
          80   -0.0033   -0.0089    0.0198   -0.0269    0.0284    0.0350    0.0126   -0.0021
          81    0.0000   -0.0118    0.0803   -0.0534   -0.0016   -0.0021    0.0057   -0.0384
          82    0.0673    0.0129    0.0185    0.0005   -0.0686   -0.0114    0.0067   -0.0117
          83    0.0405   -0.0182    0.0516    0.0272   -0.0204    0.0050   -0.0594   -0.0211
          84    0.0141   -0.0575    0.0009   -0.0082    0.0135    0.0198   -0.0572    0.0272
          85   -0.0575   -0.0368   -0.0459   -0.0249    0.0432    0.0198   -0.0190    0.0440
          86   -0.0917    0.0564   -0.0225    0.0076    0.0231   -0.0147    0.0708   -0.0346
          87   -0.0058   -0.0514   -0.0110   -0.0123    0.0224    0.0188   -0.0426    0.0299


   Root No.      17        18        19        20        21        22        23        24

                17 A      18 A      19 A      20 A      21 A      22 A      23 A      24 A   

                 622.7     650.8     721.5     789.8     838.5     891.0     912.4     931.1
  
           1    0.0143    0.0172   -0.0044   -0.0091   -0.0011    0.0050   -0.0066    0.0008
           2   -0.0001   -0.0043    0.0074    0.0047    0.0004   -0.0022    0.0029   -0.0014
           3   -0.0134   -0.0075   -0.0052   -0.0097    0.0055   -0.0040    0.0101   -0.0125
           4    0.0078    0.0033   -0.0079    0.0006    0.0034   -0.0210    0.0018   -0.0116
           5    0.0123    0.0033    0.0022   -0.0165   -0.0052    0.0012   -0.0128   -0.0044
           6   -0.0044    0.0051    0.0052   -0.0114   -0.0032    0.0197   -0.0166    0.0031
           7   -0.0175    0.0041   -0.0063   -0.0005    0.0039   -0.0041   -0.0055   -0.0032
           8    0.0083    0.0253    0.0035    0.0035    0.0029   -0.0127    0.0090    0.0029
           9    0.0481    0.0108   -0.0205   -0.0204    0.0030   -0.0094    0.0213    0.0081
          10   -0.0422    0.0060   -0.0231    0.0017   -0.0048    0.0061    0.0091    0.0042
          11   -0.0086    0.0035    0.0003    0.0099    0.0374    0.0022    0.0016    0.0015
          12   -0.0130   -0.0018   -0.0029   -0.0024   -0.0127   -0.0014    0.0029    0.0010
          13   -0.0028    0.0059   -0.0042   -0.0209    0.0026    0.0337    0.0112    0.0019
          14   -0.0049   -0.0053   -0.0245   -0.0070    0.0054   -0.0130   -0.0087    0.0036
          15   -0.0007    0.0063   -0.0132    0.0007   -0.0013   -0.0072   -0.0130    0.0179
          16    0.0038    0.0026    0.0049    0.0013   -0.0018    0.0060   -0.0080    0.0046
          17    0.0120    0.0021    0.0158    0.0095   -0.0045    0.0074   -0.0027    0.0097
          18   -0.0022   -0.0006   -0.0039   -0.0032    0.0019   -0.0025    0.0072   -0.0131
          19    0.0056    0.0019   -0.0046   -0.0015   -0.0066    0.0049    0.0057    0.0037
          20   -0.0034   -0.0025    0.0024    0.0019    0.0082    0.0040   -0.0035    0.0003
          21   -0.0136   -0.0027    0.0025    0.0031   -0.0013    0.0012   -0.0068   -0.0037
          22    0.0167   -0.0045    0.0311    0.0022    0.0015   -0.0122   -0.0069    0.0030
          23   -0.0241    0.0147    0.0229    0.0370   -0.0231    0.0034    0.0112   -0.0003
          24    0.0010   -0.0077   -0.0149    0.0128    0.0026    0.0120    0.0024   -0.0094
          25    0.0021   -0.0448    0.0010    0.0029   -0.0008   -0.0017   -0.0022   -0.0208
          26    0.0096   -0.0458   -0.0052   -0.0035    0.0009    0.0029   -0.0055   -0.0217
          27   -0.0126   -0.0029    0.0042    0.0152   -0.0015   -0.0083    0.0021   -0.0036
          28    0.0035   -0.0063    0.0303    0.0056    0.0025   -0.0096   -0.0033    0.0005
          29   -0.0084   -0.0007   -0.0354   -0.0155    0.0028    0.0061    0.0061   -0.0069
          30    0.0263    0.0016    0.0268    0.0329   -0.0083    0.0086   -0.0092   -0.0003
          31   -0.0039    0.0027    0.0038    0.0041   -0.0012   -0.0022    0.0006   -0.0054
          32    0.0050    0.0021   -0.0045   -0.0054    0.0010    0.0052   -0.0043   -0.0066
          33   -0.0018    0.0007    0.0020    0.0058   -0.0003   -0.0142    0.0137   -0.0015
          34    0.0194    0.0225   -0.0130    0.0044    0.0032   -0.0338    0.0115   -0.0024
          35    0.0067   -0.0044    0.0306    0.0200   -0.0028    0.0140    0.0342   -0.0315
          36   -0.0141   -0.0042   -0.0214   -0.0138    0.0084   -0.0263   -0.0025    0.0053
          37    0.0304    0.0241   -0.0093   -0.0012   -0.0100   -0.0324   -0.0084   -0.0056
          38    0.0462    0.0270   -0.0076   -0.0446   -0.0167   -0.0180    0.0103    0.0052
          39   -0.0147    0.0004    0.0095    0.0044   -0.0008    0.0243   -0.0316    0.0004
          40   -0.0119    0.0123   -0.0308    0.0007    0.0002    0.0163   -0.0142   -0.0106
          41    0.0113    0.0338    0.0152   -0.0311   -0.0059   -0.0137   -0.0166    0.0151
          42    0.0469    0.0064   -0.0267   -0.0068    0.0064   -0.0068    0.0297    0.0021
          43   -0.0438    0.0358   -0.0260    0.0318    0.1034   -0.0051    0.0205    0.0043
          44   -0.0065   -0.0092    0.0011   -0.0068   -0.0263    0.0035   -0.0019    0.0008
          45   -0.0219    0.0017    0.0041    0.0339    0.1378    0.0250   -0.0090    0.0040
          46   -0.0297   -0.0105   -0.0351   -0.0308   -0.0906    0.0070    0.0170    0.0095
          47   -0.0060   -0.0167   -0.0017   -0.0285   -0.1306   -0.0070    0.0030   -0.0020
          48   -0.0200   -0.0060    0.0048   -0.0088   -0.0842   -0.0096   -0.0027   -0.0065
          49   -0.0056    0.0062    0.0090   -0.0280    0.0035    0.0481    0.0199   -0.0035
          50   -0.0252   -0.0136    0.0533   -0.0312    0.0116    0.0370    0.0332   -0.0269
          51   -0.0052    0.0258    0.0474   -0.0439   -0.0059    0.1031    0.0347   -0.0011
          52    0.0140   -0.0049   -0.1060    0.0264    0.0046   -0.0816   -0.0572    0.0410
          53    0.0175    0.0009   -0.0382    0.0151   -0.0022   -0.0038   -0.0278    0.0073
          54   -0.0136    0.0004   -0.0180   -0.0085    0.0044   -0.0287   -0.0095    0.0203
          55    0.0392    0.0023    0.0081   -0.0021    0.0272   -0.0086   -0.0024   -0.0012
          56   -0.0132   -0.0060   -0.0045   -0.0153   -0.0976   -0.0099    0.0020   -0.0056
          57   -0.0403   -0.0059   -0.0104   -0.0113   -0.1090   -0.0034    0.0021   -0.0060
          58    0.0230    0.0017    0.0025   -0.0037   -0.0006   -0.0030    0.0011    0.0002
          59    0.0272   -0.0052    0.0140   -0.0124   -0.0436   -0.0170   -0.0086   -0.0096
          60    0.0542   -0.0036    0.0326   -0.0001    0.0503   -0.0261   -0.0285   -0.0167
          61    0.0426    0.0028    0.0081   -0.0075   -0.0034   -0.0151   -0.0002   -0.0037
          62   -0.0154   -0.0032   -0.0027   -0.0003   -0.0142    0.0066   -0.0003    0.0014
          63   -0.0440   -0.0001   -0.0024    0.0308    0.1161    0.0409   -0.0094    0.0102
          64    0.0035    0.0022    0.0050    0.0017   -0.0016    0.0059   -0.0070    0.0046
          65    0.0330    0.0273    0.0086   -0.0148   -0.0095    0.0265   -0.0530    0.0187
          66    0.0016    0.0027   -0.0055   -0.0003   -0.0022    0.0024   -0.0165    0.0230
          67   -0.0036   -0.0087    0.0101    0.0176   -0.0029    0.0022    0.0028    0.0286
          68    0.0165    0.0008    0.0147    0.0240   -0.0120    0.0142   -0.0353    0.0797
          69    0.0030    0.0028   -0.0070   -0.0003   -0.0022    0.0029   -0.0173    0.0222
          70   -0.0090   -0.0127    0.0112    0.0135    0.0027   -0.0061    0.0349   -0.0211
          71   -0.0013   -0.0103    0.0248    0.0118    0.0030   -0.0040    0.0542   -0.0558
          72    0.0022    0.0024   -0.0082   -0.0005   -0.0017    0.0008   -0.0165    0.0227
          73   -0.0028    0.0059    0.0049    0.0026   -0.0018    0.0271    0.0204    0.1690
          74    0.0129    0.0013   -0.0118    0.0033    0.0072   -0.0095    0.0636    0.1644
          75   -0.0154    0.0064    0.0078    0.0123   -0.0039    0.0095   -0.0087    0.0285
          76    0.0292   -0.0150   -0.0570    0.0776   -0.0039   -0.0118   -0.0492   -0.0190
          77   -0.0096   -0.0189    0.0200   -0.0938    0.0408   -0.0287    0.0242   -0.0228
          78    0.0046   -0.0121    0.1603   -0.1138    0.0402   -0.0284    0.0477   -0.0021
          79    0.0739   -0.0046   -0.0394    0.0467    0.0014    0.0485    0.0327   -0.0357
          80   -0.0712    0.0080    0.0723   -0.0085   -0.0167   -0.0438   -0.0222    0.0266
          81   -0.1032   -0.0421    0.0684   -0.1128    0.0359   -0.0806   -0.0729    0.0367
          82   -0.0280    0.2146    0.0123    0.0242   -0.0030   -0.0675    0.0440   -0.0060
          83    0.0044    0.2100   -0.0007   -0.0398   -0.0012    0.0424   -0.0528    0.0016
          84    0.0082    0.0308    0.0009   -0.0233   -0.0011    0.0368   -0.0345    0.0037
          85    0.0105   -0.1326    0.0003   -0.0117   -0.0012    0.0512   -0.0164    0.1175
          86   -0.0015   -0.1310   -0.0069    0.0284    0.0035   -0.0421    0.0741    0.1113
          87    0.0080   -0.0228    0.0009   -0.0146   -0.0013    0.0305   -0.0227    0.0210


   Root No.      25        26        27        28        29        30        31        32

                25 A      26 A      27 A      28 A      29 A      30 A      31 A      32 A   

                 951.1     964.2     971.7     984.7    1003.3    1025.2    1048.1    1055.1
  
           1   -0.0095   -0.0061    0.0048    0.0004    0.0024    0.0004    0.0069   -0.0078
           2    0.0022    0.0045   -0.0029    0.0025   -0.0009    0.0022   -0.0050   -0.0041
           3   -0.0132   -0.0025    0.0044    0.0008   -0.0035    0.0009   -0.0103   -0.0003
           4   -0.0053    0.0032   -0.0183    0.0017   -0.0090    0.0112   -0.0084   -0.0125
           5   -0.0039    0.0099    0.0159   -0.0078   -0.0039    0.0154    0.0060   -0.0228
           6   -0.0060   -0.0036   -0.0034   -0.0002   -0.0002    0.0013    0.0031   -0.0055
           7   -0.0105    0.0257   -0.0034    0.0079    0.0090   -0.0023   -0.0013    0.0010
           8    0.0009    0.0000   -0.0072   -0.0012   -0.0055   -0.0097   -0.0016    0.0084
           9    0.0141   -0.0183   -0.0065    0.0016    0.0180   -0.0034   -0.0017    0.0160
          10    0.0083   -0.0135   -0.0002   -0.0013    0.0054    0.0006   -0.0151    0.0047
          11    0.0026   -0.0053   -0.0017   -0.0040   -0.0137   -0.0098    0.0000    0.0106
          12    0.0041   -0.0093   -0.0006   -0.0034    0.0043    0.0065   -0.0113   -0.0061
          13    0.0159    0.0208   -0.0019   -0.0159   -0.0040   -0.0037   -0.0022    0.0067
          14    0.0006    0.0014   -0.0015    0.0022   -0.0058   -0.0036    0.0062    0.0064
          15    0.0209    0.0042   -0.0045    0.0042    0.0003   -0.0008    0.0111    0.0015
          16   -0.0069   -0.0105    0.0257    0.0041    0.0017   -0.0072   -0.0047    0.0129
          17    0.0138   -0.0003   -0.0011   -0.0013   -0.0002   -0.0013    0.0016    0.0042
          18   -0.0193   -0.0073   -0.0035   -0.0076    0.0036   -0.0023    0.0072    0.0031
          19    0.0086   -0.0202    0.0040   -0.0058   -0.0106   -0.0008    0.0151   -0.0017
          20   -0.0018    0.0042    0.0029    0.0028    0.0104    0.0052    0.0019   -0.0058
          21   -0.0093    0.0204    0.0005    0.0082    0.0011   -0.0045    0.0112    0.0039
          22   -0.0024   -0.0073   -0.0013   -0.0083    0.0088    0.0001    0.0010    0.0008
          23   -0.0008   -0.0145   -0.0003    0.0220    0.0169    0.0060   -0.0011   -0.0018
          24   -0.0048    0.0062    0.0050    0.0122   -0.0230    0.0020    0.0002   -0.0115
          25    0.0107    0.0001    0.0052   -0.0014    0.0002    0.0191    0.0023    0.0111
          26    0.0090   -0.0033   -0.0012    0.0009    0.0000    0.0190    0.0015    0.0118
          27    0.0011   -0.0041   -0.0055    0.0059   -0.0002    0.0009   -0.0033    0.0051
          28   -0.0007   -0.0055    0.0012    0.0109   -0.0094   -0.0002    0.0094   -0.0032
          29   -0.0080    0.0004    0.0011   -0.0064    0.0090    0.0029   -0.0105   -0.0054
          30   -0.0026    0.0027   -0.0014   -0.0259   -0.0012   -0.0020   -0.0112    0.0019
          31    0.0057    0.0005    0.0039    0.0003    0.0056   -0.0325   -0.0009   -0.0106
          32    0.0024   -0.0056   -0.0063    0.0041    0.0059   -0.0334   -0.0026   -0.0096
          33    0.0074    0.0118    0.0225   -0.0100    0.0020   -0.0037    0.0041   -0.0051
          34   -0.0248   -0.0257   -0.0424    0.0174    0.0054   -0.0052    0.0235   -0.0357
          35   -0.0234   -0.0005   -0.0484   -0.0303    0.0230   -0.0013    0.0298   -0.0043
          36   -0.0024   -0.0071    0.0140    0.0261   -0.0161    0.0005   -0.0236   -0.0103
          37   -0.0069   -0.0172   -0.0716    0.0106   -0.0195    0.0102   -0.0177   -0.0246
          38    0.0042    0.0184    0.0405   -0.0352   -0.0001    0.0078    0.0123   -0.0426
          39   -0.0105   -0.0170   -0.0381    0.0184   -0.0062    0.0051   -0.0043    0.0008
          40   -0.0417    0.1124    0.0092    0.0744    0.0561   -0.0187    0.1121    0.0191
          41   -0.0156    0.0188   -0.0152   -0.0484   -0.0517   -0.0262   -0.0192   -0.0384
          42    0.0172   -0.0171   -0.0016    0.0268    0.0407    0.0025    0.0173    0.0356
          43    0.0035    0.0030   -0.0239   -0.0017   -0.0536   -0.0683   -0.0349    0.0909
          44    0.0023   -0.0073    0.0057   -0.0022    0.0088    0.0135    0.0043   -0.0186
          45    0.0150   -0.0340    0.0175   -0.0104    0.0177    0.0423    0.0204   -0.0525
          46    0.0159   -0.0214    0.0066    0.0159    0.1044    0.0571   -0.0443   -0.0322
          47   -0.0022   -0.0026   -0.0001   -0.0024   -0.0070    0.0013   -0.0098   -0.0077
          48   -0.0067    0.0016   -0.0047   -0.0141   -0.0649   -0.0277    0.0029    0.0071
          49    0.0155    0.0269   -0.0008   -0.0215   -0.0088   -0.0049   -0.0108    0.0090
          50   -0.0049    0.0286    0.0108   -0.0085   -0.0543   -0.0105   -0.0775    0.0261
          51    0.0267    0.0352   -0.0117   -0.0486    0.0314   -0.0008    0.0377    0.0002
          52    0.0231   -0.0111   -0.0059    0.0237   -0.0097   -0.0074    0.0356    0.0093
          53   -0.0099   -0.0013   -0.0152   -0.0535    0.0186   -0.0223    0.0979    0.0519
          54    0.0286    0.0019    0.0039    0.0460   -0.0171    0.0108   -0.0440   -0.0277
          55   -0.0061    0.0187   -0.0075    0.0073    0.0314    0.0074   -0.0382    0.0033
          56   -0.0094    0.0150   -0.0073    0.0031   -0.0417   -0.0293    0.0192    0.0280
          57   -0.0079    0.0089   -0.0021    0.0016   -0.0656   -0.0381    0.0550    0.0300
          58   -0.0011    0.0040   -0.0024    0.0017    0.0047   -0.0022   -0.0089    0.0065
          59   -0.0239    0.0550   -0.0132    0.0160    0.0062   -0.0206   -0.0361    0.0339
          60   -0.0472    0.1160   -0.0213    0.0381    0.0740    0.0001   -0.0823    0.0237
          61   -0.0087    0.0230   -0.0117    0.0061    0.0122   -0.0047   -0.0341    0.0126
          62    0.0022   -0.0072    0.0053   -0.0012   -0.0066   -0.0005    0.0184   -0.0033
          63    0.0139   -0.0301    0.0284   -0.0003    0.0371    0.0360    0.0468   -0.0448
          64   -0.0058   -0.0097    0.0230    0.0037    0.0016   -0.0070   -0.0041    0.0123
          65   -0.0549   -0.0575    0.1567    0.0233    0.0084   -0.0335   -0.0276    0.0623
          66    0.0344    0.0140    0.0058    0.0124   -0.0082    0.0038   -0.0109   -0.0046
          67    0.0682    0.0334   -0.0504    0.0034   -0.0108    0.0119   -0.0007   -0.0187
          68    0.1308    0.0513   -0.0191    0.0272   -0.0223    0.0148   -0.0204   -0.0171
          69    0.0273    0.0094    0.0126    0.0108   -0.0061    0.0009   -0.0085    0.0009
          70   -0.0018    0.0056   -0.0673   -0.0234    0.0047    0.0048    0.0248   -0.0115
          71   -0.0562   -0.0208   -0.0662   -0.0463    0.0180   -0.0038    0.0443    0.0034
          72    0.0309    0.0127    0.0076    0.0130   -0.0080    0.0037   -0.0112   -0.0049
          73   -0.0690   -0.0050   -0.0212    0.0125    0.0019   -0.0521   -0.0034   -0.0306
          74   -0.0570    0.0248    0.0073   -0.0167   -0.0001   -0.0513   -0.0033   -0.0347
          75   -0.0160   -0.0152   -0.0205    0.0179    0.0007   -0.0109   -0.0045   -0.0002
          76   -0.0504    0.0018    0.0050   -0.0692   -0.0348   -0.0035   -0.0289   -0.0354
[...]
 T-DIPOLE    0.0831        C  1 --  C  5          +11.2% ( 51.9%)    47.6%
 TRAVEL      0.0684        C  3 --  C  8           +9.9% ( 48.8%)    99.2%
 RED. MASS   1.6257        C  5 --  H 17           +8.6% ( 45.7%)     1.0%
 EFF. MASS   9.9656

 VIBRATION   62   62A       ATOM PAIR        ENERGY CONTRIBUTION    RADIAL
 FREQ.      1858.25        C  9 --  C 11          +45.5% ( 99.6%)    99.0%
 T-DIPOLE    0.1481        C  2 --  C  9          +16.4% ( 59.8%)    52.9%
 TRAVEL      0.0555        C  9 --  H 25          +15.3% ( 57.8%)     4.2%
 RED. MASS   5.3043        C 11 --  H 29          +11.1% ( 49.2%)    10.7%
 EFF. MASS  11.7958        C 11 --  H 28          +10.9% ( 48.7%)    12.9%

 VIBRATION   63   63A       ATOM PAIR        ENERGY CONTRIBUTION    RADIAL
 FREQ.      1887.55        C  8 --  C 10          +44.3% ( 98.2%)   100.0%
 T-DIPOLE    0.1373        C  3 --  C  8          +14.3% ( 55.8%)    52.5%
 TRAVEL      0.0548        C  5 --  C 10          +14.2% ( 55.5%)    52.4%
 RED. MASS   5.4252        C  8 --  H 27          +13.2% ( 53.6%)     4.6%
 EFF. MASS  11.8813        C 10 --  H 26          +13.0% ( 53.2%)     4.5%

 VIBRATION   64   64A       ATOM PAIR        ENERGY CONTRIBUTION    RADIAL
 FREQ.      2810.60        C  2 --  H 13          +95.2% ( 99.2%)   100.0%
 T-DIPOLE    0.1201        C  2 --  C  3           +1.1% ( 10.5%)     8.2%
 TRAVEL      0.1291        C  1 --  C  2           +1.1% ( 10.5%)     9.3%
 RED. MASS   0.9014        C  2 --  C  9           +1.0% ( 10.4%)    12.2%
 EFF. MASS   1.4385

 VIBRATION   65   65A       ATOM PAIR        ENERGY CONTRIBUTION    RADIAL
 FREQ.      2851.29        C  3 --  H 14          +96.0% ( 99.5%)   100.0%
 T-DIPOLE    0.0636        C  3 --  C  4           +1.0% ( 10.2%)     8.2%
 TRAVEL      0.1283        C  3 --  C  8           +1.0% ( 10.1%)     6.9%
 RED. MASS   0.9113        C  2 --  C  3           +1.0% ( 10.0%)     9.0%
 EFF. MASS   1.4362

 VIBRATION   66   66A       ATOM PAIR        ENERGY CONTRIBUTION    RADIAL
 FREQ.      2872.68        C  1 --  H 12          +95.8% ( 99.4%)   100.0%
 T-DIPOLE    0.0455        C  1 --  C  5           +1.0% ( 10.4%)     8.3%
 TRAVEL      0.1276        C  1 --  C  6           +1.0% ( 10.2%)     9.4%
 RED. MASS   0.9084        C  1 --  C  2           +1.0% ( 10.1%)     8.7%
 EFF. MASS   1.4408

 VIBRATION   67   67A       ATOM PAIR        ENERGY CONTRIBUTION    RADIAL
 FREQ.      2941.21        C  5 --  H 18          +59.4% ( 79.9%)    97.6%
 T-DIPOLE    0.0276        C  5 --  H 17          +37.8% ( 63.8%)    95.1%
 TRAVEL      0.1223        C  5 --  C 10           +1.1% ( 10.9%)     0.1%
 RED. MASS   0.5340        C  1 --  C  5           +1.1% ( 10.8%)     0.1%
 EFF. MASS   1.5334

 VIBRATION   68   68A       ATOM PAIR        ENERGY CONTRIBUTION    RADIAL
 FREQ.      2950.18        C  4 --  H 16          +59.9% ( 80.3%)    97.8%
 T-DIPOLE    0.0334        C  4 --  H 15          +37.3% ( 63.4%)    94.9%
 TRAVEL      0.1216        C  4 --  C  7           +1.2% ( 11.4%)     0.1%
 RED. MASS   0.5401        C  3 --  C  4           +1.2% ( 11.3%)     0.1%
 EFF. MASS   1.5463

 VIBRATION   69   69A       ATOM PAIR        ENERGY CONTRIBUTION    RADIAL
 FREQ.      3020.77        C  5 --  H 17          +60.2% ( 76.6%)    98.8%
 T-DIPOLE    0.0573        C  5 --  H 18          +37.0% ( 60.0%)    95.9%
 TRAVEL      0.1319        C 10 --  H 26           +1.5% ( 12.0%)   100.0%
 RED. MASS   0.4933        C  5 --  C 10           +0.7% (  8.0%)    18.3%
 EFF. MASS   1.2837

 VIBRATION   70   70A       ATOM PAIR        ENERGY CONTRIBUTION    RADIAL
 FREQ.      3026.22        C  4 --  H 15          +58.9% ( 75.8%)    98.7%
 T-DIPOLE    0.0503        C  4 --  H 16          +36.3% ( 59.5%)    95.7%
 TRAVEL      0.1317        C  7 --  H 21           +2.4% ( 15.3%)    98.7%
 RED. MASS   0.4749        C  4 --  C  7           +0.7% (  8.0%)    22.8%
 EFF. MASS   1.2850

 VIBRATION   71   71A       ATOM PAIR        ENERGY CONTRIBUTION    RADIAL
 FREQ.      3038.31        C  9 --  H 25          +95.8% ( 99.3%)   100.0%
 T-DIPOLE    0.2300        C  9 --  C 11           +1.4% ( 12.0%)    31.4%
 TRAVEL      0.1216        C  2 --  C  9           +1.3% ( 11.7%)    13.9%
 RED. MASS   0.9032        C 11 --  H 28           +0.9% (  9.4%)    95.2%
 EFF. MASS   1.5009

 VIBRATION   72   72A       ATOM PAIR        ENERGY CONTRIBUTION    RADIAL
 FREQ.      3038.97        C  8 --  H 27          +69.8% ( 84.8%)   100.0%
 T-DIPOLE    0.2808        C 10 --  H 26          +25.6% ( 51.3%)    99.9%
 TRAVEL      0.1232        C  8 --  C 10           +1.1% ( 10.7%)     3.7%
 RED. MASS   0.5408        C  7 --  H 21           +1.0% ( 10.2%)    99.3%
 EFF. MASS   1.4619

 VIBRATION   73   73A       ATOM PAIR        ENERGY CONTRIBUTION    RADIAL
 FREQ.      3041.08        C  7 --  H 21          +78.1% ( 90.7%)    99.4%
 T-DIPOLE    0.0208        C  7 --  H 19          +12.7% ( 36.5%)    83.3%
 TRAVEL      0.1226        C  7 --  H 20           +4.1% ( 20.8%)    55.4%
 RED. MASS   0.6437        C  4 --  H 15           +2.6% ( 16.4%)    99.6%
 EFF. MASS   1.4750

 VIBRATION   74   74A       ATOM PAIR        ENERGY CONTRIBUTION    RADIAL
 FREQ.      3061.79        C 10 --  H 26          +69.6% ( 84.6%)    99.9%
 T-DIPOLE    0.2839        C  8 --  H 27          +26.0% ( 51.7%)    99.8%
 TRAVEL      0.1181        C  8 --  C 10           +2.0% ( 14.2%)    91.3%
 RED. MASS   0.5505        C  5 --  C 10           +1.1% ( 10.7%)    17.6%
 EFF. MASS   1.5795

 VIBRATION   75   75A       ATOM PAIR        ENERGY CONTRIBUTION    RADIAL
 FREQ.      3075.71        C  6 --  H 24          +56.9% ( 77.9%)    98.1%
 T-DIPOLE    0.0279        C  6 --  H 23          +39.7% ( 65.0%)    95.4%
 TRAVEL      0.1207        C  6 --  H 22           +2.3% ( 15.8%)    27.8%
 RED. MASS   0.5107        C  1 --  C  6           +1.0% ( 10.4%)     0.0%
 EFF. MASS   1.5047

 VIBRATION   76   76A       ATOM PAIR        ENERGY CONTRIBUTION    RADIAL
 FREQ.      3081.75        C  6 --  H 22          +61.4% ( 80.9%)    98.7%
 T-DIPOLE    0.0208        C  6 --  H 23          +27.3% ( 53.9%)    91.4%
 TRAVEL      0.1204        C  6 --  H 24          +10.2% ( 33.0%)    73.7%
 RED. MASS   0.4924        C  1 --  C  6           +1.0% ( 10.5%)     0.0%
 EFF. MASS   1.5085

 VIBRATION   77   77A       ATOM PAIR        ENERGY CONTRIBUTION    RADIAL
 FREQ.      3086.61        C  7 --  H 19          +48.6% ( 71.9%)    96.7%
 T-DIPOLE    0.0183        C  7 --  H 20          +47.7% ( 71.2%)    97.3%
 TRAVEL      0.1204        C  7 --  H 21           +2.4% ( 15.9%)    26.9%
 RED. MASS   0.4943        C  4 --  C  7           +1.0% ( 10.4%)     0.0%
 EFF. MASS   1.5070

 VIBRATION   78   78A       ATOM PAIR        ENERGY CONTRIBUTION    RADIAL
 FREQ.      3130.51        C 11 --  H 29          +95.6% ( 99.3%)   100.0%
 T-DIPOLE    0.1994        C 11 --  H 28           +3.0% ( 17.4%)    49.7%
 TRAVEL      0.1191        C  9 --  C 11           +1.4% ( 11.8%)    31.3%
 RED. MASS   0.9080
 EFF. MASS   1.5185

 VIBRATION   79   79A       ATOM PAIR        ENERGY CONTRIBUTION    RADIAL
 FREQ.      3146.66        C 11 --  H 28          +95.3% ( 98.5%)    99.9%
 T-DIPOLE    0.2529        C 11 --  H 29           +2.4% ( 15.5%)     6.8%
 TRAVEL      0.1201        C  9 --  C 11           +1.6% ( 12.6%)    62.6%
 RED. MASS   0.8826        C  9 --  H 25           +0.8% (  8.8%)    95.1%
 EFF. MASS   1.4865

 VIBRATION   80   80A       ATOM PAIR        ENERGY CONTRIBUTION    RADIAL
 FREQ.      3166.16        C  7 --  H 20          +48.5% ( 67.4%)    98.5%
 T-DIPOLE    0.0152        C  7 --  H 19          +38.0% ( 59.6%)    97.2%
 TRAVEL      0.1357        C  7 --  H 21          +13.2% ( 35.1%)    88.2%
 RED. MASS   0.3820        C  4 --  C  7           +0.3% (  5.5%)    82.6%
 EFF. MASS   1.1566

 VIBRATION   81   81A       ATOM PAIR        ENERGY CONTRIBUTION    RADIAL
 FREQ.      3175.08        C  6 --  H 22          +35.8% ( 57.6%)    97.4%
 T-DIPOLE    0.0300        C  6 --  H 23          +32.1% ( 54.5%)    96.9%
 TRAVEL      0.1368        C  6 --  H 24          +31.8% ( 54.3%)    96.8%
 RED. MASS   0.3278        C  1 --  C  6           +0.3% (  5.0%)    99.7%
 EFF. MASS   1.1350

 SYMMETRY NUMBER FOR POINT-GROUP C1  =  1


          SYSTEM IS A GROUND STATE


    NULL



          MOLECULE IS NOT LINEAR

          THERE ARE 81 GENUINE VIBRATIONS IN THIS SYSTEM
          THIS THERMODYNAMICS CALCULATION IS LIMITED TO
          MOLECULES WHICH HAVE NO INTERNAL ROTATIONS




                    CALCULATED THERMODYNAMIC PROPERTIES
                                          *
   TEMP. (K)   PARTITION FUNCTION   H.O.F.    ENTHALPY  HEAT CAPACITY ENTROPY
                                   KCAL/MOL   CAL/MOLE    CAL/K/MOL  CAL/K/MOL


 298.00  VIB.     0.1430D+04                  5522.7875    39.8702    32.9707
         ROT.     0.8886D+06                   888.2813     2.9808    30.2004
         INT.     0.1271D+10                  6411.0689    42.8510    63.1711
         TRA.     0.1781D+28                  1480.4688     4.9680    40.9296
         TOT.                        0.578    7891.5377    47.8190   104.1007

 200.00  VIB.     0.7190D+02                  2360.6194    25.0873    20.2988
         ROT.     0.4886D+06                   596.1620     2.9808    29.0117
         INT.     0.3513D+08                  2956.7814    28.0681    49.3105
         TRA.     0.9791D+27                   993.6033     4.9680    38.9485
         TOT.                       -3.363    3950.3846    33.0361    88.2590

 210.00  VIB.     0.9684D+02                  2618.3703    26.4680    21.5561
         ROT.     0.5257D+06                   625.9700     2.9808    29.1572
         INT.     0.5091D+08                  3244.3403    29.4488    50.7133
         TRA.     0.1053D+28                  1043.2834     4.9680    39.1909
         TOT.                       -3.026    4287.6237    34.4169    89.9042

 220.00  VIB.     0.1307D+03                  2890.0862    27.8806    22.8199
         ROT.     0.5637D+06                   655.7781     2.9808    29.2958
         INT.     0.7366D+08                  3545.8644    30.8614    52.1157
         TRA.     0.1130D+28                  1092.9636     4.9680    39.4220
         TOT.                       -2.674    4638.8280    35.8294    91.5377

 230.00  VIB.     0.1766D+03                  3176.0904    29.3257    24.0910
         ROT.     0.6025D+06                   685.5862     2.9808    29.4283
         INT.     0.1064D+09                  3861.6766    32.3065    53.5193
         TRA.     0.1207D+28                  1142.6437     4.9680    39.6428
         TOT.                       -2.309    5004.3203    37.2745    93.1621

 240.00  VIB.     0.2391D+03                  3476.7058    30.8027    25.3702
         ROT.     0.6422D+06                   715.3943     2.9808    29.5552
         INT.     0.1536D+09                  4192.1002    33.7835    54.9254
         TRA.     0.1287D+28                  1192.3239     4.9680    39.8543
         TOT.                       -1.929    5384.4241    38.7515    94.7796

 250.00  VIB.     0.3243D+03                  3792.2444    32.3099    26.6581
         ROT.     0.6828D+06                   745.2024     2.9808    29.6769
         INT.     0.2214D+09                  4537.4468    35.2907    56.3349
         TRA.     0.1368D+28                  1242.0041     4.9680    40.0571
         TOT.                       -1.534    5779.4509    40.2587    96.3920

 260.00  VIB.     0.4404D+03                  4122.9966    33.8449    27.9551
         ROT.     0.7242D+06                   775.0105     2.9808    29.7938
         INT.     0.3189D+09                  4898.0072    36.8257    57.7489
         TRA.     0.1451D+28                  1291.6842     4.9680    40.2519
         TOT.                       -1.123    6189.6914    41.7937    98.0008

 270.00  VIB.     0.5991D+03                  4469.2246    35.4045    29.2616
         ROT.     0.7664D+06                   804.8186     2.9808    29.9063
         INT.     0.4591D+09                  5274.0432    38.3853    59.1679
         TRA.     0.1536D+28                  1341.3644     4.9680    40.4394
         TOT.                       -0.698    6615.4076    43.3533    99.6073

 280.00  VIB.     0.8162D+03                  4831.1562    36.9850    30.5777
         ROT.     0.8093D+06                   834.6267     2.9808    30.0147
         INT.     0.6606D+09                  5665.7829    39.9658    60.5924
         TRA.     0.1622D+28                  1391.0445     4.9680    40.6201
         TOT.                       -0.256    7056.8275    44.9338   101.2124

 290.00  VIB.     0.1114D+04                  5208.9815    38.5826    31.9033
         ROT.     0.8531D+06                   864.4348     2.9808    30.1193
         INT.     0.9502D+09                  6073.4163    41.5634    62.0226
         TRA.     0.1710D+28                  1440.7247     4.9680    40.7944
         TOT.                        0.201    7514.1410    46.5314   102.8171

 300.00  VIB.     0.1522D+04                  5602.8508    40.1931    33.2385
         ROT.     0.8976D+06                   894.2429     2.9808    30.2203
         INT.     0.1366D+10                  6497.0937    43.1739    63.4588
         TRA.     0.1799D+28                  1490.4049     4.9680    40.9628
         TOT.                        0.674    7987.4986    48.1419   104.4217

 310.00  VIB.     0.2084D+04                  6012.8737    41.8126    34.5828
         ROT.     0.9428D+06                   924.0510     2.9808    30.3181
         INT.     0.1965D+10                  6936.9247    44.7934    64.9009
         TRA.     0.1889D+28                  1540.0850     4.9680    41.1257
         TOT.                        1.164    8477.0098    49.7615   106.0266

 320.00  VIB.     0.2858D+04                  6439.1199    43.4371    35.9359
         ROT.     0.9888D+06                   953.8591     2.9808    30.4127
         INT.     0.2826D+10                  7392.9790    46.4179    66.3486
         TRA.     0.1982D+28                  1589.7652     4.9680    41.2835
         TOT.                        1.670    8982.7442    51.3859   107.6321

 330.00  VIB.     0.3924D+04                  6881.6201    45.0628    37.2974
         ROT.     0.1036D+07                   983.6672     2.9808    30.5044
         INT.     0.4064D+10                  7865.2873    48.0436    67.8019
         TRA.     0.2075D+28                  1639.4454     4.9680    41.4364
         TOT.                        2.192    9504.7327    53.0116   109.2382

 340.00  VIB.     0.5398D+04                  7340.3681    46.6861    38.6668
         ROT.     0.1083D+07                  1013.4753     2.9808    30.5934
         INT.     0.5845D+10                  8353.8434    49.6669    69.2602
         TRA.     0.2170D+28                  1689.1255     4.9680    41.5847
         TOT.                        2.730   10042.9689    54.6349   110.8449

 350.00  VIB.     0.7435D+04                  7815.3233    48.3037    40.0435
         ROT.     0.1131D+07                  1043.2834     2.9808    30.6798
         INT.     0.8410D+10                  8858.6067    51.2845    70.7233
         TRA.     0.2267D+28                  1738.8057     4.9680    41.7287
         TOT.                        3.284   10597.4124    56.2526   112.4520

 360.00  VIB.     0.1026D+05                  8306.4135    49.9126    41.4268
         ROT.     0.1180D+07                  1073.0915     2.9808    30.7638
         INT.     0.1210D+11                  9379.5050    52.8934    72.1906
         TRA.     0.2364D+28                  1788.4859     4.9680    41.8686
         TOT.                        3.855   11167.9909    57.8615   114.0593

 370.00  VIB.     0.1417D+05                  8813.5377    51.5101    42.8162
         ROT.     0.1229D+07                  1102.8996     2.9808    30.8455
         INT.     0.1742D+11                  9916.4373    54.4909    73.6617
         TRA.     0.2464D+28                  1838.1660     4.9680    42.0047
         TOT.                        4.441   11754.6033    59.4589   115.6664

 380.00  VIB.     0.1961D+05                  9336.5691    53.0937    44.2109
         ROT.     0.1280D+07                  1132.7077     2.9808    30.9250
         INT.     0.2509D+11                 10469.2768    56.0745    75.1359
         TRA.     0.2564D+28                  1887.8462     4.9680    42.1372
         TOT.                        5.044   12357.1230    61.0425   117.2731

 390.00  VIB.     0.2717D+05                  9875.3585    54.6613    45.6104
         ROT.     0.1330D+07                  1162.5158     2.9808    31.0024
         INT.     0.3614D+11                 11037.8743    57.6422    76.6128
         TRA.     0.2666D+28                  1937.5263     4.9680    42.2663
         TOT.                        5.662   12975.4006    62.6102   118.8791

 400.00  VIB.     0.3769D+05                 10429.7367    56.2112    47.0139
         ROT.     0.1382D+07                  1192.3239     2.9808    31.0779
         INT.     0.5208D+11                 11622.0606    59.1920    78.0917
         TRA.     0.2769D+28                  1987.2065     4.9680    42.3921
         TOT.                        6.296   13609.2671    64.1600   120.4838

   *: NOTE: HEATS OF FORMATION ARE RELATIVE TO THE
            ELEMENTS IN THEIR STANDARD STATE AT 298K
              (=  Standard Enthalpy of Formation).

            Hvib:  Zero-point energy is not included.
                   frequencies of less than zero cm-1 are not included.
            Hrot = (3/2)RT
            Htra = (3/2)RT + pV = (5/2)RT

            Heat capacity is Cp, not Cv

           For more information, see: HTTP://OpenMOPAC.net/Manual/thermochemistry.html


           FORCE CONSTANT IN CARTESIAN COORDINATES (Millidynes/A)

    ATOM   CHEMICAL       X               Y               Z
   NUMBER   SYMBOL  FORCE CONSTANT  FORCE CONSTANT  FORCE CONSTANT

      1       C        7.975012        8.564989        8.311198
      2       C        8.200862        7.932777        8.790485
      3       C        8.285448        8.289152        8.406860
      4       C        7.921540        8.487199        8.304237
      5       C        8.735633        8.855335        7.953096
      6       C        8.412002        8.157174        8.317218
      7       C        8.524517        8.053538        8.225367
      8       C       12.820619        8.749892        5.764106
      9       C        9.267931        9.056911        8.841290
     10       C       12.552291        8.828779        5.990665
     11       C        8.879661        8.676551        8.950698
     12       H        1.120891        1.600942        3.308816
     13       H        1.217443        1.531725        3.268085
     14       H        0.718678        1.265860        3.920207
     15       H        1.261909        4.417637        0.746513
     16       H        1.744565        2.110934        2.491046
     17       H        4.808265        0.781726        0.757446
     18       H        0.754250        1.945146        3.558451
     19       H        1.381028        2.535527        2.836292
     20       H        5.236223        0.695245        0.855640
     21       H        1.578445        4.298166        0.837572
     22       H        5.382469        0.733150        0.665075
     23       H        1.139284        1.790281        3.844400
     24       H        1.132558        1.944107        3.699034
     25       H        1.278735        0.858729        4.087981
     26       H        1.667707        2.594790        1.991161
     27       H        1.449726        4.155304        0.631254
     28       H        1.084117        1.560255        3.834089
     29       H        1.394490        0.898773        4.151514



 TOTAL CPU TIME:             6.10 SECONDS

 == MOPAC DONE ==
