 *******************************************************************************
 ** Site#: 14399           For non-commercial use only        Version 13.159M **
 *******************************************************************************
 ** Cite this work as: MOPAC2012, James J. P. Stewart, Stewart Computational  **
 ** Chemistry, Version 13.159M web: HTTP://OpenMOPAC.net  Days remaining:   6 **
 *******************************************************************************
 **                                                                           **
 **                                MOPAC2012                                  **
 **                                                                           **
 *******************************************************************************

                            PM3 CALCULATION RESULTS


 *******************************************************************************
 *  CALCULATION DONE:                                Mon Jun  2 11:10:27 2014  *
 *  PM3      - The PM3 Hamiltonian to be used
 *  PRECISE  - CRITERIA TO BE INCREASED BY 100 TIMES
 *  NOSYM    - POINT-GROUP SYMMETRY SET TO C1
 *  T=       - A TIME OF 172800.0 SECONDS REQUESTED
 *  DUMP=N   - RESTART FILE WRITTEN EVERY  7200.000 SECONDS
 *******************************************************************************
pm3  precise nosym
 InChI=1S/C10H14/c1-2-3-4-7-10-8-5-6-9-10/h2-5,8,10H,1,6-7,9H2

   ATOM   CHEMICAL          X               Y               Z
  NUMBER   SYMBOL      (ANGSTROMS)     (ANGSTROMS)     (ANGSTROMS)
 
     1       C         -1.12130000  *   0.89200000  *   0.85400000  *
     2       C         -1.47090000  *   0.20510000  *  -0.47740000  *
     3       C          0.08140000  *   0.27650000  *   1.58280000  *
     4       C         -2.85050000  *  -0.43220000  *  -0.30780000  *
     5       C         -2.36790000  *   0.73490000  *   1.65770000  *
     6       C         -3.29320000  *   0.02470000  *   1.03420000  *
     7       C          1.36710000  *   0.53690000  *   0.85260000  *
     8       C          2.13940000  *  -0.44540000  *   0.38460000  *
     9       C          3.39200000  *  -0.16200000  *  -0.33210000  *
    10       C          4.16280000  *  -1.13640000  *  -0.80500000  *
    11       H         -0.95330000  *   1.98460000  *   0.70030000  *
    12       H         -1.50640000  *   0.96580000  *  -1.29240000  *
    13       H         -0.72630000  *  -0.56120000  *  -0.79680000  *
    14       H         -0.09480000  *  -0.81260000  *   1.75410000  *
    15       H          0.18440000  *   0.73950000  *   2.59160000  *
    16       H         -2.79500000  *  -1.54500000  *  -0.31850000  *
    17       H         -3.56540000  *  -0.08450000  *  -1.08860000  *
    18       H         -2.50720000  *   1.14810000  *   2.65520000  *
    19       H          1.66030000  *   1.57410000  *   0.70890000  *
    20       H         -4.26300000  *  -0.21010000  *   1.46850000  *
    21       H          1.83880000  *  -1.48050000  *   0.52830000  *
    22       H          3.70610000  *   0.86710000  *  -0.48590000  *
    23       H          3.90090000  *  -2.18330000  *  -0.68230000  *
    24       H          5.08190000  *  -0.89610000  *  -1.33030000  *
 


          CARTESIAN COORDINATES 

    NO.       ATOM         X         Y         Z

     1         C       -1.1213    0.8920    0.8540
     2         C       -1.4709    0.2051   -0.4774
     3         C        0.0814    0.2765    1.5828
     4         C       -2.8505   -0.4322   -0.3078
     5         C       -2.3679    0.7349    1.6577
     6         C       -3.2932    0.0247    1.0342
     7         C        1.3671    0.5369    0.8526
     8         C        2.1394   -0.4454    0.3846
     9         C        3.3920   -0.1620   -0.3321
    10         C        4.1628   -1.1364   -0.8050
    11         H       -0.9533    1.9846    0.7003
    12         H       -1.5064    0.9658   -1.2924
    13         H       -0.7263   -0.5612   -0.7968
    14         H       -0.0948   -0.8126    1.7541
    15         H        0.1844    0.7395    2.5916
    16         H       -2.7950   -1.5450   -0.3185
    17         H       -3.5654   -0.0845   -1.0886
    18         H       -2.5072    1.1481    2.6552
    19         H        1.6603    1.5741    0.7089
    20         H       -4.2630   -0.2101    1.4685
    21         H        1.8388   -1.4805    0.5283
    22         H        3.7061    0.8671   -0.4859
    23         H        3.9009   -2.1833   -0.6823
    24         H        5.0819   -0.8961   -1.3303

  H: (PM3): J. J. P. STEWART, J. COMP. CHEM. 10, 209 (1989).
  C: (PM3): J. J. P. STEWART, J. COMP. CHEM. 10, 209 (1989).

           Empirical Formula: C10 H14  =    24 atoms



      MOLECULAR POINT GROUP   :   C1  


      RHF CALCULATION, NO. OF DOUBLY OCCUPIED LEVELS =   27

      Geometry optimization using EF

          DIAGONAL MATRIX USED AS START HESSIAN

 CYCLE:     1 TIME:   0.011 TIME LEFT:  2.00D  GRAD.:    60.258 HEAT: 34.30768
 CYCLE:     2 TIME:   0.022 TIME LEFT:  2.00D  GRAD.:    62.928 HEAT: 33.83617
 CYCLE:     3 TIME:   0.008 TIME LEFT:  2.00D  GRAD.:    60.114 HEAT: 33.47301
 CYCLE:     4 TIME:   0.008 TIME LEFT:  2.00D  GRAD.:    43.655 HEAT: 32.89915
 CYCLE:     5 TIME:   0.008 TIME LEFT:  2.00D  GRAD.:    42.004 HEAT: 32.71212
 CYCLE:     6 TIME:   0.008 TIME LEFT:  2.00D  GRAD.:    49.320 HEAT: 32.63406
 CYCLE:     7 TIME:   0.008 TIME LEFT:  2.00D  GRAD.:    46.860 HEAT: 32.53635
 CYCLE:     8 TIME:   0.015 TIME LEFT:  2.00D  GRAD.:    18.011 HEAT: 32.06920
 CYCLE:     9 TIME:   0.016 TIME LEFT:  2.00D  GRAD.:    18.342 HEAT: 32.01831
 CYCLE:    10 TIME:   0.008 TIME LEFT:  2.00D  GRAD.:    21.113 HEAT: 32.00542
 CYCLE:    11 TIME:   0.008 TIME LEFT:  2.00D  GRAD.:    15.370 HEAT: 31.95861
 CYCLE:    12 TIME:   0.008 TIME LEFT:  2.00D  GRAD.:    15.674 HEAT: 31.95191
 CYCLE:    13 TIME:   0.008 TIME LEFT:  2.00D  GRAD.:    14.510 HEAT: 31.92761
 CYCLE:    14 TIME:   0.008 TIME LEFT:  2.00D  GRAD.:    14.462 HEAT: 31.92423
 CYCLE:    15 TIME:   0.008 TIME LEFT:  2.00D  GRAD.:    16.192 HEAT: 31.91907
 CYCLE:    16 TIME:   0.008 TIME LEFT:  2.00D  GRAD.:    14.630 HEAT: 31.90852
 CYCLE:    17 TIME:   0.014 TIME LEFT:  2.00D  GRAD.:     7.354 HEAT: 31.85652
 CYCLE:    18 TIME:   0.014 TIME LEFT:  2.00D  GRAD.:     7.115 HEAT: 31.85106
 CYCLE:    19 TIME:   0.008 TIME LEFT:  2.00D  GRAD.:     2.971 HEAT: 31.83888
 CYCLE:    20 TIME:   0.008 TIME LEFT:  2.00D  GRAD.:     5.087 HEAT: 31.83244
 CYCLE:    21 TIME:   0.008 TIME LEFT:  2.00D  GRAD.:     4.301 HEAT: 31.82093
 CYCLE:    22 TIME:   0.008 TIME LEFT:  2.00D  GRAD.:     5.061 HEAT: 31.80869
 CYCLE:    23 TIME:   0.008 TIME LEFT:  2.00D  GRAD.:     4.115 HEAT: 31.80139
 CYCLE:    24 TIME:   0.008 TIME LEFT:  2.00D  GRAD.:     3.158 HEAT: 31.79786
 CYCLE:    25 TIME:   0.008 TIME LEFT:  2.00D  GRAD.:     2.466 HEAT: 31.79438
 CYCLE:    26 TIME:   0.008 TIME LEFT:  2.00D  GRAD.:     1.918 HEAT: 31.79168
 CYCLE:    27 TIME:   0.008 TIME LEFT:  2.00D  GRAD.:     2.590 HEAT: 31.79032
 CYCLE:    28 TIME:   0.007 TIME LEFT:  2.00D  GRAD.:     1.049 HEAT: 31.78738
 CYCLE:    29 TIME:   0.008 TIME LEFT:  2.00D  GRAD.:     1.097 HEAT: 31.78603
 CYCLE:    30 TIME:   0.008 TIME LEFT:  2.00D  GRAD.:     1.206 HEAT: 31.78489
 CYCLE:    31 TIME:   0.008 TIME LEFT:  2.00D  GRAD.:     1.096 HEAT: 31.78371
 CYCLE:    32 TIME:   0.008 TIME LEFT:  2.00D  GRAD.:     1.500 HEAT: 31.78223
 CYCLE:    33 TIME:   0.008 TIME LEFT:  2.00D  GRAD.:     1.292 HEAT: 31.78047
 CYCLE:    34 TIME:   0.008 TIME LEFT:  2.00D  GRAD.:     1.473 HEAT: 31.77845
 CYCLE:    35 TIME:   0.008 TIME LEFT:  2.00D  GRAD.:     1.510 HEAT: 31.77619
 CYCLE:    36 TIME:   0.008 TIME LEFT:  2.00D  GRAD.:     1.617 HEAT: 31.77453
 CYCLE:    37 TIME:   0.008 TIME LEFT:  2.00D  GRAD.:     1.129 HEAT: 31.77197
 CYCLE:    38 TIME:   0.008 TIME LEFT:  2.00D  GRAD.:     1.438 HEAT: 31.76690
 CYCLE:    39 TIME:   0.008 TIME LEFT:  2.00D  GRAD.:     1.538 HEAT: 31.76358
 CYCLE:    40 TIME:   0.008 TIME LEFT:  2.00D  GRAD.:     1.399 HEAT: 31.76015
 CYCLE:    41 TIME:   0.008 TIME LEFT:  2.00D  GRAD.:     1.486 HEAT: 31.75667
 CYCLE:    42 TIME:   0.008 TIME LEFT:  2.00D  GRAD.:     1.779 HEAT: 31.75148
 CYCLE:    43 TIME:   0.008 TIME LEFT:  2.00D  GRAD.:     1.863 HEAT: 31.74473
 CYCLE:    44 TIME:   0.008 TIME LEFT:  2.00D  GRAD.:     1.522 HEAT: 31.73927
 CYCLE:    45 TIME:   0.008 TIME LEFT:  2.00D  GRAD.:     1.212 HEAT: 31.73527
 CYCLE:    46 TIME:   0.008 TIME LEFT:  2.00D  GRAD.:     1.309 HEAT: 31.73225
 CYCLE:    47 TIME:   0.008 TIME LEFT:  2.00D  GRAD.:     1.325 HEAT: 31.72901
 CYCLE:    48 TIME:   0.008 TIME LEFT:  2.00D  GRAD.:     1.224 HEAT: 31.72559
 CYCLE:    49 TIME:   0.008 TIME LEFT:  2.00D  GRAD.:     0.972 HEAT: 31.72312
 CYCLE:    50 TIME:   0.008 TIME LEFT:  2.00D  GRAD.:     0.909 HEAT: 31.72161
 CYCLE:    51 TIME:   0.008 TIME LEFT:  2.00D  GRAD.:     0.656 HEAT: 31.72065
 CYCLE:    52 TIME:   0.008 TIME LEFT:  2.00D  GRAD.:     0.586 HEAT: 31.71970
 CYCLE:    53 TIME:   0.008 TIME LEFT:  2.00D  GRAD.:     0.658 HEAT: 31.71879
 CYCLE:    54 TIME:   0.008 TIME LEFT:  2.00D  GRAD.:     0.766 HEAT: 31.71747
 CYCLE:    55 TIME:   0.008 TIME LEFT:  2.00D  GRAD.:     0.762 HEAT: 31.71606
 CYCLE:    56 TIME:   0.008 TIME LEFT:  2.00D  GRAD.:     0.639 HEAT: 31.71478
 CYCLE:    57 TIME:   0.008 TIME LEFT:  2.00D  GRAD.:     0.544 HEAT: 31.71397
 CYCLE:    58 TIME:   0.008 TIME LEFT:  2.00D  GRAD.:     0.465 HEAT: 31.71348
 CYCLE:    59 TIME:   0.008 TIME LEFT:  2.00D  GRAD.:     0.453 HEAT: 31.71308
 CYCLE:    60 TIME:   0.008 TIME LEFT:  2.00D  GRAD.:     0.486 HEAT: 31.71256
 CYCLE:    61 TIME:   0.008 TIME LEFT:  2.00D  GRAD.:     0.520 HEAT: 31.71178
 CYCLE:    62 TIME:   0.008 TIME LEFT:  2.00D  GRAD.:     0.529 HEAT: 31.71104
 CYCLE:    63 TIME:   0.008 TIME LEFT:  2.00D  GRAD.:     0.486 HEAT: 31.71027
 CYCLE:    64 TIME:   0.008 TIME LEFT:  2.00D  GRAD.:     0.529 HEAT: 31.70958
 CYCLE:    65 TIME:   0.008 TIME LEFT:  2.00D  GRAD.:     0.639 HEAT: 31.70881
 CYCLE:    66 TIME:   0.008 TIME LEFT:  2.00D  GRAD.:     0.680 HEAT: 31.70785
 CYCLE:    67 TIME:   0.008 TIME LEFT:  2.00D  GRAD.:     0.663 HEAT: 31.70650
 CYCLE:    68 TIME:   0.008 TIME LEFT:  2.00D  GRAD.:     0.547 HEAT: 31.70581
 CYCLE:    69 TIME:   0.008 TIME LEFT:  2.00D  GRAD.:     0.562 HEAT: 31.70480
 CYCLE:    70 TIME:   0.008 TIME LEFT:  2.00D  GRAD.:     0.459 HEAT: 31.70442
 CYCLE:    71 TIME:   0.008 TIME LEFT:  2.00D  GRAD.:     0.785 HEAT: 31.70340
 CYCLE:    72 TIME:   0.008 TIME LEFT:  2.00D  GRAD.:     0.410 HEAT: 31.70297
 CYCLE:    73 TIME:   0.008 TIME LEFT:  2.00D  GRAD.:     0.271 HEAT: 31.70260
 CYCLE:    74 TIME:   0.009 TIME LEFT:  2.00D  GRAD.:     0.339 HEAT: 31.70227
 CYCLE:    75 TIME:   0.009 TIME LEFT:  2.00D  GRAD.:     0.324 HEAT: 31.70206
 CYCLE:    76 TIME:   0.008 TIME LEFT:  2.00D  GRAD.:     0.315 HEAT: 31.70179
 CYCLE:    77 TIME:   0.008 TIME LEFT:  2.00D  GRAD.:     0.350 HEAT: 31.70143
 CYCLE:    78 TIME:   0.008 TIME LEFT:  2.00D  GRAD.:     0.438 HEAT: 31.70089
 CYCLE:    79 TIME:   0.009 TIME LEFT:  2.00D  GRAD.:     0.531 HEAT: 31.70018
 CYCLE:    80 TIME:   0.009 TIME LEFT:  2.00D  GRAD.:     0.747 HEAT: 31.69884
 CYCLE:    81 TIME:   0.008 TIME LEFT:  2.00D  GRAD.:     0.776 HEAT: 31.69757
 CYCLE:    82 TIME:   0.008 TIME LEFT:  2.00D  GRAD.:     1.240 HEAT: 31.69289
 CYCLE:    83 TIME:   0.008 TIME LEFT:  2.00D  GRAD.:     1.020 HEAT: 31.69088
 CYCLE:    84 TIME:   0.009 TIME LEFT:  2.00D  GRAD.:     1.032 HEAT: 31.68633
 CYCLE:    85 TIME:   0.008 TIME LEFT:  2.00D  GRAD.:     0.774 HEAT: 31.68493
 CYCLE:    86 TIME:   0.008 TIME LEFT:  2.00D  GRAD.:     0.559 HEAT: 31.68356
 CYCLE:    87 TIME:   0.008 TIME LEFT:  2.00D  GRAD.:     0.531 HEAT: 31.68253
 CYCLE:    88 TIME:   0.008 TIME LEFT:  2.00D  GRAD.:     0.437 HEAT: 31.68182
 CYCLE:    89 TIME:   0.008 TIME LEFT:  2.00D  GRAD.:     0.295 HEAT: 31.68145
 CYCLE:    90 TIME:   0.008 TIME LEFT:  2.00D  GRAD.:     0.182 HEAT: 31.68130
 CYCLE:    91 TIME:   0.008 TIME LEFT:  2.00D  GRAD.:     0.147 HEAT: 31.68123
 CYCLE:    92 TIME:   0.008 TIME LEFT:  2.00D  GRAD.:     0.158 HEAT: 31.68117
 CYCLE:    93 TIME:   0.008 TIME LEFT:  2.00D  GRAD.:     0.206 HEAT: 31.68108
 CYCLE:    94 TIME:   0.008 TIME LEFT:  2.00D  GRAD.:     0.255 HEAT: 31.68097
 CYCLE:    95 TIME:   0.008 TIME LEFT:  2.00D  GRAD.:     0.332 HEAT: 31.68074
 CYCLE:    96 TIME:   0.012 TIME LEFT:  2.00D  GRAD.:     0.293 HEAT: 31.68052
 CYCLE:    97 TIME:   0.008 TIME LEFT:  2.00D  GRAD.:     0.282 HEAT: 31.68022
 CYCLE:    98 TIME:   0.008 TIME LEFT:  2.00D  GRAD.:     0.282 HEAT: 31.68000
 CYCLE:    99 TIME:   0.008 TIME LEFT:  2.00D  GRAD.:     0.269 HEAT: 31.67982
 CYCLE:   100 TIME:   0.008 TIME LEFT:  2.00D  GRAD.:     0.250 HEAT: 31.67962
 CYCLE:   101 TIME:   0.008 TIME LEFT:  2.00D  GRAD.:     0.238 HEAT: 31.67944
 CYCLE:   102 TIME:   0.008 TIME LEFT:  2.00D  GRAD.:     0.369 HEAT: 31.67898
 CYCLE:   103 TIME:   0.008 TIME LEFT:  2.00D  GRAD.:     0.397 HEAT: 31.67866
 CYCLE:   104 TIME:   0.008 TIME LEFT:  2.00D  GRAD.:     0.526 HEAT: 31.67779
 CYCLE:   105 TIME:   0.008 TIME LEFT:  2.00D  GRAD.:     0.542 HEAT: 31.67709
 CYCLE:   106 TIME:   0.010 TIME LEFT:  2.00D  GRAD.:     0.961 HEAT: 31.67473
 CYCLE:   107 TIME:   0.011 TIME LEFT:  2.00D  GRAD.:     0.722 HEAT: 31.67391
 CYCLE:   108 TIME:   0.013 TIME LEFT:  2.00D  GRAD.:     0.528 HEAT: 31.67308
 CYCLE:   109 TIME:   0.008 TIME LEFT:  2.00D  GRAD.:     0.696 HEAT: 31.67157
 CYCLE:   110 TIME:   0.008 TIME LEFT:  2.00D  GRAD.:     0.839 HEAT: 31.67061
 CYCLE:   111 TIME:   0.009 TIME LEFT:  2.00D  GRAD.:     0.611 HEAT: 31.66905
 CYCLE:   112 TIME:   0.008 TIME LEFT:  2.00D  GRAD.:     0.389 HEAT: 31.66858
 CYCLE:   113 TIME:   0.008 TIME LEFT:  2.00D  GRAD.:     0.304 HEAT: 31.66834
 CYCLE:   114 TIME:   0.010 TIME LEFT:  2.00D  GRAD.:     0.274 HEAT: 31.66825
 CYCLE:   115 TIME:   0.008 TIME LEFT:  2.00D  GRAD.:     0.143 HEAT: 31.66821
 CYCLE:   116 TIME:   0.008 TIME LEFT:  2.00D  GRAD.:     0.247 HEAT: 31.66816
 CYCLE:   117 TIME:   0.008 TIME LEFT:  2.00D  GRAD.:     0.121 HEAT: 31.66812
 CYCLE:   118 TIME:   0.008 TIME LEFT:  2.00D  GRAD.:     0.056 HEAT: 31.66811
 CYCLE:   119 TIME:   0.008 TIME LEFT:  2.00D  GRAD.:     0.064 HEAT: 31.66810
 CYCLE:   120 TIME:   0.008 TIME LEFT:  2.00D  GRAD.:     0.092 HEAT: 31.66810
 CYCLE:   121 TIME:   0.008 TIME LEFT:  2.00D  GRAD.:     0.058 HEAT: 31.66809
 CYCLE:   122 TIME:   0.007 TIME LEFT:  2.00D  GRAD.:     0.047 HEAT: 31.66808

     RMS GRADIENT =  0.04665  IS LESS THAN CUTOFF =  0.05000



 -------------------------------------------------------------------------------
pm3  precise nosym
 InChI=1S/C10H14/c1-2-3-4-7-10-8-5-6-9-10/h2-5,8,10H,1,6-7,9H2



     GEOMETRY OPTIMISED USING EIGENVECTOR FOLLOWING (EF).     
     SCF FIELD WAS ACHIEVED                                   


                              PM3 CALCULATION
                                                       MOPAC2012 (Version: 13.159M)
                                                       Mon Jun  2 11:10:28 2014
                                                       No. of days left =   6




          FINAL HEAT OF FORMATION =         31.66808 KCAL/MOL =     132.49926 KJ/MOL


          TOTAL ENERGY            =      -1399.68840 EV
          ELECTRONIC ENERGY       =      -7497.89591 EV  POINT GROUP:     C1  
          CORE-CORE REPULSION     =       6098.20751 EV
          COSMO AREA              =        200.17 SQUARE ANGSTROMS
          COSMO VOLUME            =        198.91 CUBIC ANGSTROMS

          GRADIENT NORM           =          0.04665
          IONIZATION POTENTIAL    =          9.194814 EV
          HOMO LUMO ENERGIES (EV) =         -9.195  0.235
          NO. OF FILLED LEVELS    =         27
          MOLECULAR WEIGHT        =        134.221

          MOLECULAR DIMENSIONS (Angstroms)

            Atom       Atom       Distance
            H    24    H    20     9.98575
            H    15    H    17     4.51789
            H    11    H    23     3.66430


          SCF CALCULATIONS        =        129
          COMPUTATION TIME        =          1.046 SECONDS




   ATOM   CHEMICAL          X               Y               Z
  NUMBER   SYMBOL      (ANGSTROMS)     (ANGSTROMS)     (ANGSTROMS)
 
     1       C         -1.13242520  *   0.83430265  *   0.83512296  *
     2       C         -1.54636364  *   0.14178626  *  -0.48159487  *
     3       C          0.09262669  *   0.19927456  *   1.48770711  *
     4       C         -3.00290151  *  -0.30691803  *  -0.29410691  *
     5       C         -2.34057751  *   0.70615254  *   1.72039080  *
     6       C         -3.35465568  *   0.09151514  *   1.10273301  *
     7       C          1.33702878  *   0.49688868  *   0.72991156  *
     8       C          2.21786630  *  -0.44876390  *   0.38461145  *
     9       C          3.44213458  *  -0.13621986  *  -0.33692901  *
    10       C          4.31794083  *  -1.07509515  *  -0.69004452  *
    11       H         -0.93026125  *   1.91717549  *   0.65564837  *
    12       H         -1.44550569  *   0.83029263  *  -1.33919922  *
    13       H         -0.88722921  *  -0.71663173  *  -0.70814332  *
    14       H         -0.05995898  *  -0.89289777  *   1.60390513  *
    15       H          0.21041415  *   0.59770423  *   2.51643517  *
    16       H         -3.12550208  *  -1.39649807  *  -0.43468874  *
    17       H         -3.68321842  *   0.17425067  *  -1.02077676  *
    18       H         -2.33340112  *   1.09063866  *   2.74015660  *
    19       H          1.50551133  *   1.55022105  *   0.47023193  *
    20       H         -4.33957875  *  -0.11643227  *   1.51982200  *
    21       H          2.04489656  *  -1.50321596  *   0.63811513  *
    22       H          3.61841205  *   0.91859600  *  -0.58301776  *
    23       H          4.18230698  *  -2.12981030  *  -0.46658295  *
    24       H          5.23251254  *  -0.84794994  *  -1.22883056  *

           Empirical Formula: C10 H14  =    24 atoms



      MOLECULAR POINT GROUP   :   C1  


                  EIGENVALUES  
 -40.93164 -36.38709 -32.36304 -28.24268 -27.70474 -24.03073 -20.54602 -19.96782
 -19.35991 -18.49814 -17.53537 -16.42343 -16.16966 -15.60839 -14.29272 -14.24285
 -13.48099 -13.45918 -12.89203 -12.79664 -12.49673 -12.24808 -12.07244 -11.95499
 -11.59912  -9.67588  -9.19481   0.23454   1.08245   2.12554   3.16826   3.41312
   3.47678   3.63102   3.64708   3.78817   3.84188   3.86951   3.96613   4.06598
   4.11799   4.16957   4.30625   4.38851   4.48497   4.65785   5.02945   5.12267
   5.23846   5.39419   5.59752   5.94875   6.00100   6.08440


              NET ATOMIC CHARGES AND DIPOLE CONTRIBUTIONS

  ATOM NO.   TYPE          CHARGE      No. of ELECS.   s-Pop       p-Pop       
    1          C          -0.042565        4.0426     1.17317     2.86940
    2          C          -0.102400        4.1024     1.16920     2.93320
    3          C          -0.063221        4.0632     1.15073     2.91249
    4          C          -0.066077        4.0661     1.15400     2.91207
    5          C          -0.159665        4.1597     1.20508     2.95458
    6          C          -0.147224        4.1472     1.20208     2.94514
    7          C          -0.131102        4.1311     1.19836     2.93275
    8          C          -0.124561        4.1246     1.18354     2.94102
    9          C          -0.103662        4.1037     1.18080     2.92287
   10          C          -0.153452        4.1535     1.18371     2.96974
   11          H           0.069190        0.9308     0.93081
   12          H           0.051219        0.9488     0.94878
   13          H           0.059096        0.9409     0.94090
   14          H           0.060330        0.9397     0.93967
   15          H           0.058400        0.9416     0.94160
   16          H           0.055574        0.9444     0.94443
   17          H           0.055802        0.9442     0.94420
   18          H           0.112520        0.8875     0.88748
   19          H           0.101012        0.8990     0.89899
   20          H           0.110329        0.8897     0.88967
   21          H           0.103686        0.8963     0.89631
   22          H           0.097004        0.9030     0.90300
   23          H           0.081046        0.9190     0.91895
   24          H           0.078720        0.9213     0.92128
 DIPOLE           X         Y         Z       TOTAL
 POINT-CHG.    -0.197     0.037    -0.022     0.202
 HYBRID         0.009     0.005     0.014     0.018
 SUM           -0.188     0.041    -0.008     0.192


          ATOMIC ORBITAL ELECTRON POPULATIONS

    Atom      s        px        py        pz   
    1  C   1.17317   0.93585   0.99184   0.94171
    2  C   1.16920   0.96161   1.00498   0.96661
    3  C   1.15073   0.92593   1.00806   0.97850
    4  C   1.15400   0.95811   1.00165   0.95232
    5  C   1.20508   0.96048   1.00740   0.98670
    6  C   1.20208   0.98208   0.99532   0.96774
    7  C   1.19836   0.96086   0.98631   0.98558
    8  C   1.18354   0.95638   0.98499   0.99965
    9  C   1.18080   0.95183   0.98492   0.98612
   10  C   1.18371   0.98405   0.98504   1.00065
   11  H   0.93081
   12  H   0.94878
   13  H   0.94090
   14  H   0.93967
   15  H   0.94160
   16  H   0.94443
   17  H   0.94420
   18  H   0.88748
   19  H   0.89899
   20  H   0.88967
   21  H   0.89631
   22  H   0.90300
   23  H   0.91895
   24  H   0.92128
 *******************************************************************************
 ** Site#: 14399           For non-commercial use only        Version 13.159M **
 *******************************************************************************
 ** Cite this work as: MOPAC2012, James J. P. Stewart, Stewart Computational  **
 ** Chemistry, Version 13.159M web: HTTP://OpenMOPAC.net  Days remaining:   6 **
 *******************************************************************************
 **                                                                           **
 **                                MOPAC2012                                  **
 **                                                                           **
 *******************************************************************************

                            PM3 CALCULATION RESULTS


 *******************************************************************************
 *  CALCULATION DONE:                                Mon Jun  2 11:10:28 2014  *
 *  PM3      - The PM3 Hamiltonian to be used
 *  OLDGEO   - PREVIOUS GEOMETRY TO BE USED
 *  PRECISE  - CRITERIA TO BE INCREASED BY 100 TIMES
 *  NOSYM    - POINT-GROUP SYMMETRY SET TO C1
 *  T=       - A TIME OF 172800.0 SECONDS REQUESTED
 *  DUMP=N   - RESTART FILE WRITTEN EVERY  7200.000 SECONDS
 *  THERMO   - THERMODYNAMIC QUANTITIES TO BE CALCULATED
 *******************************************************************************
oldgeo thermo nosym precise  pm3

   ATOM   CHEMICAL          X               Y               Z
  NUMBER   SYMBOL      (ANGSTROMS)     (ANGSTROMS)     (ANGSTROMS)
 
     1       C         -1.13242520  *   0.83430265  *   0.83512296  *
     2       C         -1.54636364  *   0.14178626  *  -0.48159487  *
     3       C          0.09262669  *   0.19927456  *   1.48770711  *
     4       C         -3.00290151  *  -0.30691803  *  -0.29410691  *
     5       C         -2.34057751  *   0.70615254  *   1.72039080  *
     6       C         -3.35465568  *   0.09151514  *   1.10273301  *
     7       C          1.33702878  *   0.49688868  *   0.72991156  *
     8       C          2.21786630  *  -0.44876390  *   0.38461145  *
     9       C          3.44213458  *  -0.13621986  *  -0.33692901  *
    10       C          4.31794083  *  -1.07509515  *  -0.69004452  *
    11       H         -0.93026125  *   1.91717549  *   0.65564837  *
    12       H         -1.44550569  *   0.83029263  *  -1.33919922  *
    13       H         -0.88722921  *  -0.71663173  *  -0.70814332  *
    14       H         -0.05995898  *  -0.89289777  *   1.60390513  *
    15       H          0.21041415  *   0.59770423  *   2.51643517  *
    16       H         -3.12550208  *  -1.39649807  *  -0.43468874  *
    17       H         -3.68321842  *   0.17425067  *  -1.02077676  *
    18       H         -2.33340112  *   1.09063866  *   2.74015660  *
    19       H          1.50551133  *   1.55022105  *   0.47023193  *
    20       H         -4.33957875  *  -0.11643227  *   1.51982200  *
    21       H          2.04489656  *  -1.50321596  *   0.63811513  *
    22       H          3.61841205  *   0.91859600  *  -0.58301776  *
    23       H          4.18230698  *  -2.12981030  *  -0.46658295  *
    24       H          5.23251254  *  -0.84794994  *  -1.22883056  *
 


          CARTESIAN COORDINATES 

    NO.       ATOM         X         Y         Z

     1         C       -1.1324    0.8343    0.8351
     2         C       -1.5464    0.1418   -0.4816
     3         C        0.0926    0.1993    1.4877
     4         C       -3.0029   -0.3069   -0.2941
     5         C       -2.3406    0.7062    1.7204
     6         C       -3.3547    0.0915    1.1027
     7         C        1.3370    0.4969    0.7299
     8         C        2.2179   -0.4488    0.3846
     9         C        3.4421   -0.1362   -0.3369
    10         C        4.3179   -1.0751   -0.6900
    11         H       -0.9303    1.9172    0.6556
    12         H       -1.4455    0.8303   -1.3392
    13         H       -0.8872   -0.7166   -0.7081
    14         H       -0.0600   -0.8929    1.6039
    15         H        0.2104    0.5977    2.5164
    16         H       -3.1255   -1.3965   -0.4347
    17         H       -3.6832    0.1743   -1.0208
    18         H       -2.3334    1.0906    2.7402
    19         H        1.5055    1.5502    0.4702
    20         H       -4.3396   -0.1164    1.5198
    21         H        2.0449   -1.5032    0.6381
    22         H        3.6184    0.9186   -0.5830
    23         H        4.1823   -2.1298   -0.4666
    24         H        5.2325   -0.8479   -1.2288

  H: (PM3): J. J. P. STEWART, J. COMP. CHEM. 10, 209 (1989).
  C: (PM3): J. J. P. STEWART, J. COMP. CHEM. 10, 209 (1989).

           Empirical Formula: C10 H14  =    24 atoms



      MOLECULAR POINT GROUP   :   C1  


      RHF CALCULATION, NO. OF DOUBLY OCCUPIED LEVELS =   27



          HEAT OF FORMATION =      31.668083 KCALS/MOLE


          INTERNAL COORDINATE DERIVATIVES

   NUMBER  ATOM       BOND         ANGLE      DIHEDRAL

     1       C     -0.000377     0.000333     0.001332
     2       C     -0.002322     0.000620    -0.001364
     3       C      0.001093    -0.002652    -0.005669
     4       C     -0.000171    -0.000510     0.002267
     5       C      0.003770    -0.003764     0.002276
     6       C     -0.002616     0.006233     0.000206
     7       C     -0.001192     0.004670    -0.004416
     8       C     -0.006164     0.000695    -0.003767
     9       C     -0.001115     0.016238    -0.001228
    10       C     -0.003832    -0.013284    -0.005475
    11       H     -0.000666    -0.002126    -0.001892
    12       H      0.002763    -0.006566     0.003324
    13       H      0.000938     0.001665     0.001769
    14       H     -0.000542    -0.002561    -0.000603
    15       H      0.000446    -0.002710     0.002755
    16       H      0.001579     0.003616    -0.001306
    17       H      0.000301    -0.010656     0.007958
    18       H      0.006285     0.003083     0.002241
    19       H      0.008935    -0.001630     0.008974
    20       H     -0.000356    -0.002630    -0.003499
    21       H     -0.007385     0.006461     0.000399
    22       H     -0.011448     0.014229    -0.012979
    23       H      0.004860    -0.013496     0.006163
    24       H      0.007215     0.004740     0.002532


          GRADIENT NORM =   0.04659


          TIME FOR SCF CALCULATION =    0.01

          TIME FOR DERIVATIVES     =    0.01

          MOLECULAR WEIGHT =  134.22



          ROTATIONAL CONSTANTS IN CM(-1)

          A =    0.13110628   B =    0.01722211   C =    0.01609203



           PRINCIPAL MOMENTS OF INERTIA IN UNITS OF 10**(-40)*GRAM-CM**2

          A =      213.5121   B =     1625.3975   C =     1739.5426


          ORIENTATION OF MOLECULE IN FORCE CALCULATION

    NO.       ATOM         X         Y         Z

     1          C      -0.3955   -1.3312    0.3899
     2          C       1.1488   -1.3312    0.3899
     3          C      -0.9955    0.0724    0.3899
     4          C       1.5806   -2.1277    1.6297
     5          C      -0.7690   -2.0758    1.6413
     6          C       0.3051   -2.5108    2.3081
     7          C      -0.8164    0.7481   -0.9226
     8          C      -0.3340    1.9905   -1.0371
     9          C      -0.1871    2.6450   -2.3283
    10          C       0.3003    3.8784   -2.4481
    11          H      -0.7822   -1.8935   -0.4932
    12          H       1.5442   -1.7843   -0.5363
    13          H       1.5502   -0.3011    0.4139
    14          H      -0.5639    0.6719    1.2169
    15          H      -2.0829    0.0083    0.6005
    16          H       2.2219   -1.5329    2.3056
    17          H       2.1667   -3.0265    1.3633
    18          H      -1.8129   -2.2156    1.9216
    19          H      -1.1125    0.1712   -1.8085
    20          H       0.3068   -3.0818    3.2361
    21          H      -0.0309    2.5641   -0.1510
    22          H      -0.4975    2.0744   -3.2129
    23          H       0.6191    4.4774   -1.5995
    24          H       0.4127    4.3715   -3.4087


    FIRST DERIVATIVES WILL BE USED IN THE CALCULATION OF SECOND DERIVATIVES

          ESTIMATED TIME TO COMPLETE CALCULATION =        3.37 SECONDS

    FOR POINT-GROUP C1   THERE ARE   1 UNIQUE SYMMETRY FUNCTIONS.

 STEP:   1 TIME =     0.04 SECS, INTEGRAL =      0.04 TIME LEFT: 172799.95
 STEP:   2 TIME =     0.04 SECS, INTEGRAL =      0.07 TIME LEFT: 172799.92
 STEP:   3 TIME =     0.04 SECS, INTEGRAL =      0.11 TIME LEFT: 172799.88
 STEP:   4 TIME =     0.04 SECS, INTEGRAL =      0.14 TIME LEFT: 172799.85
 STEP:   5 TIME =     0.04 SECS, INTEGRAL =      0.19 TIME LEFT: 172799.80
 STEP:   6 TIME =     0.04 SECS, INTEGRAL =      0.22 TIME LEFT: 172799.76
 STEP:   7 TIME =     0.04 SECS, INTEGRAL =      0.26 TIME LEFT: 172799.73
 STEP:   8 TIME =     0.04 SECS, INTEGRAL =      0.30 TIME LEFT: 172799.69
 STEP:   9 TIME =     0.04 SECS, INTEGRAL =      0.33 TIME LEFT: 172799.66
 STEP:  10 TIME =     0.04 SECS, INTEGRAL =      0.37 TIME LEFT: 172799.62
 STEP:  11 TIME =     0.04 SECS, INTEGRAL =      0.40 TIME LEFT: 172799.59
 STEP:  12 TIME =     0.04 SECS, INTEGRAL =      0.44 TIME LEFT: 172799.55
 STEP:  13 TIME =     0.04 SECS, INTEGRAL =      0.47 TIME LEFT: 172799.51
 STEP:  14 TIME =     0.04 SECS, INTEGRAL =      0.51 TIME LEFT: 172799.48
 STEP:  15 TIME =     0.04 SECS, INTEGRAL =      0.55 TIME LEFT: 172799.44
 STEP:  16 TIME =     0.04 SECS, INTEGRAL =      0.58 TIME LEFT: 172799.41
 STEP:  17 TIME =     0.04 SECS, INTEGRAL =      0.62 TIME LEFT: 172799.37
 STEP:  18 TIME =     0.04 SECS, INTEGRAL =      0.65 TIME LEFT: 172799.33
 STEP:  19 TIME =     0.04 SECS, INTEGRAL =      0.69 TIME LEFT: 172799.30
 STEP:  20 TIME =     0.04 SECS, INTEGRAL =      0.73 TIME LEFT: 172799.26
 STEP:  21 TIME =     0.04 SECS, INTEGRAL =      0.76 TIME LEFT: 172799.23
 STEP:  22 TIME =     0.04 SECS, INTEGRAL =      0.80 TIME LEFT: 172799.19
 STEP:  23 TIME =     0.04 SECS, INTEGRAL =      0.83 TIME LEFT: 172799.16
 STEP:  24 TIME =     0.04 SECS, INTEGRAL =      0.87 TIME LEFT: 172799.12
 STEP:  25 TIME =     0.04 SECS, INTEGRAL =      0.90 TIME LEFT: 172799.08
 STEP:  26 TIME =     0.04 SECS, INTEGRAL =      0.94 TIME LEFT: 172799.05
 STEP:  27 TIME =     0.04 SECS, INTEGRAL =      0.98 TIME LEFT: 172799.01
 STEP:  28 TIME =     0.04 SECS, INTEGRAL =      1.01 TIME LEFT: 172798.98
 STEP:  29 TIME =     0.04 SECS, INTEGRAL =      1.05 TIME LEFT: 172798.94
 STEP:  30 TIME =     0.03 SECS, INTEGRAL =      1.08 TIME LEFT: 172798.91
 STEP:  31 TIME =     0.04 SECS, INTEGRAL =      1.12 TIME LEFT: 172798.87
 STEP:  32 TIME =     0.04 SECS, INTEGRAL =      1.16 TIME LEFT: 172798.83
 STEP:  33 TIME =     0.04 SECS, INTEGRAL =      1.19 TIME LEFT: 172798.80
 STEP:  34 TIME =     0.04 SECS, INTEGRAL =      1.23 TIME LEFT: 172798.76
 STEP:  35 TIME =     0.04 SECS, INTEGRAL =      1.26 TIME LEFT: 172798.73
 STEP:  36 TIME =     0.04 SECS, INTEGRAL =      1.30 TIME LEFT: 172798.69
 STEP:  37 TIME =     0.04 SECS, INTEGRAL =      1.33 TIME LEFT: 172798.65
 STEP:  38 TIME =     0.03 SECS, INTEGRAL =      1.37 TIME LEFT: 172798.62
 STEP:  39 TIME =     0.04 SECS, INTEGRAL =      1.40 TIME LEFT: 172798.58
 STEP:  40 TIME =     0.04 SECS, INTEGRAL =      1.44 TIME LEFT: 172798.55
 STEP:  41 TIME =     0.04 SECS, INTEGRAL =      1.48 TIME LEFT: 172798.51
 STEP:  42 TIME =     0.04 SECS, INTEGRAL =      1.51 TIME LEFT: 172798.48
 STEP:  43 TIME =     0.03 SECS, INTEGRAL =      1.55 TIME LEFT: 172798.44
 STEP:  44 TIME =     0.04 SECS, INTEGRAL =      1.58 TIME LEFT: 172798.41
 STEP:  45 TIME =     0.04 SECS, INTEGRAL =      1.62 TIME LEFT: 172798.37
 STEP:  46 TIME =     0.04 SECS, INTEGRAL =      1.66 TIME LEFT: 172798.33
 STEP:  47 TIME =     0.04 SECS, INTEGRAL =      1.69 TIME LEFT: 172798.29
 STEP:  48 TIME =     0.04 SECS, INTEGRAL =      1.73 TIME LEFT: 172798.26
 STEP:  49 TIME =     0.04 SECS, INTEGRAL =      1.77 TIME LEFT: 172798.22
 STEP:  50 TIME =     0.04 SECS, INTEGRAL =      1.81 TIME LEFT: 172798.18
 STEP:  51 TIME =     0.04 SECS, INTEGRAL =      1.84 TIME LEFT: 172798.15
 STEP:  52 TIME =     0.03 SECS, INTEGRAL =      1.88 TIME LEFT: 172798.11
 STEP:  53 TIME =     0.04 SECS, INTEGRAL =      1.92 TIME LEFT: 172798.07
 STEP:  54 TIME =     0.04 SECS, INTEGRAL =      1.96 TIME LEFT: 172798.03
 STEP:  55 TIME =     0.04 SECS, INTEGRAL =      1.99 TIME LEFT: 172798.00
 STEP:  56 TIME =     0.04 SECS, INTEGRAL =      2.03 TIME LEFT: 172797.96
 STEP:  57 TIME =     0.03 SECS, INTEGRAL =      2.06 TIME LEFT: 172797.93
 STEP:  58 TIME =     0.04 SECS, INTEGRAL =      2.10 TIME LEFT: 172797.89
 STEP:  59 TIME =     0.04 SECS, INTEGRAL =      2.14 TIME LEFT: 172797.85
 STEP:  60 TIME =     0.04 SECS, INTEGRAL =      2.17 TIME LEFT: 172797.82
 STEP:  61 TIME =     0.04 SECS, INTEGRAL =      2.21 TIME LEFT: 172797.78
 STEP:  62 TIME =     0.04 SECS, INTEGRAL =      2.24 TIME LEFT: 172797.74
 STEP:  63 TIME =     0.03 SECS, INTEGRAL =      2.28 TIME LEFT: 172797.71
 STEP:  64 TIME =     0.04 SECS, INTEGRAL =      2.32 TIME LEFT: 172797.67
 STEP:  65 TIME =     0.04 SECS, INTEGRAL =      2.35 TIME LEFT: 172797.64
 STEP:  66 TIME =     0.04 SECS, INTEGRAL =      2.39 TIME LEFT: 172797.60
 STEP:  67 TIME =     0.04 SECS, INTEGRAL =      2.43 TIME LEFT: 172797.56
 STEP:  68 TIME =     0.04 SECS, INTEGRAL =      2.46 TIME LEFT: 172797.53
 STEP:  69 TIME =     0.04 SECS, INTEGRAL =      2.50 TIME LEFT: 172797.49
 STEP:  70 TIME =     0.04 SECS, INTEGRAL =      2.54 TIME LEFT: 172797.45
 STEP:  71 TIME =     0.04 SECS, INTEGRAL =      2.57 TIME LEFT: 172797.41
 STEP:  72 TIME =     0.04 SECS, INTEGRAL =      2.61 TIME LEFT: 172797.38

(To convert to Hartree/Bohr^2, multiply by (10^(-21) x N x a0^2)/(4.184 x 627.51) = 0.0642)


           FORCE MATRIX IN MILLIDYNES/ANGSTROM


                  C  1       C  2       C  3       C  4       C  5       C  6
 ------------------------------------------------------------------------------
     C    1  14.592504
     C    2   3.499784  14.205682
     C    3   3.920009   0.560303  14.648731
     C    4   0.722907   3.774198   0.034973  14.680939
     C    5   4.455551   0.861984   0.657789   1.184919  18.379358
     C    6   1.139899   0.888076   0.040167   4.752590  10.613339  18.404240
     C    7   0.681595   0.034294   4.967472   0.003049   0.050712   0.009358
     C    8   0.039738   0.007298   0.833140   0.001301   0.009343   0.002470
     C    9   0.020512   0.001994   0.145831   0.000686   0.003449   0.001870
     C   10   0.002905   0.000995   0.016204   0.000917   0.001512   0.001174
     H   11   4.244221   0.421511   0.437972   0.025312   0.403297   0.037124
     H   12   0.438813   4.581031   0.026015   0.439909   0.029241   0.028934
     H   13   0.451908   4.539324   0.059482   0.439491   0.024381   0.026838
     H   14   0.443573   0.025220   4.435879   0.001551   0.014540   0.002376
     H   15   0.442798   0.045251   4.401530   0.004365   0.037980   0.002852
     H   16   0.030370   0.435545   0.001258   4.524767   0.038990   0.429946
     H   17   0.026842   0.435790   0.004862   4.518549   0.038063   0.429081
     H   18   0.414226   0.040831   0.015320   0.115109   5.010219   0.448510
     H   19   0.027595   0.003211   0.429914   0.000384   0.002657   0.000820
     H   20   0.113104   0.043128   0.016135   0.412351   0.449078   5.020266
     H   21   0.008359   0.001010   0.081727   0.000475   0.001838   0.000828
     H   22   0.000775   0.000313   0.002779   0.000124   0.000569   0.000270
     H   23   0.000874   0.000390   0.005268   0.000295   0.000499   0.000615
     H   24   0.001654   0.000470   0.010566   0.000239   0.000509   0.000515


                  C  7       C  8       C  9       C 10       H 11       H 12
 ------------------------------------------------------------------------------
     C    7  18.037728
     C    8  10.395797  18.476650
     C    9   1.073196   5.597379  18.467379
     C   10   0.102356   1.073945  10.789755  17.900236
     H   11   0.039438   0.002271   0.001114   0.000345   4.715609
     H   12   0.002240   0.000956   0.000401   0.000146   0.028817   5.185346
     H   13   0.006653   0.003946   0.000643   0.000459   0.026703   0.582184
     H   14   0.459893   0.049527   0.003283   0.001141   0.042971   0.001534
     H   15   0.406792   0.033633   0.020543   0.001980   0.024074   0.004222
     H   16   0.000414   0.000264   0.000228   0.000221   0.003774   0.026126
     H   17   0.000773   0.000220   0.000237   0.000277   0.001169   0.029582
     H   18   0.002065   0.001022   0.000529   0.000447   0.014241   0.002967
     H   19   4.758840   0.466929   0.088330   0.006587   0.026975   0.000803
     H   20   0.002306   0.000984   0.000614   0.000402   0.014454   0.003237
     H   21   0.465714   4.749821   0.443718   0.038440   0.000697   0.000343
     H   22   0.041223   0.445558   4.772462   0.451414   0.000265   0.000220
     H   23   0.005672   0.100643   0.488152   5.076590   0.000168   0.000155
     H   24   0.008237   0.136170   0.459975   5.114073   0.000173   0.000107


                  H 13       H 14       H 15       H 16       H 17       H 18
 ------------------------------------------------------------------------------
     H   13   5.155936
     H   14   0.029464   5.046100
     H   15   0.002846   0.560146   4.999017
     H   16   0.029675   0.000418   0.000505   5.131282
     H   17   0.027521   0.000564   0.000880   0.573268   5.124934
     H   18   0.002610   0.002289   0.014910   0.015575   0.015795   5.409201
     H   19   0.001127   0.038446   0.018425   0.000326   0.000276   0.001016
     H   20   0.002897   0.000588   0.000704   0.014776   0.014320   0.047411
     H   21   0.001320   0.030016   0.009547   0.000161   0.000227   0.000250
     H   22   0.000292   0.000677   0.000733   0.000141   0.000140   0.000202
     H   23   0.000222   0.000320   0.000827   0.000079   0.000091   0.000222
     H   24   0.000208   0.000280   0.001666   0.000044   0.000069   0.000185


                  H 19       H 20       H 21       H 22       H 23       H 24
 ------------------------------------------------------------------------------
     H   19   5.141526
     H   20   0.000253   5.415155
     H   21   0.101728   0.000237   5.125599
     H   22   0.028472   0.000151   0.035532   5.141095
     H   23   0.002894   0.000095   0.025667   0.115801   5.470573
     H   24   0.004481   0.000269   0.002391   0.078267   0.420450   5.498907


          HEAT OF FORMATION =      31.668083 KCALS/MOLE

          ZERO POINT ENERGY     131.185 KCAL/MOL


           NORMAL COORDINATE ANALYSIS (Total motion = 1 Angstrom)


   Root No.       1         2         3         4         5         6         7         8

                 1 A       2 A       3 A       4 A       5 A       6 A       7 A       8 A   

                  39.8      67.9      95.5     108.9     151.9     227.3     249.5     314.2
  
           1   -0.0184    0.0120    0.0046   -0.0069    0.0104   -0.0113    0.0194   -0.0044
           2   -0.0058    0.0199   -0.0046    0.0074   -0.0020   -0.0147   -0.0085    0.0071
           3   -0.0031    0.0061   -0.0134   -0.0019   -0.0042   -0.0007   -0.0301   -0.0086
           4   -0.0184    0.0121    0.0047   -0.0069    0.0104   -0.0119    0.0201   -0.0054
           5    0.0199    0.0448   -0.0174    0.0123   -0.0014    0.0106   -0.0061    0.0288
           6   -0.0227    0.0316   -0.0113   -0.0029    0.0095    0.0032   -0.0054   -0.0054
           7   -0.0406   -0.0124    0.0190   -0.0060    0.0033   -0.0202   -0.0019    0.0252
           8   -0.0153    0.0096    0.0024    0.0080   -0.0058   -0.0190   -0.0164    0.0130
           9   -0.0057    0.0126    0.0150    0.0178   -0.0168   -0.0147   -0.0022    0.0214
          10    0.0107    0.0035   -0.0025   -0.0039   -0.0002   -0.0024   -0.0020   -0.0119
          11    0.0398   -0.0152    0.0311    0.0183   -0.0113    0.0038   -0.0191    0.0100
          12   -0.0203   -0.0040    0.0224   -0.0004    0.0073   -0.0052   -0.0048   -0.0185
          13    0.0098    0.0036   -0.0040   -0.0049    0.0010   -0.0029   -0.0004   -0.0139
          14   -0.0019   -0.0095   -0.0202   -0.0122    0.0152   -0.0094    0.0143    0.0025
          15    0.0076   -0.0141   -0.0252   -0.0135    0.0040    0.0054   -0.0230   -0.0187
          16    0.0256   -0.0008   -0.0080   -0.0030   -0.0049    0.0028   -0.0115   -0.0122
          17    0.0229   -0.0305    0.0008   -0.0069    0.0146    0.0023    0.0455    0.0260
          18   -0.0017   -0.0206   -0.0052   -0.0130    0.0128    0.0041    0.0137   -0.0075
          19   -0.0277   -0.0264   -0.0101   -0.0146   -0.0258    0.0438   -0.0201    0.0394
          20   -0.0091    0.0100    0.0099    0.0087   -0.0076    0.0042    0.0134   -0.0289
          21   -0.0008    0.0108    0.0151    0.0172   -0.0220    0.0073    0.0157    0.0066
          22   -0.0035   -0.0079   -0.0010    0.0586    0.0310    0.0392   -0.0076    0.0049
          23   -0.0176    0.0019    0.0057   -0.0210   -0.0294    0.0085    0.0098   -0.0196
          24    0.0092    0.0009    0.0076    0.0042   -0.0203    0.0238    0.0292   -0.0006
          25    0.0186   -0.0110   -0.0246    0.0368   -0.0250   -0.0217    0.0077   -0.0162
          26   -0.0129   -0.0079    0.0050   -0.0248    0.0167    0.0130   -0.0134   -0.0220
          27    0.0142   -0.0046    0.0044   -0.0002   -0.0026    0.0176    0.0197   -0.0005
          28    0.0436    0.0241    0.0181   -0.0434    0.0010   -0.0054   -0.0047   -0.0077
          29   -0.0216   -0.0233   -0.0134    0.0060    0.0096    0.0010   -0.0124   -0.0233
          30    0.0254   -0.0193   -0.0108   -0.0070    0.0263   -0.0317   -0.0109    0.0274
          31   -0.0204    0.0368   -0.0004   -0.0065    0.0181   -0.0023    0.0332   -0.0041
          32   -0.0178    0.0250    0.0162    0.0204   -0.0111   -0.0259   -0.0045    0.0221
          33    0.0055   -0.0084   -0.0241   -0.0103   -0.0015    0.0027   -0.0377   -0.0180
          34   -0.0227    0.0360   -0.0003   -0.0068    0.0199   -0.0002    0.0395    0.0081
          35    0.0170    0.1033   -0.0638    0.0088    0.0078    0.0315    0.0071    0.0585
          36   -0.0232    0.0132    0.0091   -0.0013    0.0091   -0.0019   -0.0033   -0.0139
          37   -0.0358   -0.0050    0.0153   -0.0092    0.0091   -0.0312    0.0159   -0.0171
          38    0.0271    0.0500   -0.0205    0.0134   -0.0011    0.0180   -0.0051    0.0335
          39   -0.0387    0.0964   -0.0587   -0.0086    0.0232    0.0191    0.0165    0.0223
          40   -0.0612   -0.0198    0.0480    0.0049    0.0099   -0.0741   -0.0078    0.0577
          41   -0.0125    0.0166   -0.0087    0.0026    0.0035   -0.0280   -0.0279    0.0065
          42    0.0030    0.0113    0.0078    0.0159   -0.0265    0.0194    0.0093    0.0099
          43   -0.0425   -0.0105    0.0240   -0.0036    0.0063   -0.0326   -0.0002    0.0272
          44   -0.0326   -0.0089    0.0124    0.0096   -0.0107   -0.0308   -0.0398    0.0507
          45   -0.0217    0.0163    0.0441    0.0297   -0.0012   -0.0814    0.0017    0.0400
          46    0.0078    0.0121   -0.0480   -0.0227    0.0177    0.0066    0.0468    0.0142
          47    0.0579   -0.0534    0.0746    0.0298   -0.0265   -0.0018   -0.0523   -0.0142
          48   -0.0334    0.0214    0.0277    0.0075    0.0035   -0.0090   -0.0228   -0.0226
          49    0.0239   -0.0085    0.0423    0.0168   -0.0226   -0.0083   -0.0611   -0.0410
          50    0.0479   -0.0111    0.0481    0.0306   -0.0249    0.0030   -0.0568   -0.0042
          51   -0.0185   -0.0445    0.0643    0.0038    0.0033   -0.0159   -0.0094   -0.0359
          52    0.0156    0.0019   -0.0065   -0.0047   -0.0010   -0.0009   -0.0053   -0.0156
          53   -0.0179   -0.0140   -0.0436   -0.0282    0.0288   -0.0146    0.0242   -0.0068
          54    0.0212   -0.0228   -0.0464   -0.0209    0.0037    0.0100   -0.0358   -0.0299
          55   -0.0347   -0.0489   -0.0389   -0.0837   -0.1044    0.0634   -0.0327    0.0781
          56    0.0013    0.0140    0.0178    0.0321    0.0208    0.0176    0.0313   -0.0584
          57   -0.0052    0.0156    0.0195    0.0249   -0.0135   -0.0089    0.0078    0.0130
          58    0.0471   -0.0069   -0.0145   -0.0010   -0.0125    0.0109   -0.0268   -0.0097
          59    0.0308   -0.0553   -0.0013   -0.0178    0.0285    0.0093    0.0974    0.0447
          60    0.0031   -0.0359   -0.0065   -0.0197    0.0214    0.0084    0.0457    0.0038
          61    0.0026    0.0137    0.0277    0.1274    0.1147    0.0478   -0.0013   -0.0259
          62   -0.0289    0.0000    0.0003   -0.0418   -0.0732    0.0063    0.0077   -0.0019
          63    0.0145   -0.0054    0.0012   -0.0060   -0.0199    0.0210    0.0276   -0.0012
          64    0.0146   -0.0421   -0.0771    0.0803   -0.0940   -0.1010    0.0327   -0.0400
          65   -0.0018   -0.0033    0.0186   -0.0516    0.0636    0.0210   -0.0407   -0.0062
          66    0.0084    0.0032    0.0139    0.0017   -0.0083    0.0392    0.0280   -0.0016
          67    0.0484    0.0555    0.0705   -0.0900    0.0671    0.0775   -0.0284    0.0127
          68   -0.0328   -0.0280   -0.0266    0.0345   -0.0388    0.0028    0.0203   -0.0559
          69    0.0315   -0.0278   -0.0212   -0.0097    0.0359   -0.0646   -0.0255    0.0432
          70    0.0615    0.0244    0.0038   -0.0696   -0.0424   -0.0745    0.0075   -0.0194
          71   -0.0184   -0.0325   -0.0168    0.0057    0.0520   -0.0125   -0.0447    0.0085
          72    0.0292   -0.0240   -0.0143   -0.0103    0.0431   -0.0470   -0.0262    0.0429


   Root No.       9        10        11        12        13        14        15        16

                 9 A      10 A      11 A      12 A      13 A      14 A      15 A      16 A   

                 374.2     452.6     511.8     557.8     620.1     677.9     759.4     782.7
  
           1    0.0188   -0.0069    0.0038    0.0118    0.0083   -0.0374    0.0129    0.0041
           2    0.0272   -0.0180    0.0316   -0.0180    0.0069   -0.0034    0.0109   -0.0001
           3   -0.0019   -0.0054    0.0170   -0.0106    0.0121   -0.0342   -0.0127    0.0373
           4    0.0192   -0.0085    0.0055    0.0114    0.0050   -0.0221   -0.0054    0.0198
           5   -0.0091    0.0161   -0.0067    0.0056    0.0046   -0.0239    0.0056   -0.0085
           6   -0.0116    0.0030   -0.0013   -0.0105   -0.0067    0.0303   -0.0246    0.0078
           7   -0.0139    0.0342   -0.0167   -0.0091    0.0022   -0.0216   -0.0047    0.0114
           8    0.0055   -0.0076    0.0220   -0.0290   -0.0033    0.0167    0.0180    0.0008
           9   -0.0105   -0.0166    0.0104    0.0415    0.0062    0.0089    0.0033   -0.0024
          10   -0.0008   -0.0063    0.0043   -0.0075   -0.0065    0.0394   -0.0364    0.0224
          11    0.0027    0.0108   -0.0060    0.0047    0.0040   -0.0199   -0.0145   -0.0117
          12    0.0047   -0.0044    0.0011   -0.0062   -0.0061    0.0224   -0.0105   -0.0204
          13    0.0003   -0.0068    0.0028   -0.0074   -0.0063    0.0161    0.0380   -0.0509
          14    0.0530    0.0121   -0.0150    0.0227   -0.0020    0.0148   -0.0191   -0.0266
          15    0.0029    0.0147   -0.0156    0.0033    0.0015   -0.0247   -0.0086    0.0058
          16   -0.0117   -0.0024    0.0013   -0.0110   -0.0052    0.0175   -0.0004   -0.0049
          17   -0.0178   -0.0094    0.0110   -0.0019    0.0019    0.0091   -0.0355    0.0152
          18   -0.0266   -0.0067    0.0043   -0.0117    0.0002   -0.0232    0.0411   -0.0404
          19    0.0069   -0.0113   -0.0060   -0.0008    0.0180    0.0059   -0.0005   -0.0007
          20   -0.0077   -0.0146   -0.0314   -0.0243   -0.0133   -0.0070   -0.0002    0.0018
          21   -0.0050   -0.0246   -0.0198    0.0386    0.0034    0.0015   -0.0077   -0.0057
          22    0.0048   -0.0082   -0.0059   -0.0094    0.0093    0.0063    0.0028   -0.0053
          23   -0.0073   -0.0095   -0.0277   -0.0237   -0.0109   -0.0084   -0.0016    0.0046
          24    0.0207    0.0194    0.0025   -0.0254   -0.0045   -0.0026    0.0002    0.0018
          25   -0.0081    0.0059    0.0124    0.0145   -0.0420   -0.0098   -0.0019    0.0024
          26   -0.0201    0.0082    0.0153    0.0254    0.0209    0.0054   -0.0004   -0.0019
          27    0.0177    0.0342    0.0298   -0.0086    0.0051    0.0038    0.0035    0.0004
          28   -0.0091    0.0018    0.0032    0.0101    0.0064    0.0009   -0.0008   -0.0001
          29   -0.0225    0.0041    0.0151    0.0317    0.0018    0.0010   -0.0018   -0.0014
          30    0.0100   -0.0148   -0.0160   -0.0165   -0.0029   -0.0004    0.0014    0.0005
          31    0.0161   -0.0092    0.0013    0.0169    0.0090   -0.0450   -0.0063    0.0266
          32    0.0129   -0.0359    0.0527   -0.0235    0.0079    0.0257    0.0390    0.0110
          33    0.0070    0.0083    0.0026   -0.0086    0.0103   -0.0482   -0.0223    0.0206
          34   -0.0025    0.0157   -0.0325    0.0331   -0.0105    0.0085    0.0255   -0.0085
          35   -0.0497    0.0499   -0.0467    0.0236   -0.0095    0.0138    0.0632    0.0298
          36   -0.0015   -0.0027    0.0012   -0.0098   -0.0071    0.0278   -0.0386   -0.0224
          37    0.0478   -0.0317    0.0409   -0.0070    0.0165   -0.0548   -0.0078    0.0224
          38   -0.0205    0.0259   -0.0211    0.0130    0.0003   -0.0125    0.0071   -0.0095
          39   -0.0446    0.0306   -0.0359    0.0050   -0.0235    0.0814    0.0434    0.0385
          40   -0.0563    0.1087   -0.0241   -0.0251   -0.0428    0.0199   -0.0212   -0.0340
          41    0.0191   -0.0109    0.0529   -0.0482    0.0046   -0.0043    0.0343    0.0267
          42    0.0012   -0.0501   -0.0085    0.0627    0.0228    0.0032   -0.0005    0.0014
          43   -0.0196    0.0457   -0.0155   -0.0096   -0.0068   -0.0193   -0.0051    0.0036
          44   -0.0256    0.0422    0.0148   -0.0572   -0.0211    0.0662    0.0044   -0.0208
          45   -0.0457    0.0543    0.0131    0.0341   -0.0413    0.0325   -0.0036   -0.0449
          46   -0.0513   -0.0245    0.0314   -0.0358    0.0009    0.0098   -0.1227   -0.0628
          47    0.0293    0.0179   -0.0222    0.0175   -0.0034    0.0077    0.0673    0.0420
          48    0.0305    0.0073   -0.0116    0.0103   -0.0074    0.0292    0.0021    0.0187
          49    0.0440    0.0145   -0.0254    0.0152   -0.0175    0.0829    0.0534    0.1072
          50    0.0249    0.0263   -0.0250    0.0165   -0.0023    0.0027    0.0373    0.0282
          51    0.0317   -0.0090   -0.0032    0.0073   -0.0096    0.0435    0.0277    0.0386
          52   -0.0033   -0.0049    0.0006   -0.0100   -0.0091    0.0282    0.0321   -0.0421
          53    0.1119    0.0433   -0.0702    0.0918   -0.0151    0.0655    0.1016    0.0347
          54    0.0198    0.0372   -0.0513    0.0286   -0.0160    0.0467    0.0289    0.0702
          55    0.0278   -0.0317    0.0241    0.0119   -0.0351    0.0278    0.0137   -0.0332
          56   -0.0066    0.0012   -0.0552   -0.0619   -0.0005   -0.0232   -0.0083    0.0167
          57   -0.0127   -0.0268   -0.0135    0.0581    0.0126    0.0047   -0.0070   -0.0045
          58   -0.0283    0.0063   -0.0043   -0.0125    0.0014   -0.0266    0.0034    0.0348
          59   -0.0632   -0.0241    0.0165    0.0008   -0.0061    0.0573    0.1259    0.1797
          60   -0.0547   -0.0158    0.0077   -0.0104   -0.0049    0.0066    0.1408    0.0605
          61   -0.0071   -0.0032   -0.0402   -0.0291    0.0995    0.0079   -0.0032    0.0070
          62   -0.0077   -0.0380   -0.0448   -0.0118   -0.0492   -0.0118   -0.0043   -0.0021
          63    0.0245    0.0358    0.0255   -0.0256   -0.0104   -0.0008    0.0040    0.0019
          64   -0.0232    0.0188   -0.0050    0.0069    0.0341   -0.0024   -0.0045    0.0089
          65   -0.0237   -0.0070    0.0241    0.0499   -0.0063    0.0045   -0.0008   -0.0065
          66    0.0251    0.0380    0.0287   -0.0219   -0.0041    0.0018    0.0046    0.0011
          67    0.0057   -0.0038    0.0431    0.0380   -0.1630   -0.0332   -0.0059    0.0105
          68   -0.0243    0.0540    0.0525    0.0404    0.0760    0.0213    0.0046   -0.0068
          69    0.0057   -0.0492   -0.0589   -0.0335    0.0081   -0.0021   -0.0014    0.0003
          70   -0.0248    0.0014   -0.0512   -0.0262    0.2515    0.0538    0.0073   -0.0177
          71   -0.0233   -0.0523   -0.0249    0.0305   -0.1025   -0.0277   -0.0116    0.0062
          72    0.0080   -0.0446   -0.0442   -0.0229   -0.0280   -0.0091   -0.0027    0.0024


   Root No.      17        18        19        20        21        22        23        24

                17 A      18 A      19 A      20 A      21 A      22 A      23 A      24 A   

                 820.6     854.0     918.4     926.5     932.1     946.4     960.7     987.8
  
           1   -0.0017    0.0010   -0.0033   -0.0037    0.0082    0.0049    0.0135    0.0089
           2   -0.0017   -0.0042    0.0000   -0.0097    0.0022    0.0025    0.0022    0.0090
           3   -0.0021    0.0058    0.0001   -0.0048    0.0017    0.0033    0.0035    0.0099
           4   -0.0014    0.0274    0.0077    0.0213   -0.0211   -0.0073   -0.0206   -0.0110
           5    0.0232    0.0014    0.0031   -0.0141   -0.0018   -0.0081   -0.0092   -0.0010
           6    0.0158   -0.0108   -0.0035   -0.0147    0.0108   -0.0002    0.0101    0.0082
           7   -0.0067   -0.0380   -0.0118    0.0000    0.0215    0.0072    0.0141   -0.0132
           8   -0.0075   -0.0057   -0.0016    0.0221   -0.0035    0.0006   -0.0028   -0.0145
           9   -0.0025   -0.0032    0.0000    0.0050   -0.0014    0.0069   -0.0002   -0.0028
          10   -0.0003   -0.0016   -0.0008   -0.0028    0.0026    0.0011    0.0021    0.0018
          11    0.0141   -0.0047   -0.0025    0.0189   -0.0006    0.0064    0.0046   -0.0058
          12    0.0084   -0.0053    0.0003    0.0088   -0.0030    0.0019   -0.0039   -0.0089
          13    0.0003   -0.0100    0.0015   -0.0118    0.0013   -0.0010   -0.0034   -0.0002
          14   -0.0173   -0.0026    0.0013   -0.0258    0.0055   -0.0077   -0.0039   -0.0176
          15   -0.0093    0.0105    0.0004    0.0021   -0.0027   -0.0061   -0.0036   -0.0142
          16    0.0007   -0.0030   -0.0004    0.0008   -0.0002   -0.0003   -0.0007   -0.0012
          17   -0.0178    0.0031   -0.0005    0.0025   -0.0004    0.0034    0.0033    0.0190
          18   -0.0089   -0.0001    0.0007    0.0006   -0.0017    0.0013    0.0009    0.0153
          19    0.0000   -0.0155    0.0019   -0.0067   -0.0236   -0.0059   -0.0238    0.0164
          20    0.0011    0.0094   -0.0015    0.0057    0.0102   -0.0101    0.0115   -0.0051
          21   -0.0001   -0.0023    0.0009   -0.0052    0.0030   -0.0090   -0.0005    0.0003
          22    0.0034    0.0243   -0.0304   -0.0024   -0.0140   -0.0005    0.0291   -0.0088
          23    0.0011   -0.0002    0.0124    0.0017    0.0049   -0.0025   -0.0088    0.0062
          24    0.0013    0.0049    0.0043   -0.0057   -0.0021    0.0238   -0.0048    0.0004
          25   -0.0008   -0.0022   -0.0180    0.0024    0.0200    0.0048   -0.0177    0.0011
          26    0.0005    0.0012    0.0079   -0.0035   -0.0091    0.0071    0.0056   -0.0017
          27   -0.0020   -0.0052    0.0007    0.0029   -0.0012    0.0006    0.0009   -0.0037
          28   -0.0001   -0.0015   -0.0013    0.0003    0.0066    0.0003   -0.0136    0.0067
          29    0.0005    0.0016    0.0015   -0.0039   -0.0038    0.0087    0.0038   -0.0030
          30   -0.0011   -0.0043   -0.0023    0.0094    0.0042   -0.0421    0.0074    0.0049
          31    0.0345    0.0221    0.0000   -0.0228    0.0083   -0.0063    0.0241    0.0622
          32    0.0029   -0.0361   -0.0138    0.0225    0.0031    0.0307    0.0211    0.0285
          33   -0.0211    0.0186    0.0077   -0.0149   -0.0006   -0.0103   -0.0146   -0.0270
          34   -0.0567    0.0356    0.0064    0.1100   -0.0454    0.0058   -0.0302   -0.0772
          35   -0.1134    0.0157   -0.0002    0.0275   -0.0086    0.0157    0.0030    0.0165
          36    0.0550   -0.0144   -0.0025    0.0040    0.0035   -0.0056    0.0001   -0.0287
          37    0.0486    0.0363    0.0157   -0.0386   -0.0183   -0.0280   -0.0306    0.0348
          38    0.0033   -0.0023   -0.0002    0.0098   -0.0026    0.0004   -0.0047   -0.0190
          39   -0.1274    0.0063   -0.0046    0.0260    0.0003    0.0211    0.0186    0.0296
          40    0.0344    0.0911    0.0232   -0.0405   -0.0247   -0.0241   -0.0190    0.0390
          41   -0.0180   -0.0089   -0.0100    0.0387    0.0123    0.0267    0.0342   -0.0081
          42   -0.0154   -0.0645   -0.0110    0.0127    0.0102    0.0043   -0.0103   -0.0331
          43   -0.0007   -0.0108   -0.0090   -0.0085    0.0211    0.0084    0.0237   -0.0018
          44    0.0175    0.0490    0.0369    0.0195   -0.0736   -0.0411   -0.0988    0.0013
          45    0.0314    0.1404    0.0229   -0.0372   -0.0210    0.0041    0.0233    0.0572
          46    0.0536   -0.0285   -0.0098    0.0583    0.0029    0.0278    0.0223    0.0010
          47   -0.0753    0.0092   -0.0028   -0.0099    0.0083    0.0123    0.0231    0.0570
          48    0.0318    0.0093    0.0093   -0.0256   -0.0110   -0.0290   -0.0393   -0.0616
          49   -0.0562    0.0123    0.0024   -0.0809    0.0199   -0.0192    0.0048    0.0238
          50    0.0023   -0.0051   -0.0021   -0.0403    0.0173   -0.0092    0.0091   -0.0030
          51   -0.0853    0.0289    0.0068    0.0298   -0.0246    0.0084   -0.0137    0.0348
          52    0.0054   -0.0094    0.0016   -0.0001   -0.0042   -0.0017   -0.0089   -0.0064
          53    0.1315   -0.0358   -0.0104    0.0876   -0.0038    0.0544    0.0397    0.1049
          54    0.0843   -0.0028   -0.0051    0.1025   -0.0282    0.0225   -0.0023    0.0245
          55    0.0162    0.1366    0.1168    0.0359    0.1610    0.0069    0.0893   -0.0375
          56    0.0034   -0.0233   -0.0413   -0.0212   -0.0637   -0.0145   -0.0241    0.0415
          57   -0.0070   -0.0313   -0.0116   -0.0019   -0.0107   -0.0103   -0.0150   -0.0120
          58    0.0051    0.0142   -0.0030    0.0368   -0.0084   -0.0016    0.0050   -0.0074
          59    0.0825    0.0001    0.0038   -0.0606    0.0139   -0.0292   -0.0184   -0.0930
          60    0.0528   -0.0016    0.0035   -0.0375    0.0066   -0.0189   -0.0129   -0.0540
          61   -0.0020   -0.0228    0.2336    0.0267    0.1209   -0.0057   -0.0763    0.0325
          62    0.0059    0.0271   -0.0919   -0.0080   -0.0443   -0.0535    0.0430    0.0092
          63    0.0000    0.0036   -0.0184   -0.0095   -0.0165    0.0590   -0.0023   -0.0156
          64   -0.0049   -0.0584    0.1961   -0.0191   -0.1318   -0.0242    0.0943   -0.0060
          65    0.0011    0.0169   -0.0806    0.0136    0.0590   -0.0421   -0.0316    0.0144
          66   -0.0009    0.0046   -0.0173   -0.0007    0.0081    0.0431   -0.0145   -0.0117
          67   -0.0058   -0.0454    0.1139   -0.0048   -0.0889   -0.0539    0.1006   -0.0219
          68   -0.0031   -0.0042   -0.0543    0.0340    0.0542   -0.1365   -0.0190    0.0310
          69    0.0038    0.0171   -0.0058   -0.0166   -0.0015    0.0861   -0.0201   -0.0089
          70    0.0087    0.0563   -0.0366   -0.0197   -0.0272    0.0758    0.0524   -0.0393
          71    0.0045    0.0076    0.0278   -0.0420   -0.0142    0.1818   -0.0515   -0.0090
          72    0.0021    0.0059    0.0071   -0.0129   -0.0053    0.0581   -0.0136   -0.0041


   Root No.      25        26        27        28        29        30        31        32

                25 A      26 A      27 A      28 A      29 A      30 A      31 A      32 A   

                1002.9    1024.7    1036.1    1049.7    1058.0    1084.3    1099.9    1116.1
  
           1   -0.0054   -0.0102    0.0063    0.0101   -0.0031    0.0059    0.0047    0.0026
           2    0.0028   -0.0039    0.0042   -0.0127    0.0127    0.0014   -0.0087   -0.0043
           3   -0.0277   -0.0002    0.0022    0.0001    0.0032    0.0115    0.0034   -0.0031
           4    0.0017    0.0082   -0.0046   -0.0001   -0.0028   -0.0022   -0.0083   -0.0077
           5   -0.0040    0.0194   -0.0131   -0.0100   -0.0006   -0.0225    0.0212    0.0128
           6    0.0270   -0.0062    0.0055    0.0114    0.0095    0.0115    0.0143   -0.0159
           7    0.0032    0.0109   -0.0106   -0.0071    0.0061   -0.0040   -0.0001    0.0006
           8    0.0057    0.0035   -0.0042    0.0176   -0.0074    0.0004    0.0116   -0.0033
           9    0.0016   -0.0029    0.0005   -0.0005   -0.0095   -0.0030    0.0026    0.0034
          10   -0.0293    0.0052   -0.0035    0.0119   -0.0150   -0.0191   -0.0082    0.0160
          11   -0.0058   -0.0167    0.0117    0.0035    0.0119    0.0134   -0.0254   -0.0114
          12   -0.0222    0.0007   -0.0017   -0.0141    0.0031   -0.0057   -0.0138    0.0177
          13   -0.0053    0.0025   -0.0008   -0.0096    0.0093    0.0121    0.0078   -0.0099
          14    0.0012   -0.0127    0.0080    0.0007    0.0055   -0.0060   -0.0017    0.0017
          15    0.0180   -0.0083    0.0039    0.0050   -0.0059   -0.0232   -0.0106    0.0113
          16    0.0140   -0.0004   -0.0002   -0.0101    0.0074    0.0086    0.0065    0.0015
          17    0.0158    0.0179   -0.0130   -0.0097   -0.0135    0.0177    0.0104   -0.0049
          18    0.0018    0.0126   -0.0073    0.0156   -0.0198   -0.0050   -0.0080    0.0017
          19   -0.0017   -0.0123    0.0164   -0.0072   -0.0098    0.0016    0.0038   -0.0019
          20   -0.0004    0.0048   -0.0068    0.0040    0.0037   -0.0009   -0.0007    0.0004
          21   -0.0005    0.0036   -0.0008    0.0029    0.0097    0.0044   -0.0009   -0.0036
          22   -0.0008   -0.0006   -0.0181    0.0027    0.0041   -0.0005   -0.0007    0.0005
          23   -0.0029   -0.0031    0.0081   -0.0032   -0.0060    0.0007    0.0032   -0.0006
          24   -0.0006   -0.0018    0.0027   -0.0029   -0.0023    0.0008    0.0000    0.0006
          25    0.0004    0.0134    0.0287   -0.0026   -0.0033    0.0005    0.0008   -0.0004
          26    0.0005   -0.0046   -0.0118    0.0018    0.0020   -0.0001   -0.0001   -0.0002
          27    0.0019    0.0014   -0.0042    0.0039    0.0014    0.0000    0.0015   -0.0012
          28   -0.0008   -0.0213   -0.0352    0.0028    0.0032    0.0000   -0.0003   -0.0001
          29    0.0004    0.0087    0.0144   -0.0013   -0.0005    0.0007    0.0003   -0.0006
          30   -0.0028   -0.0005    0.0041   -0.0022   -0.0017    0.0000    0.0003    0.0001
          31    0.0887   -0.0210    0.0277    0.0956    0.0102   -0.0985    0.0120    0.0060
          32    0.0768   -0.0325    0.0181   -0.0513   -0.0448   -0.1027   -0.1083    0.0755
          33   -0.1153    0.0227   -0.0159   -0.0115    0.0333    0.1234    0.0647   -0.0564
          34    0.0279   -0.0581    0.0301    0.0337   -0.0588    0.0085    0.0656   -0.0636
          35   -0.0684    0.0057   -0.0017   -0.0209    0.0126   -0.0084   -0.0778    0.0352
          36    0.0682   -0.0282    0.0150    0.0292   -0.0190    0.0107    0.0947   -0.0503
          37    0.0649    0.0540   -0.0232   -0.0313    0.0808    0.0257   -0.0921   -0.0596
          38   -0.0300    0.0010   -0.0055    0.0035   -0.0346   -0.0365    0.0567    0.0341
          39    0.0175   -0.0268    0.0248   -0.0162    0.0662    0.0811   -0.1103   -0.0546
          40   -0.0074   -0.0035    0.0137    0.0068    0.0288    0.0006   -0.0225    0.0020
          41   -0.0204   -0.0462    0.0118   -0.0332   -0.0784    0.0233    0.0672   -0.0191
          42    0.0249    0.0392   -0.0226    0.0290    0.0297   -0.0216   -0.0250    0.0143
          43   -0.0008   -0.0079   -0.0024   -0.0268   -0.0067   -0.0029    0.0067   -0.0027
          44    0.0009    0.0616   -0.0027    0.1384    0.0574    0.0058   -0.0291    0.0177
          45   -0.0211   -0.0838    0.0422   -0.0732   -0.0599    0.0063    0.0260   -0.0073
          46   -0.0903   -0.0433    0.0361    0.0471    0.0333   -0.0589   -0.0508   -0.0093
          47    0.0036   -0.0128    0.0233    0.0439    0.0609   -0.0628    0.0549   -0.0500
          48    0.0297    0.0442   -0.0499   -0.0818   -0.0858    0.0987   -0.0451    0.0761
          49    0.0141    0.0381   -0.0283    0.0584   -0.0964   -0.0162   -0.0099   -0.0191
          50    0.0227    0.0008   -0.0057    0.0482   -0.0756    0.0393   -0.0681   -0.0581
          51   -0.0225    0.0189   -0.0003   -0.0671    0.1217   -0.0874    0.1294    0.0976
          52    0.0196    0.0095   -0.0092   -0.0492    0.0160   -0.0191    0.0077   -0.0580
          53   -0.0714    0.0273   -0.0056    0.0540   -0.0086    0.0943    0.0128    0.0672
          54    0.0678    0.0384   -0.0343   -0.1117    0.0077   -0.0907   -0.0065   -0.1311
          55    0.0073    0.0213   -0.0395   -0.0005    0.0171   -0.0125   -0.0189    0.0126
          56   -0.0111   -0.0345    0.0308   -0.0393   -0.0308   -0.0093   -0.0194    0.0210
          57    0.0029    0.0175   -0.0065    0.0286    0.0227    0.0150    0.0194   -0.0221
          58    0.1575   -0.0439    0.0312    0.0094    0.0516    0.1349    0.0241    0.1775
          59   -0.0401   -0.0591    0.0364   -0.0102    0.0496   -0.0131   -0.0071   -0.0027
          60   -0.0316   -0.0345    0.0228    0.0149    0.0187   -0.0251   -0.0193    0.0051
          61   -0.0033   -0.0078    0.0537   -0.0175   -0.0208    0.0042    0.0077   -0.0035
          62   -0.0158   -0.0167   -0.0096   -0.0133   -0.0058    0.0112    0.0097   -0.0067
          63    0.0083    0.0091   -0.0102    0.0104    0.0057   -0.0072   -0.0065    0.0056
          64   -0.0007   -0.0387   -0.0802    0.0049    0.0094   -0.0020   -0.0052    0.0031
          65   -0.0039    0.0094    0.0379   -0.0141   -0.0050   -0.0012   -0.0104    0.0075
          66    0.0052    0.0107    0.0020    0.0117    0.0015    0.0017    0.0104   -0.0075
          67   -0.0006    0.0688    0.1167   -0.0127   -0.0107    0.0010    0.0009   -0.0002
          68   -0.0106   -0.0370   -0.0418   -0.0046    0.0011    0.0009   -0.0015    0.0006
          69    0.0051   -0.0019   -0.0133    0.0061    0.0025   -0.0004    0.0013   -0.0008
          70    0.0072    0.0880    0.1308   -0.0076   -0.0077    0.0015    0.0012   -0.0012
          71    0.0090   -0.0259   -0.0564    0.0107    0.0092    0.0017    0.0004   -0.0020
          72    0.0027   -0.0053   -0.0129    0.0031    0.0019    0.0006    0.0007   -0.0008


   Root No.      33        34        35        36        37        38        39        40

                33 A      34 A      35 A      36 A      37 A      38 A      39 A      40 A   

                1125.3    1146.6    1164.1    1177.8    1209.8    1225.3    1242.0    1256.6
  
           1    0.0175   -0.0120   -0.0052   -0.0025    0.0040    0.0047    0.0178   -0.0222
           2   -0.0078   -0.0163   -0.0022   -0.0239    0.0287    0.0203    0.0005    0.0221
           3    0.0002   -0.0318   -0.0012   -0.0105   -0.0097   -0.0079   -0.0068   -0.0011
           4   -0.0200    0.0118    0.0035    0.0034   -0.0070   -0.0060    0.0037   -0.0235
           5   -0.0140    0.0143    0.0039    0.0030    0.0012    0.0005   -0.0013    0.0100
           6   -0.0156    0.0039   -0.0007    0.0054   -0.0104   -0.0077    0.0051   -0.0265
           7   -0.0065   -0.0021    0.0070    0.0052   -0.0009    0.0016   -0.0009    0.0091
           8    0.0187    0.0203   -0.0143    0.0163    0.0030    0.0065   -0.0050   -0.0004
           9   -0.0018    0.0031   -0.0307    0.0237   -0.0250    0.0066    0.0039   -0.0044
          10   -0.0033    0.0108    0.0013   -0.0024    0.0066    0.0031   -0.0035    0.0080
          11    0.0065   -0.0005   -0.0009    0.0036   -0.0101   -0.0087   -0.0077   -0.0037
          12    0.0140    0.0047    0.0002   -0.0020    0.0142    0.0132    0.0114    0.0070
          13    0.0030   -0.0124   -0.0003    0.0028   -0.0112   -0.0073   -0.0030   -0.0045
          14    0.0013   -0.0004    0.0017    0.0045   -0.0052   -0.0012    0.0067   -0.0091
          15   -0.0002    0.0097    0.0021    0.0005   -0.0036   -0.0062   -0.0122    0.0077
          16    0.0062   -0.0092   -0.0004    0.0008   -0.0110   -0.0104   -0.0141    0.0075
          17    0.0045   -0.0110   -0.0025   -0.0018   -0.0018   -0.0009   -0.0004    0.0000
          18   -0.0107    0.0100    0.0026   -0.0024    0.0078    0.0046    0.0015    0.0018
          19    0.0045    0.0087   -0.0090   -0.0050    0.0061   -0.0042    0.0000    0.0012
          20    0.0009    0.0008   -0.0135   -0.0087    0.0040   -0.0116   -0.0002   -0.0011
          21    0.0026   -0.0056    0.0489   -0.0025    0.0179   -0.0148    0.0158    0.0224
          22   -0.0008   -0.0009   -0.0049   -0.0018   -0.0001   -0.0038   -0.0033   -0.0055
          23    0.0033    0.0067   -0.0196   -0.0099   -0.0011   -0.0083   -0.0069   -0.0120
          24   -0.0037   -0.0058    0.0049    0.0222    0.0110   -0.0010   -0.0099   -0.0123
          25    0.0011    0.0014    0.0008   -0.0022   -0.0013    0.0017    0.0000    0.0006
          26    0.0007    0.0010   -0.0002   -0.0048   -0.0028   -0.0005    0.0019    0.0017
          27    0.0042    0.0041    0.0145   -0.0023   -0.0029    0.0221   -0.0092   -0.0013
          28    0.0001    0.0002    0.0011   -0.0039   -0.0030   -0.0012    0.0029    0.0018
          29    0.0007    0.0008    0.0044   -0.0077   -0.0062   -0.0015    0.0062    0.0042
          30    0.0004    0.0020   -0.0098   -0.0094   -0.0051   -0.0068    0.0048    0.0012
          31    0.2039   -0.0358   -0.0297    0.0424   -0.0049    0.0126   -0.0404    0.0881
          32   -0.1074   -0.0675    0.0755   -0.0813   -0.0328   -0.0601   -0.0172   -0.0631
          33   -0.0180    0.0100   -0.0421    0.0070    0.0330    0.0407    0.0301    0.0047
          34   -0.0750   -0.0765    0.0003   -0.0529    0.0339    0.0198   -0.0450    0.1179
          35    0.0523    0.0069    0.0000    0.0013    0.0088    0.0085    0.0184   -0.0275
          36   -0.0729   -0.0307   -0.0001   -0.0184    0.0028   -0.0012   -0.0256    0.0516
          37   -0.0492    0.1221    0.0103    0.0523   -0.0275   -0.0187   -0.0432    0.0866
          38   -0.0038   -0.0303    0.0015   -0.0175    0.0106    0.0064    0.0186   -0.0351
          39    0.0114    0.0220   -0.0043    0.0145   -0.0171   -0.0123   -0.0305    0.0480
          40   -0.0075   -0.0425    0.0152   -0.0555    0.0376    0.0085   -0.0035    0.0166
          41    0.0540    0.0788    0.1775    0.0868   -0.0285   -0.0980    0.0435    0.0189
          42   -0.0260   -0.0195   -0.1769    0.0058   -0.0225    0.0785   -0.0281   -0.0226
          43   -0.0030    0.0126   -0.0089   -0.0046    0.0097    0.0034   -0.0085    0.0100
          44    0.0182   -0.0931    0.0744    0.0321   -0.0414   -0.0223    0.0543   -0.0419
          45    0.0089    0.0532   -0.0945   -0.0218    0.0132    0.0070   -0.0213   -0.0185
          46   -0.0263    0.0506    0.0039   -0.0005    0.0388    0.0342    0.0248    0.0236
          47   -0.0585    0.0225    0.0028    0.0079   -0.0028    0.0012    0.0205   -0.0326
          48    0.0906   -0.0501   -0.0052   -0.0075   -0.0207   -0.0232   -0.0398    0.0207
          49   -0.0428    0.0284    0.0027   -0.0120    0.0462    0.0382    0.0259    0.0259
          50   -0.0120    0.0090   -0.0018   -0.0045    0.0240    0.0229    0.0242    0.0000
          51   -0.0058    0.0075    0.0057    0.0062   -0.0203   -0.0212   -0.0329    0.0254
          52    0.0286   -0.0237   -0.0014    0.0023    0.0068    0.0115    0.0294   -0.0252
          53   -0.0440    0.0031   -0.0043   -0.0071   -0.0221   -0.0239   -0.0488    0.0350
          54    0.0664   -0.0245   -0.0051   -0.0082    0.0571    0.0529    0.0776   -0.0427
          55   -0.0297   -0.0350    0.0045    0.0417   -0.0238    0.0077    0.0334    0.0353
          56   -0.0569   -0.0566   -0.0306    0.1409   -0.0702    0.0371    0.0991    0.1048
          57    0.0519    0.0463    0.0550   -0.1128    0.0776   -0.0523   -0.0587   -0.0563
          58   -0.0162    0.0521    0.0041   -0.0107    0.0772    0.0706    0.0805   -0.0171
          59    0.0097   -0.0065   -0.0018    0.0016   -0.0058   -0.0035   -0.0024    0.0001
          60   -0.0076    0.0141    0.0033   -0.0006    0.0068    0.0040    0.0005    0.0027
          61    0.0064    0.0100    0.0411    0.0005   -0.0202    0.0580   -0.0256   -0.0202
          62    0.0057    0.0028    0.1502    0.0027   -0.0707    0.1740   -0.0687   -0.0504
          63   -0.0071   -0.0065   -0.1184    0.0140    0.0641   -0.1402    0.0359    0.0156
          64   -0.0107   -0.0175    0.0097    0.0614    0.0425    0.0027   -0.0271   -0.0180
          65   -0.0305   -0.0492    0.0225    0.1846    0.1286    0.0017   -0.0783   -0.0532
          66    0.0286    0.0430   -0.0015   -0.1454   -0.1015    0.0219    0.0497    0.0391
          67   -0.0004    0.0005   -0.0025   -0.0061   -0.0052   -0.0056    0.0071    0.0026
          68   -0.0036   -0.0026   -0.0045   -0.0138   -0.0130   -0.0153    0.0187    0.0065
          69    0.0039    0.0046    0.0005   -0.0052   -0.0010    0.0067   -0.0054   -0.0005
          70    0.0010   -0.0011    0.0221    0.0068   -0.0007    0.0149   -0.0033   -0.0002
          71    0.0013   -0.0044    0.0529    0.0167   -0.0009    0.0344   -0.0077   -0.0004
          72    0.0012   -0.0001    0.0167    0.0030   -0.0028    0.0138   -0.0033   -0.0014


   Root No.      41        42        43        44        45        46        47        48

                41 A      42 A      43 A      44 A      45 A      46 A      47 A      48 A   

                1280.0    1302.3    1320.2    1357.3    1372.7    1395.1    1408.5    1421.9
  
           1   -0.0048    0.0711    0.0249    0.0010   -0.0038    0.0109    0.0022    0.0090
           2    0.0037   -0.0148    0.0093   -0.0154   -0.0154   -0.0307    0.0050   -0.0063
           3    0.0012   -0.0171   -0.0262    0.0092    0.0203    0.0159   -0.0018    0.0018
           4   -0.0076   -0.0517    0.0014   -0.0005   -0.0028   -0.0070   -0.0221   -0.0243
           5    0.0048    0.0215   -0.0071    0.0040    0.0053    0.0033   -0.0039   -0.0180
           6   -0.0097   -0.0205    0.0152   -0.0038   -0.0079    0.0000    0.0061    0.0306
           7    0.0061   -0.0126   -0.0079   -0.0046    0.0017   -0.0274   -0.0017    0.0005
           8   -0.0078   -0.0062    0.0281    0.0119   -0.0106    0.0323   -0.0156    0.0059
           9    0.0107    0.0114   -0.0214   -0.0067    0.0013    0.0318    0.0183   -0.0119
          10   -0.0005    0.0005    0.0126   -0.0200   -0.0020   -0.0084    0.0531   -0.0158
          11   -0.0051   -0.0085    0.0148   -0.0256    0.0081    0.0032    0.0059    0.0094
          12    0.0088    0.0131   -0.0253    0.0418   -0.0124   -0.0048   -0.0121   -0.0138
          13   -0.0001   -0.0160   -0.0113    0.0013    0.0083    0.0065   -0.0043    0.0034
          14    0.0026   -0.0095   -0.0149   -0.0040    0.0128    0.0098    0.0079    0.0009
          15   -0.0039    0.0210    0.0212    0.0084   -0.0188   -0.0111   -0.0123   -0.0015
          16   -0.0023    0.0100    0.0046    0.0256   -0.0171   -0.0077   -0.0251    0.0032
          17    0.0003    0.0083   -0.0038    0.0135   -0.0039    0.0006   -0.0099    0.0013
          18   -0.0004   -0.0152    0.0065   -0.0236    0.0065   -0.0019    0.0172   -0.0024
          19   -0.0110    0.0002    0.0051    0.0052    0.0052    0.0014    0.0009   -0.0003
          20   -0.0185    0.0021   -0.0023    0.0099    0.0179   -0.0016    0.0066   -0.0023
          21   -0.0174   -0.0129    0.0201    0.0038   -0.0057   -0.0076   -0.0106    0.0051
          22    0.0066    0.0028   -0.0073   -0.0022    0.0009    0.0005    0.0027   -0.0013
          23    0.0038    0.0079   -0.0147   -0.0007    0.0078    0.0032    0.0085   -0.0039
          24    0.0529    0.0001   -0.0041   -0.0186   -0.0293    0.0019   -0.0099    0.0034
          25   -0.0109    0.0013   -0.0035   -0.0017   -0.0013   -0.0003    0.0001   -0.0001
          26   -0.0158    0.0029   -0.0093   -0.0085   -0.0098   -0.0002   -0.0020    0.0006
          27   -0.0521    0.0021    0.0044    0.0200    0.0303   -0.0008    0.0096   -0.0033
          28    0.0064   -0.0006   -0.0013   -0.0054   -0.0084   -0.0003   -0.0031    0.0011
          29    0.0126   -0.0013   -0.0031   -0.0129   -0.0203   -0.0008   -0.0076    0.0028
          30    0.0145   -0.0004   -0.0007   -0.0026   -0.0033    0.0004   -0.0005    0.0001
          31    0.0232   -0.1063   -0.0556   -0.0039    0.0126   -0.0157   -0.0054   -0.0230
          32   -0.0126    0.0417   -0.0116    0.0270    0.0238    0.0289   -0.0102    0.0134
          33   -0.0012    0.0245    0.0232   -0.0151   -0.0121   -0.0098    0.0102    0.0032
          34    0.0319    0.0335   -0.0518    0.0207    0.0032    0.0089    0.0754    0.1064
          35   -0.0049   -0.0658   -0.0152    0.0545   -0.0422    0.0064    0.0595    0.2104
          36    0.0116    0.0606   -0.0020   -0.0241    0.0213    0.0041    0.0083   -0.0482
          37    0.0283    0.0854   -0.0467    0.0367    0.0075    0.0249    0.0775    0.1247
          38   -0.0097   -0.0363    0.0112   -0.0055   -0.0034   -0.0078   -0.0340   -0.0505
          39    0.0104    0.0834    0.0097   -0.0572    0.0472   -0.0037   -0.0513   -0.2104
          40   -0.0180   -0.0231    0.0313    0.0119   -0.0433    0.2737    0.0212   -0.0423
          41    0.0159    0.0183   -0.0569   -0.0169    0.0167   -0.0417    0.0251   -0.0088
          42    0.0064    0.0009    0.0190    0.0040    0.0091   -0.1015   -0.0264    0.0246
          43   -0.0027   -0.0217    0.0038    0.0016    0.0035   -0.0403   -0.0109    0.0058
          44    0.0269    0.1101   -0.0332   -0.0272    0.0285   -0.1759    0.0078    0.0221
          45   -0.0218    0.0006    0.0138    0.0102    0.0403   -0.2206   -0.0353    0.0409
          46    0.0206    0.0237   -0.0354   -0.0383    0.0596    0.0452   -0.1228    0.0633
          47   -0.0034   -0.0180   -0.0183    0.1030   -0.0721   -0.0485    0.1012   -0.0902
          48   -0.0112    0.0018    0.0479   -0.0641    0.0099   -0.0024    0.0497    0.0122
[...]
 T-DIPOLE    0.0810        C 10 --  H 24           +9.7% ( 40.6%)     1.0%
 TRAVEL      0.0876        C  1 --  C  5           +7.6% ( 35.9%)    99.3%
 RED. MASS   0.4507        C 10 --  H 23           +6.2% ( 32.4%)     8.2%
 EFF. MASS   6.3988

 VIBRATION   46   46A       ATOM PAIR        ENERGY CONTRIBUTION    RADIAL
 FREQ.      1395.13        C  3 --  H 14          +30.0% ( 59.4%)     4.6%
 T-DIPOLE    0.0935        C  3 --  H 15          +27.9% ( 57.3%)     5.1%
 TRAVEL      0.1197        C  1 --  C  3          +13.4% ( 39.8%)    93.7%
 RED. MASS   0.5531        C  3 --  C  7           +7.7% ( 30.2%)    14.7%
 EFF. MASS   3.3715

 VIBRATION   47   47A       ATOM PAIR        ENERGY CONTRIBUTION    RADIAL
 FREQ.      1408.52        C  4 --  C  6          +17.5% ( 53.9%)    97.9%
 T-DIPOLE    0.0322        C  4 --  H 17          +17.3% ( 53.7%)     5.5%
 TRAVEL      0.0906        C  4 --  H 16          +17.2% ( 53.5%)     5.6%
 RED. MASS   0.8470        C  2 --  C  4          +11.7% ( 44.1%)     0.0%
 EFF. MASS   5.8335

 VIBRATION   48   48A       ATOM PAIR        ENERGY CONTRIBUTION    RADIAL
 FREQ.      1421.87        C  2 --  H 13          +30.2% ( 56.5%)     4.4%
 T-DIPOLE    0.0622        C  2 --  H 12          +27.8% ( 54.2%)     5.4%
 TRAVEL      0.1308        C  2 --  C  4          +10.5% ( 33.4%)    81.4%
 RED. MASS   0.4144        C  1 --  C  2           +8.1% ( 29.3%)    53.4%
 EFF. MASS   2.7699

 VIBRATION   49   49A       ATOM PAIR        ENERGY CONTRIBUTION    RADIAL
 FREQ.      1427.67        C  1 --  C  3          +17.1% ( 62.9%)    50.2%
 T-DIPOLE    0.0274        C  3 --  C  7          +11.4% ( 51.5%)    93.8%
 TRAVEL      0.0721        C  1 --  C  5          +10.9% ( 50.4%)    89.1%
 RED. MASS   1.6648        C  3 --  H 14          +10.1% ( 48.5%)     0.7%
 EFF. MASS   9.0816

 VIBRATION   50   50A       ATOM PAIR        ENERGY CONTRIBUTION    RADIAL
 FREQ.      1831.64        C  5 --  C  6          +45.4% ( 99.7%)   100.0%
 T-DIPOLE    0.1668        C  1 --  C  5          +13.8% ( 54.9%)    25.1%
 TRAVEL      0.0557        C  4 --  C  6          +13.8% ( 54.9%)    25.7%
 RED. MASS   5.2938        C  5 --  H 18          +12.9% ( 53.1%)    10.0%
 EFF. MASS  11.8840        C  6 --  H 20          +12.8% ( 53.0%)     9.6%

 VIBRATION   51   51A       ATOM PAIR        ENERGY CONTRIBUTION    RADIAL
 FREQ.      1839.20        C  9 --  C 10          +35.9% ( 88.4%)    99.2%
 T-DIPOLE    0.0753        C  8 --  C  9          +12.5% ( 52.1%)    56.4%
 TRAVEL      0.0556        C  9 --  H 22          +11.7% ( 50.4%)     4.7%
 RED. MASS   3.4771        C  7 --  C  8           +9.8% ( 46.2%)    98.6%
 EFF. MASS  11.8403

 VIBRATION   52   52A       ATOM PAIR        ENERGY CONTRIBUTION    RADIAL
 FREQ.      1884.13        C  7 --  C  8          +33.9% ( 86.3%)    95.4%
 T-DIPOLE    0.4604        C  8 --  C  9          +18.4% ( 63.6%)    55.7%
 TRAVEL      0.0551        C  8 --  H 21          +11.8% ( 50.9%)     2.4%
 RED. MASS   3.7424        C  3 --  C  7           +9.9% ( 46.6%)    53.6%
 EFF. MASS  11.7796

 VIBRATION   53   53A       ATOM PAIR        ENERGY CONTRIBUTION    RADIAL
 FREQ.      2887.49        C  1 --  H 11          +95.8% ( 99.5%)   100.0%
 T-DIPOLE    0.0601        C  1 --  C  3           +1.1% ( 10.4%)     8.3%
 TRAVEL      0.1271        C  1 --  C  2           +1.0% ( 10.4%)    10.1%
 RED. MASS   0.9122        C  1 --  C  5           +1.0% ( 10.3%)    10.2%
 EFF. MASS   1.4456

 VIBRATION   54   54A       ATOM PAIR        ENERGY CONTRIBUTION    RADIAL
 FREQ.      2942.26        C  3 --  H 15          +54.6% ( 76.7%)    97.1%
 T-DIPOLE    0.0470        C  3 --  H 14          +42.3% ( 67.5%)    95.8%
 TRAVEL      0.1219        C  3 --  C  7           +1.2% ( 11.2%)     0.1%
 RED. MASS   0.5175        C  1 --  C  3           +1.1% ( 11.1%)     0.2%
 EFF. MASS   1.5425

 VIBRATION   55   55A       ATOM PAIR        ENERGY CONTRIBUTION    RADIAL
 FREQ.      2972.21        C  4 --  H 17          +37.5% ( 63.7%)    96.6%
 T-DIPOLE    0.0125        C  4 --  H 16          +35.9% ( 62.4%)    96.4%
 TRAVEL      0.1209        C  2 --  H 13          +13.5% ( 38.2%)    96.9%
 RED. MASS   0.3258        C  2 --  H 12          +10.7% ( 34.1%)    95.4%
 EFF. MASS   1.5523

 VIBRATION   56   56A       ATOM PAIR        ENERGY CONTRIBUTION    RADIAL
 FREQ.      2989.00        C  2 --  H 13          +41.9% ( 67.0%)    97.3%
 T-DIPOLE    0.0693        C  2 --  H 12          +31.7% ( 58.2%)    95.7%
 TRAVEL      0.1214        C  4 --  H 17          +12.4% ( 36.4%)    97.0%
 RED. MASS   0.3288        C  4 --  H 16          +11.7% ( 35.4%)    96.7%
 EFF. MASS   1.5305

 VIBRATION   57   57A       ATOM PAIR        ENERGY CONTRIBUTION    RADIAL
 FREQ.      3019.72        C  3 --  H 14          +54.4% ( 72.8%)    98.3%
 T-DIPOLE    0.0734        C  3 --  H 15          +42.3% ( 64.1%)    96.9%
 TRAVEL      0.1320        C  7 --  H 19           +1.1% ( 10.2%)    99.7%
 RED. MASS   0.4720        C  8 --  H 21           +0.8% (  8.8%)    99.8%
 EFF. MASS   1.2821

 VIBRATION   58   58A       ATOM PAIR        ENERGY CONTRIBUTION    RADIAL
 FREQ.      3029.04        C  8 --  H 21          +73.2% ( 87.0%)   100.0%
 T-DIPOLE    0.1099        C  9 --  H 22          +22.8% ( 48.5%)   100.0%
 TRAVEL      0.1207        C  8 --  C  9           +1.6% ( 12.9%)    17.4%
 RED. MASS   0.5830        C  7 --  C  8           +1.1% ( 10.8%)    36.9%
 EFF. MASS   1.5283

 VIBRATION   59   59A       ATOM PAIR        ENERGY CONTRIBUTION    RADIAL
 FREQ.      3035.09        C  7 --  H 19          +83.1% ( 92.3%)   100.0%
 T-DIPOLE    0.3658        C  9 --  H 22          +10.4% ( 32.7%)   100.0%
 TRAVEL      0.1225        C  8 --  H 21           +3.0% ( 17.6%)    99.6%
 RED. MASS   0.6868        C  3 --  C  7           +1.1% ( 10.6%)    15.4%
 EFF. MASS   1.4809

 VIBRATION   60   60A       ATOM PAIR        ENERGY CONTRIBUTION    RADIAL
 FREQ.      3038.52        C  9 --  H 22          +63.2% ( 80.6%)   100.0%
 T-DIPOLE    0.1898        C  8 --  H 21          +19.8% ( 45.1%)   100.0%
 TRAVEL      0.1207        C  7 --  H 19          +13.1% ( 36.7%)    99.9%
 RED. MASS   0.4497        C  8 --  C  9           +1.0% ( 10.4%)    24.8%
 EFF. MASS   1.5231

 VIBRATION   61   61A       ATOM PAIR        ENERGY CONTRIBUTION    RADIAL
 FREQ.      3055.28        C  4 --  H 16          +49.3% ( 69.3%)    97.7%
 T-DIPOLE    0.0802        C  4 --  H 17          +46.7% ( 67.4%)    97.4%
 TRAVEL      0.1311        C  2 --  H 12           +1.4% ( 11.8%)    98.2%
 RED. MASS   0.4601        C  2 --  H 13           +1.0% ( 10.0%)    96.1%
 EFF. MASS   1.2838

 VIBRATION   62   62A       ATOM PAIR        ENERGY CONTRIBUTION    RADIAL
 FREQ.      3067.59        C  2 --  H 12          +55.0% ( 73.1%)    98.4%
 T-DIPOLE    0.0713        C  2 --  H 13          +41.2% ( 63.2%)    96.7%
 TRAVEL      0.1310        C  4 --  H 17           +1.2% ( 11.0%)    98.0%
 RED. MASS   0.4681        C  4 --  H 16           +1.1% ( 10.5%)    97.6%
 EFF. MASS   1.2804

 VIBRATION   63   63A       ATOM PAIR        ENERGY CONTRIBUTION    RADIAL
 FREQ.      3113.87        C  5 --  H 18          +53.8% ( 74.5%)   100.0%
 T-DIPOLE    0.3695        C  6 --  H 20          +43.7% ( 67.1%)   100.0%
 TRAVEL      0.1217        C  5 --  C  6           +1.1% ( 10.7%)     0.3%
 RED. MASS   0.4699        C  1 --  C  5           +0.8% (  9.1%)    25.6%
 EFF. MASS   1.4621

 VIBRATION   64   64A       ATOM PAIR        ENERGY CONTRIBUTION    RADIAL
 FREQ.      3133.09        C  6 --  H 20          +52.7% ( 74.0%)    99.9%
 T-DIPOLE    0.3530        C  5 --  H 18          +42.7% ( 66.6%)    99.9%
 TRAVEL      0.1141        C  5 --  C  6           +2.5% ( 16.1%)    99.7%
 RED. MASS   0.4708        C  4 --  C  6           +1.0% ( 10.3%)    21.1%
 EFF. MASS   1.6517

 VIBRATION   65   65A       ATOM PAIR        ENERGY CONTRIBUTION    RADIAL
 FREQ.      3136.56        C 10 --  H 23          +94.5% ( 98.8%)   100.0%
 T-DIPOLE    0.2233        C 10 --  H 24           +4.1% ( 20.6%)    59.7%
 TRAVEL      0.1188        C  9 --  C 10           +1.3% ( 11.7%)    27.4%
 RED. MASS   0.8918
 EFF. MASS   1.5234

 VIBRATION   66   66A       ATOM PAIR        ENERGY CONTRIBUTION    RADIAL
 FREQ.      3147.86        C 10 --  H 24          +94.4% ( 98.0%)    99.8%
 T-DIPOLE    0.2997        C 10 --  H 23           +3.4% ( 18.5%)    18.7%
 TRAVEL      0.1205        C  9 --  C 10           +1.5% ( 12.5%)    65.7%
 RED. MASS   0.8640        C  9 --  H 22           +0.7% (  8.2%)    94.8%
 EFF. MASS   1.4742

 SYMMETRY NUMBER FOR POINT-GROUP C1  =  1


          SYSTEM IS A GROUND STATE


    NULL



          MOLECULE IS NOT LINEAR

          THERE ARE 66 GENUINE VIBRATIONS IN THIS SYSTEM
          THIS THERMODYNAMICS CALCULATION IS LIMITED TO
          MOLECULES WHICH HAVE NO INTERNAL ROTATIONS




                    CALCULATED THERMODYNAMIC PROPERTIES
                                          *
   TEMP. (K)   PARTITION FUNCTION   H.O.F.    ENTHALPY  HEAT CAPACITY ENTROPY
                                   KCAL/MOL   CAL/MOLE    CAL/K/MOL  CAL/K/MOL


 298.00  VIB.     0.1565D+04                  4686.5525    32.6451    30.3434
         ROT.     0.8765D+06                   888.2813     2.9808    30.1731
         INT.     0.1371D+10                  5574.8338    35.6259    60.5165
         TRA.     0.1503D+28                  1480.4688     4.9680    40.5931
         TOT.                       31.668    7055.3027    40.5939   101.1096

 200.00  VIB.     0.1174D+03                  2112.1175    20.3567    20.0304
         ROT.     0.4819D+06                   596.1620     2.9808    28.9844
         INT.     0.5657D+08                  2708.2794    23.3375    49.0149
         TRA.     0.8266D+27                   993.6033     4.9680    38.6119
         TOT.                       28.315    3701.8827    28.3055    87.6268

 210.00  VIB.     0.1530D+03                  2321.1782    21.4626    21.0502
         ROT.     0.5185D+06                   625.9700     2.9808    29.1299
         INT.     0.7935D+08                  2947.1483    24.4434    50.1801
         TRA.     0.8893D+27                  1043.2834     4.9680    38.8543
         TOT.                       28.603    3990.4317    29.4114    89.0344

 220.00  VIB.     0.1994D+03                  2541.5085    22.6103    22.0750
         ROT.     0.5560D+06                   655.7781     2.9808    29.2685
         INT.     0.1109D+09                  3197.2866    25.5911    51.3435
         TRA.     0.9536D+27                  1092.9636     4.9680    39.0854
         TOT.                       28.903    4290.2502    30.5591    90.4290

 230.00  VIB.     0.2596D+03                  2773.5171    23.7978    23.1061
         ROT.     0.5943D+06                   685.5862     2.9808    29.4010
         INT.     0.1543D+09                  3459.1033    26.7786    52.5071
         TRA.     0.1019D+28                  1142.6437     4.9680    39.3063
         TOT.                       29.215    4601.7470    31.7466    91.8134

 240.00  VIB.     0.3380D+03                  3017.5878    25.0222    24.1447
         ROT.     0.6335D+06                   715.3943     2.9808    29.5279
         INT.     0.2141D+09                  3732.9821    28.0030    53.6726
         TRA.     0.1087D+28                  1192.3239     4.9680    39.5177
         TOT.                       29.538    4925.3060    32.9710    93.1903

 250.00  VIB.     0.4399D+03                  3274.0715    26.2798    25.1915
         ROT.     0.6735D+06                   745.2024     2.9808    29.6496
         INT.     0.2963D+09                  4019.2740    29.2606    54.8411
         TRA.     0.1155D+28                  1242.0041     4.9680    39.7205
         TOT.                       29.874    5261.2780    34.2286    94.5616

 260.00  VIB.     0.5726D+03                  3543.2809    27.5666    26.2472
         ROT.     0.7143D+06                   775.0105     2.9808    29.7665
         INT.     0.4090D+09                  4318.2914    30.5474    56.0137
         TRA.     0.1225D+28                  1291.6842     4.9680    39.9154
         TOT.                       30.223    5609.9756    35.5154    95.9291

 270.00  VIB.     0.7456D+03                  3825.4860    28.8782    27.3121
         ROT.     0.7559D+06                   804.8186     2.9808    29.8790
         INT.     0.5636D+09                  4630.3046    31.8590    57.1911
         TRA.     0.1297D+28                  1341.3644     4.9680    40.1029
         TOT.                       30.584    5971.6690    36.8270    97.2940

 280.00  VIB.     0.9711D+03                  4120.9132    30.2102    28.3864
         ROT.     0.7983D+06                   834.6267     2.9808    29.9874
         INT.     0.7752D+09                  4955.5399    33.1910    58.3738
         TRA.     0.1369D+28                  1391.0445     4.9680    40.2835
         TOT.                       30.959    6346.5845    38.1591    98.6573

 290.00  VIB.     0.1265D+04                  4429.7438    31.5582    29.4699
         ROT.     0.8414D+06                   864.4348     2.9808    30.0920
         INT.     0.1065D+10                  5294.1786    34.5390    59.5619
         TRA.     0.1443D+28                  1440.7247     4.9680    40.4579
         TOT.                       31.348    6734.9033    39.5070   100.0198

 300.00  VIB.     0.1650D+04                  4752.1152    32.9177    30.5627
         ROT.     0.8853D+06                   894.2429     2.9808    30.1931
         INT.     0.1461D+10                  5646.3581    35.8985    60.7558
         TRA.     0.1518D+28                  1490.4049     4.9680    40.6263
         TOT.                       31.750    7136.7630    40.8665   101.3821

 310.00  VIB.     0.2153D+04                  5088.1221    34.2846    31.6643
         ROT.     0.9300D+06                   924.0510     2.9808    30.2908
         INT.     0.2002D+10                  6012.1731    37.2654    61.9551
         TRA.     0.1595D+28                  1540.0850     4.9680    40.7892
         TOT.                       32.165    7552.2581    42.2334   102.7443

 320.00  VIB.     0.2811D+04                  5437.8187    35.6550    32.7745
         ROT.     0.9753D+06                   953.8591     2.9808    30.3854
         INT.     0.2742D+10                  6391.6778    38.6358    63.1599
         TRA.     0.1673D+28                  1589.7652     4.9680    40.9469
         TOT.                       32.594    7981.4430    43.6038   104.1068

 330.00  VIB.     0.3674D+04                  5801.2215    37.0253    33.8926
         ROT.     0.1021D+07                   983.6672     2.9808    30.4772
         INT.     0.3753D+10                  6784.8887    40.0061    64.3698
         TRA.     0.1752D+28                  1639.4454     4.9680    41.0998
         TOT.                       33.037    8424.3341    44.9741   105.4696

 340.00  VIB.     0.4806D+04                  6178.3123    38.3921    35.0182
         ROT.     0.1068D+07                  1013.4753     2.9808    30.5661
         INT.     0.5134D+10                  7191.7876    41.3729    65.5844
         TRA.     0.1832D+28                  1689.1255     4.9680    41.2481
         TOT.                       33.494    8880.9131    46.3409   106.8325

 350.00  VIB.     0.6292D+04                  6569.0412    39.7524    36.1508
         ROT.     0.1116D+07                  1043.2834     2.9808    30.6525
         INT.     0.7019D+10                  7612.3246    42.7332    66.8033
         TRA.     0.1914D+28                  1738.8057     4.9680    41.3921
         TOT.                       33.964    9351.1303    47.7012   108.1954

 360.00  VIB.     0.8244D+04                  6973.3300    41.1036    37.2896
         ROT.     0.1164D+07                  1073.0915     2.9808    30.7365
         INT.     0.9595D+10                  8046.4215    44.0844    68.0261
         TRA.     0.1996D+28                  1788.4859     4.9680    41.5321
         TOT.                       34.448    9834.9073    49.0525   109.5582

 370.00  VIB.     0.1081D+05                  7391.0754    42.4434    38.4341
         ROT.     0.1213D+07                  1102.8996     2.9808    30.8182
         INT.     0.1311D+11                  8493.9750    45.4242    69.2523
         TRA.     0.2080D+28                  1838.1660     4.9680    41.6682
         TOT.                       34.945   10332.1410    50.3922   110.9205

 380.00  VIB.     0.1420D+05                  7822.1520    43.7696    39.5836
         ROT.     0.1262D+07                  1132.7077     2.9808    30.8977
         INT.     0.1792D+11                  8954.8597    46.7504    70.4813
         TRA.     0.2165D+28                  1887.8462     4.9680    41.8007
         TOT.                       35.455   10842.7059    51.7184   112.2820

 390.00  VIB.     0.1865D+05                  8266.4157    45.0805    40.7375
         ROT.     0.1312D+07                  1162.5158     2.9808    30.9751
         INT.     0.2448D+11                  9428.9315    48.0613    71.7127
         TRA.     0.2251D+28                  1937.5263     4.9680    41.9297
         TOT.                       35.979   11366.4579    53.0293   113.6424

 400.00  VIB.     0.2453D+05                  8723.7060    46.3747    41.8952
         ROT.     0.1363D+07                  1192.3239     2.9808    31.0506
         INT.     0.3344D+11                  9916.0299    49.3555    72.9458
         TRA.     0.2338D+28                  1987.2065     4.9680    42.0555
         TOT.                       36.516   11903.2364    54.3235   115.0013

   *: NOTE: HEATS OF FORMATION ARE RELATIVE TO THE
            ELEMENTS IN THEIR STANDARD STATE AT 298K
              (=  Standard Enthalpy of Formation).

            Hvib:  Zero-point energy is not included.
                   frequencies of less than zero cm-1 are not included.
            Hrot = (3/2)RT
            Htra = (3/2)RT + pV = (5/2)RT

            Heat capacity is Cp, not Cv

           For more information, see: HTTP://OpenMOPAC.net/Manual/thermochemistry.html


           FORCE CONSTANT IN CARTESIAN COORDINATES (Millidynes/A)

    ATOM   CHEMICAL       X               Y               Z
   NUMBER   SYMBOL  FORCE CONSTANT  FORCE CONSTANT  FORCE CONSTANT

      1       C        7.773973        8.363690        9.008853
      2       C        7.583184        8.442000        8.433285
      3       C        8.046540        8.319118        8.962304
      4       C        9.637331        7.931855        7.714152
      5       C       14.624626        4.745139        8.092527
      6       C       12.021208        5.371365       10.122610
      7       C        4.091504       13.585555        9.353392
      8       C        3.969643       13.561766       10.028165
      9       C        4.065747       13.611870        9.832418
     10       C        3.817767       13.426856        9.098350
     11       H        1.176285        1.707782        3.125057
     12       H        1.234889        1.516507        3.752188
     13       H        1.304543        4.499266        0.709555
     14       H        1.411394        1.964576        3.022754
     15       H        4.771005        0.713464        0.775663
     16       H        2.044103        2.035352        2.316137
     17       H        1.802158        3.599787        0.985327
     18       H        4.954091        0.531193        0.933351
     19       H        0.725886        1.909125        3.588144
     20       H        0.711071        1.730806        3.985376
     21       H        0.738864        1.890380        3.578675
     22       H        0.758408        1.863667        3.593577
     23       H        0.797608        2.077859        3.591061
     24       H        0.434593        1.604208        4.437145



 TOTAL CPU TIME:             3.69 SECONDS

 == MOPAC DONE ==
