 *******************************************************************************
 ** Site#: 14399           For non-commercial use only        Version 13.159M **
 *******************************************************************************
 ** Cite this work as: MOPAC2012, James J. P. Stewart, Stewart Computational  **
 ** Chemistry, Version 13.159M web: HTTP://OpenMOPAC.net  Days remaining:   6 **
 *******************************************************************************
 **                                                                           **
 **                                MOPAC2012                                  **
 **                                                                           **
 *******************************************************************************

                            PM3 CALCULATION RESULTS


 *******************************************************************************
 *  CALCULATION DONE:                                Mon Jun  2 11:08:29 2014  *
 *  PM3      - The PM3 Hamiltonian to be used
 *  PRECISE  - CRITERIA TO BE INCREASED BY 100 TIMES
 *  NOSYM    - POINT-GROUP SYMMETRY SET TO C1
 *  T=       - A TIME OF 172800.0 SECONDS REQUESTED
 *  DUMP=N   - RESTART FILE WRITTEN EVERY  7200.000 SECONDS
 *******************************************************************************
pm3  precise nosym
 InChI=1S/C10H16/c1-3-5-9-7-8-10(9)6-4-2/h3-4,9-10H,1-2,5-8H2

   ATOM   CHEMICAL          X               Y               Z
  NUMBER   SYMBOL      (ANGSTROMS)     (ANGSTROMS)     (ANGSTROMS)
 
     1       C          0.35020000  *  -0.73200000  *   0.58870000  *
     2       C         -0.66880000  *  -0.73890000  *  -0.60310000  *
     3       C          0.19050000  *  -2.24760000  *   0.67990000  *
     4       C         -0.74500000  *  -2.25840000  *  -0.47690000  *
     5       C          1.76950000  *  -0.27410000  *   0.22670000  *
     6       C         -1.99480000  *  -0.02060000  *  -0.32380000  *
     7       C          1.86720000  *   1.21370000  *   0.04170000  *
     8       C         -1.82390000  *   1.47070000  *  -0.36970000  *
     9       C          3.02270000  *   1.80040000  *  -0.27710000  *
    10       C         -2.06570000  *   2.25740000  *   0.68150000  *
    11       H         -0.02750000  *  -0.22920000  *   1.51180000  *
    12       H         -0.22710000  *  -0.43710000  *  -1.58360000  *
    13       H          1.11840000  *  -2.83740000  *   0.48990000  *
    14       H         -0.30560000  *  -2.56070000  *   1.62870000  *
    15       H         -1.75020000  *  -2.66610000  *  -0.21570000  *
    16       H         -0.31310000  *  -2.77530000  *  -1.36610000  *
    17       H          2.45550000  *  -0.57340000  *   1.05290000  *
    18       H         -2.42910000  *  -0.36140000  *   0.64640000  *
    19       H          2.11950000  *  -0.78320000  *  -0.70230000  *
    20       H         -2.72860000  *  -0.29950000  *  -1.11410000  *
    21       H          0.98740000  *   1.84220000  *   0.17050000  *
    22       H         -1.48220000  *   1.92640000  *  -1.29840000  *
    23       H          3.93360000  *   1.21990000  *  -0.41590000  *
    24       H          3.07060000  *   2.88020000  *  -0.40460000  *
    25       H         -1.92200000  *   3.33310000  *   0.60100000  *
    26       H         -2.40170000  *   1.85090000  *   1.63400000  *
 


          CARTESIAN COORDINATES 

    NO.       ATOM         X         Y         Z

     1         C        0.3502   -0.7320    0.5887
     2         C       -0.6688   -0.7389   -0.6031
     3         C        0.1905   -2.2476    0.6799
     4         C       -0.7450   -2.2584   -0.4769
     5         C        1.7695   -0.2741    0.2267
     6         C       -1.9948   -0.0206   -0.3238
     7         C        1.8672    1.2137    0.0417
     8         C       -1.8239    1.4707   -0.3697
     9         C        3.0227    1.8004   -0.2771
    10         C       -2.0657    2.2574    0.6815
    11         H       -0.0275   -0.2292    1.5118
    12         H       -0.2271   -0.4371   -1.5836
    13         H        1.1184   -2.8374    0.4899
    14         H       -0.3056   -2.5607    1.6287
    15         H       -1.7502   -2.6661   -0.2157
    16         H       -0.3131   -2.7753   -1.3661
    17         H        2.4555   -0.5734    1.0529
    18         H       -2.4291   -0.3614    0.6464
    19         H        2.1195   -0.7832   -0.7023
    20         H       -2.7286   -0.2995   -1.1141
    21         H        0.9874    1.8422    0.1705
    22         H       -1.4822    1.9264   -1.2984
    23         H        3.9336    1.2199   -0.4159
    24         H        3.0706    2.8802   -0.4046
    25         H       -1.9220    3.3331    0.6010
    26         H       -2.4017    1.8509    1.6340

  H: (PM3): J. J. P. STEWART, J. COMP. CHEM. 10, 209 (1989).
  C: (PM3): J. J. P. STEWART, J. COMP. CHEM. 10, 209 (1989).

           Empirical Formula: C10 H16  =    26 atoms



      MOLECULAR POINT GROUP   :   C1  


      RHF CALCULATION, NO. OF DOUBLY OCCUPIED LEVELS =   28

      Geometry optimization using EF

          DIAGONAL MATRIX USED AS START HESSIAN

 CYCLE:     1 TIME:   0.012 TIME LEFT:  2.00D  GRAD.:    94.944 HEAT: 27.93321
 CYCLE:     2 TIME:   0.026 TIME LEFT:  2.00D  GRAD.:    43.284 HEAT: 25.81803
 CYCLE:     3 TIME:   0.016 TIME LEFT:  2.00D  GRAD.:    50.254 HEAT: 25.20219
 CYCLE:     4 TIME:   0.009 TIME LEFT:  2.00D  GRAD.:    45.535 HEAT: 24.47267
 CYCLE:     5 TIME:   0.009 TIME LEFT:  2.00D  GRAD.:    60.324 HEAT: 24.30064
 CYCLE:     6 TIME:   0.009 TIME LEFT:  2.00D  GRAD.:    45.339 HEAT: 23.61628
 CYCLE:     7 TIME:   0.016 TIME LEFT:  2.00D  GRAD.:    28.383 HEAT: 23.20875
 CYCLE:     8 TIME:   0.016 TIME LEFT:  2.00D  GRAD.:    14.088 HEAT: 23.02360
 CYCLE:     9 TIME:   0.016 TIME LEFT:  2.00D  GRAD.:    11.134 HEAT: 22.97627
 CYCLE:    10 TIME:   0.009 TIME LEFT:  2.00D  GRAD.:    10.143 HEAT: 22.94097
 CYCLE:    11 TIME:   0.009 TIME LEFT:  2.00D  GRAD.:    13.733 HEAT: 22.93943
 CYCLE:    12 TIME:   0.009 TIME LEFT:  2.00D  GRAD.:    14.035 HEAT: 22.92501
 CYCLE:    13 TIME:   0.009 TIME LEFT:  2.00D  GRAD.:    14.614 HEAT: 22.91691
 CYCLE:    14 TIME:   0.016 TIME LEFT:  2.00D  GRAD.:     6.306 HEAT: 22.86503
 CYCLE:    15 TIME:   0.016 TIME LEFT:  2.00D  GRAD.:     5.526 HEAT: 22.85739
 CYCLE:    16 TIME:   0.009 TIME LEFT:  2.00D  GRAD.:     4.496 HEAT: 22.84867
 CYCLE:    17 TIME:   0.009 TIME LEFT:  2.00D  GRAD.:     6.807 HEAT: 22.84429
 CYCLE:    18 TIME:   0.009 TIME LEFT:  2.00D  GRAD.:     6.886 HEAT: 22.83957
 CYCLE:    19 TIME:   0.009 TIME LEFT:  2.00D  GRAD.:     6.292 HEAT: 22.83084
 CYCLE:    20 TIME:   0.015 TIME LEFT:  2.00D  GRAD.:     3.579 HEAT: 22.82230
 CYCLE:    21 TIME:   0.009 TIME LEFT:  2.00D  GRAD.:     4.031 HEAT: 22.81894
 CYCLE:    22 TIME:   0.009 TIME LEFT:  2.00D  GRAD.:     4.454 HEAT: 22.81498
 CYCLE:    23 TIME:   0.008 TIME LEFT:  2.00D  GRAD.:     3.944 HEAT: 22.81066
 CYCLE:    24 TIME:   0.009 TIME LEFT:  2.00D  GRAD.:     3.886 HEAT: 22.80695
 CYCLE:    25 TIME:   0.008 TIME LEFT:  2.00D  GRAD.:     2.460 HEAT: 22.80128
 CYCLE:    26 TIME:   0.009 TIME LEFT:  2.00D  GRAD.:     4.039 HEAT: 22.79802
 CYCLE:    27 TIME:   0.009 TIME LEFT:  2.00D  GRAD.:     3.737 HEAT: 22.78768
 CYCLE:    28 TIME:   0.009 TIME LEFT:  2.00D  GRAD.:     4.002 HEAT: 22.77359
 CYCLE:    29 TIME:   0.009 TIME LEFT:  2.00D  GRAD.:     5.362 HEAT: 22.76119
 CYCLE:    30 TIME:   0.009 TIME LEFT:  2.00D  GRAD.:     3.593 HEAT: 22.74281
 CYCLE:    31 TIME:   0.009 TIME LEFT:  2.00D  GRAD.:     4.749 HEAT: 22.72343
 CYCLE:    32 TIME:   0.009 TIME LEFT:  2.00D  GRAD.:     4.204 HEAT: 22.70134
 CYCLE:    33 TIME:   0.009 TIME LEFT:  2.00D  GRAD.:     4.380 HEAT: 22.68000
 CYCLE:    34 TIME:   0.009 TIME LEFT:  2.00D  GRAD.:     4.270 HEAT: 22.65917
 CYCLE:    35 TIME:   0.009 TIME LEFT:  2.00D  GRAD.:     4.032 HEAT: 22.63649
 CYCLE:    36 TIME:   0.009 TIME LEFT:  2.00D  GRAD.:     3.580 HEAT: 22.60380
 CYCLE:    37 TIME:   0.008 TIME LEFT:  2.00D  GRAD.:     3.227 HEAT: 22.58841
 CYCLE:    38 TIME:   0.009 TIME LEFT:  2.00D  GRAD.:     4.223 HEAT: 22.56433
 CYCLE:    39 TIME:   0.009 TIME LEFT:  2.00D  GRAD.:     3.128 HEAT: 22.54501
 CYCLE:    40 TIME:   0.009 TIME LEFT:  2.00D  GRAD.:     3.047 HEAT: 22.53372
 CYCLE:    41 TIME:   0.009 TIME LEFT:  2.00D  GRAD.:     2.870 HEAT: 22.52416
 CYCLE:    42 TIME:   0.009 TIME LEFT:  2.00D  GRAD.:     3.007 HEAT: 22.51723
 CYCLE:    43 TIME:   0.009 TIME LEFT:  2.00D  GRAD.:     1.978 HEAT: 22.51105
 CYCLE:    44 TIME:   0.009 TIME LEFT:  2.00D  GRAD.:     1.785 HEAT: 22.50696
 CYCLE:    45 TIME:   0.009 TIME LEFT:  2.00D  GRAD.:     1.604 HEAT: 22.50273
 CYCLE:    46 TIME:   0.009 TIME LEFT:  2.00D  GRAD.:     1.390 HEAT: 22.49720
 CYCLE:    47 TIME:   0.009 TIME LEFT:  2.00D  GRAD.:     1.432 HEAT: 22.49318
 CYCLE:    48 TIME:   0.009 TIME LEFT:  2.00D  GRAD.:     1.235 HEAT: 22.48926
 CYCLE:    49 TIME:   0.009 TIME LEFT:  2.00D  GRAD.:     1.224 HEAT: 22.48617
 CYCLE:    50 TIME:   0.009 TIME LEFT:  2.00D  GRAD.:     1.140 HEAT: 22.48309
 CYCLE:    51 TIME:   0.009 TIME LEFT:  2.00D  GRAD.:     1.325 HEAT: 22.47939
 CYCLE:    52 TIME:   0.009 TIME LEFT:  2.00D  GRAD.:     1.659 HEAT: 22.47388
 CYCLE:    53 TIME:   0.009 TIME LEFT:  2.00D  GRAD.:     2.079 HEAT: 22.46587
 CYCLE:    54 TIME:   0.009 TIME LEFT:  2.00D  GRAD.:     2.212 HEAT: 22.45553
 CYCLE:    55 TIME:   0.009 TIME LEFT:  2.00D  GRAD.:     2.676 HEAT: 22.44549
 CYCLE:    56 TIME:   0.009 TIME LEFT:  2.00D  GRAD.:     2.259 HEAT: 22.43409
 CYCLE:    57 TIME:   0.009 TIME LEFT:  2.00D  GRAD.:     3.076 HEAT: 22.42253
 CYCLE:    58 TIME:   0.009 TIME LEFT:  2.00D  GRAD.:     2.619 HEAT: 22.40568
 CYCLE:    59 TIME:   0.009 TIME LEFT:  2.00D  GRAD.:     2.737 HEAT: 22.38796
 CYCLE:    60 TIME:   0.009 TIME LEFT:  2.00D  GRAD.:     2.119 HEAT: 22.37406
 CYCLE:    61 TIME:   0.009 TIME LEFT:  2.00D  GRAD.:     3.430 HEAT: 22.36512
 CYCLE:    62 TIME:   0.009 TIME LEFT:  2.00D  GRAD.:     2.314 HEAT: 22.35263
 CYCLE:    63 TIME:   0.009 TIME LEFT:  2.00D  GRAD.:     2.242 HEAT: 22.33818
 CYCLE:    64 TIME:   0.009 TIME LEFT:  2.00D  GRAD.:     2.315 HEAT: 22.32317
 CYCLE:    65 TIME:   0.009 TIME LEFT:  2.00D  GRAD.:     2.524 HEAT: 22.31190
 CYCLE:    66 TIME:   0.009 TIME LEFT:  2.00D  GRAD.:     2.660 HEAT: 22.29980
 CYCLE:    67 TIME:   0.009 TIME LEFT:  2.00D  GRAD.:     2.341 HEAT: 22.28795
 CYCLE:    68 TIME:   0.009 TIME LEFT:  2.00D  GRAD.:     4.446 HEAT: 22.27698
 CYCLE:    69 TIME:   0.009 TIME LEFT:  2.00D  GRAD.:     5.288 HEAT: 22.27403
 CYCLE:    70 TIME:   0.009 TIME LEFT:  2.00D  GRAD.:     2.309 HEAT: 22.25413
 CYCLE:    71 TIME:   0.009 TIME LEFT:  2.00D  GRAD.:     2.627 HEAT: 22.24274
 CYCLE:    72 TIME:   0.009 TIME LEFT:  2.00D  GRAD.:     2.661 HEAT: 22.23135
 CYCLE:    73 TIME:   0.009 TIME LEFT:  2.00D  GRAD.:     2.560 HEAT: 22.22354
 CYCLE:    74 TIME:   0.009 TIME LEFT:  2.00D  GRAD.:     1.869 HEAT: 22.21705
 CYCLE:    75 TIME:   0.009 TIME LEFT:  2.00D  GRAD.:     1.386 HEAT: 22.21426
 CYCLE:    76 TIME:   0.009 TIME LEFT:  2.00D  GRAD.:     1.060 HEAT: 22.21141
 CYCLE:    77 TIME:   0.009 TIME LEFT:  2.00D  GRAD.:     1.078 HEAT: 22.20896
 CYCLE:    78 TIME:   0.009 TIME LEFT:  2.00D  GRAD.:     0.951 HEAT: 22.20731
 CYCLE:    79 TIME:   0.009 TIME LEFT:  2.00D  GRAD.:     0.732 HEAT: 22.20559
 CYCLE:    80 TIME:   0.009 TIME LEFT:  2.00D  GRAD.:     0.852 HEAT: 22.20335
 CYCLE:    81 TIME:   0.009 TIME LEFT:  2.00D  GRAD.:     0.910 HEAT: 22.20161
 CYCLE:    82 TIME:   0.009 TIME LEFT:  2.00D  GRAD.:     0.755 HEAT: 22.20004
 CYCLE:    83 TIME:   0.009 TIME LEFT:  2.00D  GRAD.:     0.575 HEAT: 22.19935
 CYCLE:    84 TIME:   0.009 TIME LEFT:  2.00D  GRAD.:     0.419 HEAT: 22.19890
 CYCLE:    85 TIME:   0.009 TIME LEFT:  2.00D  GRAD.:     0.379 HEAT: 22.19848
 CYCLE:    86 TIME:   0.009 TIME LEFT:  2.00D  GRAD.:     0.402 HEAT: 22.19796
 CYCLE:    87 TIME:   0.009 TIME LEFT:  2.00D  GRAD.:     0.408 HEAT: 22.19749
 CYCLE:    88 TIME:   0.009 TIME LEFT:  2.00D  GRAD.:     0.426 HEAT: 22.19697
 CYCLE:    89 TIME:   0.009 TIME LEFT:  2.00D  GRAD.:     0.470 HEAT: 22.19642
 CYCLE:    90 TIME:   0.009 TIME LEFT:  2.00D  GRAD.:     0.466 HEAT: 22.19584
 CYCLE:    91 TIME:   0.010 TIME LEFT:  2.00D  GRAD.:     0.460 HEAT: 22.19543
 CYCLE:    92 TIME:   0.009 TIME LEFT:  2.00D  GRAD.:     0.329 HEAT: 22.19515
 CYCLE:    93 TIME:   0.009 TIME LEFT:  2.00D  GRAD.:     0.320 HEAT: 22.19490
 CYCLE:    94 TIME:   0.009 TIME LEFT:  2.00D  GRAD.:     0.386 HEAT: 22.19455
 CYCLE:    95 TIME:   0.009 TIME LEFT:  2.00D  GRAD.:     0.462 HEAT: 22.19406
 CYCLE:    96 TIME:   0.009 TIME LEFT:  2.00D  GRAD.:     0.582 HEAT: 22.19348
 CYCLE:    97 TIME:   0.009 TIME LEFT:  2.00D  GRAD.:     0.558 HEAT: 22.19284
 CYCLE:    98 TIME:   0.009 TIME LEFT:  2.00D  GRAD.:     0.529 HEAT: 22.19219
 CYCLE:    99 TIME:   0.009 TIME LEFT:  2.00D  GRAD.:     0.561 HEAT: 22.19156
 CYCLE:   100 TIME:   0.009 TIME LEFT:  2.00D  GRAD.:     0.486 HEAT: 22.19093
 CYCLE:   101 TIME:   0.009 TIME LEFT:  2.00D  GRAD.:     0.432 HEAT: 22.19050
 CYCLE:   102 TIME:   0.009 TIME LEFT:  2.00D  GRAD.:     0.324 HEAT: 22.19026
 CYCLE:   103 TIME:   0.009 TIME LEFT:  2.00D  GRAD.:     0.283 HEAT: 22.19013
 CYCLE:   104 TIME:   0.009 TIME LEFT:  2.00D  GRAD.:     0.382 HEAT: 22.18994
 CYCLE:   105 TIME:   0.009 TIME LEFT:  2.00D  GRAD.:     0.311 HEAT: 22.18974
 CYCLE:   106 TIME:   0.009 TIME LEFT:  2.00D  GRAD.:     0.375 HEAT: 22.18934
 CYCLE:   107 TIME:   0.009 TIME LEFT:  2.00D  GRAD.:     0.233 HEAT: 22.18917
 CYCLE:   108 TIME:   0.009 TIME LEFT:  2.00D  GRAD.:     0.156 HEAT: 22.18899
 CYCLE:   109 TIME:   0.008 TIME LEFT:  2.00D  GRAD.:     0.148 HEAT: 22.18890
 CYCLE:   110 TIME:   0.009 TIME LEFT:  2.00D  GRAD.:     0.113 HEAT: 22.18882
 CYCLE:   111 TIME:   0.009 TIME LEFT:  2.00D  GRAD.:     0.093 HEAT: 22.18880
 CYCLE:   112 TIME:   0.013 TIME LEFT:  2.00D  GRAD.:     0.135 HEAT: 22.18877
 CYCLE:   113 TIME:   0.008 TIME LEFT:  2.00D  GRAD.:     0.066 HEAT: 22.18876
 CYCLE:   114 TIME:   0.008 TIME LEFT:  2.00D  GRAD.:     0.057 HEAT: 22.18875
 CYCLE:   115 TIME:   0.008 TIME LEFT:  2.00D  GRAD.:     0.050 HEAT: 22.18874

     RMS GRADIENT =  0.04952  IS LESS THAN CUTOFF =  0.05000



 -------------------------------------------------------------------------------
pm3  precise nosym
 InChI=1S/C10H16/c1-3-5-9-7-8-10(9)6-4-2/h3-4,9-10H,1-2,5-8H2



     GEOMETRY OPTIMISED USING EIGENVECTOR FOLLOWING (EF).     
     SCF FIELD WAS ACHIEVED                                   


                              PM3 CALCULATION
                                                       MOPAC2012 (Version: 13.159M)
                                                       Mon Jun  2 11:08:30 2014
                                                       No. of days left =   6




          FINAL HEAT OF FORMATION =         22.18874 KCAL/MOL =      92.83768 KJ/MOL


          TOTAL ENERGY            =      -1430.76482 EV
          ELECTRONIC ENERGY       =      -8218.16909 EV  POINT GROUP:     C1  
          CORE-CORE REPULSION     =       6787.40426 EV
          COSMO AREA              =        201.08 SQUARE ANGSTROMS
          COSMO VOLUME            =        211.21 CUBIC ANGSTROMS

          GRADIENT NORM           =          0.04952
          IONIZATION POTENTIAL    =         10.063822 EV
          HOMO LUMO ENERGIES (EV) =        -10.064  1.126
          NO. OF FILLED LEVELS    =         28
          MOLECULAR WEIGHT        =        136.236

          MOLECULAR DIMENSIONS (Angstroms)

            Atom       Atom       Distance
            H    20    H    23     6.99840
            H    13    H    25     6.94524
            H    12    H    14     3.25710


          SCF CALCULATIONS        =        125
          COMPUTATION TIME        =          1.107 SECONDS




   ATOM   CHEMICAL          X               Y               Z
  NUMBER   SYMBOL      (ANGSTROMS)     (ANGSTROMS)     (ANGSTROMS)
 
     1       C          0.44172821  *  -0.78497198  *   0.48907489  *
     2       C         -0.71954776  *  -0.78094117  *  -0.54956069  *
     3       C          0.30984411  *  -2.32171598  *   0.61634910  *
     4       C         -0.86614231  *  -2.31211627  *  -0.37614872  *
     5       C          1.78520406  *  -0.31121782  *  -0.02791128  *
     6       C         -1.94904652  *   0.01355432  *  -0.15726382  *
     7       C          1.83200792  *   1.17181089  *  -0.14622645  *
     8       C         -1.76443311  *   1.47153329  *  -0.39627010  *
     9       C          2.90629670  *   1.88961347  *   0.15899837  *
    10       C         -2.04986986  *   2.39782439  *   0.51140836  *
    11       H          0.18588611  *  -0.24475694  *   1.42532938  *
    12       H         -0.38498287  *  -0.48785097  *  -1.56834035  *
    13       H          1.19278889  *  -2.88711419  *   0.28002462  *
    14       H          0.06134423  *  -2.67820878  *   1.62679113  *
    15       H         -1.82984460  *  -2.63539352  *   0.04711576  *
    16       H         -0.70295316  *  -2.89478738  *  -1.29470163  *
    17       H          2.58577745  *  -0.68501077  *   0.64197842  *
    18       H         -2.21863175  *  -0.18898688  *   0.89952477  *
    19       H          1.99639602  *  -0.75203198  *  -1.02409373  *
    20       H         -2.81340193  *  -0.33280642  *  -0.76001019  *
    21       H          0.90988152  *   1.64746519  *  -0.51018319  *
    22       H         -1.38085482  *   1.75079384  *  -1.38606868  *
    23       H          3.82918258  *   1.45264632  *   0.53064231  *
    24       H          2.93617114  *   2.96992015  *   0.05701530  *
    25       H         -1.92663727  *   3.45975858  *   0.32235854  *
    26       H         -2.42555973  *   2.16427387  *   1.50401573  *

           Empirical Formula: C10 H16  =    26 atoms



      MOLECULAR POINT GROUP   :   C1  


                  EIGENVALUES  
 -41.71780 -35.17704 -34.03363 -28.18799 -27.34210 -23.20694 -22.28749 -20.06896
 -19.55830 -18.51568 -16.83510 -16.74500 -15.84493 -15.59201 -15.15475 -14.80982
 -14.24028 -13.65900 -13.22356 -12.95911 -12.51357 -12.26666 -12.05184 -11.61607
 -11.39859 -11.16664 -10.14564 -10.06382   1.12584   1.21973   3.20529   3.26140
   3.30150   3.57108   3.67734   3.73427   3.79001   3.90724   3.94259   4.04653
   4.08611   4.11237   4.15913   4.26069   4.44197   4.55693   4.58309   4.63392
   4.70829   4.79406   5.32294   5.54155   5.60547   5.70063   5.86548   5.93633


              NET ATOMIC CHARGES AND DIPOLE CONTRIBUTIONS

  ATOM NO.   TYPE          CHARGE      No. of ELECS.   s-Pop       p-Pop       
    1          C          -0.090743        4.0907     1.19390     2.89684
    2          C          -0.092032        4.0920     1.19413     2.89790
    3          C          -0.110088        4.1101     1.17379     2.93630
    4          C          -0.109971        4.1100     1.17388     2.93609
    5          C          -0.059831        4.0598     1.14869     2.91114
    6          C          -0.060575        4.0606     1.14891     2.91167
    7          C          -0.142827        4.1428     1.19771     2.94511
    8          C          -0.137980        4.1380     1.19559     2.94239
    9          C          -0.170112        4.1701     1.18213     2.98798
   10          C          -0.166045        4.1660     1.18281     2.98324
   11          H           0.079957        0.9200     0.92004
   12          H           0.076422        0.9236     0.92358
   13          H           0.058390        0.9416     0.94161
   14          H           0.055760        0.9442     0.94424
   15          H           0.058411        0.9416     0.94159
   16          H           0.055481        0.9445     0.94452
   17          H           0.056051        0.9439     0.94395
   18          H           0.058288        0.9417     0.94171
   19          H           0.058601        0.9414     0.94140
   20          H           0.057630        0.9424     0.94237
   21          H           0.106263        0.8937     0.89374
   22          H           0.097705        0.9023     0.90229
   23          H           0.080568        0.9194     0.91943
   24          H           0.078945        0.9211     0.92106
   25          H           0.079417        0.9206     0.92058
   26          H           0.082315        0.9177     0.91769
 DIPOLE           X         Y         Z       TOTAL
 POINT-CHG.    -0.198    -0.339    -0.105     0.407
 HYBRID         0.014     0.019    -0.012     0.027
 SUM           -0.184    -0.320    -0.117     0.387


          ATOMIC ORBITAL ELECTRON POPULATIONS

    Atom      s        px        py        pz   
    1  C   1.19390   0.94722   0.95966   0.98996
    2  C   1.19413   0.95491   0.95077   0.99221
    3  C   1.17379   0.98523   0.95825   0.99282
    4  C   1.17388   0.98526   0.95693   0.99391
    5  C   1.14869   0.96454   0.93910   1.00750
    6  C   1.14891   0.96730   0.93114   1.01323
    7  C   1.19771   0.98779   0.96270   0.99462
    8  C   1.19559   0.99721   0.95649   0.98869
    9  C   1.18213   0.97710   0.99397   1.01691
   10  C   1.18281   1.01261   0.98341   0.98722
   11  H   0.92004
   12  H   0.92358
   13  H   0.94161
   14  H   0.94424
   15  H   0.94159
   16  H   0.94452
   17  H   0.94395
   18  H   0.94171
   19  H   0.94140
   20  H   0.94237
   21  H   0.89374
   22  H   0.90229
   23  H   0.91943
   24  H   0.92106
   25  H   0.92058
   26  H   0.91769
 *******************************************************************************
 ** Site#: 14399           For non-commercial use only        Version 13.159M **
 *******************************************************************************
 ** Cite this work as: MOPAC2012, James J. P. Stewart, Stewart Computational  **
 ** Chemistry, Version 13.159M web: HTTP://OpenMOPAC.net  Days remaining:   6 **
 *******************************************************************************
 **                                                                           **
 **                                MOPAC2012                                  **
 **                                                                           **
 *******************************************************************************

                            PM3 CALCULATION RESULTS


 *******************************************************************************
 *  CALCULATION DONE:                                Mon Jun  2 11:08:30 2014  *
 *  PM3      - The PM3 Hamiltonian to be used
 *  OLDGEO   - PREVIOUS GEOMETRY TO BE USED
 *  PRECISE  - CRITERIA TO BE INCREASED BY 100 TIMES
 *  NOSYM    - POINT-GROUP SYMMETRY SET TO C1
 *  T=       - A TIME OF 172800.0 SECONDS REQUESTED
 *  DUMP=N   - RESTART FILE WRITTEN EVERY  7200.000 SECONDS
 *  THERMO   - THERMODYNAMIC QUANTITIES TO BE CALCULATED
 *******************************************************************************
oldgeo thermo nosym precise  pm3

   ATOM   CHEMICAL          X               Y               Z
  NUMBER   SYMBOL      (ANGSTROMS)     (ANGSTROMS)     (ANGSTROMS)
 
     1       C          0.44172821  *  -0.78497198  *   0.48907489  *
     2       C         -0.71954776  *  -0.78094117  *  -0.54956069  *
     3       C          0.30984411  *  -2.32171598  *   0.61634910  *
     4       C         -0.86614231  *  -2.31211627  *  -0.37614872  *
     5       C          1.78520406  *  -0.31121782  *  -0.02791128  *
     6       C         -1.94904652  *   0.01355432  *  -0.15726382  *
     7       C          1.83200792  *   1.17181089  *  -0.14622645  *
     8       C         -1.76443311  *   1.47153329  *  -0.39627010  *
     9       C          2.90629670  *   1.88961347  *   0.15899837  *
    10       C         -2.04986986  *   2.39782439  *   0.51140836  *
    11       H          0.18588611  *  -0.24475694  *   1.42532938  *
    12       H         -0.38498287  *  -0.48785097  *  -1.56834035  *
    13       H          1.19278889  *  -2.88711419  *   0.28002462  *
    14       H          0.06134423  *  -2.67820878  *   1.62679113  *
    15       H         -1.82984460  *  -2.63539352  *   0.04711576  *
    16       H         -0.70295316  *  -2.89478738  *  -1.29470163  *
    17       H          2.58577745  *  -0.68501077  *   0.64197842  *
    18       H         -2.21863175  *  -0.18898688  *   0.89952477  *
    19       H          1.99639602  *  -0.75203198  *  -1.02409373  *
    20       H         -2.81340193  *  -0.33280642  *  -0.76001019  *
    21       H          0.90988152  *   1.64746519  *  -0.51018319  *
    22       H         -1.38085482  *   1.75079384  *  -1.38606868  *
    23       H          3.82918258  *   1.45264632  *   0.53064231  *
    24       H          2.93617114  *   2.96992015  *   0.05701530  *
    25       H         -1.92663727  *   3.45975858  *   0.32235854  *
    26       H         -2.42555973  *   2.16427387  *   1.50401573  *
 


          CARTESIAN COORDINATES 

    NO.       ATOM         X         Y         Z

     1         C        0.4417   -0.7850    0.4891
     2         C       -0.7195   -0.7809   -0.5496
     3         C        0.3098   -2.3217    0.6163
     4         C       -0.8661   -2.3121   -0.3761
     5         C        1.7852   -0.3112   -0.0279
     6         C       -1.9490    0.0136   -0.1573
     7         C        1.8320    1.1718   -0.1462
     8         C       -1.7644    1.4715   -0.3963
     9         C        2.9063    1.8896    0.1590
    10         C       -2.0499    2.3978    0.5114
    11         H        0.1859   -0.2448    1.4253
    12         H       -0.3850   -0.4879   -1.5683
    13         H        1.1928   -2.8871    0.2800
    14         H        0.0613   -2.6782    1.6268
    15         H       -1.8298   -2.6354    0.0471
    16         H       -0.7030   -2.8948   -1.2947
    17         H        2.5858   -0.6850    0.6420
    18         H       -2.2186   -0.1890    0.8995
    19         H        1.9964   -0.7520   -1.0241
    20         H       -2.8134   -0.3328   -0.7600
    21         H        0.9099    1.6475   -0.5102
    22         H       -1.3809    1.7508   -1.3861
    23         H        3.8292    1.4526    0.5306
    24         H        2.9362    2.9699    0.0570
    25         H       -1.9266    3.4598    0.3224
    26         H       -2.4256    2.1643    1.5040

  H: (PM3): J. J. P. STEWART, J. COMP. CHEM. 10, 209 (1989).
  C: (PM3): J. J. P. STEWART, J. COMP. CHEM. 10, 209 (1989).

           Empirical Formula: C10 H16  =    26 atoms



      MOLECULAR POINT GROUP   :   C1  


      RHF CALCULATION, NO. OF DOUBLY OCCUPIED LEVELS =   28



          HEAT OF FORMATION =      22.188739 KCALS/MOLE


          INTERNAL COORDINATE DERIVATIVES

   NUMBER  ATOM       BOND         ANGLE      DIHEDRAL

     1       C      0.000961     0.003553    -0.002110
     2       C     -0.004255    -0.000322    -0.003933
     3       C      0.003458     0.001641     0.001710
     4       C      0.001968    -0.004215     0.002764
     5       C     -0.001820    -0.001018    -0.006226
     6       C     -0.001164    -0.005327    -0.002686
     7       C      0.014338     0.011732     0.012828
     8       C      0.004345    -0.001541     0.002177
     9       C     -0.010966    -0.004476    -0.008351
    10       C     -0.007372    -0.003768    -0.002243
    11       H     -0.012308     0.002914    -0.010191
    12       H     -0.009807    -0.003279    -0.005447
    13       H      0.001750     0.002029     0.001490
    14       H     -0.004618    -0.002774    -0.005236
    15       H      0.002714    -0.002909     0.001138
    16       H     -0.004300    -0.003916    -0.003882
    17       H     -0.000395    -0.002858     0.005325
    18       H     -0.002917     0.001140     0.004450
    19       H     -0.007519     0.003405    -0.002139
    20       H      0.007207     0.001453     0.004898
    21       H      0.012933    -0.001764     0.011504
    22       H      0.013146     0.001163     0.009112
    23       H      0.000853     0.001613    -0.001914
    24       H     -0.004482     0.007543     0.001963
    25       H      0.002490     0.005792    -0.002497
    26       H      0.005758    -0.005812    -0.002503


          GRADIENT NORM =   0.05012


          TIME FOR SCF CALCULATION =    0.01

          TIME FOR DERIVATIVES     =    0.01

          MOLECULAR WEIGHT =  136.24



          ROTATIONAL CONSTANTS IN CM(-1)

          A =    0.04282756   B =    0.03840617   C =    0.02208219



           PRINCIPAL MOMENTS OF INERTIA IN UNITS OF 10**(-40)*GRAM-CM**2

          A =      653.6158   B =      728.8614   C =     1267.6630


          ORIENTATION OF MOLECULE IN FORCE CALCULATION

    NO.       ATOM         X         Y         Z

     1          C      -0.6511    0.8195   -0.0437
     2          C       0.9069    0.8195   -0.0437
     3          C      -0.6416    2.3671   -0.0437
     4          C       0.8966    2.3668    0.0008
     5          C      -1.3066    0.1961   -1.2596
     6          C       1.5639    0.1636    1.1542
     7          C      -1.2588   -1.2905   -1.2030
     8          C       1.5894   -1.3197    1.0273
     9          C      -2.2611   -2.0636   -1.6032
    10          C       1.1994   -2.1381    1.9976
    11          H      -1.0832    0.3846    0.8825
    12          H       1.3375    0.4136   -0.9848
    13          H      -1.0770    2.8283   -0.9438
    14          H      -1.1309    2.8284    0.8267
    15          H       1.3319    2.8021    0.9137
    16          H       1.3858    2.8529   -0.8560
    17          H      -2.3509    0.5606   -1.3376
    18          H       1.0598    0.4777    2.0911
    19          H      -0.8011    0.5308   -2.1889
    20          H       2.6090    0.5253    1.2390
    21          H      -0.3276   -1.7199   -0.8060
    22          H       1.9640   -1.7133    0.0736
    23          H      -3.1979   -1.6720   -1.9903
    24          H      -2.2126   -3.1475   -1.5708
    25          H       1.2363   -3.2188    1.9015
    26          H       0.8171   -1.7902    2.9535


    FIRST DERIVATIVES WILL BE USED IN THE CALCULATION OF SECOND DERIVATIVES

          ESTIMATED TIME TO COMPLETE CALCULATION =        3.84 SECONDS

    FOR POINT-GROUP C1   THERE ARE   1 UNIQUE SYMMETRY FUNCTIONS.

 STEP:   1 TIME =     0.04 SECS, INTEGRAL =      0.04 TIME LEFT: 172799.95
 STEP:   2 TIME =     0.04 SECS, INTEGRAL =      0.08 TIME LEFT: 172799.91
 STEP:   3 TIME =     0.04 SECS, INTEGRAL =      0.12 TIME LEFT: 172799.87
 STEP:   4 TIME =     0.04 SECS, INTEGRAL =      0.15 TIME LEFT: 172799.83
 STEP:   5 TIME =     0.04 SECS, INTEGRAL =      0.19 TIME LEFT: 172799.79
 STEP:   6 TIME =     0.04 SECS, INTEGRAL =      0.23 TIME LEFT: 172799.76
 STEP:   7 TIME =     0.04 SECS, INTEGRAL =      0.27 TIME LEFT: 172799.72
 STEP:   8 TIME =     0.04 SECS, INTEGRAL =      0.31 TIME LEFT: 172799.68
 STEP:   9 TIME =     0.04 SECS, INTEGRAL =      0.35 TIME LEFT: 172799.64
 STEP:  10 TIME =     0.04 SECS, INTEGRAL =      0.39 TIME LEFT: 172799.60
 STEP:  11 TIME =     0.04 SECS, INTEGRAL =      0.43 TIME LEFT: 172799.56
 STEP:  12 TIME =     0.04 SECS, INTEGRAL =      0.46 TIME LEFT: 172799.52
 STEP:  13 TIME =     0.04 SECS, INTEGRAL =      0.50 TIME LEFT: 172799.49
 STEP:  14 TIME =     0.04 SECS, INTEGRAL =      0.54 TIME LEFT: 172799.45
 STEP:  15 TIME =     0.04 SECS, INTEGRAL =      0.58 TIME LEFT: 172799.41
 STEP:  16 TIME =     0.04 SECS, INTEGRAL =      0.62 TIME LEFT: 172799.37
 STEP:  17 TIME =     0.04 SECS, INTEGRAL =      0.66 TIME LEFT: 172799.33
 STEP:  18 TIME =     0.04 SECS, INTEGRAL =      0.70 TIME LEFT: 172799.29
 STEP:  19 TIME =     0.04 SECS, INTEGRAL =      0.73 TIME LEFT: 172799.25
 STEP:  20 TIME =     0.04 SECS, INTEGRAL =      0.77 TIME LEFT: 172799.21
 STEP:  21 TIME =     0.04 SECS, INTEGRAL =      0.81 TIME LEFT: 172799.17
 STEP:  22 TIME =     0.04 SECS, INTEGRAL =      0.85 TIME LEFT: 172799.13
 STEP:  23 TIME =     0.04 SECS, INTEGRAL =      0.89 TIME LEFT: 172799.10
 STEP:  24 TIME =     0.04 SECS, INTEGRAL =      0.93 TIME LEFT: 172799.06
 STEP:  25 TIME =     0.04 SECS, INTEGRAL =      0.97 TIME LEFT: 172799.02
 STEP:  26 TIME =     0.04 SECS, INTEGRAL =      1.01 TIME LEFT: 172798.98
 STEP:  27 TIME =     0.04 SECS, INTEGRAL =      1.05 TIME LEFT: 172798.94
 STEP:  28 TIME =     0.04 SECS, INTEGRAL =      1.09 TIME LEFT: 172798.90
 STEP:  29 TIME =     0.04 SECS, INTEGRAL =      1.13 TIME LEFT: 172798.86
 STEP:  30 TIME =     0.04 SECS, INTEGRAL =      1.16 TIME LEFT: 172798.82
 STEP:  31 TIME =     0.04 SECS, INTEGRAL =      1.20 TIME LEFT: 172798.78
 STEP:  32 TIME =     0.04 SECS, INTEGRAL =      1.24 TIME LEFT: 172798.74
 STEP:  33 TIME =     0.04 SECS, INTEGRAL =      1.28 TIME LEFT: 172798.71
 STEP:  34 TIME =     0.04 SECS, INTEGRAL =      1.32 TIME LEFT: 172798.67
 STEP:  35 TIME =     0.04 SECS, INTEGRAL =      1.36 TIME LEFT: 172798.63
 STEP:  36 TIME =     0.04 SECS, INTEGRAL =      1.40 TIME LEFT: 172798.59
 STEP:  37 TIME =     0.04 SECS, INTEGRAL =      1.44 TIME LEFT: 172798.55
 STEP:  38 TIME =     0.04 SECS, INTEGRAL =      1.48 TIME LEFT: 172798.51
 STEP:  39 TIME =     0.04 SECS, INTEGRAL =      1.52 TIME LEFT: 172798.47
 STEP:  40 TIME =     0.04 SECS, INTEGRAL =      1.56 TIME LEFT: 172798.43
 STEP:  41 TIME =     0.04 SECS, INTEGRAL =      1.60 TIME LEFT: 172798.39
 STEP:  42 TIME =     0.04 SECS, INTEGRAL =      1.64 TIME LEFT: 172798.35
 STEP:  43 TIME =     0.04 SECS, INTEGRAL =      1.68 TIME LEFT: 172798.31
 STEP:  44 TIME =     0.04 SECS, INTEGRAL =      1.72 TIME LEFT: 172798.27
 STEP:  45 TIME =     0.04 SECS, INTEGRAL =      1.76 TIME LEFT: 172798.23
 STEP:  46 TIME =     0.04 SECS, INTEGRAL =      1.80 TIME LEFT: 172798.19
 STEP:  47 TIME =     0.04 SECS, INTEGRAL =      1.84 TIME LEFT: 172798.15
 STEP:  48 TIME =     0.04 SECS, INTEGRAL =      1.88 TIME LEFT: 172798.11
 STEP:  49 TIME =     0.04 SECS, INTEGRAL =      1.92 TIME LEFT: 172798.07
 STEP:  50 TIME =     0.04 SECS, INTEGRAL =      1.96 TIME LEFT: 172798.03
 STEP:  51 TIME =     0.04 SECS, INTEGRAL =      2.00 TIME LEFT: 172797.99
 STEP:  52 TIME =     0.04 SECS, INTEGRAL =      2.04 TIME LEFT: 172797.95
 STEP:  53 TIME =     0.04 SECS, INTEGRAL =      2.07 TIME LEFT: 172797.91
 STEP:  54 TIME =     0.04 SECS, INTEGRAL =      2.11 TIME LEFT: 172797.87
 STEP:  55 TIME =     0.04 SECS, INTEGRAL =      2.15 TIME LEFT: 172797.83
 STEP:  56 TIME =     0.04 SECS, INTEGRAL =      2.19 TIME LEFT: 172797.79
 STEP:  57 TIME =     0.04 SECS, INTEGRAL =      2.23 TIME LEFT: 172797.76
 STEP:  58 TIME =     0.04 SECS, INTEGRAL =      2.27 TIME LEFT: 172797.72
 STEP:  59 TIME =     0.04 SECS, INTEGRAL =      2.31 TIME LEFT: 172797.68
 STEP:  60 TIME =     0.04 SECS, INTEGRAL =      2.35 TIME LEFT: 172797.64
 STEP:  61 TIME =     0.04 SECS, INTEGRAL =      2.39 TIME LEFT: 172797.60
 STEP:  62 TIME =     0.04 SECS, INTEGRAL =      2.43 TIME LEFT: 172797.56
 STEP:  63 TIME =     0.04 SECS, INTEGRAL =      2.47 TIME LEFT: 172797.52
 STEP:  64 TIME =     0.04 SECS, INTEGRAL =      2.51 TIME LEFT: 172797.48
 STEP:  65 TIME =     0.04 SECS, INTEGRAL =      2.55 TIME LEFT: 172797.44
 STEP:  66 TIME =     0.04 SECS, INTEGRAL =      2.59 TIME LEFT: 172797.40
 STEP:  67 TIME =     0.04 SECS, INTEGRAL =      2.62 TIME LEFT: 172797.36
 STEP:  68 TIME =     0.04 SECS, INTEGRAL =      2.66 TIME LEFT: 172797.33
 STEP:  69 TIME =     0.04 SECS, INTEGRAL =      2.70 TIME LEFT: 172797.28
 STEP:  70 TIME =     0.04 SECS, INTEGRAL =      2.74 TIME LEFT: 172797.24
 STEP:  71 TIME =     0.04 SECS, INTEGRAL =      2.78 TIME LEFT: 172797.21
 STEP:  72 TIME =     0.04 SECS, INTEGRAL =      2.82 TIME LEFT: 172797.16
 STEP:  73 TIME =     0.04 SECS, INTEGRAL =      2.87 TIME LEFT: 172797.12
 STEP:  74 TIME =     0.04 SECS, INTEGRAL =      2.90 TIME LEFT: 172797.08
 STEP:  75 TIME =     0.04 SECS, INTEGRAL =      2.94 TIME LEFT: 172797.04
 STEP:  76 TIME =     0.04 SECS, INTEGRAL =      2.98 TIME LEFT: 172797.00
 STEP:  77 TIME =     0.04 SECS, INTEGRAL =      3.02 TIME LEFT: 172796.96
 STEP:  78 TIME =     0.04 SECS, INTEGRAL =      3.06 TIME LEFT: 172796.93

(To convert to Hartree/Bohr^2, multiply by (10^(-21) x N x a0^2)/(4.184 x 627.51) = 0.0642)


           FORCE MATRIX IN MILLIDYNES/ANGSTROM


                  C  1       C  2       C  3       C  4       C  5       C  6
 ------------------------------------------------------------------------------
     C    1  14.431797
     C    2   3.153615  14.393946
     C    3   3.479001   1.813937  14.443269
     C    4   1.815977   3.469698   3.766199  14.436664
     C    5   4.278008   0.526724   0.544060   0.042148  14.784840
     C    6   0.522323   4.260428   0.041828   0.544733   0.033690  14.772783
     C    7   0.696843   0.032863   0.050929   0.004901   4.950115   0.002997
     C    8   0.021162   0.693642   0.005638   0.049780   0.003994   4.937221
     C    9   0.048100   0.002539   0.008654   0.001007   0.836615   0.001445
     C   10   0.003754   0.042464   0.001182   0.007614   0.001403   0.833153
     H   11   4.421501   0.437853   0.427674   0.026238   0.427914   0.030892
     H   12   0.436835   4.387923   0.026338   0.427415   0.031889   0.431054
     H   13   0.452463   0.029348   4.669224   0.445906   0.030430   0.001820
     H   14   0.442272   0.030626   4.709327   0.445063   0.032592   0.003693
     H   15   0.029360   0.452206   0.445778   4.669372   0.001764   0.030673
     H   16   0.030700   0.442288   0.444662   4.708254   0.003627   0.032398
     H   17   0.429833   0.044735   0.020942   0.003446   4.433820   0.005544
     H   18   0.025779   0.446128   0.001752   0.018571   0.001354   4.420468
     H   19   0.456382   0.026063   0.017476   0.001708   4.392120   0.001261
     H   20   0.045496   0.439214   0.003558   0.020754   0.005903   4.410357
     H   21   0.037020   0.006986   0.002371   0.001002   0.434144   0.006690
     H   22   0.002743   0.028378   0.000562   0.002059   0.000916   0.432536
     H   23   0.007783   0.000498   0.001438   0.000307   0.096823   0.000481
     H   24   0.015025   0.000846   0.002201   0.000430   0.137131   0.000385
     H   25   0.000635   0.017708   0.000385   0.002668   0.000603   0.137981
     H   26   0.000633   0.010341   0.000564   0.001819   0.000506   0.096752


                  C  7       C  8       C  9       C 10       H 11       H 12
 ------------------------------------------------------------------------------
     C    7  18.195994
     C    8   0.024373  18.155746
     C    9  11.083868   0.004664  18.045121
     C   10   0.005349  11.072697   0.002623  18.034288
     H   11   0.029700   0.003918   0.002213   0.002447   4.922163
     H   12   0.006375   0.042714   0.001389   0.002175   0.028830   4.898003
     H   13   0.002893   0.000530   0.001058   0.000391   0.031156   0.002535
     H   14   0.006173   0.000755   0.001406   0.000487   0.027189   0.001167
     H   15   0.000596   0.002718   0.000373   0.001017   0.002565   0.031177
     H   16   0.000683   0.006148   0.000389   0.000943   0.001155   0.027194
     H   17   0.457076   0.001011   0.044202   0.000678   0.023174   0.002976
     H   18   0.001168   0.458887   0.000443   0.047655   0.027736   0.041029
     H   19   0.408245   0.000619   0.030235   0.000399   0.042391   0.027992
     H   20   0.000853   0.410984   0.000513   0.033525   0.002929   0.022807
     H   21   4.707521   0.013809   0.449770   0.007703   0.005923   0.005693
     H   22   0.010218   4.763943   0.001499   0.453758   0.000977   0.028401
     H   23   0.491764   0.000863   5.073505   0.000884   0.000710   0.000250
     H   24   0.462556   0.000493   5.109868   0.000853   0.000637   0.000283
     H   25   0.001190   0.462293   0.000793   5.107672   0.000528   0.000721
     H   26   0.001670   0.489411   0.000755   5.073782   0.000656   0.000670


                  H 13       H 14       H 15       H 16       H 17       H 18
 ------------------------------------------------------------------------------
     H   13   5.298877
     H   14   0.555355   5.329853
     H   15   0.032801   0.023360   5.299002
     H   16   0.023367   0.032298   0.555238   5.328955
     H   17   0.013150   0.001869   0.000595   0.000635   5.037830
     H   18   0.000601   0.000805   0.013775   0.001116   0.000395   5.030869
     H   19   0.013036   0.001201   0.000556   0.000725   0.562540   0.000554
     H   20   0.000549   0.000670   0.013213   0.002131   0.001245   0.560294
     H   21   0.000766   0.000504   0.000456   0.000403   0.037357   0.000866
     H   22   0.000208   0.000265   0.000655   0.000538   0.000376   0.038871
     H   23   0.000235   0.000252   0.000079   0.000151   0.027033   0.000111
     H   24   0.000134   0.000400   0.000059   0.000128   0.004856   0.000131
     H   25   0.000095   0.000138   0.000221   0.000519   0.000255   0.003089
     H   26   0.000228   0.000125   0.000378   0.000347   0.000204   0.028917


                  H 19       H 20       H 21       H 22       H 23       H 24
 ------------------------------------------------------------------------------
     H   19   4.991665
     H   20   0.000354   4.999710
     H   21   0.012653   0.000733   5.077887
     H   22   0.000497   0.018112   0.021786   5.141377
     H   23   0.012583   0.000102   0.116643   0.000380   5.470005
     H   24   0.017973   0.000155   0.079681   0.000420   0.423249   5.499583
     H   25   0.000133   0.018138   0.001398   0.079693   0.000302   0.000369
     H   26   0.000223   0.011960   0.001217   0.116879   0.000293   0.000401


                  H 25       H 26
 ------------------------------
     H   25   5.496601
     H   26   0.423351   5.468896


          HEAT OF FORMATION =      22.188739 KCALS/MOLE

          ZERO POINT ENERGY     144.911 KCAL/MOL


           NORMAL COORDINATE ANALYSIS (Total motion = 1 Angstrom)


   Root No.       1         2         3         4         5         6         7         8

                 1 A       2 A       3 A       4 A       5 A       6 A       7 A       8 A   

                  57.9      59.9      77.1     110.3     143.2     212.4     253.6     294.1
  
           1   -0.0057   -0.0052   -0.0165   -0.0068   -0.0020    0.0000   -0.0145   -0.0243
           2    0.0079   -0.0097    0.0213    0.0005   -0.0099    0.0011    0.0063    0.0038
           3   -0.0175    0.0043    0.0101   -0.0068    0.0067   -0.0012   -0.0171    0.0265
           4   -0.0057   -0.0051   -0.0164   -0.0069   -0.0019   -0.0011   -0.0134   -0.0251
           5    0.0015   -0.0149   -0.0098   -0.0059   -0.0127    0.0017   -0.0117   -0.0097
           6    0.0127   -0.0060    0.0027   -0.0085    0.0049   -0.0068   -0.0141    0.0212
           7    0.0006   -0.0003    0.0144   -0.0016    0.0006   -0.0035   -0.0003   -0.0204
           8    0.0079   -0.0095    0.0212    0.0002   -0.0100   -0.0002    0.0048    0.0031
           9   -0.0269    0.0155   -0.0173    0.0156    0.0127    0.0320    0.0145   -0.0214
          10   -0.0006    0.0005    0.0145   -0.0011    0.0017   -0.0007   -0.0007   -0.0206
          11    0.0016   -0.0144   -0.0090   -0.0059   -0.0121    0.0018   -0.0116   -0.0081
          12    0.0135   -0.0172   -0.0200   -0.0007   -0.0304   -0.0296    0.0204   -0.0165
          13    0.0138   -0.0146   -0.0324   -0.0066    0.0000    0.0231   -0.0057    0.0250
          14    0.0013    0.0089    0.0114    0.0188    0.0035    0.0034    0.0149    0.0043
          15   -0.0246   -0.0004    0.0240   -0.0169   -0.0016   -0.0146   -0.0272    0.0018
          16   -0.0288    0.0009   -0.0220   -0.0085   -0.0067   -0.0188   -0.0002    0.0248
          17   -0.0036   -0.0008   -0.0076   -0.0103    0.0141    0.0005   -0.0119   -0.0118
          18    0.0225   -0.0014    0.0071   -0.0099    0.0232    0.0021   -0.0219   -0.0082
          19   -0.0069   -0.0186    0.0076    0.0369    0.0004    0.0049   -0.0101    0.0221
          20    0.0015    0.0080    0.0123    0.0192    0.0031    0.0035    0.0159    0.0068
          21   -0.0015   -0.0269    0.0130   -0.0482   -0.0179    0.0230    0.0151    0.0059
          22    0.0086    0.0038    0.0006   -0.0214    0.0409   -0.0255    0.0329    0.0090
          23   -0.0012   -0.0025   -0.0068   -0.0113    0.0154    0.0004   -0.0128   -0.0145
          24    0.0018    0.0234   -0.0001    0.0004    0.0185   -0.0072    0.0049   -0.0014
          25   -0.0225   -0.0184    0.0368    0.0163   -0.0139    0.0137    0.0105    0.0066
          26    0.0091    0.0191   -0.0130   -0.0045    0.0099    0.0018   -0.0055    0.0294
          27    0.0229   -0.0491   -0.0112    0.0504    0.0045    0.0058    0.0072    0.0029
          28    0.0461    0.0549    0.0110   -0.0011   -0.0148    0.0051   -0.0028   -0.0012
          29   -0.0253    0.0134   -0.0185   -0.0004   -0.0019   -0.0096    0.0109   -0.0056
          30   -0.0035    0.0574   -0.0058    0.0179   -0.0187   -0.0035    0.0115    0.0023
          31   -0.0252   -0.0020   -0.0213   -0.0083   -0.0054   -0.0028   -0.0218   -0.0428
          32    0.0168   -0.0177    0.0459   -0.0125   -0.0166   -0.0177   -0.0038    0.0198
          33   -0.0224    0.0018    0.0194   -0.0137    0.0018   -0.0112   -0.0250    0.0234
          34    0.0098   -0.0116   -0.0302   -0.0089   -0.0013    0.0019   -0.0174   -0.0475
          35    0.0028   -0.0259   -0.0300   -0.0048   -0.0365   -0.0099   -0.0026   -0.0215
          36    0.0191   -0.0041    0.0049   -0.0098    0.0155   -0.0006   -0.0195    0.0140
          37    0.0265   -0.0189    0.0222   -0.0104   -0.0264   -0.0457    0.0074   -0.0139
          38    0.0037   -0.0004    0.0138    0.0155   -0.0037    0.0225    0.0284   -0.0250
          39   -0.0416    0.0292   -0.0249    0.0278    0.0291    0.0647    0.0231   -0.0397
          40   -0.0207    0.0205    0.0252    0.0101    0.0279    0.0353    0.0012   -0.0222
          41    0.0157   -0.0153    0.0467   -0.0115   -0.0147   -0.0251   -0.0094    0.0368
          42   -0.0430    0.0304   -0.0248    0.0285    0.0307    0.0675    0.0230   -0.0406
          43   -0.0232    0.0222    0.0246    0.0109    0.0306    0.0405   -0.0016   -0.0218
          44   -0.0013   -0.0079   -0.0045   -0.0114    0.0104    0.0198   -0.0379    0.0124
          45    0.0256   -0.0306   -0.0270   -0.0038   -0.0551   -0.0584    0.0337   -0.0261
          46    0.0243   -0.0170    0.0230   -0.0090   -0.0237   -0.0404    0.0087   -0.0148
          47    0.0006   -0.0231   -0.0314   -0.0040   -0.0351   -0.0151    0.0052   -0.0340
          48    0.0271   -0.0322   -0.0278   -0.0041   -0.0582   -0.0622    0.0355   -0.0280
          49    0.0204   -0.0143   -0.0432   -0.0167    0.0001    0.0310   -0.0007    0.0298
          50    0.0143    0.0126   -0.0143   -0.0059    0.0047    0.0165    0.0221    0.0074
          51   -0.0531    0.0125    0.0518    0.0052    0.0009   -0.0540   -0.0522   -0.0492
          52   -0.0626    0.0063   -0.0360   -0.0010   -0.0389   -0.0305    0.0001    0.0765
          53   -0.0283    0.0126   -0.0189   -0.0009   -0.0019   -0.0013   -0.0124   -0.0028
          54    0.0125   -0.0029    0.0032   -0.0090    0.0112   -0.0038   -0.0211    0.0157
          55    0.0391   -0.0201   -0.0633   -0.0260    0.0014    0.0567    0.0145    0.0682
          56   -0.0184    0.0228    0.0293    0.0552    0.0143   -0.0201   -0.0039    0.0016
          57   -0.0178    0.0015    0.0135   -0.0142    0.0031   -0.0047   -0.0226    0.0233
          58   -0.0385    0.0015   -0.0274   -0.0044   -0.0206   -0.0183   -0.0055    0.0326
          59    0.0166    0.0008    0.0051   -0.0202    0.0483   -0.0054    0.0068   -0.0202
          60    0.0587   -0.0126    0.0203   -0.0165    0.0476    0.0186   -0.0307   -0.0671
          61   -0.0085   -0.0223    0.0131    0.0882    0.0114   -0.0153   -0.0232    0.0167
          62   -0.0048   -0.0021    0.0341    0.0384   -0.0008    0.0035    0.0319   -0.0031
          63   -0.0046   -0.0296    0.0243   -0.1483   -0.0480    0.0711    0.0659    0.0067
          64    0.0060   -0.0372    0.0109   -0.0454    0.1165   -0.0507    0.0875    0.0047
          65    0.0211   -0.0181    0.0035   -0.0218    0.0314    0.0065   -0.0282   -0.0236
          66   -0.0085    0.0138   -0.0004   -0.0047    0.0416   -0.0200    0.0334    0.0006
          67   -0.0214   -0.0142    0.0322   -0.0346   -0.0238    0.0328    0.0228    0.0161
          68    0.0159    0.0301   -0.0365   -0.0270    0.0169   -0.0007   -0.0284    0.0544
          69    0.0271   -0.0481   -0.0238    0.1511    0.0353   -0.0429   -0.0452    0.0044
          70   -0.0377   -0.0226    0.0679    0.0491   -0.0171    0.0028    0.0184   -0.0200
          71    0.0089    0.0183   -0.0119   -0.0034    0.0095    0.0023   -0.0039    0.0284
          72    0.0406   -0.0702   -0.0203    0.0376   -0.0066    0.0394    0.0535   -0.0024
          73    0.0759    0.0603    0.0289   -0.0080    0.0138    0.0048    0.0215   -0.0154
          74   -0.0229    0.0118   -0.0174   -0.0014   -0.0001   -0.0086    0.0083   -0.0066
          75   -0.0185    0.0778   -0.0119    0.0278   -0.0275   -0.0157    0.0515    0.0080
          76    0.0500    0.0953    0.0027    0.0237   -0.0934    0.0336   -0.0601    0.0032
          77   -0.0491    0.0293   -0.0302    0.0106   -0.0195   -0.0202    0.0370    0.0041
          78    0.0068    0.0677   -0.0049    0.0239   -0.0437    0.0117   -0.0206    0.0005


   Root No.       9        10        11        12        13        14        15        16

                 9 A      10 A      11 A      12 A      13 A      14 A      15 A      16 A   

                 372.8     392.4     428.9     464.2     532.3     602.3     625.1     769.0
  
           1   -0.0089   -0.0232   -0.0032   -0.0102    0.0037    0.0003    0.0010   -0.0207
           2   -0.0034    0.0110    0.0264    0.0045   -0.0083   -0.0066   -0.0041   -0.0279
           3   -0.0022    0.0115   -0.0020   -0.0160    0.0307    0.0121   -0.0179    0.0141
           4   -0.0038   -0.0248   -0.0026   -0.0117   -0.0002   -0.0036    0.0018   -0.0174
           5   -0.0090   -0.0118    0.0240   -0.0078   -0.0038    0.0054   -0.0010    0.0285
           6    0.0245    0.0076    0.0076   -0.0216   -0.0263    0.0126    0.0177    0.0137
           7    0.0055    0.0213    0.0001    0.0047    0.0019    0.0070    0.0017    0.0298
           8   -0.0030    0.0180    0.0338    0.0059   -0.0094   -0.0033   -0.0089   -0.0343
           9   -0.0012    0.0161    0.0112    0.0072   -0.0033    0.0006   -0.0020    0.0064
          10    0.0045    0.0216    0.0011    0.0045    0.0018    0.0073    0.0019    0.0296
          11   -0.0120   -0.0190    0.0307   -0.0105   -0.0061    0.0027   -0.0047    0.0360
          12    0.0013    0.0140   -0.0089    0.0097    0.0024    0.0010    0.0014    0.0069
          13   -0.0088    0.0145    0.0095   -0.0082    0.0202    0.0020   -0.0102   -0.0229
          14    0.0161   -0.0199   -0.0116   -0.0134    0.0115   -0.0010   -0.0002   -0.0030
          15   -0.0222    0.0023    0.0014   -0.0046    0.0155    0.0003   -0.0095   -0.0171
          16    0.0350   -0.0112    0.0087    0.0070   -0.0135   -0.0032    0.0044   -0.0155
          17    0.0166    0.0077   -0.0103    0.0220    0.0109    0.0019   -0.0001    0.0012
          18    0.0207   -0.0001   -0.0105   -0.0120   -0.0188   -0.0001    0.0108   -0.0184
          19   -0.0287    0.0048   -0.0142    0.0215   -0.0170    0.0081   -0.0049    0.0037
          20    0.0161   -0.0253   -0.0185   -0.0140    0.0133   -0.0044    0.0041   -0.0005
          21   -0.0127   -0.0087   -0.0148    0.0094   -0.0023   -0.0261    0.0256    0.0051
          22   -0.0051   -0.0016    0.0069   -0.0109   -0.0142   -0.0232   -0.0219    0.0079
          23    0.0184    0.0146   -0.0179    0.0214    0.0120    0.0051    0.0042   -0.0026
          24    0.0086   -0.0253    0.0180    0.0328    0.0100   -0.0107   -0.0139    0.0056
          25    0.0008   -0.0090   -0.0129    0.0009    0.0012   -0.0054    0.0056    0.0041
          26   -0.0291   -0.0111   -0.0275    0.0171   -0.0099   -0.0037    0.0067    0.0032
          27    0.0011   -0.0061   -0.0081    0.0010   -0.0018    0.0027   -0.0009    0.0019
          28    0.0004    0.0022   -0.0016    0.0005    0.0017    0.0047    0.0046   -0.0007
          29   -0.0056    0.0333   -0.0251   -0.0243   -0.0067    0.0039    0.0065   -0.0036
          30   -0.0110   -0.0101    0.0110   -0.0016    0.0003   -0.0020   -0.0035    0.0033
          31   -0.0250   -0.0440   -0.0075   -0.0079    0.0198   -0.0020   -0.0085   -0.0329
          32   -0.0049    0.0281    0.0356    0.0051   -0.0089   -0.0064   -0.0106   -0.0565
          33   -0.0114    0.0089   -0.0001   -0.0141    0.0368    0.0108   -0.0247   -0.0057
          34   -0.0067   -0.0418   -0.0069   -0.0193   -0.0152   -0.0088    0.0172   -0.0307
          35   -0.0215   -0.0253    0.0283   -0.0093   -0.0031    0.0020   -0.0040    0.0572
          36    0.0274    0.0046    0.0033   -0.0240   -0.0328    0.0110    0.0251   -0.0051
          37    0.0103    0.0329   -0.0174    0.0107    0.0151    0.0110   -0.0012    0.0615
          38    0.0019    0.0351    0.0497    0.0283   -0.0456   -0.0158    0.0081   -0.0864
          39   -0.0010    0.0202    0.0288    0.0165   -0.0296   -0.0080    0.0086   -0.0373
          40    0.0088    0.0395    0.0194    0.0103   -0.0113    0.0057    0.0022   -0.0006
          41    0.0001    0.0266    0.0207   -0.0067    0.0253    0.0090   -0.0293   -0.0002
          42   -0.0011    0.0219    0.0298    0.0172   -0.0303   -0.0072    0.0094   -0.0321
          43    0.0071    0.0360    0.0208    0.0042   -0.0113    0.0111    0.0044    0.0608
          44    0.0015   -0.0374    0.0468   -0.0418   -0.0367    0.0142    0.0156    0.0886
          45   -0.0063    0.0169   -0.0268    0.0259    0.0243   -0.0065   -0.0101   -0.0346
          46    0.0090    0.0378   -0.0152    0.0162    0.0132    0.0075   -0.0010   -0.0024
          47   -0.0300   -0.0276    0.0136    0.0097    0.0241   -0.0102   -0.0238    0.0066
          48   -0.0067    0.0184   -0.0287    0.0286    0.0271   -0.0067   -0.0117   -0.0315
          49    0.0000    0.0186    0.0149   -0.0190    0.0401   -0.0101   -0.0044   -0.0189
          50    0.0353   -0.0192   -0.0028   -0.0397    0.0521   -0.0251    0.0137   -0.0016
          51   -0.0407   -0.0435   -0.0236    0.0097   -0.0425    0.0413   -0.0221   -0.0612
          52    0.0831   -0.0124    0.0389    0.0464   -0.0185    0.0393    0.0539   -0.0027
          53    0.0349   -0.0050   -0.0001    0.0662    0.0332    0.0193    0.0160   -0.0035
          54    0.0388    0.0041    0.0015   -0.0071   -0.0287    0.0162    0.0308   -0.0102
          55    0.0155    0.0497    0.0301   -0.0338    0.0860   -0.0308   -0.0039    0.0093
          56    0.0070   -0.0317   -0.0300   -0.0076   -0.0083    0.0498   -0.0397   -0.0123
          57   -0.0121    0.0164    0.0056   -0.0159    0.0420    0.0019   -0.0204   -0.0035
          58    0.0448   -0.0165    0.0174    0.0170   -0.0107    0.0139    0.0233   -0.0184
          59    0.0019    0.0241   -0.0274    0.0087    0.0034   -0.0366   -0.0423    0.0154
          60   -0.0358   -0.0029   -0.0400   -0.0688   -0.0178   -0.0349   -0.0294   -0.0424
          61   -0.0287    0.0094   -0.0046    0.0171   -0.0073   -0.0168    0.0155    0.0106
          62    0.0323   -0.0388   -0.0264   -0.0168    0.0090   -0.0076    0.0135    0.0204
          63    0.0082   -0.0356   -0.0455    0.0136   -0.0268    0.0293   -0.0124    0.0112
          64   -0.0551   -0.0186    0.0382   -0.0089    0.0124    0.0274    0.0198    0.0162
          65    0.0294    0.0167   -0.0258    0.0269    0.0119    0.0093    0.0115   -0.0103
          66   -0.0165   -0.0321    0.0334    0.0293    0.0197    0.0072   -0.0007    0.0121
          67   -0.0100   -0.0149   -0.0319    0.0183   -0.0255    0.0355   -0.0258    0.0091
          68   -0.0846    0.0052   -0.0411    0.0616   -0.0481   -0.0063    0.0168    0.0292
          69   -0.0266    0.0241    0.0247    0.0014    0.0269   -0.0994    0.0855    0.0143
          70    0.0473   -0.0180    0.0109   -0.0462    0.0581   -0.0660    0.0511   -0.0126
          71   -0.0264   -0.0125   -0.0278    0.0153   -0.0088   -0.0022    0.0053    0.0025
          72    0.0464   -0.0349   -0.0335   -0.0119   -0.0278    0.1502   -0.1319   -0.0251
          73   -0.0483   -0.0187    0.0340    0.0245    0.0683    0.1420    0.1323   -0.0462
          74   -0.0026    0.0315   -0.0247   -0.0184   -0.0039    0.0041    0.0062   -0.0034
          75   -0.0663    0.0094    0.0138   -0.0707   -0.0107    0.0492    0.0529   -0.0211
          76    0.0544    0.0251   -0.0445   -0.0071   -0.0421   -0.0892   -0.0820    0.0254
          77   -0.0354    0.0590   -0.0370   -0.0917   -0.0385    0.0026    0.0137   -0.0113
          78    0.0208   -0.0099   -0.0020    0.0185   -0.0063   -0.0392   -0.0406    0.0164


   Root No.      17        18        19        20        21        22        23        24

                17 A      18 A      19 A      20 A      21 A      22 A      23 A      24 A   

                 832.1     841.5     888.7     906.8     932.4     940.9     951.4     965.8
  
           1    0.0245   -0.0027   -0.0082   -0.0013    0.0010   -0.0160    0.0022   -0.0015
           2   -0.0031   -0.0092   -0.0029   -0.0001    0.0013    0.0025    0.0006   -0.0007
           3   -0.0101    0.0039    0.0083    0.0090    0.0037   -0.0034   -0.0034    0.0012
           4   -0.0239   -0.0118   -0.0038    0.0030    0.0097    0.0095    0.0014   -0.0026
           5   -0.0047    0.0075    0.0033   -0.0003    0.0012    0.0035   -0.0013    0.0013
           6    0.0096    0.0081    0.0054   -0.0105    0.0058   -0.0049   -0.0019    0.0020
           7   -0.0018    0.0097    0.0022   -0.0001   -0.0033    0.0021    0.0003    0.0004
           8    0.0004   -0.0161   -0.0016    0.0072    0.0029   -0.0073   -0.0032   -0.0046
           9   -0.0016   -0.0247    0.0003    0.0120   -0.0042   -0.0017   -0.0097   -0.0084
          10    0.0010    0.0102    0.0018   -0.0009   -0.0030    0.0013   -0.0006    0.0001
          11   -0.0002    0.0171    0.0023    0.0053   -0.0085   -0.0022   -0.0037   -0.0048
          12    0.0083   -0.0221   -0.0026   -0.0120    0.0021    0.0034    0.0087    0.0100
          13    0.0337    0.0008    0.0188    0.0011   -0.0050   -0.0041   -0.0090    0.0086
          14    0.0025   -0.0013    0.0018    0.0060    0.0077   -0.0192    0.0023    0.0084
          15    0.0022    0.0056   -0.0159   -0.0151   -0.0009    0.0084    0.0131    0.0009
          16   -0.0317   -0.0107    0.0216   -0.0049   -0.0036    0.0050   -0.0073    0.0148
          17   -0.0023    0.0001    0.0014    0.0053   -0.0131    0.0036    0.0033    0.0183
          18   -0.0069    0.0032   -0.0112    0.0178   -0.0077    0.0028   -0.0019   -0.0100
          19   -0.0061   -0.0010    0.0006    0.0028    0.0023    0.0079    0.0065   -0.0047
          20    0.0046    0.0039   -0.0015   -0.0056   -0.0034    0.0047    0.0003   -0.0006
          21    0.0025   -0.0003   -0.0019   -0.0053   -0.0098   -0.0075   -0.0181    0.0033
          22    0.0056    0.0028   -0.0002   -0.0018   -0.0137   -0.0100    0.0103   -0.0139
          23    0.0026   -0.0031    0.0001   -0.0044    0.0063   -0.0001   -0.0003   -0.0023
          24    0.0017   -0.0007    0.0013   -0.0015   -0.0069   -0.0022    0.0054    0.0004
          25   -0.0044    0.0005   -0.0045    0.0001    0.0038   -0.0073    0.0066    0.0012
          26    0.0030    0.0034    0.0011   -0.0091   -0.0131    0.0293   -0.0053   -0.0115
          27   -0.0004    0.0002    0.0002    0.0004   -0.0013   -0.0075   -0.0075    0.0046
          28    0.0020    0.0009   -0.0036    0.0025   -0.0052   -0.0021    0.0053   -0.0071
          29    0.0025   -0.0026    0.0036   -0.0132    0.0205   -0.0065   -0.0060   -0.0224
          30   -0.0019   -0.0006    0.0052   -0.0064    0.0039   -0.0042   -0.0007   -0.0087
          31    0.0169   -0.0188   -0.0449    0.0146    0.0069   -0.0250    0.0214   -0.0271
          32   -0.0164    0.0044   -0.0074   -0.0278    0.0090    0.0333    0.0280    0.0155
          33   -0.0179    0.0037   -0.0116    0.0020    0.0098    0.0068    0.0194   -0.0026
          34   -0.0168   -0.0250   -0.0414   -0.0027    0.0249    0.0171    0.0256   -0.0256
          35   -0.0092   -0.0081    0.0028   -0.0265    0.0130    0.0160    0.0230    0.0119
          36    0.0126    0.0089   -0.0115   -0.0004    0.0074   -0.0059   -0.0019   -0.0138
          37    0.0122   -0.1284   -0.0122    0.0038   -0.0176    0.0181    0.0066    0.0069
          38    0.0061    0.0313   -0.0139   -0.0496    0.0137    0.0186    0.0477    0.0394
          39   -0.0053    0.0731    0.0013   -0.0211    0.0090    0.0042    0.0147    0.0123
          40   -0.0310    0.1288    0.0225    0.0035    0.0152   -0.0047   -0.0115   -0.0077
          41   -0.0267   -0.0845    0.0152    0.0730    0.0010   -0.0245   -0.0585   -0.0510
          42   -0.0047    0.0844    0.0030   -0.0225    0.0082    0.0041    0.0142    0.0127
          43    0.0250   -0.1259   -0.0147   -0.0020   -0.0181    0.0168    0.0033   -0.0057
          44    0.0249   -0.0255    0.0017   -0.0552    0.0145    0.0049    0.0355    0.0446
          45   -0.0173    0.0692    0.0066    0.0194   -0.0021   -0.0078   -0.0133   -0.0120
          46   -0.0060    0.1334    0.0198   -0.0062    0.0124   -0.0235   -0.0027    0.0124
          47   -0.0461    0.0668    0.0035    0.0708   -0.0352    0.0057   -0.0433   -0.0581
          48   -0.0225    0.0824    0.0089    0.0239   -0.0044   -0.0075   -0.0163   -0.0145
          49    0.0201    0.0034   -0.0057   -0.0081   -0.0004   -0.0183    0.0018    0.0115
          50   -0.0084    0.0058   -0.0471   -0.0153    0.0180   -0.0687    0.0215    0.0243
          51    0.1164    0.0019    0.0579    0.0009   -0.0128   -0.0335   -0.0309    0.0306
          52    0.0491    0.0268   -0.0571    0.0339   -0.0036   -0.0050    0.0061   -0.0430
          53    0.0222    0.0035   -0.0441    0.0394   -0.0180    0.0279    0.0170    0.0316
          54    0.0264    0.0215   -0.0362    0.0262   -0.0062   -0.0109    0.0004   -0.0442
          55   -0.0574    0.0096   -0.0567   -0.0204    0.0131    0.0148    0.0436   -0.0055
          56    0.0350    0.0026    0.0638    0.0390    0.0279   -0.0195    0.0126    0.0320
          57   -0.0337    0.0117   -0.0327   -0.0143    0.0159    0.0185    0.0442    0.0018
          58   -0.0226   -0.0053   -0.0015    0.0108    0.0107    0.0154   -0.0110   -0.0044
          59    0.0010   -0.0047    0.0437   -0.0307   -0.0583   -0.0313    0.0218    0.0619
          60   -0.1156   -0.0397    0.0722   -0.0140    0.0096    0.0259   -0.0306    0.0351
          61   -0.0279    0.0002   -0.0481   -0.0303   -0.0229   -0.0321   -0.0474    0.0114
          62   -0.0251    0.0028   -0.0237    0.0014    0.0209   -0.0311    0.0121    0.0105
          63    0.0231   -0.0036    0.0882    0.0801    0.0769    0.0500    0.1212   -0.0222
          64    0.0358    0.0172   -0.0610    0.0393    0.1400    0.0851   -0.0830    0.0629
          65    0.0102    0.0031   -0.0286    0.0299   -0.0158    0.0163    0.0094    0.0142
          66    0.0102    0.0026   -0.0108    0.0008    0.0623    0.0287   -0.0354    0.0245
          67   -0.0285   -0.0018   -0.0358   -0.0089    0.0016   -0.0697   -0.0253    0.0275
          68   -0.0428   -0.0081   -0.0242    0.0244    0.0444   -0.0996    0.0251    0.0324
          69    0.0149   -0.0049    0.0513    0.0533    0.0585    0.0206    0.0987   -0.0172
          70    0.0544    0.0125    0.0373   -0.0276   -0.0583    0.1207   -0.0384   -0.0388
          71    0.0042    0.0041    0.0011   -0.0114   -0.0160    0.0359   -0.0061   -0.0141
          72   -0.0148    0.0095   -0.0412   -0.0422   -0.0242    0.0657    0.0193   -0.0330
          73   -0.0446   -0.0236    0.0461   -0.0358    0.0214   -0.0090   -0.0208    0.0057
          74    0.0028   -0.0041    0.0067   -0.0199    0.0293   -0.0095   -0.0086   -0.0313
          75   -0.0201    0.0093   -0.0213    0.0681   -0.0943    0.0318    0.0226    0.1022
          76    0.0324    0.0139   -0.0407    0.0318    0.0781    0.0607   -0.0544    0.0759
          77    0.0064    0.0140   -0.0414    0.0649   -0.0671    0.0276    0.0228    0.0610
          78    0.0087   -0.0011    0.0060   -0.0213    0.0669    0.0092   -0.0344   -0.0037


   Root No.      25        26        27        28        29        30        31        32

                25 A      26 A      27 A      28 A      29 A      30 A      31 A      32 A   

                 991.9     996.2    1021.2    1038.6    1043.8    1054.9    1062.5    1069.0
  
           1    0.0089    0.0138   -0.0007   -0.0040   -0.0084   -0.0127    0.0006    0.0045
           2    0.0060   -0.0116    0.0066   -0.0117    0.0206   -0.0140    0.0225    0.0061
           3   -0.0067   -0.0007    0.0015    0.0024   -0.0007   -0.0003   -0.0061    0.0006
           4   -0.0137   -0.0085    0.0004    0.0060    0.0095   -0.0037    0.0143    0.0030
           5   -0.0121    0.0057    0.0026   -0.0186    0.0126    0.0206   -0.0066   -0.0163
           6   -0.0006    0.0064    0.0031   -0.0037   -0.0018    0.0030    0.0021   -0.0078
           7    0.0032   -0.0051   -0.0058    0.0319   -0.0213   -0.0016   -0.0008    0.0009
           8   -0.0079    0.0203   -0.0056    0.0010   -0.0150    0.0046   -0.0181    0.0042
           9    0.0015    0.0068    0.0028   -0.0008    0.0013   -0.0086    0.0059    0.0115
          10    0.0049   -0.0028    0.0058   -0.0314    0.0224   -0.0001    0.0032    0.0017
          11    0.0201   -0.0079   -0.0015    0.0053   -0.0097   -0.0126   -0.0052    0.0157
          12   -0.0057   -0.0002    0.0016    0.0047    0.0019   -0.0110    0.0073   -0.0018
          13   -0.0011   -0.0106    0.0064    0.0062    0.0058    0.0070    0.0013   -0.0041
          14   -0.0005   -0.0086    0.0004    0.0017    0.0056    0.0053    0.0043    0.0068
          15    0.0082   -0.0012   -0.0014   -0.0029   -0.0025   -0.0009   -0.0012   -0.0084
          16    0.0092    0.0040    0.0041   -0.0070   -0.0107    0.0025   -0.0012    0.0005
          17    0.0008    0.0074    0.0000   -0.0054   -0.0062    0.0051    0.0089   -0.0019
          18    0.0068   -0.0055   -0.0045    0.0004    0.0004    0.0014   -0.0039    0.0037
          19   -0.0002    0.0023   -0.0063   -0.0052   -0.0044   -0.0073   -0.0015   -0.0012
          20    0.0021    0.0018    0.0026    0.0004   -0.0009   -0.0020   -0.0015   -0.0073
          21   -0.0036   -0.0015    0.0094    0.0114    0.0101    0.0203    0.0045    0.0182
          22   -0.0024   -0.0017   -0.0094    0.0100    0.0241   -0.0045   -0.0150   -0.0016
          23   -0.0038   -0.0031    0.0036    0.0019    0.0026   -0.0035   -0.0045   -0.0007
          24   -0.0047   -0.0008   -0.0002    0.0047    0.0110   -0.0040   -0.0091   -0.0021
          25    0.0065    0.0052    0.0111    0.0063    0.0034    0.0060   -0.0007    0.0006
          26   -0.0015    0.0083   -0.0022   -0.0014   -0.0040   -0.0024   -0.0027    0.0005
          27   -0.0099   -0.0116   -0.0228   -0.0131   -0.0107   -0.0167   -0.0042   -0.0123
          28   -0.0133   -0.0104    0.0201   -0.0118   -0.0254    0.0034    0.0106    0.0016
          29    0.0031   -0.0055   -0.0021    0.0028    0.0021   -0.0018   -0.0032    0.0024
          30   -0.0015   -0.0023    0.0049   -0.0063   -0.0114    0.0046    0.0062    0.0000
          31   -0.0086    0.0702   -0.0472   -0.0655   -0.0203    0.0163   -0.0387    0.0647
          32    0.0249   -0.0796    0.0106    0.0356    0.0301   -0.0601    0.0953   -0.0379
          33   -0.0047   -0.0067   -0.0183   -0.0049   -0.0020   -0.0085    0.0093    0.0077
          34   -0.0606    0.0135   -0.0500    0.0434    0.0154    0.0591    0.0740   -0.0453
          35   -0.0820    0.0192   -0.0108    0.0304    0.0331    0.0634   -0.0134   -0.0919
          36    0.0087    0.0095   -0.0145   -0.0072   -0.0082    0.0139    0.0325    0.0024
          37    0.0276   -0.0318   -0.0231    0.0404   -0.0689    0.0531   -0.0678    0.0343
          38    0.0047   -0.0337   -0.0321    0.0192   -0.0679    0.0745   -0.0984    0.0076
          39   -0.0046   -0.0078   -0.0027    0.0041   -0.0032    0.0015   -0.0042   -0.0036
          40   -0.0618    0.0416   -0.0066    0.0928   -0.0235   -0.0067    0.0340   -0.0604
          41   -0.0633    0.0905    0.0027    0.0537   -0.0085   -0.0254    0.0376   -0.0200
          42   -0.0062   -0.0055   -0.0021    0.0068   -0.0034    0.0032   -0.0031   -0.0098
          43    0.0330   -0.0263    0.0019   -0.0671    0.0401    0.0512   -0.0056   -0.0916
          44   -0.0355    0.0085    0.0041    0.0612   -0.0217   -0.0895    0.0151    0.0994
          45    0.0074    0.0040    0.0006   -0.0052   -0.0011    0.0026    0.0017    0.0019
          46   -0.0430    0.0631    0.0152   -0.0814    0.0368   -0.0121   -0.0288    0.0681
          47    0.0919   -0.0680   -0.0145    0.0342   -0.0288    0.0337    0.0069   -0.0458
          48    0.0091    0.0037   -0.0001   -0.0084   -0.0005    0.0074   -0.0030    0.0020
          49    0.0127    0.0026    0.0149    0.0064   -0.0078   -0.0034   -0.0143   -0.0281
          50    0.0380    0.0248    0.0353    0.0097   -0.0304   -0.0214   -0.0426   -0.0733
          51    0.0102   -0.0087    0.0432    0.0271   -0.0019    0.0055   -0.0204   -0.0665
          52    0.0073   -0.0045   -0.0274    0.0007    0.0079    0.0182    0.0187   -0.0012
          53   -0.0470   -0.0303    0.0376    0.0298    0.0225   -0.0448   -0.0380    0.0144
          54    0.0223    0.0035   -0.0339   -0.0082   -0.0002    0.0270    0.0223   -0.0028
          55    0.0051   -0.0038   -0.0340   -0.0145   -0.0097    0.0123    0.0015    0.0178
          56   -0.0492   -0.0858   -0.0687    0.0086    0.0287    0.0966    0.0330    0.1032
          57   -0.0063   -0.0250   -0.0473   -0.0111   -0.0025    0.0348    0.0090    0.0367
          58   -0.0121   -0.0221    0.0233   -0.0010    0.0084   -0.0072   -0.0403    0.0008
          59    0.0631    0.0852   -0.0692   -0.0173   -0.0568    0.0367    0.1415   -0.0038
          60   -0.0007   -0.0151    0.0462   -0.0224   -0.0144   -0.0060   -0.0696    0.0042
          61   -0.0033    0.0016    0.0157    0.0116    0.0069    0.0157    0.0037    0.0089
          62    0.0107    0.0110    0.0116   -0.0039   -0.0140   -0.0180   -0.0075   -0.0409
          63    0.0138    0.0111   -0.0322   -0.0332   -0.0327   -0.0516   -0.0149   -0.0435
          64    0.0099    0.0014    0.0299   -0.0291   -0.0644    0.0174    0.0330    0.0030
          65   -0.0248   -0.0164    0.0178    0.0146    0.0189   -0.0179   -0.0366   -0.0053
          66    0.0090    0.0063    0.0092   -0.0162   -0.0308    0.0110    0.0234    0.0014
          67   -0.0128   -0.0261   -0.0274   -0.0151   -0.0129   -0.0220   -0.0072   -0.0253
          68    0.0119   -0.0101    0.0112    0.0038    0.0005   -0.0027   -0.0048   -0.0216
          69    0.0504    0.0474    0.0841    0.0440    0.0321    0.0505    0.0082    0.0274
          70   -0.0270    0.0074   -0.0465   -0.0240   -0.0289   -0.0293   -0.0147   -0.0114
          71   -0.0010    0.0109   -0.0011   -0.0009   -0.0045   -0.0022   -0.0033    0.0005
          72    0.0462    0.0627    0.0924    0.0489    0.0333    0.0553    0.0081    0.0359
          73    0.0631    0.0382   -0.0828    0.0496    0.0967   -0.0182   -0.0408   -0.0004
          74    0.0043   -0.0075   -0.0028    0.0038    0.0028   -0.0025   -0.0045    0.0033
          75    0.0070    0.0334   -0.0216    0.0103    0.0329   -0.0020   -0.0073   -0.0103
          76    0.0475    0.0397   -0.0618    0.0402    0.0832   -0.0146   -0.0361   -0.0048
          77   -0.0219   -0.0004    0.0164    0.0037    0.0049   -0.0110   -0.0097   -0.0017
          78    0.0317    0.0164   -0.0345    0.0138    0.0308    0.0011   -0.0098   -0.0014


   Root No.      33        34        35        36        37        38        39        40

                33 A      34 A      35 A      36 A      37 A      38 A      39 A      40 A   

                1101.3    1140.6    1149.5    1163.4    1180.6    1187.0    1196.8    1206.7
  
           1   -0.0148    0.0004   -0.0068    0.0245   -0.0206    0.0144   -0.0061   -0.0040
           2    0.0087   -0.0014    0.0111   -0.0256    0.0101    0.0118   -0.0089   -0.0140
           3   -0.0001    0.0255   -0.0173   -0.0031   -0.0134   -0.0125    0.0305    0.0003
           4    0.0153    0.0052   -0.0145   -0.0192   -0.0017    0.0029    0.0316    0.0181
           5    0.0126    0.0042   -0.0118   -0.0217   -0.0086    0.0147   -0.0132    0.0106
           6    0.0035   -0.0115   -0.0194    0.0074   -0.0192    0.0310    0.0002   -0.0145
           7   -0.0002   -0.0002    0.0048    0.0027   -0.0027    0.0053   -0.0139   -0.0133
           8   -0.0102   -0.0029   -0.0070    0.0220   -0.0010   -0.0094    0.0207    0.0027
           9    0.0292    0.0002    0.0074    0.0133   -0.0031    0.0054   -0.0153   -0.0007
          10   -0.0007   -0.0012    0.0019   -0.0040    0.0081   -0.0068    0.0140    0.0062
          11   -0.0117   -0.0060    0.0046    0.0203    0.0067   -0.0156    0.0070    0.0018
          12   -0.0307   -0.0031   -0.0040   -0.0125    0.0082   -0.0090    0.0060    0.0085
          13    0.0046    0.0074    0.0008   -0.0044    0.0263   -0.0004   -0.0040   -0.0057
          14    0.0002   -0.0115    0.0115   -0.0124   -0.0235   -0.0037    0.0054   -0.0077
          15    0.0079   -0.0250    0.0149   -0.0027    0.0246    0.0075   -0.0047   -0.0077
          16   -0.0071   -0.0014    0.0143    0.0069    0.0043    0.0001   -0.0024   -0.0048
          17    0.0053   -0.0072   -0.0179   -0.0067    0.0011   -0.0147   -0.0160   -0.0004
          18   -0.0043    0.0097    0.0147   -0.0072    0.0143   -0.0340   -0.0048   -0.0010
          19    0.0014   -0.0083    0.0062   -0.0043   -0.0197   -0.0037    0.0012    0.0097
          20    0.0016    0.0081   -0.0057    0.0017    0.0222    0.0052    0.0008   -0.0227
          21   -0.0081    0.0018   -0.0018    0.0029   -0.0090   -0.0022   -0.0003    0.0073
          22    0.0039   -0.0026   -0.0093   -0.0031    0.0003   -0.0040   -0.0034    0.0000
          23   -0.0035    0.0009    0.0055    0.0041   -0.0059    0.0214   -0.0040    0.0086
          24   -0.0017    0.0005    0.0036    0.0040   -0.0056    0.0202    0.0001    0.0057
          25   -0.0006   -0.0001    0.0007   -0.0019   -0.0018   -0.0009    0.0019   -0.0124
          26   -0.0011   -0.0002   -0.0012    0.0022   -0.0055   -0.0015    0.0001    0.0067
          27    0.0039   -0.0027    0.0021   -0.0022   -0.0002   -0.0001    0.0008   -0.0059
          28   -0.0017   -0.0007    0.0007    0.0006   -0.0002   -0.0002   -0.0022    0.0004
          29   -0.0006    0.0008    0.0013   -0.0002    0.0023   -0.0059    0.0024   -0.0019
          30    0.0000    0.0038    0.0066   -0.0006    0.0022   -0.0033    0.0073   -0.0029
          31   -0.0807    0.0773   -0.0192   -0.0860   -0.0227    0.0271   -0.0906   -0.0643
          32    0.0083    0.1045   -0.0353    0.0934   -0.1270   -0.0144   -0.0885    0.0291
          33   -0.0309    0.1125   -0.0456    0.0014   -0.0794   -0.0192   -0.0474   -0.0089
          34    0.0726   -0.0439   -0.0204    0.0843    0.0139   -0.0409    0.0378   -0.0348
          35    0.0083    0.0650    0.1289    0.0606   -0.0042   -0.0631   -0.0460   -0.0798
          36    0.0318   -0.0608   -0.0842    0.0188   -0.0141    0.0434    0.0166   -0.0013
          37    0.1274    0.0339   -0.0052   -0.0334   -0.0096    0.0376   -0.0399   -0.0035
          38    0.0244    0.0457   -0.0498   -0.0437   -0.0094   -0.0046    0.0613    0.0279
          39   -0.0159    0.0103   -0.0110   -0.0034   -0.0046   -0.0078    0.0177    0.0069
          40   -0.0909   -0.0218   -0.0070   -0.0799    0.0225    0.0248   -0.0396    0.0142
          41   -0.0155   -0.0350    0.0054   -0.0168    0.0177    0.0186   -0.0274    0.0408
          42   -0.0199    0.0066   -0.0068   -0.0126    0.0004    0.0004   -0.0022   -0.0047
          43   -0.1187   -0.0208   -0.0265    0.0361   -0.0033   -0.0419    0.0307    0.0098
          44    0.0083    0.0125    0.0352   -0.0545    0.0541   -0.0319    0.0176    0.0277
          45    0.0176   -0.0034   -0.0066    0.0047   -0.0094    0.0157   -0.0064   -0.0055
          46    0.0891    0.0111    0.0264    0.0775   -0.0012   -0.0486   -0.0087    0.0126
          47   -0.0122   -0.0169   -0.0164   -0.0184   -0.0013    0.0375    0.0268   -0.0226
          48    0.0212   -0.0032   -0.0030    0.0125   -0.0027   -0.0004    0.0034   -0.0025
          49    0.0135   -0.0124    0.0167   -0.0087   -0.0102   -0.0185   -0.0131    0.0355
          50    0.0331   -0.0654    0.0587   -0.0295   -0.1320   -0.0660   -0.0204    0.1217
          51    0.0431   -0.0080    0.0190   -0.0184    0.0369   -0.0332   -0.0192    0.0425
          52    0.0087    0.0343    0.0334   -0.0296    0.0213   -0.0400   -0.0156    0.0297
          53    0.0032   -0.0633   -0.1033    0.0173    0.0075   -0.0994    0.0201   -0.0910
          54    0.0040    0.0486    0.0535   -0.0354    0.0210   -0.0290   -0.0264    0.0468
          55   -0.0146   -0.0517    0.0199    0.0240    0.0355    0.0205   -0.0332    0.0136
          56   -0.0600   -0.0479    0.0132    0.0508   -0.0075    0.0108   -0.0483    0.0708
          57   -0.0224   -0.0700    0.0250    0.0351    0.0381    0.0238   -0.0384    0.0299
          58   -0.0084   -0.0126    0.0010    0.0058    0.0037   -0.0002   -0.0282    0.0000
          59    0.0175    0.0322    0.0205   -0.0096    0.0055   -0.0225    0.0764   -0.0115
          60   -0.0321   -0.0155    0.0141    0.0118    0.0107   -0.0182   -0.0732   -0.0146
          61   -0.0072    0.0292   -0.0269    0.0307    0.0545    0.0104   -0.0149    0.0623
          62    0.0049    0.0828   -0.0765    0.0789    0.2116    0.0436   -0.0368    0.0987
          63    0.0160   -0.0049   -0.0013    0.0060    0.0260    0.0061   -0.0047    0.0221
          64   -0.0098    0.0122    0.0356    0.0041    0.0010   -0.0015    0.0188   -0.0097
          65   -0.0313    0.0568    0.1387    0.0427   -0.0139    0.1291    0.1302    0.0018
          66    0.0044   -0.0166   -0.0338   -0.0096   -0.0022   -0.0239   -0.0483    0.0049
          67    0.0077   -0.0003    0.0015   -0.0040    0.0120    0.0008    0.0018   -0.0280
          68    0.0053    0.0116   -0.0082    0.0038    0.0365    0.0042   -0.0003   -0.0341
          69   -0.0093    0.0077   -0.0055    0.0035    0.0042   -0.0003    0.0005   -0.0079
          70    0.0021   -0.0087    0.0025    0.0051   -0.0244   -0.0111   -0.0032    0.0342
          71   -0.0012    0.0003   -0.0020    0.0034   -0.0048   -0.0019   -0.0004    0.0089
          72   -0.0091   -0.0014   -0.0005    0.0039   -0.0079   -0.0037   -0.0013    0.0124
          73    0.0031   -0.0020   -0.0056    0.0011    0.0044   -0.0097    0.0058   -0.0057
          74   -0.0010    0.0011    0.0023    0.0006    0.0030   -0.0071    0.0054   -0.0036
          75    0.0006    0.0028    0.0036   -0.0019   -0.0075    0.0244   -0.0155    0.0161
          76    0.0031   -0.0045   -0.0102    0.0003   -0.0056    0.0097   -0.0064    0.0030
          77   -0.0078   -0.0044    0.0026    0.0124   -0.0121    0.0394   -0.0030    0.0089
          78    0.0044    0.0049    0.0032   -0.0054    0.0051   -0.0145    0.0078   -0.0050


   Root No.      41        42        43        44        45        46        47        48

                41 A      42 A      43 A      44 A      45 A      46 A      47 A      48 A   

                1210.9    1220.7    1236.5    1259.2    1278.4    1296.7    1329.1    1345.2
  
[...]

 VIBRATION   52   52A       ATOM PAIR        ENERGY CONTRIBUTION    RADIAL
 FREQ.      1415.98        C  2 --  C  6          +13.3% ( 55.4%)    63.3%
 T-DIPOLE    0.0908        C  6 --  C  8          +10.2% ( 48.5%)    91.8%
 TRAVEL      0.0771        C  6 --  H 18           +9.5% ( 46.8%)     0.6%
 RED. MASS   1.1784        C  6 --  H 20           +8.6% ( 44.6%)     0.3%
 EFF. MASS   8.0126

 VIBRATION   53   53A       ATOM PAIR        ENERGY CONTRIBUTION    RADIAL
 FREQ.      1416.46        C  1 --  C  5          +13.0% ( 48.2%)    84.7%
 T-DIPOLE    0.0283        C  5 --  C  7           +7.5% ( 36.7%)    80.4%
 TRAVEL      0.0933        C  3 --  H 14           +7.2% ( 35.9%)     1.9%
 RED. MASS   0.5526        C  5 --  H 17           +6.9% ( 35.2%)     0.1%
 EFF. MASS   5.4661

 VIBRATION   54   54A       ATOM PAIR        ENERGY CONTRIBUTION    RADIAL
 FREQ.      1460.26        C  1 --  C  2           +8.8% ( 46.0%)    60.4%
 T-DIPOLE    0.0223        C  1 --  C  5           +7.8% ( 43.2%)    84.3%
 TRAVEL      0.0768        C  2 --  C  6           +7.5% ( 42.3%)    83.0%
 RED. MASS   0.8772        C  1 --  C  4           +7.3% ( 41.9%)    93.5%
 EFF. MASS   7.8206

 VIBRATION   55   55A       ATOM PAIR        ENERGY CONTRIBUTION    RADIAL
 FREQ.      1860.57        C  8 --  C 10          +45.3% ( 99.3%)    98.9%
 T-DIPOLE    0.2170        C  6 --  C  8          +16.7% ( 60.3%)    54.6%
 TRAVEL      0.0554        C  8 --  H 22          +15.4% ( 58.0%)     3.9%
 RED. MASS   5.2984        C 10 --  H 26          +11.0% ( 48.9%)    10.8%
 EFF. MASS  11.7913        C 10 --  H 25          +10.8% ( 48.4%)    12.9%

 VIBRATION   56   56A       ATOM PAIR        ENERGY CONTRIBUTION    RADIAL
 FREQ.      1862.13        C  7 --  C  9          +45.3% ( 99.3%)    98.9%
 T-DIPOLE    0.2412        C  5 --  C  7          +16.8% ( 60.4%)    54.3%
 TRAVEL      0.0554        C  7 --  H 21          +15.5% ( 58.0%)     4.1%
 RED. MASS   5.2955        C  9 --  H 23          +10.9% ( 48.8%)    10.9%
 EFF. MASS  11.7938        C  9 --  H 24          +10.7% ( 48.4%)    12.9%

 VIBRATION   57   57A       ATOM PAIR        ENERGY CONTRIBUTION    RADIAL
 FREQ.      2935.92        C  2 --  H 12          +39.4% ( 64.8%)   100.0%
 T-DIPOLE    0.0430        C  6 --  H 20          +18.9% ( 45.0%)    96.4%
 TRAVEL      0.1234        C  6 --  H 18          +18.6% ( 44.6%)    96.4%
 RED. MASS   0.2515        C  5 --  H 19           +7.9% ( 29.0%)    97.4%
 EFF. MASS   1.5088

 VIBRATION   58   58A       ATOM PAIR        ENERGY CONTRIBUTION    RADIAL
 FREQ.      2938.37        C  5 --  H 19          +41.2% ( 66.6%)    97.2%
 T-DIPOLE    0.0264        C  5 --  H 17          +30.7% ( 57.5%)    95.5%
 TRAVEL      0.1224        C  6 --  H 20           +8.5% ( 30.3%)    96.7%
 RED. MASS   0.3038        C  6 --  H 18           +7.7% ( 28.8%)    96.2%
 EFF. MASS   1.5330

 VIBRATION   59   59A       ATOM PAIR        ENERGY CONTRIBUTION    RADIAL
 FREQ.      2944.62        C  2 --  H 12          +44.0% ( 68.2%)   100.0%
 T-DIPOLE    0.0617        C  6 --  H 20          +24.3% ( 50.7%)    96.9%
 TRAVEL      0.1241        C  6 --  H 18          +20.2% ( 46.3%)    96.1%
 RED. MASS   0.3095        C  1 --  H 11           +3.3% ( 18.8%)   100.0%
 EFF. MASS   1.4870

 VIBRATION   60   60A       ATOM PAIR        ENERGY CONTRIBUTION    RADIAL
 FREQ.      2953.07        C  1 --  H 11          +79.6% ( 91.1%)   100.0%
 T-DIPOLE    0.1255        C  2 --  H 12           +7.1% ( 27.1%)    99.9%
 TRAVEL      0.1255        C  5 --  H 19           +4.6% ( 22.0%)    97.3%
 RED. MASS   0.6520        C  5 --  H 17           +3.9% ( 20.1%)    96.2%
 EFF. MASS   1.4489

 VIBRATION   61   61A       ATOM PAIR        ENERGY CONTRIBUTION    RADIAL
 FREQ.      3015.16        C  7 --  H 21          +68.9% ( 83.7%)   100.0%
 T-DIPOLE    0.2860        C  5 --  H 17          +13.7% ( 37.3%)    98.0%
 TRAVEL      0.1240        C  5 --  H 19          +12.8% ( 36.0%)    97.4%
 RED. MASS   0.4931        C  8 --  H 22           +1.5% ( 12.2%)    99.9%
 EFF. MASS   1.4536

 VIBRATION   62   62A       ATOM PAIR        ENERGY CONTRIBUTION    RADIAL
 FREQ.      3017.81        C  6 --  H 18          +51.0% ( 70.4%)    97.9%
 T-DIPOLE    0.0531        C  6 --  H 20          +46.3% ( 67.1%)    97.4%
 TRAVEL      0.1323        C  8 --  H 22           +0.7% (  8.1%)    99.7%
 RED. MASS   0.4721        C  6 --  C  8           +0.7% (  8.0%)    30.7%
 EFF. MASS   1.2771

 VIBRATION   63   63A       ATOM PAIR        ENERGY CONTRIBUTION    RADIAL
 FREQ.      3020.22        C  5 --  H 17          +41.9% ( 64.2%)    98.6%
 T-DIPOLE    0.2125        C  5 --  H 19          +27.7% ( 52.2%)    96.3%
 TRAVEL      0.1294        C  7 --  H 21          +27.4% ( 51.9%)   100.0%
 RED. MASS   0.3239        C  8 --  H 22           +0.8% (  9.1%)   100.0%
 EFF. MASS   1.3326

 VIBRATION   64   64A       ATOM PAIR        ENERGY CONTRIBUTION    RADIAL
 FREQ.      3028.99        C  4 --  H 15          +27.4% ( 54.8%)    97.4%
 T-DIPOLE    0.0053        C  3 --  H 13          +27.0% ( 54.3%)    97.4%
 TRAVEL      0.1197        C  4 --  H 16          +21.1% ( 48.1%)    95.8%
 RED. MASS   0.2621        C  3 --  H 14          +20.7% ( 47.5%)    95.8%
 EFF. MASS   1.5537

 VIBRATION   65   65A       ATOM PAIR        ENERGY CONTRIBUTION    RADIAL
 FREQ.      3036.03        C  8 --  H 22          +93.5% ( 98.0%)   100.0%
 T-DIPOLE    0.2379        C  7 --  H 21           +2.2% ( 15.0%)   100.0%
 TRAVEL      0.1217        C  8 --  C 10           +1.4% ( 11.9%)    30.8%
 RED. MASS   0.8584        C  6 --  C  8           +1.3% ( 11.5%)    13.8%
 EFF. MASS   1.4987

 VIBRATION   66   66A       ATOM PAIR        ENERGY CONTRIBUTION    RADIAL
 FREQ.      3043.52        C  3 --  H 13          +28.3% ( 55.2%)    97.8%
 T-DIPOLE    0.0960        C  4 --  H 15          +27.7% ( 54.6%)    97.7%
 TRAVEL      0.1203        C  3 --  H 14          +20.4% ( 46.9%)    95.9%
 RED. MASS   0.2634        C  4 --  H 16          +20.1% ( 46.6%)    95.9%
 EFF. MASS   1.5306

 VIBRATION   67   67A       ATOM PAIR        ENERGY CONTRIBUTION    RADIAL
 FREQ.      3103.33        C  4 --  H 16          +32.2% ( 56.3%)    98.1%
 T-DIPOLE    0.0690        C  3 --  H 14          +25.3% ( 49.8%)    98.1%
 TRAVEL      0.1302        C  4 --  H 15          +22.9% ( 47.4%)    95.9%
 RED. MASS   0.2522        C  3 --  H 13          +17.6% ( 41.7%)    95.8%
 EFF. MASS   1.2813

 VIBRATION   68   68A       ATOM PAIR        ENERGY CONTRIBUTION    RADIAL
 FREQ.      3104.89        C  3 --  H 14          +31.5% ( 55.7%)    98.0%
 T-DIPOLE    0.0782        C  4 --  H 16          +24.4% ( 49.0%)    98.0%
 TRAVEL      0.1298        C  3 --  H 13          +23.5% ( 48.1%)    96.1%
 RED. MASS   0.2501        C  4 --  H 15          +18.4% ( 42.6%)    96.2%
 EFF. MASS   1.2891

 VIBRATION   69   69A       ATOM PAIR        ENERGY CONTRIBUTION    RADIAL
 FREQ.      3135.84        C 10 --  H 26          +90.9% ( 97.1%)    99.9%
 T-DIPOLE    0.1952        C 10 --  H 25           +7.5% ( 27.8%)    73.4%
 TRAVEL      0.1181        C  8 --  C 10           +1.3% ( 11.7%)    21.0%
 RED. MASS   0.8401        C  9 --  H 23           +0.2% (  4.8%)    99.9%
 EFF. MASS   1.5410

 VIBRATION   70   70A       ATOM PAIR        ENERGY CONTRIBUTION    RADIAL
 FREQ.      3136.18        C  9 --  H 23          +91.5% ( 97.4%)    99.9%
 T-DIPOLE    0.1940        C  9 --  H 24           +6.9% ( 26.8%)    71.8%
 TRAVEL      0.1182        C  7 --  C  9           +1.3% ( 11.7%)    22.0%
 RED. MASS   0.8482        C 10 --  H 26           +0.2% (  4.7%)    99.8%
 EFF. MASS   1.5392

 VIBRATION   71   71A       ATOM PAIR        ENERGY CONTRIBUTION    RADIAL
 FREQ.      3147.56        C 10 --  H 25          +91.1% ( 96.1%)    99.6%
 T-DIPOLE    0.2399        C 10 --  H 26           +6.4% ( 25.5%)    45.5%
 TRAVEL      0.1211        C  8 --  C 10           +1.6% ( 12.7%)    74.1%
 RED. MASS   0.8074        C  8 --  H 22           +0.7% (  8.3%)    94.1%
 EFF. MASS   1.4618

 VIBRATION   72   72A       ATOM PAIR        ENERGY CONTRIBUTION    RADIAL
 FREQ.      3148.23        C  9 --  H 24          +91.9% ( 96.5%)    99.7%
 T-DIPOLE    0.2525        C  9 --  H 23           +5.9% ( 24.4%)    41.8%
 TRAVEL      0.1210        C  7 --  C  9           +1.6% ( 12.6%)    71.8%
 RED. MASS   0.8200        C  7 --  H 21           +0.5% (  7.1%)    92.6%
 EFF. MASS   1.4618

 SYMMETRY NUMBER FOR POINT-GROUP C1  =  1


          SYSTEM IS A GROUND STATE


    NULL



          MOLECULE IS NOT LINEAR

          THERE ARE 72 GENUINE VIBRATIONS IN THIS SYSTEM
          THIS THERMODYNAMICS CALCULATION IS LIMITED TO
          MOLECULES WHICH HAVE NO INTERNAL ROTATIONS




                    CALCULATED THERMODYNAMIC PROPERTIES
                                          *
   TEMP. (K)   PARTITION FUNCTION   H.O.F.    ENTHALPY  HEAT CAPACITY ENTROPY
                                   KCAL/MOL   CAL/MOLE    CAL/K/MOL  CAL/K/MOL


 298.00  VIB.     0.2045D+04                  5015.7690    35.1119    31.9801
         ROT.     0.8766D+06                   888.2813     2.9808    30.1735
         INT.     0.1793D+10                  5904.0503    38.0927    62.1536
         TRA.     0.1537D+28                  1480.4688     4.9680    40.6375
         TOT.                       22.189    7384.5192    43.0607   102.7911

 200.00  VIB.     0.1288D+03                  2244.7204    21.9468    20.8786
         ROT.     0.4820D+06                   596.1620     2.9808    28.9848
         INT.     0.6210D+08                  2840.8823    24.9276    49.8634
         TRA.     0.8452D+27                   993.6033     4.9680    38.6564
         TOT.                       18.639    3834.4856    29.8957    88.5197

 210.00  VIB.     0.1708D+03                  2470.0803    23.1322    21.9779
         ROT.     0.5186D+06                   625.9700     2.9808    29.1302
         INT.     0.8859D+08                  3096.0503    26.1131    51.1081
         TRA.     0.9094D+27                  1043.2834     4.9680    38.8988
         TOT.                       18.944    4139.3337    31.0811    90.0069

 220.00  VIB.     0.2264D+03                  2707.5070    24.3601    23.0822
         ROT.     0.5561D+06                   655.7781     2.9808    29.2689
         INT.     0.1259D+09                  3363.2852    27.3409    52.3510
         TRA.     0.9752D+27                  1092.9636     4.9680    39.1299
         TOT.                       19.260    4456.2487    32.3090    91.4809

 230.00  VIB.     0.3000D+03                  2957.4212    25.6295    24.1929
         ROT.     0.5944D+06                   685.5862     2.9808    29.4014
         INT.     0.1783D+09                  3643.0075    28.6103    53.5943
         TRA.     0.1042D+28                  1142.6437     4.9680    39.3507
         TOT.                       19.590    4785.6512    33.5783    92.9450

 240.00  VIB.     0.3974D+03                  3220.2274    26.9381    25.3111
         ROT.     0.6336D+06                   715.3943     2.9808    29.5283
         INT.     0.2518D+09                  3935.6217    29.9189    54.8394
         TRA.     0.1111D+28                  1192.3239     4.9680    39.5621
         TOT.                       19.932    5127.9456    34.8869    94.4016

 250.00  VIB.     0.5266D+03                  3496.3035    28.2829    26.4380
         ROT.     0.6736D+06                   745.2024     2.9808    29.6499
         INT.     0.3547D+09                  4241.5060    31.2637    56.0879
         TRA.     0.1181D+28                  1242.0041     4.9680    39.7650
         TOT.                       20.288    5483.5100    36.2317    95.8529

 260.00  VIB.     0.6979D+03                  3785.9932    29.6601    27.5740
         ROT.     0.7144D+06                   775.0105     2.9808    29.7669
         INT.     0.4986D+09                  4561.0038    32.6409    57.3408
         TRA.     0.1253D+28                  1291.6842     4.9680    39.9598
         TOT.                       20.657    5852.6880    37.6089    97.3006

 270.00  VIB.     0.9253D+03                  4089.5999    31.0655    28.7196
         ROT.     0.7560D+06                   804.8186     2.9808    29.8793
         INT.     0.6996D+09                  4894.4185    34.0464    58.5990
         TRA.     0.1326D+28                  1341.3644     4.9680    40.1473
         TOT.                       21.040    6235.7829    39.0144    98.7463

 280.00  VIB.     0.1228D+04                  4407.3830    32.4946    29.8752
         ROT.     0.7984D+06                   834.6267     2.9808    29.9878
         INT.     0.9801D+09                  5242.0097    35.4754    59.8629
         TRA.     0.1400D+28                  1391.0445     4.9680    40.3280
         TOT.                       21.437    6633.0542    40.4435   100.1909

 290.00  VIB.     0.1629D+04                  4739.5560    33.9428    31.0407
         ROT.     0.8416D+06                   864.4348     2.9808    30.0924
         INT.     0.1371D+10                  5603.9908    36.9236    61.1330
         TRA.     0.1476D+28                  1440.7247     4.9680    40.5023
         TOT.                       21.849    7044.7155    41.8916   101.6353

 300.00  VIB.     0.2165D+04                  5086.2861    35.4053    32.2160
         ROT.     0.8855D+06                   894.2429     2.9808    30.1934
         INT.     0.1917D+10                  5980.5290    38.3861    62.4094
         TRA.     0.1553D+28                  1490.4049     4.9680    40.6707
         TOT.                       22.275    7470.9339    43.3541   103.0801

 310.00  VIB.     0.2878D+04                  5447.6948    36.8777    33.4009
         ROT.     0.9301D+06                   924.0510     2.9808    30.2911
         INT.     0.2677D+10                  6371.7459    39.8586    63.6921
         TRA.     0.1631D+28                  1540.0850     4.9680    40.8336
         TOT.                       22.716    7911.8309    44.8266   104.5257

 320.00  VIB.     0.3830D+04                  5823.8597    38.3558    34.5951
         ROT.     0.9755D+06                   953.8591     2.9808    30.3858
         INT.     0.3736D+10                  6777.7188    41.3366    64.9808
         TRA.     0.1711D+28                  1589.7652     4.9680    40.9914
         TOT.                       23.172    8367.4840    46.3046   105.9722

 330.00  VIB.     0.5101D+04                  6214.8164    39.8355    35.7980
         ROT.     0.1022D+07                   983.6672     2.9808    30.4775
         INT.     0.5211D+10                  7198.4836    42.8163    66.2755
         TRA.     0.1791D+28                  1639.4454     4.9680    41.1442
         TOT.                       23.642    8837.9290    47.7843   107.4197

 340.00  VIB.     0.6802D+04                  6620.5623    41.3130    37.0091
         ROT.     0.1068D+07                  1013.4753     2.9808    30.5665
         INT.     0.7267D+10                  7634.0376    44.2938    67.5756
         TRA.     0.1874D+28                  1689.1255     4.9680    41.2926
         TOT.                       24.127    9323.1631    49.2619   108.8682

 350.00  VIB.     0.9078D+04                  7041.0587    42.7851    38.2280
         ROT.     0.1116D+07                  1043.2834     2.9808    30.6529
         INT.     0.1013D+11                  8084.3422    45.7659    68.8809
         TRA.     0.1957D+28                  1738.8057     4.9680    41.4366
         TOT.                       24.627    9823.1478    50.7339   110.3174

 360.00  VIB.     0.1213D+05                  7476.2353    44.2486    39.4538
         ROT.     0.1164D+07                  1073.0915     2.9808    30.7369
         INT.     0.1412D+11                  8549.3268    47.2294    70.1907
         TRA.     0.2041D+28                  1788.4859     4.9680    41.5765
         TOT.                       25.142   10337.8126    52.1974   111.7672

 370.00  VIB.     0.1622D+05                  7925.9924    45.7008    40.6860
         ROT.     0.1213D+07                  1102.8996     2.9808    30.8185
         INT.     0.1968D+11                  9028.8920    48.6816    71.5045
         TRA.     0.2127D+28                  1838.1660     4.9680    41.7126
         TOT.                       25.671   10867.0581    53.6496   113.2172

 380.00  VIB.     0.2172D+05                  8390.2056    47.1394    41.9239
         ROT.     0.1262D+07                  1132.7077     2.9808    30.8980
         INT.     0.2742D+11                  9522.9133    50.1202    72.8219
         TRA.     0.2214D+28                  1887.8462     4.9680    41.8451
         TOT.                       26.215   11410.7594    55.0882   114.6670

 390.00  VIB.     0.2911D+05                  8868.7279    48.5623    43.1668
         ROT.     0.1312D+07                  1162.5158     2.9808    30.9755
         INT.     0.3821D+11                 10031.2437    51.5431    74.1422
         TRA.     0.2302D+28                  1937.5263     4.9680    41.9742
         TOT.                       26.773   11968.7700    56.5111   116.1164

 400.00  VIB.     0.3906D+05                  9361.3937    49.9678    44.4140
         ROT.     0.1363D+07                  1192.3239     2.9808    31.0509
         INT.     0.5325D+11                 10553.7176    52.9486    75.4650
         TRA.     0.2391D+28                  1987.2065     4.9680    42.1000
         TOT.                       27.345   12540.9241    57.9166   117.5649

   *: NOTE: HEATS OF FORMATION ARE RELATIVE TO THE
            ELEMENTS IN THEIR STANDARD STATE AT 298K
              (=  Standard Enthalpy of Formation).

            Hvib:  Zero-point energy is not included.
                   frequencies of less than zero cm-1 are not included.
            Hrot = (3/2)RT
            Htra = (3/2)RT + pV = (5/2)RT

            Heat capacity is Cp, not Cv

           For more information, see: HTTP://OpenMOPAC.net/Manual/thermochemistry.html


           FORCE CONSTANT IN CARTESIAN COORDINATES (Millidynes/A)

    ATOM   CHEMICAL       X               Y               Z
   NUMBER   SYMBOL  FORCE CONSTANT  FORCE CONSTANT  FORCE CONSTANT

      1       C        7.710105        8.207443        8.689607
      2       C        7.710372        8.155814        8.667020
      3       C        8.108708        7.859004        8.591703
      4       C        8.108357        7.852087        8.587741
      5       C        8.384936        9.113462        8.070962
      6       C        8.066178        9.098029        8.387324
      7       C       11.687582       11.338043        4.079372
      8       C        3.870984       11.614830       11.613011
      9       C       11.574099       11.392556        3.551039
     10       C        3.488505       11.653075       11.363803
     11       H        1.365747        1.346045        3.549752
     12       H        1.360383        1.273902        3.628409
     13       H        1.369193        1.482500        3.767449
     14       H        1.560888        1.464474        3.609182
     15       H        1.368713        1.398639        3.852976
     16       H        1.560176        1.551707        3.521857
     17       H        4.500068        1.169639        0.687832
     18       H        1.650258        1.068167        3.670381
     19       H        1.643249        1.002947        3.612190
     20       H        4.482234        1.072203        0.687768
     21       H        3.731226        1.447580        0.965439
     22       H        0.932018        1.350731        3.942099
     23       H        4.144633        1.331465        0.992630
     24       H        0.657771        5.427489        0.393439
     25       H        0.393511        5.392888        0.689726
     26       H        0.974846        1.202878        4.290142



 TOTAL CPU TIME:             4.20 SECONDS

 == MOPAC DONE ==
