 *******************************************************************************
 ** Site#: 14399           For non-commercial use only        Version 13.159M **
 *******************************************************************************
 ** Cite this work as: MOPAC2012, James J. P. Stewart, Stewart Computational  **
 ** Chemistry, Version 13.159M web: HTTP://OpenMOPAC.net  Days remaining:   6 **
 *******************************************************************************
 **                                                                           **
 **                                MOPAC2012                                  **
 **                                                                           **
 *******************************************************************************

                            PM3 CALCULATION RESULTS


 *******************************************************************************
 *  CALCULATION DONE:                                Mon Jun  2 11:10:46 2014  *
 *  PM3      - The PM3 Hamiltonian to be used
 *  PRECISE  - CRITERIA TO BE INCREASED BY 100 TIMES
 *  NOSYM    - POINT-GROUP SYMMETRY SET TO C1
 *  T=       - A TIME OF 172800.0 SECONDS REQUESTED
 *  DUMP=N   - RESTART FILE WRITTEN EVERY  7200.000 SECONDS
 *******************************************************************************
pm3  precise nosym
 InChI=1S/C10H14/c1-3-8-7(2)9-5-4-6-10(8)9/h3-4,6-10H,1,5H2,2H3

   ATOM   CHEMICAL          X               Y               Z
  NUMBER   SYMBOL      (ANGSTROMS)     (ANGSTROMS)     (ANGSTROMS)
 
     1       C         -1.16660000  *   0.56840000  *   0.47810000  *
     2       C          0.19500000  *   1.18120000  *  -0.00630000  *
     3       C         -0.42300000  *  -0.73410000  *   0.76630000  *
     4       C          0.90080000  *  -0.07130000  *   0.52480000  *
     5       C         -2.20160000  *   0.26840000  *  -0.61180000  *
     6       C          0.57900000  *   2.48820000  *   0.68460000  *
     7       C         -0.95110000  *  -1.67790000  *  -0.26800000  *
     8       C         -1.91120000  *  -1.13780000  *  -1.00270000  *
     9       C          1.85670000  *  -0.73260000  *  -0.43630000  *
    10       C          2.46090000  *  -1.88510000  *  -0.13890000  *
    11       H         -1.59230000  *   1.04080000  *   1.39580000  *
    12       H          0.24750000  *   1.28950000  *  -1.11670000  *
    13       H         -0.57040000  *  -1.11440000  *   1.80420000  *
    14       H          1.41800000  *   0.11770000  *   1.49710000  *
    15       H         -2.11830000  *   0.95630000  *  -1.48380000  *
    16       H         -3.23580000  *   0.32320000  *  -0.20180000  *
    17       H          0.51030000  *   2.41380000  *   1.79420000  *
    18       H         -0.09900000  *   3.30350000  *   0.34560000  *
    19       H          1.62300000  *   2.76310000  *   0.41250000  *
    20       H         -2.43380000  *  -1.67150000  *  -1.79390000  *
    21       H         -0.59740000  *  -2.69850000  *  -0.39900000  *
    22       H          2.08220000  *  -0.25890000  *  -1.39090000  *
    23       H          2.27420000  *  -2.39360000  *   0.80580000  *
    24       H          3.15290000  *  -2.33840000  *  -0.84590000  *
 


          CARTESIAN COORDINATES 

    NO.       ATOM         X         Y         Z

     1         C       -1.1666    0.5684    0.4781
     2         C        0.1950    1.1812   -0.0063
     3         C       -0.4230   -0.7341    0.7663
     4         C        0.9008   -0.0713    0.5248
     5         C       -2.2016    0.2684   -0.6118
     6         C        0.5790    2.4882    0.6846
     7         C       -0.9511   -1.6779   -0.2680
     8         C       -1.9112   -1.1378   -1.0027
     9         C        1.8567   -0.7326   -0.4363
    10         C        2.4609   -1.8851   -0.1389
    11         H       -1.5923    1.0408    1.3958
    12         H        0.2475    1.2895   -1.1167
    13         H       -0.5704   -1.1144    1.8042
    14         H        1.4180    0.1177    1.4971
    15         H       -2.1183    0.9563   -1.4838
    16         H       -3.2358    0.3232   -0.2018
    17         H        0.5103    2.4138    1.7942
    18         H       -0.0990    3.3035    0.3456
    19         H        1.6230    2.7631    0.4125
    20         H       -2.4338   -1.6715   -1.7939
    21         H       -0.5974   -2.6985   -0.3990
    22         H        2.0822   -0.2589   -1.3909
    23         H        2.2742   -2.3936    0.8058
    24         H        3.1529   -2.3384   -0.8459

  H: (PM3): J. J. P. STEWART, J. COMP. CHEM. 10, 209 (1989).
  C: (PM3): J. J. P. STEWART, J. COMP. CHEM. 10, 209 (1989).

           Empirical Formula: C10 H14  =    24 atoms



      MOLECULAR POINT GROUP   :   C1  


      RHF CALCULATION, NO. OF DOUBLY OCCUPIED LEVELS =   27

      Geometry optimization using EF

          DIAGONAL MATRIX USED AS START HESSIAN

 CYCLE:     1 TIME:   0.011 TIME LEFT:  2.00D  GRAD.:   109.188 HEAT: 35.20296
 CYCLE:     2 TIME:   0.015 TIME LEFT:  2.00D  GRAD.:   128.801 HEAT: 34.72254
 CYCLE:     3 TIME:   0.015 TIME LEFT:  2.00D  GRAD.:    53.757 HEAT: 31.99386
 CYCLE:     4 TIME:   0.014 TIME LEFT:  2.00D  GRAD.:    35.356 HEAT: 31.39369
 CYCLE:     5 TIME:   0.008 TIME LEFT:  2.00D  GRAD.:    38.571 HEAT: 31.15300
 CYCLE:     6 TIME:   0.008 TIME LEFT:  2.00D  GRAD.:    27.224 HEAT: 30.71124
 CYCLE:     7 TIME:   0.015 TIME LEFT:  2.00D  GRAD.:    22.441 HEAT: 30.54165
 CYCLE:     8 TIME:   0.008 TIME LEFT:  2.00D  GRAD.:    24.167 HEAT: 30.42726
 CYCLE:     9 TIME:   0.008 TIME LEFT:  2.00D  GRAD.:    22.604 HEAT: 30.35003
 CYCLE:    10 TIME:   0.008 TIME LEFT:  2.00D  GRAD.:    25.572 HEAT: 30.32740
 CYCLE:    11 TIME:   0.008 TIME LEFT:  2.00D  GRAD.:    26.471 HEAT: 30.32693
 CYCLE:    12 TIME:   0.008 TIME LEFT:  2.00D  GRAD.:    26.190 HEAT: 30.32462
 CYCLE:    13 TIME:   0.008 TIME LEFT:  2.00D  GRAD.:    24.971 HEAT: 30.29517
 CYCLE:    14 TIME:   0.008 TIME LEFT:  2.00D  GRAD.:    24.205 HEAT: 30.28731
 CYCLE:    15 TIME:   0.014 TIME LEFT:  2.00D  GRAD.:     9.626 HEAT: 30.15117
 CYCLE:    16 TIME:   0.014 TIME LEFT:  2.00D  GRAD.:     5.595 HEAT: 30.12586
 CYCLE:    17 TIME:   0.008 TIME LEFT:  2.00D  GRAD.:     6.599 HEAT: 30.12423
 CYCLE:    18 TIME:   0.008 TIME LEFT:  2.00D  GRAD.:     8.269 HEAT: 30.12206
 CYCLE:    19 TIME:   0.008 TIME LEFT:  2.00D  GRAD.:     7.889 HEAT: 30.11816
 CYCLE:    20 TIME:   0.008 TIME LEFT:  2.00D  GRAD.:     8.031 HEAT: 30.11050
 CYCLE:    21 TIME:   0.008 TIME LEFT:  2.00D  GRAD.:     5.428 HEAT: 30.09670
 CYCLE:    22 TIME:   0.008 TIME LEFT:  2.00D  GRAD.:     7.749 HEAT: 30.09379
 CYCLE:    23 TIME:   0.007 TIME LEFT:  2.00D  GRAD.:     7.337 HEAT: 30.08451
 CYCLE:    24 TIME:   0.007 TIME LEFT:  2.00D  GRAD.:     8.722 HEAT: 30.07957
 CYCLE:    25 TIME:   0.008 TIME LEFT:  2.00D  GRAD.:     9.441 HEAT: 30.07251
 CYCLE:    26 TIME:   0.008 TIME LEFT:  2.00D  GRAD.:     5.025 HEAT: 30.04799
 CYCLE:    27 TIME:   0.014 TIME LEFT:  2.00D  GRAD.:     5.973 HEAT: 30.04336
 CYCLE:    28 TIME:   0.007 TIME LEFT:  2.00D  GRAD.:     3.346 HEAT: 30.02924
 CYCLE:    29 TIME:   0.008 TIME LEFT:  2.00D  GRAD.:     3.768 HEAT: 30.01840
 CYCLE:    30 TIME:   0.008 TIME LEFT:  2.00D  GRAD.:     3.452 HEAT: 30.00238
 CYCLE:    31 TIME:   0.008 TIME LEFT:  2.00D  GRAD.:     3.237 HEAT: 29.97148
 CYCLE:    32 TIME:   0.008 TIME LEFT:  2.00D  GRAD.:     3.818 HEAT: 29.92652
 CYCLE:    33 TIME:   0.008 TIME LEFT:  2.00D  GRAD.:     4.747 HEAT: 29.88982
 CYCLE:    34 TIME:   0.008 TIME LEFT:  2.00D  GRAD.:     3.593 HEAT: 29.86525
 CYCLE:    35 TIME:   0.008 TIME LEFT:  2.00D  GRAD.:     3.704 HEAT: 29.84122
 CYCLE:    36 TIME:   0.008 TIME LEFT:  2.00D  GRAD.:     4.743 HEAT: 29.78864
 CYCLE:    37 TIME:   0.008 TIME LEFT:  2.00D  GRAD.:     4.416 HEAT: 29.76368
 CYCLE:    38 TIME:   0.008 TIME LEFT:  2.00D  GRAD.:     3.445 HEAT: 29.74335
 CYCLE:    39 TIME:   0.008 TIME LEFT:  2.00D  GRAD.:     2.800 HEAT: 29.71752
 CYCLE:    40 TIME:   0.008 TIME LEFT:  2.00D  GRAD.:     2.623 HEAT: 29.70194
 CYCLE:    41 TIME:   0.008 TIME LEFT:  2.00D  GRAD.:     2.353 HEAT: 29.69237
 CYCLE:    42 TIME:   0.008 TIME LEFT:  2.00D  GRAD.:     1.461 HEAT: 29.68613
 CYCLE:    43 TIME:   0.008 TIME LEFT:  2.00D  GRAD.:     1.433 HEAT: 29.68154
 CYCLE:    44 TIME:   0.008 TIME LEFT:  2.00D  GRAD.:     1.277 HEAT: 29.67818
 CYCLE:    45 TIME:   0.008 TIME LEFT:  2.00D  GRAD.:     0.982 HEAT: 29.67522
 CYCLE:    46 TIME:   0.008 TIME LEFT:  2.00D  GRAD.:     1.167 HEAT: 29.67236
 CYCLE:    47 TIME:   0.008 TIME LEFT:  2.00D  GRAD.:     1.102 HEAT: 29.67008
 CYCLE:    48 TIME:   0.008 TIME LEFT:  2.00D  GRAD.:     1.018 HEAT: 29.66735
 CYCLE:    49 TIME:   0.008 TIME LEFT:  2.00D  GRAD.:     1.004 HEAT: 29.66433
 CYCLE:    50 TIME:   0.008 TIME LEFT:  2.00D  GRAD.:     0.975 HEAT: 29.66231
 CYCLE:    51 TIME:   0.008 TIME LEFT:  2.00D  GRAD.:     0.952 HEAT: 29.65991
 CYCLE:    52 TIME:   0.008 TIME LEFT:  2.00D  GRAD.:     0.844 HEAT: 29.65822
 CYCLE:    53 TIME:   0.008 TIME LEFT:  2.00D  GRAD.:     0.687 HEAT: 29.65689
 CYCLE:    54 TIME:   0.008 TIME LEFT:  2.00D  GRAD.:     0.661 HEAT: 29.65570
 CYCLE:    55 TIME:   0.008 TIME LEFT:  2.00D  GRAD.:     0.719 HEAT: 29.65446
 CYCLE:    56 TIME:   0.008 TIME LEFT:  2.00D  GRAD.:     0.804 HEAT: 29.65306
 CYCLE:    57 TIME:   0.008 TIME LEFT:  2.00D  GRAD.:     0.811 HEAT: 29.65157
 CYCLE:    58 TIME:   0.008 TIME LEFT:  2.00D  GRAD.:     0.840 HEAT: 29.64990
 CYCLE:    59 TIME:   0.008 TIME LEFT:  2.00D  GRAD.:     0.809 HEAT: 29.64805
 CYCLE:    60 TIME:   0.008 TIME LEFT:  2.00D  GRAD.:     0.849 HEAT: 29.64618
 CYCLE:    61 TIME:   0.008 TIME LEFT:  2.00D  GRAD.:     0.880 HEAT: 29.64448
 CYCLE:    62 TIME:   0.008 TIME LEFT:  2.00D  GRAD.:     0.907 HEAT: 29.64241
 CYCLE:    63 TIME:   0.008 TIME LEFT:  2.00D  GRAD.:     0.931 HEAT: 29.64017
 CYCLE:    64 TIME:   0.008 TIME LEFT:  2.00D  GRAD.:     0.914 HEAT: 29.63785
 CYCLE:    65 TIME:   0.008 TIME LEFT:  2.00D  GRAD.:     0.969 HEAT: 29.63567
 CYCLE:    66 TIME:   0.008 TIME LEFT:  2.00D  GRAD.:     0.982 HEAT: 29.63357
 CYCLE:    67 TIME:   0.008 TIME LEFT:  2.00D  GRAD.:     1.063 HEAT: 29.63103
 CYCLE:    68 TIME:   0.008 TIME LEFT:  2.00D  GRAD.:     1.069 HEAT: 29.62822
 CYCLE:    69 TIME:   0.008 TIME LEFT:  2.00D  GRAD.:     1.159 HEAT: 29.62451
 CYCLE:    70 TIME:   0.008 TIME LEFT:  2.00D  GRAD.:     1.455 HEAT: 29.62026
 CYCLE:    71 TIME:   0.008 TIME LEFT:  2.00D  GRAD.:     1.838 HEAT: 29.61425
 CYCLE:    72 TIME:   0.008 TIME LEFT:  2.00D  GRAD.:     2.006 HEAT: 29.60589
 CYCLE:    73 TIME:   0.008 TIME LEFT:  2.00D  GRAD.:     2.976 HEAT: 29.59908
 CYCLE:    74 TIME:   0.008 TIME LEFT:  2.00D  GRAD.:     1.649 HEAT: 29.59087
 CYCLE:    75 TIME:   0.008 TIME LEFT:  2.00D  GRAD.:     1.657 HEAT: 29.58458
 CYCLE:    76 TIME:   0.008 TIME LEFT:  2.00D  GRAD.:     2.858 HEAT: 29.56975
 CYCLE:    77 TIME:   0.008 TIME LEFT:  2.00D  GRAD.:     3.501 HEAT: 29.55642
 CYCLE:    78 TIME:   0.008 TIME LEFT:  2.00D  GRAD.:     5.089 HEAT: 29.51771
 CYCLE:    79 TIME:   0.008 TIME LEFT:  2.00D  GRAD.:     3.274 HEAT: 29.48892
 CYCLE:    80 TIME:   0.008 TIME LEFT:  2.00D  GRAD.:    10.389 HEAT: 29.48342
 CYCLE:    81 TIME:   0.008 TIME LEFT:  2.00D  GRAD.:     3.653 HEAT: 29.45346
 CYCLE:    82 TIME:   0.008 TIME LEFT:  2.00D  GRAD.:     2.513 HEAT: 29.43598
 CYCLE:    83 TIME:   0.008 TIME LEFT:  2.00D  GRAD.:     4.651 HEAT: 29.41911
 CYCLE:    84 TIME:   0.008 TIME LEFT:  2.00D  GRAD.:     3.693 HEAT: 29.40498
 CYCLE:    85 TIME:   0.008 TIME LEFT:  2.00D  GRAD.:     4.194 HEAT: 29.37235
 CYCLE:    86 TIME:   0.007 TIME LEFT:  2.00D  GRAD.:     3.814 HEAT: 29.36023
 CYCLE:    87 TIME:   0.008 TIME LEFT:  2.00D  GRAD.:    10.746 HEAT: 29.33458
 CYCLE:    88 TIME:   0.008 TIME LEFT:  2.00D  GRAD.:     5.788 HEAT: 29.28331
 CYCLE:    89 TIME:   0.008 TIME LEFT:  2.00D  GRAD.:     3.980 HEAT: 29.25868
 CYCLE:    90 TIME:   0.008 TIME LEFT:  2.00D  GRAD.:     3.771 HEAT: 29.24226
 CYCLE:    91 TIME:   0.008 TIME LEFT:  2.00D  GRAD.:     5.197 HEAT: 29.21304
 CYCLE:    92 TIME:   0.014 TIME LEFT:  2.00D  GRAD.:     4.474 HEAT: 29.20818
 CYCLE:    93 TIME:   0.008 TIME LEFT:  2.00D  GRAD.:     8.103 HEAT: 29.20484
 CYCLE:    94 TIME:   0.008 TIME LEFT:  2.00D  GRAD.:     1.852 HEAT: 29.19078
 CYCLE:    95 TIME:   0.008 TIME LEFT:  2.00D  GRAD.:     1.429 HEAT: 29.18517
 CYCLE:    96 TIME:   0.008 TIME LEFT:  2.00D  GRAD.:     1.417 HEAT: 29.17725
 CYCLE:    97 TIME:   0.008 TIME LEFT:  2.00D  GRAD.:     2.403 HEAT: 29.16670
 CYCLE:    98 TIME:   0.008 TIME LEFT:  2.00D  GRAD.:     2.316 HEAT: 29.16055
 CYCLE:    99 TIME:   0.008 TIME LEFT:  2.00D  GRAD.:     3.510 HEAT: 29.14914
 CYCLE:   100 TIME:   0.008 TIME LEFT:  2.00D  GRAD.:     2.388 HEAT: 29.14069
 CYCLE:   101 TIME:   0.008 TIME LEFT:  2.00D  GRAD.:     3.223 HEAT: 29.12525
 CYCLE:   102 TIME:   0.008 TIME LEFT:  2.00D  GRAD.:     1.791 HEAT: 29.11874
 CYCLE:   103 TIME:   0.008 TIME LEFT:  2.00D  GRAD.:     2.221 HEAT: 29.10908
 CYCLE:   104 TIME:   0.008 TIME LEFT:  2.00D  GRAD.:     2.286 HEAT: 29.10241
 CYCLE:   105 TIME:   0.008 TIME LEFT:  2.00D  GRAD.:     1.648 HEAT: 29.09503
 CYCLE:   106 TIME:   0.008 TIME LEFT:  2.00D  GRAD.:     2.048 HEAT: 29.09131
 CYCLE:   107 TIME:   0.008 TIME LEFT:  2.00D  GRAD.:     1.777 HEAT: 29.08459
 CYCLE:   108 TIME:   0.008 TIME LEFT:  2.00D  GRAD.:     2.285 HEAT: 29.07807
 CYCLE:   109 TIME:   0.008 TIME LEFT:  2.00D  GRAD.:     2.267 HEAT: 29.06719
 CYCLE:   110 TIME:   0.008 TIME LEFT:  2.00D  GRAD.:     2.727 HEAT: 29.05430
 CYCLE:   111 TIME:   0.008 TIME LEFT:  2.00D  GRAD.:     2.711 HEAT: 29.04697
 CYCLE:   112 TIME:   0.008 TIME LEFT:  2.00D  GRAD.:     2.457 HEAT: 29.03618
 CYCLE:   113 TIME:   0.008 TIME LEFT:  2.00D  GRAD.:     3.140 HEAT: 29.02325
 CYCLE:   114 TIME:   0.008 TIME LEFT:  2.00D  GRAD.:     1.426 HEAT: 29.01556
 CYCLE:   115 TIME:   0.008 TIME LEFT:  2.00D  GRAD.:     1.215 HEAT: 29.01155
 CYCLE:   116 TIME:   0.008 TIME LEFT:  2.00D  GRAD.:     1.326 HEAT: 29.00842
 CYCLE:   117 TIME:   0.008 TIME LEFT:  2.00D  GRAD.:     1.101 HEAT: 29.00681
 CYCLE:   118 TIME:   0.008 TIME LEFT:  2.00D  GRAD.:     1.136 HEAT: 29.00465
 CYCLE:   119 TIME:   0.008 TIME LEFT:  2.00D  GRAD.:     0.909 HEAT: 29.00282
 CYCLE:   120 TIME:   0.009 TIME LEFT:  2.00D  GRAD.:     1.236 HEAT: 29.00129
 CYCLE:   121 TIME:   0.008 TIME LEFT:  2.00D  GRAD.:     1.158 HEAT: 28.99910
 CYCLE:   122 TIME:   0.008 TIME LEFT:  2.00D  GRAD.:     1.630 HEAT: 28.99740
 CYCLE:   123 TIME:   0.008 TIME LEFT:  2.00D  GRAD.:     1.034 HEAT: 28.99603
 CYCLE:   124 TIME:   0.008 TIME LEFT:  2.00D  GRAD.:     0.868 HEAT: 28.99503
 CYCLE:   125 TIME:   0.008 TIME LEFT:  2.00D  GRAD.:     0.617 HEAT: 28.99417
 CYCLE:   126 TIME:   0.008 TIME LEFT:  2.00D  GRAD.:     0.533 HEAT: 28.99384
 CYCLE:   127 TIME:   0.008 TIME LEFT:  2.00D  GRAD.:     0.550 HEAT: 28.99340
 CYCLE:   128 TIME:   0.008 TIME LEFT:  2.00D  GRAD.:     0.516 HEAT: 28.99307
 CYCLE:   129 TIME:   0.008 TIME LEFT:  2.00D  GRAD.:     0.568 HEAT: 28.99181
 CYCLE:   130 TIME:   0.008 TIME LEFT:  2.00D  GRAD.:     0.359 HEAT: 28.99148
 CYCLE:   131 TIME:   0.008 TIME LEFT:  2.00D  GRAD.:     0.704 HEAT: 28.99124
 CYCLE:   132 TIME:   0.008 TIME LEFT:  2.00D  GRAD.:     0.329 HEAT: 28.99101
 CYCLE:   133 TIME:   0.008 TIME LEFT:  2.00D  GRAD.:     0.301 HEAT: 28.99087
 CYCLE:   134 TIME:   0.008 TIME LEFT:  2.00D  GRAD.:     0.422 HEAT: 28.99057
 CYCLE:   135 TIME:   0.008 TIME LEFT:  2.00D  GRAD.:     0.366 HEAT: 28.99035
 CYCLE:   136 TIME:   0.008 TIME LEFT:  2.00D  GRAD.:     0.810 HEAT: 28.99010
 CYCLE:   137 TIME:   0.008 TIME LEFT:  2.00D  GRAD.:     0.380 HEAT: 28.98975
 CYCLE:   138 TIME:   0.008 TIME LEFT:  2.00D  GRAD.:     0.372 HEAT: 28.98953
 CYCLE:   139 TIME:   0.008 TIME LEFT:  2.00D  GRAD.:     0.784 HEAT: 28.98914
 CYCLE:   140 TIME:   0.008 TIME LEFT:  2.00D  GRAD.:     0.400 HEAT: 28.98879
 CYCLE:   141 TIME:   0.008 TIME LEFT:  2.00D  GRAD.:     0.247 HEAT: 28.98850
 CYCLE:   142 TIME:   0.008 TIME LEFT:  2.00D  GRAD.:     0.170 HEAT: 28.98838
 CYCLE:   143 TIME:   0.008 TIME LEFT:  2.00D  GRAD.:     0.324 HEAT: 28.98816
 CYCLE:   144 TIME:   0.008 TIME LEFT:  2.00D  GRAD.:     0.390 HEAT: 28.98805
 CYCLE:   145 TIME:   0.009 TIME LEFT:  2.00D  GRAD.:     0.932 HEAT: 28.98976
 CYCLE:   146 TIME:   0.009 TIME LEFT:  2.00D  GRAD.:     0.389 HEAT: 28.98777
 CYCLE:   147 TIME:   0.009 TIME LEFT:  2.00D  GRAD.:     0.280 HEAT: 28.98771
 CYCLE:   148 TIME:   0.008 TIME LEFT:  2.00D  GRAD.:     0.425 HEAT: 28.98758
 CYCLE:   149 TIME:   0.008 TIME LEFT:  2.00D  GRAD.:     0.224 HEAT: 28.98746
 CYCLE:   150 TIME:   0.011 TIME LEFT:  2.00D  GRAD.:     0.174 HEAT: 28.98731
 CYCLE:   151 TIME:   0.009 TIME LEFT:  2.00D  GRAD.:     0.157 HEAT: 28.98723
 CYCLE:   152 TIME:   0.008 TIME LEFT:  2.00D  GRAD.:     0.110 HEAT: 28.98715
 CYCLE:   153 TIME:   0.008 TIME LEFT:  2.00D  GRAD.:     0.080 HEAT: 28.98714
 CYCLE:   154 TIME:   0.009 TIME LEFT:  2.00D  GRAD.:     0.103 HEAT: 28.98713
 CYCLE:   155 TIME:   0.010 TIME LEFT:  2.00D  GRAD.:     0.046 HEAT: 28.98712

     RMS GRADIENT =  0.04561  IS LESS THAN CUTOFF =  0.05000



 -------------------------------------------------------------------------------
pm3  precise nosym
 InChI=1S/C10H14/c1-3-8-7(2)9-5-4-6-10(8)9/h3-4,6-10H,1,5H2,2H3



     GEOMETRY OPTIMISED USING EIGENVECTOR FOLLOWING (EF).     
     SCF FIELD WAS ACHIEVED                                   


                              PM3 CALCULATION
                                                       MOPAC2012 (Version: 13.159M)
                                                       Mon Jun  2 11:10:48 2014
                                                       No. of days left =   6




          FINAL HEAT OF FORMATION =         28.98712 KCAL/MOL =     121.28212 KJ/MOL


          TOTAL ENERGY            =      -1399.80466 EV
          ELECTRONIC ENERGY       =      -8038.72702 EV  POINT GROUP:     C1  
          CORE-CORE REPULSION     =       6638.92236 EV
          COSMO AREA              =        185.64 SQUARE ANGSTROMS
          COSMO VOLUME            =        193.02 CUBIC ANGSTROMS

          GRADIENT NORM           =          0.04561
          IONIZATION POTENTIAL    =          9.590640 EV
          HOMO LUMO ENERGIES (EV) =         -9.591  1.018
          NO. OF FILLED LEVELS    =         27
          MOLECULAR WEIGHT        =        134.221

          MOLECULAR DIMENSIONS (Angstroms)

            Atom       Atom       Distance
            H    23    H    20     6.53665
            H    18    H    24     5.88020
            H    12    H    13     3.86063


          SCF CALCULATIONS        =        164
          COMPUTATION TIME        =          1.314 SECONDS




   ATOM   CHEMICAL          X               Y               Z
  NUMBER   SYMBOL      (ANGSTROMS)     (ANGSTROMS)     (ANGSTROMS)
 
     1       C         -1.18441208  *   0.63365299  *   0.38713494  *
     2       C          0.25777688  *   1.09370679  *   0.04891155  *
     3       C         -0.63027452  *  -0.75404424  *   0.84601364  *
     4       C          0.82022007  *  -0.26352419  *   0.57707157  *
     5       C         -2.10323131  *   0.35289168  *  -0.80300916  *
     6       C          0.72775155  *   2.30769929  *   0.80483785  *
     7       C         -1.21524111  *  -1.73148008  *  -0.12035577  *
     8       C         -2.02354517  *  -1.13089315  *  -1.00412880  *
     9       C          1.60161567  *  -1.02624129  *  -0.42673071  *
    10       C          2.88772369  *  -1.31717946  *  -0.26884701  *
    11       H         -1.67503589  *   1.24172824  *   1.16999812  *
    12       H          0.42660997  *   1.23255534  *  -1.04113210  *
    13       H         -0.82181702  *  -1.04654469  *   1.89512600  *
    14       H          1.39752905  *  -0.14504882  *   1.52067035  *
    15       H         -1.78839599  *   0.89595917  *  -1.71387150  *
    16       H         -3.14525015  *   0.66267051  *  -0.60200636  *
    17       H          0.56982286  *   2.20711423  *   1.88740601  *
    18       H          0.19087403  *   3.20737969  *   0.47759095  *
    19       H          1.79959543  *   2.48101932  *   0.64430126  *
    20       H         -2.58598305  *  -1.61892540  *  -1.79981570  *
    21       H         -0.98618677  *  -2.79510490  *  -0.06324098  *
    22       H          1.05167869  *  -1.33857661  *  -1.32410425  *
    23       H          3.46265164  *  -1.02905837  *   0.60723476  *
    24       H          3.45720563  *  -1.86765361  *  -1.01135128  *

           Empirical Formula: C10 H14  =    24 atoms



      MOLECULAR POINT GROUP   :   C1  


                  EIGENVALUES  
 -42.71147 -34.67110 -32.57015 -28.63698 -27.18262 -23.64106 -21.49250 -20.15009
 -18.78273 -18.00416 -17.46476 -16.39284 -15.54795 -15.28205 -14.43488 -14.41306
 -13.71439 -13.46742 -13.10001 -12.71791 -12.57564 -12.17613 -11.72540 -11.56601
 -11.32682 -10.13641  -9.59064   1.01756   1.16972   3.22205   3.25026   3.39518
   3.50164   3.61775   3.71827   3.86609   3.89119   4.03735   4.04720   4.15970
   4.17167   4.25615   4.31545   4.43950   4.56463   4.68009   4.78961   4.89836
   5.20266   5.47658   5.52843   5.85205   5.96151   6.00713


              NET ATOMIC CHARGES AND DIPOLE CONTRIBUTIONS

  ATOM NO.   TYPE          CHARGE      No. of ELECS.   s-Pop       p-Pop       
    1          C          -0.103954        4.1040     1.20146     2.90249
    2          C          -0.082862        4.0829     1.19285     2.89001
    3          C          -0.057507        4.0575     1.18721     2.87030
    4          C          -0.053453        4.0535     1.18320     2.87026
    5          C          -0.057018        4.0570     1.15305     2.90397
    6          C          -0.102727        4.1027     1.13734     2.96539
    7          C          -0.141958        4.1420     1.19888     2.94308
    8          C          -0.151055        4.1511     1.20472     2.94634
    9          C          -0.127949        4.1279     1.19315     2.93480
   10          C          -0.162658        4.1627     1.18283     2.97983
   11          H           0.080551        0.9194     0.91945
   12          H           0.078911        0.9211     0.92109
   13          H           0.079552        0.9204     0.92045
   14          H           0.075591        0.9244     0.92441
   15          H           0.061218        0.9388     0.93878
   16          H           0.055610        0.9444     0.94439
   17          H           0.039996        0.9600     0.96000
   18          H           0.040175        0.9598     0.95982
   19          H           0.041687        0.9583     0.95831
   20          H           0.109283        0.8907     0.89072
   21          H           0.114175        0.8858     0.88583
   22          H           0.105394        0.8946     0.89461
   23          H           0.080587        0.9194     0.91941
   24          H           0.078412        0.9216     0.92159
 DIPOLE           X         Y         Z       TOTAL
 POINT-CHG.    -0.150     0.263    -0.031     0.305
 HYBRID         0.020    -0.018    -0.015     0.031
 SUM           -0.130     0.245    -0.047     0.281


          ATOMIC ORBITAL ELECTRON POPULATIONS

    Atom      s        px        py        pz   
    1  C   1.20146   0.94846   0.97396   0.98007
    2  C   1.19285   0.95008   0.93774   1.00219
    3  C   1.18721   0.95153   0.93572   0.98305
    4  C   1.18320   0.94261   0.95067   0.97697
    5  C   1.15305   0.98739   0.94353   0.97305
    6  C   1.13734   1.00366   0.96795   0.99378
    7  C   1.19888   0.98808   0.98177   0.97322
    8  C   1.20472   0.99591   0.96207   0.98836
    9  C   1.19315   0.96134   0.98425   0.98921
   10  C   1.18283   0.95989   1.00865   1.01129
   11  H   0.91945
   12  H   0.92109
   13  H   0.92045
   14  H   0.92441
   15  H   0.93878
   16  H   0.94439
   17  H   0.96000
   18  H   0.95982
   19  H   0.95831
   20  H   0.89072
   21  H   0.88583
   22  H   0.89461
   23  H   0.91941
   24  H   0.92159
 *******************************************************************************
 ** Site#: 14399           For non-commercial use only        Version 13.159M **
 *******************************************************************************
 ** Cite this work as: MOPAC2012, James J. P. Stewart, Stewart Computational  **
 ** Chemistry, Version 13.159M web: HTTP://OpenMOPAC.net  Days remaining:   6 **
 *******************************************************************************
 **                                                                           **
 **                                MOPAC2012                                  **
 **                                                                           **
 *******************************************************************************

                            PM3 CALCULATION RESULTS


 *******************************************************************************
 *  CALCULATION DONE:                                Mon Jun  2 11:10:48 2014  *
 *  PM3      - The PM3 Hamiltonian to be used
 *  OLDGEO   - PREVIOUS GEOMETRY TO BE USED
 *  PRECISE  - CRITERIA TO BE INCREASED BY 100 TIMES
 *  NOSYM    - POINT-GROUP SYMMETRY SET TO C1
 *  T=       - A TIME OF 172800.0 SECONDS REQUESTED
 *  DUMP=N   - RESTART FILE WRITTEN EVERY  7200.000 SECONDS
 *  THERMO   - THERMODYNAMIC QUANTITIES TO BE CALCULATED
 *******************************************************************************
oldgeo thermo nosym precise  pm3

   ATOM   CHEMICAL          X               Y               Z
  NUMBER   SYMBOL      (ANGSTROMS)     (ANGSTROMS)     (ANGSTROMS)
 
     1       C         -1.18441208  *   0.63365299  *   0.38713494  *
     2       C          0.25777688  *   1.09370679  *   0.04891155  *
     3       C         -0.63027452  *  -0.75404424  *   0.84601364  *
     4       C          0.82022007  *  -0.26352419  *   0.57707157  *
     5       C         -2.10323131  *   0.35289168  *  -0.80300916  *
     6       C          0.72775155  *   2.30769929  *   0.80483785  *
     7       C         -1.21524111  *  -1.73148008  *  -0.12035577  *
     8       C         -2.02354517  *  -1.13089315  *  -1.00412880  *
     9       C          1.60161567  *  -1.02624129  *  -0.42673071  *
    10       C          2.88772369  *  -1.31717946  *  -0.26884701  *
    11       H         -1.67503589  *   1.24172824  *   1.16999812  *
    12       H          0.42660997  *   1.23255534  *  -1.04113210  *
    13       H         -0.82181702  *  -1.04654469  *   1.89512600  *
    14       H          1.39752905  *  -0.14504882  *   1.52067035  *
    15       H         -1.78839599  *   0.89595917  *  -1.71387150  *
    16       H         -3.14525015  *   0.66267051  *  -0.60200636  *
    17       H          0.56982286  *   2.20711423  *   1.88740601  *
    18       H          0.19087403  *   3.20737969  *   0.47759095  *
    19       H          1.79959543  *   2.48101932  *   0.64430126  *
    20       H         -2.58598305  *  -1.61892540  *  -1.79981570  *
    21       H         -0.98618677  *  -2.79510490  *  -0.06324098  *
    22       H          1.05167869  *  -1.33857661  *  -1.32410425  *
    23       H          3.46265164  *  -1.02905837  *   0.60723476  *
    24       H          3.45720563  *  -1.86765361  *  -1.01135128  *
 


          CARTESIAN COORDINATES 

    NO.       ATOM         X         Y         Z

     1         C       -1.1844    0.6337    0.3871
     2         C        0.2578    1.0937    0.0489
     3         C       -0.6303   -0.7540    0.8460
     4         C        0.8202   -0.2635    0.5771
     5         C       -2.1032    0.3529   -0.8030
     6         C        0.7278    2.3077    0.8048
     7         C       -1.2152   -1.7315   -0.1204
     8         C       -2.0235   -1.1309   -1.0041
     9         C        1.6016   -1.0262   -0.4267
    10         C        2.8877   -1.3172   -0.2688
    11         H       -1.6750    1.2417    1.1700
    12         H        0.4266    1.2326   -1.0411
    13         H       -0.8218   -1.0465    1.8951
    14         H        1.3975   -0.1450    1.5207
    15         H       -1.7884    0.8960   -1.7139
    16         H       -3.1453    0.6627   -0.6020
    17         H        0.5698    2.2071    1.8874
    18         H        0.1909    3.2074    0.4776
    19         H        1.7996    2.4810    0.6443
    20         H       -2.5860   -1.6189   -1.7998
    21         H       -0.9862   -2.7951   -0.0632
    22         H        1.0517   -1.3386   -1.3241
    23         H        3.4627   -1.0291    0.6072
    24         H        3.4572   -1.8677   -1.0114

  H: (PM3): J. J. P. STEWART, J. COMP. CHEM. 10, 209 (1989).
  C: (PM3): J. J. P. STEWART, J. COMP. CHEM. 10, 209 (1989).

           Empirical Formula: C10 H14  =    24 atoms



      MOLECULAR POINT GROUP   :   C1  


      RHF CALCULATION, NO. OF DOUBLY OCCUPIED LEVELS =   27



          HEAT OF FORMATION =      28.987123 KCALS/MOLE


          INTERNAL COORDINATE DERIVATIVES

   NUMBER  ATOM       BOND         ANGLE      DIHEDRAL

     1       C     -0.003260     0.000287    -0.002647
     2       C     -0.005177     0.000727    -0.000855
     3       C      0.000954     0.002704     0.000223
     4       C      0.005364     0.000950    -0.001182
     5       C     -0.004640    -0.005978     0.000276
     6       C     -0.006397    -0.001472    -0.007340
     7       C     -0.000703     0.003181    -0.000483
     8       C     -0.002252    -0.003489     0.005173
     9       C      0.020287    -0.003545     0.005747
    10       C     -0.005753    -0.007026    -0.002719
    11       H      0.004513    -0.001004    -0.001802
    12       H      0.009530     0.001235     0.000517
    13       H     -0.007974    -0.003427     0.001083
    14       H      0.012033     0.001915    -0.001235
    15       H      0.004541     0.000978    -0.000754
    16       H     -0.014224    -0.005945     0.000726
    17       H      0.009487    -0.002902     0.002884
    18       H      0.001869     0.000982    -0.000836
    19       H     -0.008499     0.002819     0.002404
    20       H      0.002871     0.003407     0.000275
    21       H     -0.003092     0.003469     0.003046
    22       H      0.002871     0.014177    -0.009761
    23       H     -0.008570    -0.001391     0.003876
    24       H     -0.003778    -0.000652     0.003385


          GRADIENT NORM =   0.04599


          TIME FOR SCF CALCULATION =    0.01

          TIME FOR DERIVATIVES     =    0.01

          MOLECULAR WEIGHT =  134.22



          ROTATIONAL CONSTANTS IN CM(-1)

          A =    0.06004413   B =    0.04253822   C =    0.02906775



           PRINCIPAL MOMENTS OF INERTIA IN UNITS OF 10**(-40)*GRAM-CM**2

          A =      466.2034   B =      658.0617   C =      963.0182


          ORIENTATION OF MOLECULE IN FORCE CALCULATION

    NO.       ATOM         X         Y         Z

     1          C      -0.8896   -0.9774   -0.5073
     2          C       0.6616   -0.9774   -0.5073
     3          C      -0.8860    0.5857   -0.5073
     4          C       0.6668    0.5819   -0.5833
     5          C      -1.5676   -1.4017    0.7964
     6          C       1.2938   -1.6681   -1.6860
     7          C      -1.5090    0.9638    0.7967
     8          C      -1.8897   -0.1145    1.4948
     9          C       1.3860    1.2397    0.5347
    10          C       2.4611    1.9979    0.3527
    11          H      -1.3361   -1.4603   -1.3965
    12          H       1.0974   -1.3618    0.4405
    13          H      -1.3796    1.0866   -1.3607
    14          H       1.0329    0.9576   -1.5644
    15          H      -0.9152   -2.0411    1.4203
    16          H      -2.4884   -1.9850    0.6119
    17          H       0.8810   -1.3160   -2.6414
    18          H       1.1328   -2.7528   -1.6394
    19          H       2.3768   -1.4916   -1.7115
    20          H      -2.3839   -0.1131    2.4661
    21          H      -1.6240    2.0063    1.0916
    22          H       0.9777    1.0596    1.5378
    23          H       2.8900    2.2021   -0.6247
    24          H       2.9892    2.4693    1.1758


    FIRST DERIVATIVES WILL BE USED IN THE CALCULATION OF SECOND DERIVATIVES

          ESTIMATED TIME TO COMPLETE CALCULATION =        3.44 SECONDS

    FOR POINT-GROUP C1   THERE ARE   1 UNIQUE SYMMETRY FUNCTIONS.

 STEP:   1 TIME =     0.04 SECS, INTEGRAL =      0.04 TIME LEFT: 172799.95
 STEP:   2 TIME =     0.05 SECS, INTEGRAL =      0.09 TIME LEFT: 172799.90
 STEP:   3 TIME =     0.04 SECS, INTEGRAL =      0.13 TIME LEFT: 172799.86
 STEP:   4 TIME =     0.04 SECS, INTEGRAL =      0.16 TIME LEFT: 172799.83
 STEP:   5 TIME =     0.04 SECS, INTEGRAL =      0.20 TIME LEFT: 172799.79
 STEP:   6 TIME =     0.04 SECS, INTEGRAL =      0.23 TIME LEFT: 172799.76
 STEP:   7 TIME =     0.04 SECS, INTEGRAL =      0.27 TIME LEFT: 172799.72
 STEP:   8 TIME =     0.04 SECS, INTEGRAL =      0.30 TIME LEFT: 172799.68
 STEP:   9 TIME =     0.04 SECS, INTEGRAL =      0.34 TIME LEFT: 172799.65
 STEP:  10 TIME =     0.04 SECS, INTEGRAL =      0.38 TIME LEFT: 172799.61
 STEP:  11 TIME =     0.04 SECS, INTEGRAL =      0.41 TIME LEFT: 172799.58
 STEP:  12 TIME =     0.04 SECS, INTEGRAL =      0.45 TIME LEFT: 172799.54
 STEP:  13 TIME =     0.03 SECS, INTEGRAL =      0.48 TIME LEFT: 172799.51
 STEP:  14 TIME =     0.04 SECS, INTEGRAL =      0.52 TIME LEFT: 172799.47
 STEP:  15 TIME =     0.04 SECS, INTEGRAL =      0.55 TIME LEFT: 172799.44
 STEP:  16 TIME =     0.04 SECS, INTEGRAL =      0.59 TIME LEFT: 172799.40
 STEP:  17 TIME =     0.03 SECS, INTEGRAL =      0.62 TIME LEFT: 172799.37
 STEP:  18 TIME =     0.04 SECS, INTEGRAL =      0.67 TIME LEFT: 172799.32
 STEP:  19 TIME =     0.04 SECS, INTEGRAL =      0.70 TIME LEFT: 172799.28
 STEP:  20 TIME =     0.04 SECS, INTEGRAL =      0.74 TIME LEFT: 172799.25
 STEP:  21 TIME =     0.04 SECS, INTEGRAL =      0.78 TIME LEFT: 172799.21
 STEP:  22 TIME =     0.04 SECS, INTEGRAL =      0.81 TIME LEFT: 172799.18
 STEP:  23 TIME =     0.04 SECS, INTEGRAL =      0.85 TIME LEFT: 172799.14
 STEP:  24 TIME =     0.04 SECS, INTEGRAL =      0.88 TIME LEFT: 172799.11
 STEP:  25 TIME =     0.04 SECS, INTEGRAL =      0.92 TIME LEFT: 172799.07
 STEP:  26 TIME =     0.04 SECS, INTEGRAL =      0.95 TIME LEFT: 172799.03
 STEP:  27 TIME =     0.04 SECS, INTEGRAL =      0.99 TIME LEFT: 172799.00
 STEP:  28 TIME =     0.04 SECS, INTEGRAL =      1.03 TIME LEFT: 172798.96
 STEP:  29 TIME =     0.04 SECS, INTEGRAL =      1.06 TIME LEFT: 172798.93
 STEP:  30 TIME =     0.03 SECS, INTEGRAL =      1.10 TIME LEFT: 172798.89
 STEP:  31 TIME =     0.04 SECS, INTEGRAL =      1.13 TIME LEFT: 172798.86
 STEP:  32 TIME =     0.04 SECS, INTEGRAL =      1.17 TIME LEFT: 172798.81
 STEP:  33 TIME =     0.04 SECS, INTEGRAL =      1.21 TIME LEFT: 172798.78
 STEP:  34 TIME =     0.04 SECS, INTEGRAL =      1.25 TIME LEFT: 172798.74
 STEP:  35 TIME =     0.04 SECS, INTEGRAL =      1.28 TIME LEFT: 172798.70
 STEP:  36 TIME =     0.04 SECS, INTEGRAL =      1.32 TIME LEFT: 172798.67
 STEP:  37 TIME =     0.04 SECS, INTEGRAL =      1.36 TIME LEFT: 172798.63
 STEP:  38 TIME =     0.04 SECS, INTEGRAL =      1.39 TIME LEFT: 172798.59
 STEP:  39 TIME =     0.04 SECS, INTEGRAL =      1.43 TIME LEFT: 172798.56
 STEP:  40 TIME =     0.04 SECS, INTEGRAL =      1.47 TIME LEFT: 172798.52
 STEP:  41 TIME =     0.04 SECS, INTEGRAL =      1.50 TIME LEFT: 172798.48
 STEP:  42 TIME =     0.04 SECS, INTEGRAL =      1.54 TIME LEFT: 172798.45
 STEP:  43 TIME =     0.04 SECS, INTEGRAL =      1.57 TIME LEFT: 172798.41
 STEP:  44 TIME =     0.04 SECS, INTEGRAL =      1.61 TIME LEFT: 172798.38
 STEP:  45 TIME =     0.04 SECS, INTEGRAL =      1.65 TIME LEFT: 172798.34
 STEP:  46 TIME =     0.04 SECS, INTEGRAL =      1.68 TIME LEFT: 172798.31
 STEP:  47 TIME =     0.04 SECS, INTEGRAL =      1.72 TIME LEFT: 172798.27
 STEP:  48 TIME =     0.04 SECS, INTEGRAL =      1.75 TIME LEFT: 172798.23
 STEP:  49 TIME =     0.04 SECS, INTEGRAL =      1.79 TIME LEFT: 172798.20
 STEP:  50 TIME =     0.04 SECS, INTEGRAL =      1.83 TIME LEFT: 172798.16
 STEP:  51 TIME =     0.04 SECS, INTEGRAL =      1.86 TIME LEFT: 172798.12
 STEP:  52 TIME =     0.04 SECS, INTEGRAL =      1.90 TIME LEFT: 172798.09
 STEP:  53 TIME =     0.03 SECS, INTEGRAL =      1.93 TIME LEFT: 172798.05
 STEP:  54 TIME =     0.04 SECS, INTEGRAL =      1.97 TIME LEFT: 172798.02
 STEP:  55 TIME =     0.03 SECS, INTEGRAL =      2.01 TIME LEFT: 172797.98
 STEP:  56 TIME =     0.04 SECS, INTEGRAL =      2.05 TIME LEFT: 172797.94
 STEP:  57 TIME =     0.04 SECS, INTEGRAL =      2.09 TIME LEFT: 172797.90
 STEP:  58 TIME =     0.04 SECS, INTEGRAL =      2.13 TIME LEFT: 172797.86
 STEP:  59 TIME =     0.04 SECS, INTEGRAL =      2.16 TIME LEFT: 172797.82
 STEP:  60 TIME =     0.04 SECS, INTEGRAL =      2.20 TIME LEFT: 172797.79
 STEP:  61 TIME =     0.04 SECS, INTEGRAL =      2.24 TIME LEFT: 172797.75
 STEP:  62 TIME =     0.03 SECS, INTEGRAL =      2.27 TIME LEFT: 172797.72
 STEP:  63 TIME =     0.04 SECS, INTEGRAL =      2.31 TIME LEFT: 172797.68
 STEP:  64 TIME =     0.04 SECS, INTEGRAL =      2.35 TIME LEFT: 172797.64
 STEP:  65 TIME =     0.04 SECS, INTEGRAL =      2.38 TIME LEFT: 172797.60
 STEP:  66 TIME =     0.03 SECS, INTEGRAL =      2.42 TIME LEFT: 172797.57
 STEP:  67 TIME =     0.04 SECS, INTEGRAL =      2.46 TIME LEFT: 172797.53
 STEP:  68 TIME =     0.04 SECS, INTEGRAL =      2.49 TIME LEFT: 172797.50
 STEP:  69 TIME =     0.04 SECS, INTEGRAL =      2.53 TIME LEFT: 172797.46
 STEP:  70 TIME =     0.04 SECS, INTEGRAL =      2.57 TIME LEFT: 172797.42
 STEP:  71 TIME =     0.04 SECS, INTEGRAL =      2.61 TIME LEFT: 172797.38
 STEP:  72 TIME =     0.04 SECS, INTEGRAL =      2.64 TIME LEFT: 172797.35

(To convert to Hartree/Bohr^2, multiply by (10^(-21) x N x a0^2)/(4.184 x 627.51) = 0.0642)


           FORCE MATRIX IN MILLIDYNES/ANGSTROM


                  C  1       C  2       C  3       C  4       C  5       C  6
 ------------------------------------------------------------------------------
     C    1  14.436338
     C    2   3.337433  14.375874
     C    3   3.025459   1.776038  14.753611
     C    4   1.744504   3.036379   3.169173  14.690642
     C    5   3.885441   0.500824   0.702198   0.044146  14.683230
     C    6   0.555490   4.625720   0.041078   0.550771   0.035443  14.519146
     C    7   0.841400   0.044634   4.739261   0.524832   1.125816   0.004439
     C    8   0.906289   0.028946   1.183447   0.041424   4.585945   0.003657
     C    9   0.042189   0.580359   0.546023   5.079437   0.006453   0.033091
     C   10   0.005127   0.031405   0.040401   0.861075   0.000897   0.005157
     H   11   4.558077   0.435127   0.419549   0.027861   0.424512   0.032393
     H   12   0.436299   4.388264   0.025449   0.437126   0.031921   0.420706
     H   13   0.410083   0.029966   4.550026   0.431689   0.031000   0.003799
     H   14   0.024400   0.438155   0.426007   4.363283   0.001224   0.035063
     H   15   0.444046   0.033377   0.034279   0.002874   4.491988   0.002187
     H   16   0.437813   0.032275   0.023291   0.005645   4.522146   0.003829
     H   17   0.021082   0.468483   0.002275   0.020730   0.001234   4.708726
     H   18   0.011890   0.450788   0.003895   0.047986   0.001264   4.744772
     H   19   0.048138   0.451392   0.003431   0.012792   0.005979   4.748527
     H   20   0.042864   0.003426   0.114636   0.017173   0.410805   0.001030
     H   21   0.041151   0.002586   0.415927   0.006880   0.113546   0.000714
     H   22   0.001645   0.013276   0.020353   0.439489   0.001820   0.001364
     H   23   0.001172   0.010975   0.008943   0.100624   0.000461   0.001545
     H   24   0.001463   0.017210   0.015137   0.139001   0.000439   0.001750


                  C  7       C  8       C  9       C 10       H 11       H 12
 ------------------------------------------------------------------------------
     C    7  18.285904
     C    8  10.467142  18.245477
     C    9   0.055361   0.015245  18.301427
     C   10   0.007622   0.002273  11.060070  18.033852
     H   11   0.033786   0.033331   0.003125   0.000608   5.067357
     H   12   0.003468   0.002095   0.035128   0.003174   0.028108   4.893419
     H   13   0.414714   0.039959   0.028500   0.004406   0.015820   0.001012
     H   14   0.034541   0.004960   0.443299   0.054600   0.002392   0.029730
     H   15   0.038232   0.431167   0.000946   0.000511   0.020178   0.027641
     H   16   0.037804   0.429002   0.001235   0.000637   0.032656   0.002399
     H   17   0.001075   0.000885   0.000835   0.000616   0.020386   0.044068
     H   18   0.001380   0.000926   0.006295   0.001339   0.005576   0.030057
     H   19   0.000971   0.000776   0.002541   0.000985   0.002776   0.029513
     H   20   0.447682   5.014353   0.002317   0.000893   0.003959   0.000676
     H   21   5.022733   0.447601   0.005729   0.002216   0.003652   0.000631
     H   22   0.023946   0.010210   4.760338   0.450328   0.000743   0.011480
     H   23   0.002188   0.000970   0.491510   5.068582   0.000213   0.000735
     H   24   0.001869   0.000718   0.460769   5.106493   0.000288   0.001018


                  H 13       H 14       H 15       H 16       H 17       H 18
 ------------------------------------------------------------------------------
     H   13   5.051573
     H   14   0.031022   4.859396
     H   15   0.004499   0.000460   5.104631
     H   16   0.001047   0.000348   0.565098   5.123009
     H   17   0.000584   0.022709   0.000452   0.000313   5.450065
     H   18   0.000782   0.002842   0.000462   0.000269   0.572722   5.471395
     H   19   0.000729   0.005464   0.000523   0.000775   0.571413   0.566705
     H   20   0.013062   0.002092   0.013986   0.014811   0.000196   0.000341
     H   21   0.014543   0.001012   0.015376   0.015926   0.000211   0.000410
     H   22   0.001633   0.036479   0.000638   0.000764   0.000639   0.000421
     H   23   0.001199   0.029695   0.000158   0.000136   0.000289   0.000413
     H   24   0.001681   0.002445   0.000158   0.000124   0.000130   0.000232


                  H 19       H 20       H 21       H 22       H 23       H 24
 ------------------------------------------------------------------------------
     H   19   5.473441
     H   20   0.000248   5.409145
     H   21   0.000251   0.047158   5.419044
     H   22   0.000534   0.001740   0.008034   5.129556
     H   23   0.000438   0.000226   0.000613   0.117619   5.466023
     H   24   0.000265   0.000284   0.000688   0.078516   0.422661   5.495033


          HEAT OF FORMATION =      28.987123 KCALS/MOLE

          ZERO POINT ENERGY     132.583 KCAL/MOL


           NORMAL COORDINATE ANALYSIS (Total motion = 1 Angstrom)


   Root No.       1         2         3         4         5         6         7         8

                 1 A       2 A       3 A       4 A       5 A       6 A       7 A       8 A   

                  73.1      81.9     175.4     186.2     247.0     263.9     340.1     362.4
  
           1   -0.0008    0.0087   -0.0043   -0.0107   -0.0137   -0.0044   -0.0075    0.0145
           2   -0.0020   -0.0119   -0.0007    0.0043   -0.0076    0.0179    0.0068   -0.0130
           3    0.0001    0.0145    0.0006   -0.0169   -0.0012   -0.0089   -0.0207    0.0152
           4   -0.0007    0.0083   -0.0036   -0.0104   -0.0121   -0.0070   -0.0118    0.0130
           5   -0.0207    0.0013   -0.0059    0.0076   -0.0062    0.0171   -0.0021    0.0196
           6   -0.0096   -0.0112    0.0005   -0.0072    0.0006   -0.0149    0.0170    0.0158
           7    0.0175   -0.0062    0.0024   -0.0137   -0.0132   -0.0106   -0.0032   -0.0106
           8   -0.0024   -0.0119    0.0000    0.0044   -0.0058    0.0184    0.0078   -0.0130
           9   -0.0058   -0.0161    0.0017   -0.0177   -0.0060    0.0043   -0.0160   -0.0121
          10    0.0182   -0.0053    0.0015   -0.0141   -0.0151   -0.0086    0.0023   -0.0068
          11   -0.0203    0.0018   -0.0065    0.0069   -0.0092    0.0165   -0.0030    0.0197
          12    0.0005   -0.0055    0.0025   -0.0231    0.0035   -0.0145    0.0408   -0.0113
          13    0.0024    0.0334   -0.0110    0.0019   -0.0105    0.0313    0.0212   -0.0216
          14    0.0113    0.0092    0.0037    0.0034    0.0095   -0.0003   -0.0045   -0.0073
          15    0.0063    0.0350   -0.0012   -0.0110    0.0087    0.0034   -0.0135   -0.0028
          16   -0.0211   -0.0087    0.0097    0.0109    0.0474    0.0066   -0.0243   -0.0194
          17   -0.0209    0.0150    0.0111   -0.0181    0.0411   -0.0248    0.0014    0.0084
          18   -0.0208   -0.0288   -0.0025    0.0209    0.0057    0.0197    0.0104    0.0070
          19    0.0210   -0.0181    0.0031    0.0289   -0.0006   -0.0233   -0.0276   -0.0111
          20    0.0108    0.0105    0.0033    0.0026    0.0090    0.0017   -0.0007   -0.0073
          21   -0.0080   -0.0288    0.0008    0.0043   -0.0056    0.0039   -0.0278   -0.0157
          22    0.0139    0.0040   -0.0055    0.0581    0.0117   -0.0095    0.0411    0.0120
          23    0.0180    0.0211    0.0052    0.0015    0.0153   -0.0078   -0.0077   -0.0028
          24   -0.0007   -0.0005   -0.0011    0.0183    0.0100   -0.0025   -0.0006    0.0042
          25    0.0078   -0.0198    0.0079   -0.0357    0.0068    0.0167    0.0072    0.0199
          26   -0.0306   -0.0053   -0.0136    0.0057   -0.0378   -0.0256    0.0032   -0.0058
          27    0.0135    0.0084    0.0023   -0.0078    0.0041   -0.0062    0.0369   -0.0117
          28   -0.0501    0.0014   -0.0021   -0.0170   -0.0127    0.0029    0.0015    0.0164
          29    0.0541   -0.0299   -0.0005   -0.0136   -0.0161   -0.0037    0.0001    0.0056
          30    0.0248    0.0317   -0.0022    0.0286   -0.0200    0.0055   -0.0200    0.0116
          31   -0.0125   -0.0028   -0.0074   -0.0082   -0.0135   -0.0154   -0.0051    0.0385
          32   -0.0005   -0.0342    0.0025    0.0007   -0.0149    0.0245    0.0077   -0.0349
          33    0.0051    0.0324    0.0003   -0.0157    0.0036   -0.0064   -0.0219    0.0138
          34    0.0019    0.0295   -0.0038   -0.0211   -0.0246   -0.0131   -0.0280    0.0317
          35   -0.0338   -0.0012   -0.0084    0.0254   -0.0143    0.0332   -0.0225    0.0395
          36   -0.0162   -0.0221   -0.0005    0.0058    0.0036   -0.0034    0.0161    0.0146
          37    0.0262   -0.0040    0.0051   -0.0277   -0.0104   -0.0143    0.0332   -0.0212
          38    0.0002   -0.0351    0.0023    0.0076   -0.0091    0.0235    0.0149   -0.0397
          39   -0.0093   -0.0310    0.0014   -0.0068   -0.0094    0.0091   -0.0324   -0.0216
          40    0.0300    0.0013    0.0032   -0.0065   -0.0153   -0.0197    0.0232   -0.0163
          41   -0.0173    0.0123   -0.0091    0.0051   -0.0023    0.0267   -0.0067    0.0228
          42    0.0062    0.0013    0.0020   -0.0197    0.0053   -0.0138    0.0457   -0.0128
          43    0.0012    0.0582   -0.0171   -0.0090   -0.0167    0.0717    0.0323   -0.0677
          44    0.0115    0.0477   -0.0006   -0.0345   -0.0002    0.0377   -0.0184   -0.0543
          45    0.0077    0.0487    0.0007   -0.0389    0.0050    0.0014   -0.0388   -0.0050
          46   -0.0021    0.0486   -0.0142   -0.0245   -0.0226    0.0570    0.0114   -0.0496
          47    0.0158   -0.0234    0.0098    0.0423    0.0255   -0.0471    0.0048    0.0455
          48    0.0145    0.0626   -0.0045   -0.0033    0.0178    0.0258    0.0056   -0.0354
          49   -0.0202   -0.0305   -0.1619    0.0159    0.1053    0.0212   -0.0430   -0.0386
          50   -0.0029    0.0186   -0.1598   -0.0542    0.0876   -0.0617   -0.0022    0.0111
          51   -0.0146   -0.0181    0.0086    0.0057   -0.0021    0.0004    0.0169    0.0158
          52   -0.0423    0.0017    0.2397    0.0267    0.0455    0.0029   -0.0207   -0.0371
          53   -0.0182    0.0133   -0.0175   -0.0191    0.0391   -0.0227    0.0010    0.0113
          54   -0.0310   -0.0338    0.1120    0.0539   -0.0570    0.0620    0.0158    0.0160
          55   -0.0178   -0.0107   -0.0290    0.0086    0.0493    0.0076   -0.0258   -0.0177
          56   -0.0421    0.0247    0.2334   -0.0029    0.0433   -0.0297    0.0052   -0.0093
          57   -0.0260   -0.0488   -0.1310    0.0274    0.0804    0.0290   -0.0091   -0.0223
          58    0.0158    0.0029   -0.0082    0.1081    0.0322   -0.0218    0.0876    0.0405
          59    0.0279    0.0367    0.0076   -0.0003    0.0232   -0.0201   -0.0139    0.0052
          60    0.0002   -0.0010   -0.0025    0.0437    0.0203   -0.0087    0.0229    0.0187
          61    0.0302   -0.0413    0.0100    0.0455    0.0065   -0.0497   -0.0766   -0.0177
          62    0.0135    0.0160    0.0039    0.0022    0.0123   -0.0020   -0.0017   -0.0051
          63   -0.0142   -0.0574    0.0014    0.0124   -0.0146    0.0063   -0.0437   -0.0263
          64    0.0454   -0.0477    0.0217   -0.0691    0.0513    0.0501    0.0272    0.0521
          65   -0.1079    0.0082   -0.0306    0.0175   -0.0855   -0.0886    0.0198   -0.0643
          66    0.0149   -0.0004    0.0048   -0.0185    0.0131   -0.0037    0.0466   -0.0087
          67   -0.0878    0.0296   -0.0171    0.0219   -0.0650   -0.0307   -0.0371   -0.0070
          68    0.1328   -0.0436    0.0161   -0.0238    0.0266    0.0620   -0.0300    0.0779
          69    0.0247    0.0412   -0.0053    0.0438   -0.0343    0.0047   -0.0440    0.0168
          70   -0.0646   -0.0080    0.0037   -0.0391    0.0216    0.0230    0.0358    0.0358
          71    0.0520   -0.0386   -0.0048   -0.0214   -0.0379   -0.0482    0.0267   -0.0546
          72    0.0353    0.0427   -0.0034    0.0474   -0.0297    0.0182   -0.0578    0.0340


   Root No.       9        10        11        12        13        14        15        16

                 9 A      10 A      11 A      12 A      13 A      14 A      15 A      16 A   

                 421.7     452.1     536.4     643.4     671.1     747.4     768.4     831.4
  
           1   -0.0316   -0.0131    0.0167   -0.0095   -0.0151   -0.0008    0.0051   -0.0160
           2   -0.0030   -0.0053    0.0225    0.0013    0.0145    0.0214    0.0164   -0.0290
           3   -0.0085   -0.0081    0.0108    0.0135    0.0211   -0.0249    0.0354   -0.0181
           4   -0.0323   -0.0186    0.0109   -0.0101   -0.0155    0.0182    0.0065    0.0054
           5   -0.0219    0.0068   -0.0076    0.0338    0.0039    0.0045   -0.0093    0.0174
           6   -0.0016    0.0349    0.0329   -0.0198   -0.0127    0.0083    0.0050   -0.0078
           7   -0.0036    0.0005    0.0181    0.0041    0.0359   -0.0006   -0.0107    0.0323
           8   -0.0026   -0.0019    0.0239    0.0032    0.0168   -0.0102    0.0329   -0.0281
           9   -0.0022   -0.0223    0.0118   -0.0131   -0.0087   -0.0313   -0.0059    0.0424
          10    0.0077   -0.0035    0.0171    0.0145    0.0282    0.0241   -0.0044    0.0166
          11   -0.0185    0.0005   -0.0211    0.0158    0.0098   -0.0039   -0.0043    0.0014
          12   -0.0020   -0.0063   -0.0285   -0.0138   -0.0176   -0.0106    0.0050   -0.0103
          13   -0.0016    0.0178    0.0105   -0.0136   -0.0150   -0.0140   -0.0180   -0.0264
          14   -0.0066   -0.0142    0.0024   -0.0161   -0.0225    0.0434   -0.0306   -0.0079
          15    0.0105    0.0010   -0.0093    0.0184    0.0274   -0.0019    0.0064   -0.0151
          16    0.0054   -0.0295   -0.0108   -0.0042    0.0010    0.0037    0.0100   -0.0031
          17    0.0094    0.0322    0.0199    0.0099    0.0009    0.0021   -0.0104    0.0136
          18    0.0009    0.0270    0.0121    0.0075   -0.0012    0.0001   -0.0113    0.0090
          19   -0.0206    0.0470   -0.0226    0.0065    0.0071   -0.0167   -0.0234   -0.0079
          20   -0.0071   -0.0089    0.0050   -0.0159   -0.0225   -0.0538    0.0188    0.0205
          21   -0.0089   -0.0030    0.0055   -0.0123   -0.0156   -0.0064   -0.0119    0.0044
          22    0.0076   -0.0070    0.0076   -0.0016    0.0036   -0.0390   -0.0032    0.0024
          23   -0.0053   -0.0067   -0.0080   -0.0068   -0.0125   -0.0033   -0.0073    0.0097
          24    0.0101   -0.0284    0.0046    0.0000    0.0030    0.0581   -0.0348   -0.0097
          25    0.0312   -0.0011   -0.0111    0.0259   -0.0204   -0.0019   -0.0007   -0.0046
          26    0.0166   -0.0027   -0.0271   -0.0367    0.0206    0.0005    0.0003   -0.0002
          27   -0.0338   -0.0073   -0.0288    0.0175    0.0087    0.0030   -0.0033   -0.0026
          28    0.0340    0.0001   -0.0212   -0.0043   -0.0049   -0.0012   -0.0002   -0.0051
          29    0.0308   -0.0028   -0.0143    0.0016   -0.0053   -0.0015   -0.0002   -0.0030
          30    0.0262    0.0018   -0.0049   -0.0016   -0.0020   -0.0004   -0.0007   -0.0005
          31   -0.0504   -0.0048    0.0257   -0.0186   -0.0501    0.0183    0.0038   -0.0146
          32    0.0054   -0.0151    0.0394   -0.0097    0.0346   -0.0106    0.0371    0.0101
          33   -0.0027   -0.0063   -0.0035    0.0243    0.0285   -0.0166    0.0250   -0.0396
          34   -0.0553   -0.0287    0.0120   -0.0008   -0.0207    0.0034    0.0302    0.0053
          35   -0.0386    0.0122   -0.0025    0.0543    0.0031    0.0010   -0.0160    0.0455
          36    0.0022    0.0415    0.0338   -0.0140   -0.0105    0.0129   -0.0091    0.0043
          37    0.0146   -0.0090    0.0239    0.0052    0.0551    0.0229    0.0113    0.0458
          38    0.0084    0.0034    0.0347   -0.0061    0.0297    0.0237    0.0157   -0.0237
          39   -0.0064   -0.0126    0.0148   -0.0190   -0.0125   -0.0244   -0.0285    0.0366
          40    0.0045    0.0137    0.0201    0.0190    0.0638    0.0534    0.0048   -0.0152
          41   -0.0411   -0.0204   -0.0532    0.0504   -0.0036   -0.0198   -0.0206    0.0302
          42   -0.0120   -0.0080   -0.0399    0.0014   -0.0099   -0.0060    0.0021   -0.0119
          43    0.0201    0.0720   -0.0060   -0.0211   -0.0290    0.0526   -0.0019    0.0509
          44    0.0003    0.0509   -0.0266   -0.0228   -0.0478    0.1012    0.0210    0.0820
          45   -0.0044    0.0149   -0.0223    0.0186    0.0149   -0.0108    0.0461    0.0009
          46   -0.0021    0.0562    0.0021   -0.0180   -0.0282    0.0284    0.0231    0.0099
          47   -0.0150   -0.0845    0.0224   -0.0094   -0.0021   -0.0237   -0.0929   -0.0883
          48    0.0405    0.0404   -0.0343    0.0159    0.0229    0.0157    0.0014    0.0722
          49    0.0256   -0.0443   -0.0348    0.0180    0.0253   -0.0212    0.0114   -0.0119
          50    0.0232    0.0546    0.0551   -0.0214   -0.0086    0.0113   -0.0024   -0.0056
          51   -0.0027    0.0407    0.0341   -0.0127   -0.0145    0.0135   -0.0088    0.0058
          52    0.0330   -0.0261   -0.0081   -0.0149    0.0150   -0.0131    0.0198   -0.0349
          53    0.0045    0.0312    0.0187    0.0130   -0.0008    0.0046   -0.0125    0.0199
          54   -0.0319    0.0032   -0.0252    0.0480   -0.0001   -0.0001   -0.0285    0.0513
          55    0.0020   -0.0314   -0.0125   -0.0019    0.0002    0.0052    0.0097    0.0003
          56    0.0391    0.0402    0.0265   -0.0002    0.0150   -0.0148   -0.0050   -0.0150
          57    0.0390    0.0183   -0.0072    0.0260    0.0314   -0.0347   -0.0104   -0.0110
          58    0.0266   -0.0367    0.0009    0.0008   -0.0276    0.0915    0.2068    0.1202
          59   -0.0010    0.0036   -0.0262    0.0204    0.0260    0.0015   -0.0030   -0.0023
          60    0.0198   -0.0437    0.0015    0.0014   -0.0126    0.1249    0.0720    0.0501
          61   -0.0519    0.1153   -0.0995    0.0121   -0.0610    0.1063    0.1407   -0.0433
          62   -0.0066   -0.0109   -0.0004   -0.0169   -0.0256   -0.0476   -0.0001    0.0294
          63   -0.0226    0.0310   -0.0054   -0.0064   -0.0304    0.0184    0.1206   -0.0400
          64    0.0081    0.0118   -0.0479   -0.0166   -0.0195   -0.0108    0.0039   -0.0277
          65    0.0403   -0.0242   -0.0211    0.0077   -0.0092   -0.0080    0.0028    0.0014
          66   -0.0375   -0.0056   -0.0420    0.0076    0.0030   -0.0026   -0.0010   -0.0117
          67    0.1056   -0.0084    0.0195    0.0619   -0.0764   -0.0201    0.0063   -0.0201
          68    0.0427    0.0250   -0.0317   -0.1383    0.0434    0.0005    0.0065    0.0035
          69    0.0613    0.0041    0.0099   -0.0026   -0.0241   -0.0088    0.0038   -0.0059
          70   -0.0359    0.0098   -0.0759   -0.1167    0.0930    0.0196   -0.0052    0.0107
          71    0.0356   -0.0306    0.0186    0.1984   -0.0982   -0.0092   -0.0069   -0.0192
          72    0.0701    0.0115    0.0108   -0.0430   -0.0128   -0.0099    0.0067   -0.0021


   Root No.      17        18        19        20        21        22        23        24

                17 A      18 A      19 A      20 A      21 A      22 A      23 A      24 A   

                 868.8     892.9     920.8     938.0     942.2     965.7     987.5    1000.6
  
           1    0.0180    0.0030    0.0080    0.0149   -0.0075    0.0037    0.0044   -0.0060
           2   -0.0098   -0.0064    0.0097    0.0059    0.0146   -0.0331    0.0008    0.0008
           3    0.0047   -0.0024    0.0022    0.0118   -0.0011   -0.0198   -0.0049   -0.0007
           4   -0.0279   -0.0035   -0.0049   -0.0066    0.0054   -0.0049   -0.0023   -0.0059
           5   -0.0065    0.0195   -0.0111   -0.0028   -0.0046   -0.0037   -0.0035    0.0028
           6   -0.0118   -0.0141   -0.0005   -0.0011    0.0015   -0.0002   -0.0007   -0.0056
           7    0.0048    0.0083    0.0244   -0.0023    0.0047    0.0153   -0.0005   -0.0063
           8   -0.0155    0.0000   -0.0094    0.0052   -0.0144    0.0226    0.0038   -0.0049
           9    0.0105    0.0043    0.0138   -0.0077    0.0106   -0.0006    0.0033   -0.0083
          10    0.0190    0.0013   -0.0159   -0.0073   -0.0037   -0.0089   -0.0150    0.0150
          11    0.0067   -0.0193    0.0215    0.0048    0.0088    0.0162   -0.0083    0.0057
          12   -0.0191    0.0233    0.0117    0.0076   -0.0020   -0.0025    0.0024   -0.0041
          13    0.0251    0.0157    0.0054   -0.0136    0.0094    0.0044    0.0150    0.0083
          14    0.0112    0.0027    0.0022    0.0062   -0.0066    0.0086   -0.0011    0.0029
          15   -0.0088    0.0062   -0.0006   -0.0106    0.0042    0.0110    0.0089    0.0036
          16   -0.0223   -0.0053   -0.0074   -0.0130    0.0066    0.0002    0.0062    0.0145
          17    0.0018    0.0202   -0.0085   -0.0048   -0.0069   -0.0143    0.0112   -0.0028
          18    0.0078    0.0014    0.0039   -0.0033    0.0068    0.0046    0.0008    0.0058
          19   -0.0168   -0.0087    0.0058    0.0224   -0.0067   -0.0048    0.0202    0.0094
          20    0.0088   -0.0029   -0.0155   -0.0085   -0.0031   -0.0048   -0.0110    0.0076
          21    0.0044   -0.0058   -0.0159    0.0048   -0.0133    0.0005   -0.0031    0.0154
          22   -0.0109   -0.0056   -0.0070   -0.0020   -0.0009   -0.0037   -0.0199   -0.0114
          23    0.0016    0.0002    0.0021   -0.0016    0.0032   -0.0039    0.0017   -0.0028
          24   -0.0029   -0.0003    0.0026    0.0018    0.0014   -0.0072   -0.0101   -0.0097
          25    0.0007   -0.0029   -0.0129    0.0079    0.0113    0.0022    0.0026   -0.0016
          26    0.0032   -0.0068    0.0102   -0.0132   -0.0168   -0.0044    0.0000    0.0004
          27    0.0072   -0.0104   -0.0058    0.0029    0.0017    0.0008   -0.0072    0.0098
          28    0.0022   -0.0074   -0.0078    0.0011    0.0033    0.0009    0.0046   -0.0039
          29    0.0035   -0.0073   -0.0033   -0.0067   -0.0066   -0.0041    0.0037   -0.0013
          30    0.0084   -0.0176   -0.0142   -0.0084    0.0002   -0.0020    0.0159   -0.0147
          31    0.0089   -0.0042   -0.0235    0.0462   -0.0558    0.0262   -0.0217   -0.0486
          32   -0.0251   -0.0233    0.0669   -0.0115    0.0874   -0.1096    0.0231   -0.0061
          33    0.0151    0.0108   -0.0138    0.0048   -0.0169    0.0124   -0.0038    0.0238
          34   -0.0370    0.0015   -0.0149    0.0220   -0.0165   -0.0144   -0.0306   -0.0672
          35   -0.0118   -0.0087   -0.0152   -0.0086    0.0176    0.0394   -0.0323    0.0008
          36   -0.0084   -0.0261    0.0022   -0.0164    0.0200    0.0212    0.0008    0.0216
          37   -0.0204    0.0638    0.0333   -0.0236   -0.0075    0.0669   -0.0137   -0.0435
          38   -0.0685    0.0282   -0.0058   -0.0112   -0.0342    0.1228    0.0590   -0.0734
          39   -0.0054   -0.0103    0.0085   -0.0049    0.0038    0.0301    0.0431   -0.0265
          40    0.0239    0.0193   -0.0576   -0.0005   -0.0519   -0.0227   -0.0597    0.0768
          41    0.0045   -0.0200    0.0716    0.0192    0.0587    0.0489   -0.0268    0.0119
          42   -0.0175    0.0281    0.0157    0.0162   -0.0002    0.0044   -0.0218    0.0221
          43   -0.0298   -0.0291   -0.0054    0.0105    0.0014   -0.0328   -0.0509   -0.0338
          44   -0.0212   -0.0399   -0.0037    0.0663   -0.0488    0.0098   -0.0185   -0.0035
          45    0.0133    0.0066    0.0037    0.0280   -0.0322    0.0498    0.0572    0.0402
          46    0.0148   -0.0098    0.0136    0.0333   -0.0065   -0.0316    0.0158    0.0047
          47    0.0469    0.0518    0.0011   -0.0586    0.0209    0.0550    0.0220    0.0184
          48   -0.0765   -0.0285   -0.0354   -0.0308   -0.0065    0.0409   -0.0717   -0.0333
          49    0.0362    0.0282    0.0019    0.0404   -0.0400   -0.0297   -0.0116   -0.0523
          50   -0.0016   -0.0573    0.0183   -0.0153    0.0437    0.0479   -0.0173    0.0368
          51   -0.0176   -0.0394    0.0099   -0.0289    0.0440    0.0386   -0.0018    0.0472
          52    0.0346   -0.0478    0.0302    0.0334    0.0068    0.0300   -0.0398   -0.0158
          53   -0.0065    0.0296   -0.0153   -0.0118   -0.0083   -0.0210    0.0191    0.0006
          54   -0.0161    0.1086   -0.0415   -0.0168   -0.0435   -0.0756    0.0544   -0.0202
          55   -0.0294    0.0014   -0.0127   -0.0175    0.0046   -0.0058    0.0117    0.0159
          56    0.0673   -0.0217    0.0322    0.0427   -0.0046    0.0188   -0.0355   -0.0324
          57    0.1049    0.0201    0.0352    0.0733   -0.0387   -0.0120   -0.0361   -0.0755
          58    0.0474    0.0006    0.0357    0.0389   -0.0161    0.0239    0.0907    0.0523
          59   -0.0422   -0.0003    0.0315    0.0022    0.0279   -0.0061    0.0397   -0.0481
          60    0.0268    0.0029    0.0234    0.0224   -0.0070    0.0076    0.0455    0.0233
          61    0.0671    0.0686    0.0272   -0.1010    0.0803   -0.0126   -0.0519   -0.0671
          62    0.0096   -0.0038   -0.0018   -0.0059    0.0085   -0.0238   -0.0024    0.0004
          63    0.0335    0.0276   -0.0570   -0.0535   -0.0202    0.0651   -0.0614    0.0098
          64   -0.0283   -0.0085    0.0911   -0.0457   -0.0866   -0.0192   -0.0186    0.0225
          65   -0.0019    0.0581   -0.0947    0.1039    0.1212    0.0301   -0.0063    0.0092
          66   -0.0061   -0.0004    0.0178    0.0024   -0.0131   -0.0016   -0.0169    0.0210
          67   -0.0450    0.0432    0.0993   -0.0119   -0.0604   -0.0110   -0.0518    0.0532
          68   -0.0230    0.0787   -0.0372    0.0878    0.0844    0.0284   -0.0300    0.0239
          69   -0.0194    0.0251    0.0276    0.0067   -0.0086   -0.0002   -0.0172    0.0167
          70    0.0525   -0.0650   -0.0717   -0.0427   -0.0136   -0.0203    0.0492   -0.0384
          71    0.0164   -0.0705   -0.0225   -0.0116    0.0125    0.0099    0.0379   -0.0381
          72   -0.0324    0.0571    0.0387    0.0235    0.0000    0.0035   -0.0334    0.0297


   Root No.      25        26        27        28        29        30        31        32

                25 A      26 A      27 A      28 A      29 A      30 A      31 A      32 A   

                1028.3    1040.7    1046.3    1070.1    1079.8    1098.6    1118.5    1130.9
  
           1    0.0001    0.0124    0.0117    0.0138   -0.0033    0.0007    0.0039   -0.0051
           2   -0.0018   -0.0025   -0.0064    0.0016   -0.0033   -0.0078    0.0019    0.0274
           3    0.0016   -0.0008   -0.0214   -0.0146   -0.0128   -0.0122   -0.0183   -0.0046
           4   -0.0027   -0.0079   -0.0040    0.0058    0.0132    0.0025    0.0087    0.0275
           5   -0.0061   -0.0081    0.0077   -0.0125    0.0105    0.0019    0.0058    0.0162
           6    0.0039   -0.0033   -0.0021    0.0108   -0.0039   -0.0061    0.0120   -0.0209
           7    0.0084    0.0073   -0.0154    0.0020   -0.0107    0.0041   -0.0072   -0.0265
           8   -0.0014    0.0026    0.0030    0.0020   -0.0086    0.0010   -0.0015   -0.0205
           9   -0.0001    0.0011    0.0066    0.0037    0.0009   -0.0068   -0.0121   -0.0054
          10   -0.0018   -0.0032    0.0161    0.0061    0.0014   -0.0083   -0.0039    0.0317
          11    0.0101    0.0087    0.0011    0.0155   -0.0198   -0.0071    0.0108   -0.0292
          12   -0.0006    0.0006   -0.0057   -0.0054    0.0009    0.0073    0.0057    0.0067
          13   -0.0018   -0.0144   -0.0023   -0.0022    0.0027    0.0048    0.0016   -0.0052
          14    0.0051    0.0086   -0.0305    0.0043    0.0076   -0.0048   -0.0176   -0.0033
          15   -0.0014   -0.0033    0.0086    0.0119    0.0077    0.0016    0.0186    0.0083
          16    0.0034    0.0061   -0.0014   -0.0053   -0.0105   -0.0038   -0.0054   -0.0113
          17    0.0056    0.0076   -0.0049    0.0078   -0.0046   -0.0010   -0.0045   -0.0036
          18   -0.0041    0.0026   -0.0010   -0.0050    0.0028    0.0048   -0.0102    0.0218
          19   -0.0035   -0.0127   -0.0096   -0.0010   -0.0012    0.0055    0.0058    0.0035
          20    0.0012   -0.0050    0.0081   -0.0087   -0.0066    0.0026    0.0139    0.0052
          21    0.0017   -0.0078    0.0004   -0.0054   -0.0045    0.0115    0.0183    0.0047
          22    0.0043    0.0324    0.0022   -0.0028    0.0087   -0.0078   -0.0124    0.0044
          23   -0.0029   -0.0066    0.0144   -0.0053   -0.0063    0.0073    0.0032   -0.0041
          24   -0.0004    0.0097    0.0177   -0.0160   -0.0095    0.0075    0.0062   -0.0120
          25   -0.0205    0.0034   -0.0032    0.0028   -0.0023   -0.0010    0.0027   -0.0069
          26    0.0279   -0.0055    0.0040   -0.0041    0.0044    0.0005   -0.0047    0.0102
          27   -0.0038   -0.0047    0.0071    0.0053    0.0045   -0.0088   -0.0088   -0.0060
          28    0.0333   -0.0045    0.0016   -0.0037    0.0029    0.0012   -0.0013    0.0044
          29   -0.0471    0.0059   -0.0059    0.0019   -0.0019    0.0004    0.0018   -0.0042
          30    0.0047    0.0019   -0.0073   -0.0059    0.0007    0.0056    0.0015   -0.0010
          31   -0.0145   -0.0066    0.0831    0.0357   -0.0677   -0.0058    0.0644    0.0110
          32    0.0061    0.0304   -0.0008    0.0504    0.1316    0.0431    0.0701   -0.0539
          33    0.0046   -0.0099   -0.0616   -0.0519   -0.0544   -0.0384   -0.0867    0.0324
          34   -0.0235   -0.0767   -0.0612   -0.0400    0.0990    0.0309   -0.0475   -0.0125
          35   -0.0430   -0.0622   -0.0053   -0.1024    0.1152    0.0399   -0.0263   -0.1215
          36   -0.0019    0.0063    0.0189   -0.0050   -0.0006   -0.0034    0.0243   -0.0584
          37    0.0101    0.0212   -0.0577   -0.1206   -0.0428    0.0904    0.1143    0.0206
          38   -0.0329   -0.0291    0.0568   -0.0434    0.0216   -0.1065   -0.0236    0.0541
          39   -0.0198   -0.0263    0.0645    0.0480    0.0376   -0.1215   -0.0975    0.0120
          40    0.0236   -0.0383    0.0718    0.0001    0.0356   -0.0124    0.0102   -0.0939
          41   -0.0297    0.0333   -0.0330    0.0154   -0.0540    0.0071    0.0074    0.1348
          42   -0.0068   -0.0031    0.0025   -0.0067    0.0005    0.0104    0.0091    0.0232
          43   -0.0025   -0.0575   -0.0287    0.0115   -0.0640    0.0070   -0.0372   -0.0181
          44    0.0181    0.1084   -0.0314    0.0019    0.0552   -0.0285   -0.0271    0.0025
          45    0.0132    0.1448    0.0358   -0.0056    0.1223   -0.0264    0.0505    0.0269
          46   -0.0031    0.0353    0.0371   -0.0680   -0.0194    0.0227   -0.0268   -0.0081
          47    0.0040   -0.0494   -0.0700    0.0706    0.0446   -0.0161    0.0144   -0.0002
          48    0.0092   -0.0611   -0.0618    0.1383    0.0050   -0.0493    0.0571    0.0101
          49    0.0059   -0.0196   -0.0063    0.0243    0.0131   -0.0054    0.0270   -0.0259
          50   -0.0227   -0.0060    0.0105   -0.0376    0.0165    0.0137   -0.0214    0.0473
          51   -0.0151    0.0086    0.0056   -0.0330    0.0004    0.0108   -0.0304    0.0478
          52   -0.0186   -0.0319    0.0101   -0.0138    0.0265    0.0042    0.0175    0.0140
          53    0.0094    0.0138   -0.0073    0.0100   -0.0097   -0.0021   -0.0082   -0.0074
          54    0.0327    0.0377   -0.0265    0.0445   -0.0314   -0.0080   -0.0125   -0.0187
          55    0.0070    0.0097   -0.0037   -0.0028   -0.0154   -0.0060   -0.0063   -0.0187
          56   -0.0204   -0.0294    0.0079   -0.0040    0.0398    0.0138    0.0097    0.0463
          57   -0.0132   -0.0357   -0.0038    0.0215    0.0486    0.0130    0.0198    0.0474
          58   -0.0087   -0.0774   -0.0254    0.0253   -0.0009    0.0046    0.0043    0.0055
          59   -0.0328   -0.0216    0.1358    0.0587   -0.0273    0.1830   -0.1103    0.0060
          60   -0.0067   -0.0457    0.0033   -0.0020   -0.0143    0.0135    0.0171   -0.0120
          61   -0.0015    0.0225    0.0369   -0.0319   -0.0077   -0.1003    0.0102   -0.0274
          62   -0.0049   -0.0194    0.0264   -0.0376   -0.0153   -0.0553    0.0392   -0.0038
          63    0.0229    0.0543   -0.0392    0.0816    0.0204    0.1734   -0.0659    0.0231
          64    0.0498   -0.0285    0.0122   -0.0152    0.0369   -0.0020   -0.0405   -0.0263
          65   -0.0854    0.0071   -0.0078    0.0093    0.0042   -0.0100   -0.0183   -0.0550
          66    0.0043   -0.0154    0.0111    0.0003    0.0203   -0.0111   -0.0286   -0.0255
          67   -0.1142    0.0007    0.0126    0.0203    0.0015   -0.0171   -0.0086   -0.0126
          68    0.1554   -0.0257    0.0293   -0.0002    0.0113   -0.0107   -0.0140    0.0138
          69   -0.0178   -0.0028    0.0054    0.0046    0.0030   -0.0052   -0.0054   -0.0051
          70   -0.1379    0.0227   -0.0315   -0.0092   -0.0034    0.0144    0.0080   -0.0041
          71    0.1909   -0.0167   -0.0005   -0.0203    0.0068    0.0122    0.0007    0.0070
          72   -0.0219   -0.0033    0.0114    0.0104    0.0004   -0.0100   -0.0048   -0.0026


   Root No.      33        34        35        36        37        38        39        40

                33 A      34 A      35 A      36 A      37 A      38 A      39 A      40 A   

                1146.1    1161.6    1176.7    1200.1    1209.4    1217.1    1223.3    1237.6
  
           1    0.0064   -0.0291    0.0065   -0.0019    0.0281   -0.0309    0.0112    0.0117
           2   -0.0276    0.0013    0.0033   -0.0023   -0.0095    0.0277   -0.0051    0.0093
           3   -0.0074   -0.0092    0.0012    0.0084    0.0236    0.0050    0.0216   -0.0024
           4    0.0048    0.0194   -0.0093   -0.0292    0.0004   -0.0163   -0.0199   -0.0073
           5   -0.0330   -0.0170   -0.0187   -0.0208   -0.0020   -0.0052   -0.0029   -0.0211
           6   -0.0100    0.0415   -0.0072   -0.0006   -0.0047    0.0093   -0.0085    0.0044
           7   -0.0015   -0.0037    0.0037   -0.0008   -0.0207   -0.0017   -0.0214   -0.0230
           8    0.0141   -0.0182    0.0090    0.0118   -0.0212   -0.0325   -0.0266    0.0074
           9   -0.0195   -0.0106   -0.0115   -0.0029   -0.0032    0.0161   -0.0032    0.0081
          10   -0.0059    0.0134    0.0093    0.0123   -0.0065   -0.0083    0.0062    0.0100
          11    0.0170    0.0143   -0.0301   -0.0194   -0.0027    0.0183    0.0091    0.0012
          12   -0.0146   -0.0164   -0.0281    0.0135    0.0008   -0.0082   -0.0160   -0.0139
          13   -0.0015    0.0070   -0.0019    0.0035   -0.0047    0.0081   -0.0009    0.0073
          14   -0.0114   -0.0011   -0.0056    0.0025    0.0068    0.0070    0.0067   -0.0050
          15   -0.0005    0.0035    0.0089    0.0025   -0.0108    0.0069   -0.0012   -0.0221
          16   -0.0025   -0.0048    0.0010    0.0081   -0.0010    0.0076    0.0061    0.0020
          17    0.0129    0.0047    0.0105    0.0059    0.0013   -0.0003    0.0025    0.0063
          18    0.0248   -0.0266    0.0005   -0.0038   -0.0061    0.0029    0.0050   -0.0022
          19   -0.0037   -0.0031   -0.0006    0.0024    0.0023   -0.0007    0.0064   -0.0062
          20    0.0113    0.0104    0.0053   -0.0039   -0.0002   -0.0026    0.0005   -0.0036
          21    0.0093    0.0043    0.0008   -0.0052    0.0001   -0.0014   -0.0036    0.0243
          22   -0.0077    0.0015   -0.0046   -0.0017    0.0017    0.0071    0.0005    0.0016
          23    0.0109    0.0054    0.0052    0.0009    0.0017   -0.0088    0.0050   -0.0235
          24    0.0164    0.0001    0.0068    0.0008   -0.0045   -0.0158   -0.0045   -0.0069
          25    0.0008    0.0023   -0.0091   -0.0021   -0.0039   -0.0012    0.0048   -0.0012
          26   -0.0020   -0.0005    0.0051    0.0084   -0.0046   -0.0069    0.0053    0.0024
          27    0.0046    0.0137    0.0092   -0.0004   -0.0212   -0.0132    0.0368    0.0111
          28    0.0015    0.0002   -0.0037    0.0093   -0.0016   -0.0046    0.0061    0.0014
          29    0.0026    0.0005   -0.0054    0.0028   -0.0004   -0.0010    0.0034    0.0000
          30   -0.0022   -0.0082    0.0094   -0.0084    0.0094    0.0074   -0.0157   -0.0040
          31   -0.0803   -0.0823    0.0994    0.0998   -0.0543    0.1471    0.0482   -0.0497
          32    0.0654   -0.0268    0.0211    0.0237    0.0831   -0.0355    0.0807   -0.0340
          33   -0.0163    0.0332   -0.0564   -0.0587    0.0156   -0.0522   -0.0454    0.0526
          34    0.1614    0.0096   -0.0237    0.0588   -0.1178    0.1002   -0.0013    0.0328
          35   -0.1103    0.0245    0.0655    0.1300    0.0293   -0.0428   -0.0060    0.0387
          36   -0.1153    0.0635    0.0350    0.0220    0.0659   -0.0636   -0.0194    0.0113
          37   -0.0036    0.0119   -0.0012   -0.0595    0.0574    0.0598    0.1002    0.0798
          38    0.0497    0.0641   -0.0072   -0.0161    0.1128    0.0230    0.0980   -0.0157
          39    0.0022    0.0290   -0.0197    0.0152    0.0329    0.0140    0.0003   -0.0658
          40    0.0710   -0.0357   -0.1231    0.0044    0.1363    0.1151   -0.0833   -0.0124
          41    0.0627    0.0836    0.1009    0.1454    0.0875    0.0176   -0.1045    0.0213
          42    0.0319   -0.0066   -0.0276    0.0782    0.0905    0.0377   -0.0940   -0.0138
          43   -0.0022   -0.0248    0.0020    0.0075    0.0408   -0.0091    0.0323   -0.0164
          44   -0.0279   -0.0239   -0.0197    0.0021    0.0109    0.0224    0.0047    0.0565
          45   -0.0160    0.0132   -0.0081   -0.0027   -0.0530    0.0370   -0.0382    0.0625
          46    0.0122    0.0414   -0.0004   -0.0004   -0.0100   -0.0001   -0.0009   -0.0484
          47   -0.0304   -0.0288   -0.0092    0.0133    0.0032    0.0375    0.0097    0.0550
          48   -0.0156   -0.0908    0.0130   -0.0059    0.0330   -0.0381   -0.0016    0.0742
          49   -0.0318    0.0701   -0.0081   -0.0033    0.0001    0.0018   -0.0176    0.0001
          50    0.0219   -0.0730   -0.0012   -0.0048   -0.0042   -0.0046    0.0075   -0.0088
          51    0.0430   -0.0851    0.0003   -0.0029   -0.0077    0.0027    0.0155   -0.0060
          52   -0.0348    0.0107   -0.0299   -0.0208   -0.0076    0.0031   -0.0133   -0.0160
          53    0.0184    0.0033    0.0176    0.0115    0.0040   -0.0017    0.0048    0.0101
          54    0.0553    0.0320    0.0462    0.0323    0.0166   -0.0079   -0.0006    0.0286
          55   -0.0016    0.0008    0.0019    0.0117   -0.0019    0.0121    0.0072    0.0039
          56    0.0016   -0.0110   -0.0056   -0.0257    0.0026   -0.0263   -0.0134   -0.0089
          57    0.0138    0.0282   -0.0068   -0.0376    0.0101   -0.0427   -0.0280   -0.0018
          58   -0.0118   -0.0007   -0.0042    0.0008    0.0006    0.0117    0.0010    0.0043
          59   -0.0362    0.0015   -0.0550   -0.0208    0.0175    0.0280   -0.0177    0.1471
          60    0.0159   -0.0010    0.0083    0.0022   -0.0059   -0.0151   -0.0048   -0.0069
          61    0.0054   -0.0286   -0.0064    0.0044   -0.0209   -0.0064   -0.0328    0.0458
          62    0.0212   -0.0075    0.0022   -0.0035   -0.0110   -0.0098   -0.0204    0.0407
          63   -0.0163    0.0581    0.0106   -0.0054    0.0274    0.0167    0.0521   -0.1106
          64    0.0013   -0.0190    0.2018   -0.1296    0.0369    0.0547   -0.0614    0.0023
          65    0.0134   -0.0065    0.1338   -0.1178    0.0239    0.0503   -0.0387   -0.0002
          66    0.0069    0.0045    0.1154   -0.0728   -0.0013    0.0178    0.0046    0.0124
          67    0.0173    0.0253   -0.0090    0.0205   -0.0195   -0.0163    0.0548    0.0188
          68    0.0077    0.0142    0.0063    0.0250   -0.0135   -0.0171    0.0381    0.0159
          69    0.0049    0.0058    0.0107   -0.0009   -0.0029   -0.0016    0.0136    0.0067
          70    0.0075   -0.0154    0.0069    0.0067    0.0301    0.0146   -0.0234   -0.0012
          71    0.0047   -0.0107    0.0075    0.0054    0.0204    0.0105   -0.0159   -0.0010
          72   -0.0064    0.0087   -0.0026   -0.0081   -0.0231   -0.0119    0.0164   -0.0008


   Root No.      41        42        43        44        45        46        47        48

                41 A      42 A      43 A      44 A      45 A      46 A      47 A      48 A   

                1280.5    1304.6    1347.0    1357.7    1395.6    1398.4    1403.3    1410.4
  
           1    0.0214   -0.0197   -0.0245    0.0280   -0.0053   -0.0028   -0.0021    0.0022
           2    0.0448   -0.0053   -0.0149   -0.0102   -0.0067   -0.0002   -0.0024   -0.0001
           3   -0.0261    0.0089    0.0114   -0.0307   -0.0021    0.0016   -0.0039   -0.0019
           4    0.0099    0.0253    0.0280   -0.0128   -0.0009    0.0089   -0.0029   -0.0018
           5   -0.0390    0.0101   -0.0112    0.0022   -0.0013   -0.0028   -0.0046   -0.0021
           6   -0.0257   -0.0028   -0.0115    0.0086    0.0102   -0.0056    0.0045    0.0008
           7    0.0119    0.0133   -0.0023   -0.0195   -0.0326   -0.0048   -0.0197   -0.0043
           8   -0.0244    0.0110    0.0129    0.0105    0.0169    0.0055    0.0083    0.0014
           9   -0.0033    0.0072    0.0020    0.0175    0.0387    0.0135    0.0157    0.0034
          10   -0.0236   -0.0312   -0.0086    0.0158    0.0148   -0.0154    0.0248    0.0048
          11    0.0106   -0.0197    0.0007    0.0018    0.0065   -0.0121    0.0180    0.0050
          12    0.0050   -0.0226   -0.0090    0.0016   -0.0040   -0.0166    0.0141    0.0029
          13   -0.0147    0.0040   -0.0027   -0.0327    0.0071    0.0036   -0.0003   -0.0009
          14   -0.0063    0.0042    0.0117    0.0372    0.0237    0.0222   -0.0196   -0.0056
          15    0.0210   -0.0020    0.0134    0.0620   -0.0099   -0.0050    0.0003    0.0006
          16   -0.0020   -0.0041    0.0020   -0.0038    0.0173   -0.0183    0.0039   -0.0245
          17    0.0072   -0.0020   -0.0052    0.0047   -0.0172    0.0162    0.0000   -0.0262
          18    0.0021   -0.0007   -0.0089    0.0059   -0.0118   -0.0019   -0.0259   -0.0022
          19   -0.0023   -0.0023   -0.0031   -0.0010    0.0155    0.0025    0.0103    0.0023
          20    0.0095   -0.0036   -0.0024   -0.0038   -0.0179   -0.0069   -0.0050   -0.0008
[...]
 TRAVEL      0.0905        C  3 --  C  4           +9.4% ( 41.5%)    58.6%
 RED. MASS   0.7718        C  1 --  C  3           +8.1% ( 38.6%)    18.7%
 EFF. MASS   5.8958

 VIBRATION   46   46A       ATOM PAIR        ENERGY CONTRIBUTION    RADIAL
 FREQ.      1398.41        C  6 --  H 18          +16.2% ( 44.9%)     2.5%
 T-DIPOLE    0.0873        C  6 --  H 19          +14.9% ( 43.1%)     3.7%
 TRAVEL      0.1179        C  5 --  H 15           +8.8% ( 33.1%)     4.9%
 RED. MASS   0.2606        C  5 --  H 16           +8.3% ( 32.2%)     5.5%
 EFF. MASS   3.4703

 VIBRATION   47   47A       ATOM PAIR        ENERGY CONTRIBUTION    RADIAL
 FREQ.      1403.32        C  6 --  H 19           +9.9% ( 41.0%)     0.4%
 T-DIPOLE    0.0339        C  3 --  C  4           +8.3% ( 37.5%)    95.3%
 TRAVEL      0.0956        C  6 --  H 17           +8.0% ( 36.9%)    11.4%
 RED. MASS   0.3844        C  4 --  C  9           +7.6% ( 35.9%)    95.1%
 EFF. MASS   5.2563

 VIBRATION   48   48A       ATOM PAIR        ENERGY CONTRIBUTION    RADIAL
 FREQ.      1410.36        C  6 --  H 17          +51.3% ( 62.7%)     0.0%
 T-DIPOLE    0.0436        C  6 --  H 18          +22.2% ( 41.3%)     9.9%
 TRAVEL      0.1711        C  6 --  H 19          +17.3% ( 36.4%)    12.7%
 RED. MASS   0.4057        C  2 --  C  6           +4.7% ( 19.1%)     1.4%
 EFF. MASS   1.6333

 VIBRATION   49   49A       ATOM PAIR        ENERGY CONTRIBUTION    RADIAL
 FREQ.      1414.98        C  3 --  C  7          +12.2% ( 52.2%)    99.6%
 T-DIPOLE    0.0626        C  3 --  C  4           +7.8% ( 41.7%)     1.1%
 TRAVEL      0.0788        C  3 --  H 13           +6.3% ( 37.5%)     2.5%
 RED. MASS   0.7366        C  1 --  C  3           +6.0% ( 36.6%)     0.5%
 EFF. MASS   7.6733

 VIBRATION   50   50A       ATOM PAIR        ENERGY CONTRIBUTION    RADIAL
 FREQ.      1454.80        C  2 --  C  6          +13.6% ( 61.6%)    96.6%
 T-DIPOLE    0.1001        C  2 --  C  4          +11.8% ( 57.6%)    51.1%
 TRAVEL      0.0697        C  1 --  C  2           +9.1% ( 50.6%)    52.5%
 RED. MASS   1.7557        C  2 --  H 12           +8.2% ( 48.0%)     0.1%
 EFF. MASS   9.5501

 VIBRATION   51   51A       ATOM PAIR        ENERGY CONTRIBUTION    RADIAL
 FREQ.      1819.40        C  7 --  C  8          +45.8% (100.1%)   100.0%
 T-DIPOLE    0.1193        C  5 --  C  8          +14.0% ( 55.4%)    26.1%
 TRAVEL      0.0559        C  3 --  C  7          +13.8% ( 54.9%)    25.4%
 RED. MASS   5.3944        C  8 --  H 20          +13.1% ( 53.5%)     9.6%
 EFF. MASS  11.8817        C  7 --  H 21          +12.8% ( 52.9%)     9.8%

 VIBRATION   52   52A       ATOM PAIR        ENERGY CONTRIBUTION    RADIAL
 FREQ.      1862.48        C  9 --  C 10          +44.8% ( 99.0%)    98.8%
 T-DIPOLE    0.1437        C  4 --  C  9          +17.0% ( 60.9%)    55.7%
 TRAVEL      0.0554        C  9 --  H 22          +15.4% ( 58.1%)     3.9%
 RED. MASS   5.2780        C 10 --  H 23          +10.8% ( 48.5%)    11.0%
 EFF. MASS  11.7957        C 10 --  H 24          +10.6% ( 48.1%)    13.1%

 VIBRATION   53   53A       ATOM PAIR        ENERGY CONTRIBUTION    RADIAL
 FREQ.      2928.68        C  4 --  H 14          +87.8% ( 95.9%)   100.0%
 T-DIPOLE    0.0673        C  2 --  H 12           +7.2% ( 27.5%)   100.0%
 TRAVEL      0.1259        C  2 --  C  4           +1.1% ( 10.9%)    15.1%
 RED. MASS   0.7908        C  4 --  C  9           +1.0% ( 10.3%)    12.9%
 EFF. MASS   1.4534

 VIBRATION   54   54A       ATOM PAIR        ENERGY CONTRIBUTION    RADIAL
 FREQ.      2941.84        C  2 --  H 12          +87.9% ( 95.7%)   100.0%
 T-DIPOLE    0.1166        C  4 --  H 14           +7.1% ( 27.2%)    99.9%
 TRAVEL      0.1260        C  1 --  C  2           +1.0% ( 10.1%)    15.3%
 RED. MASS   0.7869        C  2 --  C  6           +1.0% ( 10.1%)    10.3%
 EFF. MASS   1.4437

 VIBRATION   55   55A       ATOM PAIR        ENERGY CONTRIBUTION    RADIAL
 FREQ.      2972.74        C  5 --  H 15          +50.4% ( 73.7%)    97.0%
 T-DIPOLE    0.0348        C  5 --  H 16          +44.1% ( 68.9%)    96.2%
 TRAVEL      0.1214        C  1 --  H 11           +2.8% ( 17.4%)    99.9%
 RED. MASS   0.4872        C  1 --  C  5           +1.2% ( 11.2%)     0.5%
 EFF. MASS   1.5402

 VIBRATION   56   56A       ATOM PAIR        ENERGY CONTRIBUTION    RADIAL
 FREQ.      2994.35        C  3 --  H 13          +66.3% ( 83.4%)   100.0%
 T-DIPOLE    0.0969        C  1 --  H 11          +27.7% ( 53.9%)   100.0%
 TRAVEL      0.1244        C  1 --  C  3           +1.1% ( 10.8%)     1.3%
 RED. MASS   0.5263        C  5 --  H 15           +0.8% (  9.3%)    98.6%
 EFF. MASS   1.4556

 VIBRATION   57   57A       ATOM PAIR        ENERGY CONTRIBUTION    RADIAL
 FREQ.      3001.19        C  1 --  H 11          +64.6% ( 82.1%)   100.0%
 T-DIPOLE    0.1819        C  3 --  H 13          +28.7% ( 54.7%)   100.0%
 TRAVEL      0.1245        C  5 --  H 15           +1.6% ( 12.9%)    99.1%
 RED. MASS   0.5077        C  1 --  C  3           +1.1% ( 10.5%)    85.2%
 EFF. MASS   1.4491

 VIBRATION   58   58A       ATOM PAIR        ENERGY CONTRIBUTION    RADIAL
 FREQ.      3033.22        C  9 --  H 22          +96.3% ( 99.5%)   100.0%
 T-DIPOLE    0.2698        C  9 --  C 10           +1.4% ( 12.2%)    31.7%
 TRAVEL      0.1215        C  4 --  C  9           +1.4% ( 11.8%)    14.4%
 RED. MASS   0.9127        C 10 --  H 24           +0.8% (  8.9%)    94.1%
 EFF. MASS   1.5064

 VIBRATION   59   59A       ATOM PAIR        ENERGY CONTRIBUTION    RADIAL
 FREQ.      3049.84        C  5 --  H 16          +53.5% ( 72.2%)    98.0%
 T-DIPOLE    0.0893        C  5 --  H 15          +44.7% ( 66.0%)    96.9%
 TRAVEL      0.1312        C  1 --  C  5           +0.7% (  8.3%)    41.4%
 RED. MASS   0.4843        C  5 --  C  8           +0.7% (  8.2%)    31.0%
 EFF. MASS   1.2839

 VIBRATION   60   60A       ATOM PAIR        ENERGY CONTRIBUTION    RADIAL
 FREQ.      3076.35        C  6 --  H 17          +67.7% ( 84.9%)    99.0%
 T-DIPOLE    0.0104        C  6 --  H 18          +17.4% ( 43.0%)    85.3%
 TRAVEL      0.1207        C  6 --  H 19          +13.8% ( 38.3%)    81.0%
 RED. MASS   0.5356        C  2 --  C  6           +1.0% ( 10.3%)     0.0%
 EFF. MASS   1.5041

 VIBRATION   61   61A       ATOM PAIR        ENERGY CONTRIBUTION    RADIAL
 FREQ.      3084.40        C  6 --  H 19          +50.6% ( 73.4%)    97.3%
 T-DIPOLE    0.0236        C  6 --  H 18          +47.3% ( 71.0%)    96.8%
 TRAVEL      0.1204        C  6 --  H 17           +1.1% ( 10.6%)     2.2%
 RED. MASS   0.5098        C  2 --  C  6           +1.0% ( 10.4%)     0.0%
 EFF. MASS   1.5078

 VIBRATION   62   62A       ATOM PAIR        ENERGY CONTRIBUTION    RADIAL
 FREQ.      3114.73        C  8 --  H 20          +58.0% ( 77.3%)   100.0%
 T-DIPOLE    0.3654        C  7 --  H 21          +39.5% ( 63.8%)   100.0%
 TRAVEL      0.1216        C  7 --  C  8           +1.1% ( 10.8%)     0.8%
 RED. MASS   0.4817        C  5 --  C  8           +0.9% (  9.5%)    26.1%
 EFF. MASS   1.4646

 VIBRATION   63   63A       ATOM PAIR        ENERGY CONTRIBUTION    RADIAL
 FREQ.      3133.69        C  7 --  H 21          +56.9% ( 76.8%)    99.9%
 T-DIPOLE    0.3536        C  8 --  H 20          +38.5% ( 63.2%)    99.9%
 TRAVEL      0.1144        C  7 --  C  8           +2.4% ( 15.9%)    99.0%
 RED. MASS   0.4816        C  3 --  C  7           +1.1% ( 10.6%)    20.5%
 EFF. MASS   1.6438

 VIBRATION   64   64A       ATOM PAIR        ENERGY CONTRIBUTION    RADIAL
 FREQ.      3134.80        C 10 --  H 23          +91.0% ( 97.1%)    99.8%
 T-DIPOLE    0.1876        C 10 --  H 24           +7.5% ( 27.8%)    73.1%
 TRAVEL      0.1181        C  9 --  C 10           +1.3% ( 11.7%)    21.1%
 RED. MASS   0.8417
 EFF. MASS   1.5412

 VIBRATION   65   65A       ATOM PAIR        ENERGY CONTRIBUTION    RADIAL
 FREQ.      3146.94        C 10 --  H 24          +91.3% ( 96.2%)    99.7%
 T-DIPOLE    0.2580        C 10 --  H 23           +6.4% ( 25.5%)    45.6%
 TRAVEL      0.1211        C  9 --  C 10           +1.6% ( 12.7%)    73.8%
 RED. MASS   0.8104        C  9 --  H 22           +0.7% (  8.2%)    94.1%
 EFF. MASS   1.4617

 VIBRATION   66   66A       ATOM PAIR        ENERGY CONTRIBUTION    RADIAL
 FREQ.      3177.61        C  6 --  H 19          +35.1% ( 57.0%)    97.4%
 T-DIPOLE    0.0369        C  6 --  H 18          +34.7% ( 56.7%)    97.3%
 TRAVEL      0.1366        C  6 --  H 17          +30.0% ( 52.7%)    96.5%
 RED. MASS   0.3283        C  2 --  C  6           +0.3% (  5.2%)    99.5%
 EFF. MASS   1.1370

 SYMMETRY NUMBER FOR POINT-GROUP C1  =  1


          SYSTEM IS A GROUND STATE


    NULL



          MOLECULE IS NOT LINEAR

          THERE ARE 66 GENUINE VIBRATIONS IN THIS SYSTEM
          THIS THERMODYNAMICS CALCULATION IS LIMITED TO
          MOLECULES WHICH HAVE NO INTERNAL ROTATIONS




                    CALCULATED THERMODYNAMIC PROPERTIES
                                          *
   TEMP. (K)   PARTITION FUNCTION   H.O.F.    ENTHALPY  HEAT CAPACITY ENTROPY
                                   KCAL/MOL   CAL/MOLE    CAL/K/MOL  CAL/K/MOL


 298.00  VIB.     0.1768D+03                  4075.9703    31.0044    23.9620
         ROT.     0.6132D+06                   888.2813     2.9808    29.4631
         INT.     0.1084D+09                  4964.2516    33.9852    53.4251
         TRA.     0.1503D+28                  1480.4688     4.9680    40.5931
         TOT.                       28.987    6444.7205    38.9533    94.0182

 200.00  VIB.     0.2027D+02                  1680.5682    18.3477    14.3823
         ROT.     0.3371D+06                   596.1620     2.9808    28.2744
         INT.     0.6833D+07                  2276.7302    21.3285    42.6567
         TRA.     0.8266D+27                   993.6033     4.9680    38.6119
         TOT.                       25.813    3270.3334    26.2965    81.2687

 210.00  VIB.     0.2506D+02                  1869.7341    19.4922    15.3050
         ROT.     0.3627D+06                   625.9700     2.9808    28.4199
         INT.     0.9091D+07                  2495.7042    22.4730    43.7249
         TRA.     0.8893D+27                  1043.2834     4.9680    38.8543
         TOT.                       26.081    3538.9876    27.4411    82.5792

 220.00  VIB.     0.3105D+02                  2070.5472    20.6770    16.2390
         ROT.     0.3889D+06                   655.7781     2.9808    28.5585
         INT.     0.1208D+08                  2726.3254    23.6578    44.7975
         TRA.     0.9536D+27                  1092.9636     4.9680    39.0854
         TOT.                       26.362    3819.2890    28.6258    83.8830

 230.00  VIB.     0.3855D+02                  2283.4045    21.9008    17.1850
         ROT.     0.4158D+06                   685.5862     2.9808    28.6910
         INT.     0.1603D+08                  2968.9907    24.8816    45.8760
         TRA.     0.1019D+28                  1142.6437     4.9680    39.3063
         TOT.                       26.654    4111.6344    29.8496    85.1823

 240.00  VIB.     0.4795D+02                  2508.6845    23.1611    18.1436
         ROT.     0.4432D+06                   715.3943     2.9808    28.8179
         INT.     0.2125D+08                  3224.0789    26.1419    46.9615
         TRA.     0.1087D+28                  1192.3239     4.9680    39.5177
         TOT.                       26.959    4416.4028    31.1099    86.4792

 250.00  VIB.     0.5976D+02                  2746.7385    24.4550    19.1152
         ROT.     0.4712D+06                   745.2024     2.9808    28.9396
         INT.     0.2815D+08                  3491.9410    27.4358    48.0548
         TRA.     0.1155D+28                  1242.0041     4.9680    39.7205
         TOT.                       27.276    4733.9450    32.4038    87.7753

 260.00  VIB.     0.7462D+02                  2997.8831    25.7786    20.1000
         ROT.     0.4997D+06                   775.0105     2.9808    29.0565
         INT.     0.3729D+08                  3772.8936    28.7594    49.1565
         TRA.     0.1225D+28                  1291.6842     4.9680    39.9154
         TOT.                       27.607    5064.5778    33.7274    89.0719

 270.00  VIB.     0.9337D+02                  3262.3951    27.1278    21.0981
         ROT.     0.5288D+06                   804.8186     2.9808    29.1690
         INT.     0.4938D+08                  4067.2137    30.1086    50.2671
         TRA.     0.1297D+28                  1341.3644     4.9680    40.1029
         TOT.                       27.951    5408.5781    35.0766    90.3700

 280.00  VIB.     0.1171D+03                  3540.5090    28.4982    22.1094
         ROT.     0.5585D+06                   834.6267     2.9808    29.2774
         INT.     0.6538D+08                  4375.1358    31.4790    51.3868
         TRA.     0.1369D+28                  1391.0445     4.9680    40.2835
         TOT.                       28.309    5766.1803    36.4470    91.6704

 290.00  VIB.     0.1471D+03                  3832.4153    29.8855    23.1336
         ROT.     0.5886D+06                   864.4348     2.9808    29.3820
         INT.     0.8659D+08                  4696.8501    32.8663    52.5156
         TRA.     0.1443D+28                  1440.7247     4.9680    40.4579
         TOT.                       28.680    6137.5748    37.8343    92.9735

 300.00  VIB.     0.1852D+03                  4138.2599    31.2852    24.1704
         ROT.     0.6193D+06                   894.2429     2.9808    29.4830
         INT.     0.1147D+09                  5032.5028    34.2660    53.6534
         TRA.     0.1518D+28                  1490.4049     4.9680    40.6263
         TOT.                       29.065    6522.9077    39.2340    94.2797

 310.00  VIB.     0.2337D+03                  4458.1458    32.6930    25.2191
         ROT.     0.6506D+06                   924.0510     2.9808    29.5808
         INT.     0.1520D+09                  5382.1968    35.6738    54.7999
         TRA.     0.1595D+28                  1540.0850     4.9680    40.7892
         TOT.                       29.465    6922.2818    40.6419    95.5891

 320.00  VIB.     0.2954D+03                  4792.1345    34.1051    26.2794
         ROT.     0.6823D+06                   953.8591     2.9808    29.6754
         INT.     0.2016D+09                  5745.9936    37.0859    55.9548
         TRA.     0.1673D+28                  1589.7652     4.9680    40.9469
         TOT.                       29.878    7335.7588    42.0539    96.9017

 330.00  VIB.     0.3742D+03                  5140.2483    35.5175    27.3505
         ROT.     0.7145D+06                   983.6672     2.9808    29.7671
         INT.     0.2674D+09                  6123.9155    38.4983    57.1176
         TRA.     0.1752D+28                  1639.4454     4.9680    41.0998
         TOT.                       30.306    7763.3609    43.4663    98.2174

 340.00  VIB.     0.4750D+03                  5502.4734    36.9268    28.4317
         ROT.     0.7473D+06                  1013.4753     2.9808    29.8561
         INT.     0.3550D+09                  6515.9487    39.9076    58.2878
         TRA.     0.1832D+28                  1689.1255     4.9680    41.2481
         TOT.                       30.747    8205.0742    44.8756    99.5360

 350.00  VIB.     0.6042D+03                  5878.7627    38.3298    29.5224
         ROT.     0.7805D+06                  1043.2834     2.9808    29.9425
         INT.     0.4716D+09                  6922.0461    41.3106    59.4649
         TRA.     0.1914D+28                  1738.8057     4.9680    41.3921
         TOT.                       31.203    8660.8518    46.2786   100.8570

 360.00  VIB.     0.7700D+03                  6269.0391    39.7238    30.6217
         ROT.     0.8142D+06                  1073.0915     2.9808    30.0265
         INT.     0.6269D+09                  7342.1306    42.7046    60.6482
         TRA.     0.1996D+28                  1788.4859     4.9680    41.5321
         TOT.                       31.673    9130.6165    47.6726   102.1803

 370.00  VIB.     0.9831D+03                  6673.1990    41.1061    31.7290
         ROT.     0.8483D+06                  1102.8996     2.9808    30.1082
         INT.     0.8340D+09                  7776.0987    44.0869    61.8372
         TRA.     0.2080D+28                  1838.1660     4.9680    41.6682
         TOT.                       32.157    9614.2647    49.0549   103.5054

 380.00  VIB.     0.1258D+04                  7091.1151    42.4747    32.8434
         ROT.     0.8829D+06                  1132.7077     2.9808    30.1877
         INT.     0.1110D+10                  8223.8229    45.4555    63.0311
         TRA.     0.2165D+28                  1887.8462     4.9680    41.8007
         TOT.                       32.654   10111.6690    50.4235   104.8318

 390.00  VIB.     0.1612D+04                  7522.6397    43.8275    33.9643
         ROT.     0.9180D+06                  1162.5158     2.9808    30.2651
         INT.     0.1479D+10                  8685.1555    46.8083    64.2294
         TRA.     0.2251D+28                  1937.5263     4.9680    41.9297
         TOT.                       33.165   10622.6819    51.7763   106.1591

 400.00  VIB.     0.2069D+04                  7967.6076    45.1631    35.0908
         ROT.     0.9536D+06                  1192.3239     2.9808    30.3406
         INT.     0.1973D+10                  9159.9315    48.1439    65.4313
         TRA.     0.2338D+28                  1987.2065     4.9680    42.0555
         TOT.                       33.690   11147.1380    53.1119   107.4868

   *: NOTE: HEATS OF FORMATION ARE RELATIVE TO THE
            ELEMENTS IN THEIR STANDARD STATE AT 298K
              (=  Standard Enthalpy of Formation).

            Hvib:  Zero-point energy is not included.
                   frequencies of less than zero cm-1 are not included.
            Hrot = (3/2)RT
            Htra = (3/2)RT + pV = (5/2)RT

            Heat capacity is Cp, not Cv

           For more information, see: HTTP://OpenMOPAC.net/Manual/thermochemistry.html


           FORCE CONSTANT IN CARTESIAN COORDINATES (Millidynes/A)

    ATOM   CHEMICAL       X               Y               Z
   NUMBER   SYMBOL  FORCE CONSTANT  FORCE CONSTANT  FORCE CONSTANT

      1       C        8.014439        7.573028        8.985495
      2       C        7.914831        7.636549        8.925207
      3       C        7.901888        7.590140        9.548161
      4       C        8.037146        7.533314        9.257310
      5       C        8.127557        9.465615        7.713890
      6       C        8.399370        8.400122        8.346611
      7       C        4.179623       14.523151        8.788603
      8       C        4.632430       11.866195       10.800279
      9       C       11.120836        7.008265        9.218716
     10       C       10.870764        6.570335        9.059592
     11       H        1.447693        1.498421        3.436755
     12       H        1.367826        1.226988        3.646370
     13       H        1.551319        1.560341        3.200059
     14       H        1.173405        1.212023        3.838865
     15       H        2.272374        2.036691        2.059211
     16       H        3.749322        1.794075        0.842378
     17       H        1.399873        1.218351        4.150500
     18       H        0.778424        5.252042        0.719081
     19       H        5.247968        0.804360        0.699646
     20       H        1.383433        0.713266        4.326281
     21       H        0.466467        4.960480        0.985728
     22       H        1.204700        0.607351        4.376859
     23       H        1.311967        0.631775        4.522102
     24       H        1.679306        1.350735        3.452321



 TOTAL CPU TIME:             3.99 SECONDS

 == MOPAC DONE ==
