 *******************************************************************************
 ** Site#: 14399           For non-commercial use only        Version 13.159M **
 *******************************************************************************
 ** Cite this work as: MOPAC2012, James J. P. Stewart, Stewart Computational  **
 ** Chemistry, Version 13.159M web: HTTP://OpenMOPAC.net  Days remaining:   6 **
 *******************************************************************************
 **                                                                           **
 **                                MOPAC2012                                  **
 **                                                                           **
 *******************************************************************************

                            PM3 CALCULATION RESULTS


 *******************************************************************************
 *  CALCULATION DONE:                                Mon Jun  2 14:10:46 2014  *
 *  PM3      - The PM3 Hamiltonian to be used
 *  PRECISE  - CRITERIA TO BE INCREASED BY 100 TIMES
 *  NOSYM    - POINT-GROUP SYMMETRY SET TO C1
 *  T=       - A TIME OF 172800.0 SECONDS REQUESTED
 *  DUMP=N   - RESTART FILE WRITTEN EVERY  7200.000 SECONDS
 *******************************************************************************
pm3  precise nosym
 InChI=1S/C7H12/c1-2-3-4-7-5-6-7/h3-4,7H,2,5-6H2,1H3

   ATOM   CHEMICAL          X               Y               Z
  NUMBER   SYMBOL      (ANGSTROMS)     (ANGSTROMS)     (ANGSTROMS)
 
     1       C         -1.83910000  *   0.39880000  *  -0.36720000  *
     2       C         -2.00360000  *   0.09740000  *   1.21050000  *
     3       C         -2.69950000  *  -0.66390000  *   0.16950000  *
     4       C          1.95880000  *   0.21290000  *  -1.13970000  *
     5       C          2.89970000  *  -0.23900000  *  -0.03040000  *
     6       C         -0.51400000  *  -0.02130000  *  -0.93000000  *
     7       C          0.61850000  *   0.60420000  *  -0.58570000  *
     8       H         -2.30230000  *   1.36110000  *  -0.68330000  *
     9       H         -2.63280000  *   0.83690000  *   1.75570000  *
    10       H         -1.16040000  *  -0.44050000  *   1.70220000  *
    11       H         -3.78980000  *  -0.44880000  *   0.09430000  *
    12       H         -2.34260000  *  -1.71330000  *   0.04900000  *
    13       H          1.88290000  *  -0.60260000  *  -1.89670000  *
    14       H          2.39690000  *   1.09750000  *  -1.65590000  *
    15       H          3.05900000  *   0.57370000  *   0.71500000  *
    16       H          2.49280000  *  -1.13580000  *   0.49070000  *
    17       H          3.89020000  *  -0.50850000  *  -0.46210000  *
    18       H          0.58290000  *   1.43040000  *   0.12480000  *
    19       H         -0.49740000  *  -0.83920000  *  -1.64960000  *
 


          CARTESIAN COORDINATES 

    NO.       ATOM         X         Y         Z

     1         C       -1.8391    0.3988   -0.3672
     2         C       -2.0036    0.0974    1.2105
     3         C       -2.6995   -0.6639    0.1695
     4         C        1.9588    0.2129   -1.1397
     5         C        2.8997   -0.2390   -0.0304
     6         C       -0.5140   -0.0213   -0.9300
     7         C        0.6185    0.6042   -0.5857
     8         H       -2.3023    1.3611   -0.6833
     9         H       -2.6328    0.8369    1.7557
    10         H       -1.1604   -0.4405    1.7022
    11         H       -3.7898   -0.4488    0.0943
    12         H       -2.3426   -1.7133    0.0490
    13         H        1.8829   -0.6026   -1.8967
    14         H        2.3969    1.0975   -1.6559
    15         H        3.0590    0.5737    0.7150
    16         H        2.4928   -1.1358    0.4907
    17         H        3.8902   -0.5085   -0.4621
    18         H        0.5829    1.4304    0.1248
    19         H       -0.4974   -0.8392   -1.6496

  H: (PM3): J. J. P. STEWART, J. COMP. CHEM. 10, 209 (1989).
  C: (PM3): J. J. P. STEWART, J. COMP. CHEM. 10, 209 (1989).

           Empirical Formula: C7 H12  =    19 atoms



      MOLECULAR POINT GROUP   :   C1  


      RHF CALCULATION, NO. OF DOUBLY OCCUPIED LEVELS =   20

      Geometry optimization using EF

          DIAGONAL MATRIX USED AS START HESSIAN

 CYCLE:     1 TIME:   0.006 TIME LEFT:  2.00D  GRAD.:   107.587 HEAT: 30.84582
 CYCLE:     2 TIME:   0.009 TIME LEFT:  2.00D  GRAD.:    61.630 HEAT: 24.99500
 CYCLE:     3 TIME:   0.008 TIME LEFT:  2.00D  GRAD.:    78.267 HEAT: 23.53042
 CYCLE:     4 TIME:   0.005 TIME LEFT:  2.00D  GRAD.:    52.019 HEAT: 21.89740
 CYCLE:     5 TIME:   0.008 TIME LEFT:  2.00D  GRAD.:    60.133 HEAT: 21.16666
 CYCLE:     6 TIME:   0.005 TIME LEFT:  2.00D  GRAD.:    75.817 HEAT: 21.16636
 CYCLE:     7 TIME:   0.005 TIME LEFT:  2.00D  GRAD.:    62.011 HEAT: 20.44878
 CYCLE:     8 TIME:   0.008 TIME LEFT:  2.00D  GRAD.:    37.327 HEAT: 19.84674
 CYCLE:     9 TIME:   0.008 TIME LEFT:  2.00D  GRAD.:    12.613 HEAT: 19.57847
 CYCLE:    10 TIME:   0.012 TIME LEFT:  2.00D  GRAD.:    12.271 HEAT: 19.53223
 CYCLE:    11 TIME:   0.005 TIME LEFT:  2.00D  GRAD.:     9.917 HEAT: 19.47356
 CYCLE:    12 TIME:   0.005 TIME LEFT:  2.00D  GRAD.:     8.515 HEAT: 19.41085
 CYCLE:    13 TIME:   0.005 TIME LEFT:  2.00D  GRAD.:    10.015 HEAT: 19.37011
 CYCLE:    14 TIME:   0.004 TIME LEFT:  2.00D  GRAD.:     8.420 HEAT: 19.35387
 CYCLE:    15 TIME:   0.005 TIME LEFT:  2.00D  GRAD.:     8.380 HEAT: 19.34070
 CYCLE:    16 TIME:   0.004 TIME LEFT:  2.00D  GRAD.:     6.616 HEAT: 19.32981
 CYCLE:    17 TIME:   0.004 TIME LEFT:  2.00D  GRAD.:     5.592 HEAT: 19.31791
 CYCLE:    18 TIME:   0.008 TIME LEFT:  2.00D  GRAD.:     5.105 HEAT: 19.31276
 CYCLE:    19 TIME:   0.004 TIME LEFT:  2.00D  GRAD.:     3.736 HEAT: 19.30331
 CYCLE:    20 TIME:   0.004 TIME LEFT:  2.00D  GRAD.:     2.393 HEAT: 19.29354
 CYCLE:    21 TIME:   0.005 TIME LEFT:  2.00D  GRAD.:     6.103 HEAT: 19.28484
 CYCLE:    22 TIME:   0.004 TIME LEFT:  2.00D  GRAD.:     3.400 HEAT: 19.27412
 CYCLE:    23 TIME:   0.004 TIME LEFT:  2.00D  GRAD.:     3.784 HEAT: 19.27133
 CYCLE:    24 TIME:   0.004 TIME LEFT:  2.00D  GRAD.:     1.856 HEAT: 19.26547
 CYCLE:    25 TIME:   0.004 TIME LEFT:  2.00D  GRAD.:     2.101 HEAT: 19.26152
 CYCLE:    26 TIME:   0.004 TIME LEFT:  2.00D  GRAD.:     2.406 HEAT: 19.25605
 CYCLE:    27 TIME:   0.004 TIME LEFT:  2.00D  GRAD.:     1.898 HEAT: 19.25103
 CYCLE:    28 TIME:   0.004 TIME LEFT:  2.00D  GRAD.:     1.823 HEAT: 19.24631
 CYCLE:    29 TIME:   0.004 TIME LEFT:  2.00D  GRAD.:     2.577 HEAT: 19.23821
 CYCLE:    30 TIME:   0.004 TIME LEFT:  2.00D  GRAD.:     3.362 HEAT: 19.22095
 CYCLE:    31 TIME:   0.004 TIME LEFT:  2.00D  GRAD.:     2.698 HEAT: 19.20623
 CYCLE:    32 TIME:   0.004 TIME LEFT:  2.00D  GRAD.:     1.898 HEAT: 19.19241
 CYCLE:    33 TIME:   0.004 TIME LEFT:  2.00D  GRAD.:     1.593 HEAT: 19.18684
 CYCLE:    34 TIME:   0.005 TIME LEFT:  2.00D  GRAD.:     1.443 HEAT: 19.17934
 CYCLE:    35 TIME:   0.004 TIME LEFT:  2.00D  GRAD.:     1.366 HEAT: 19.17602
 CYCLE:    36 TIME:   0.005 TIME LEFT:  2.00D  GRAD.:     1.315 HEAT: 19.17165
 CYCLE:    37 TIME:   0.004 TIME LEFT:  2.00D  GRAD.:     1.303 HEAT: 19.16926
 CYCLE:    38 TIME:   0.004 TIME LEFT:  2.00D  GRAD.:     0.915 HEAT: 19.16745
 CYCLE:    39 TIME:   0.004 TIME LEFT:  2.00D  GRAD.:     0.829 HEAT: 19.16527
 CYCLE:    40 TIME:   0.004 TIME LEFT:  2.00D  GRAD.:     0.893 HEAT: 19.16363
 CYCLE:    41 TIME:   0.005 TIME LEFT:  2.00D  GRAD.:     0.851 HEAT: 19.16173
 CYCLE:    42 TIME:   0.005 TIME LEFT:  2.00D  GRAD.:     0.645 HEAT: 19.16048
 CYCLE:    43 TIME:   0.004 TIME LEFT:  2.00D  GRAD.:     0.569 HEAT: 19.15959
 CYCLE:    44 TIME:   0.004 TIME LEFT:  2.00D  GRAD.:     0.547 HEAT: 19.15898
 CYCLE:    45 TIME:   0.004 TIME LEFT:  2.00D  GRAD.:     0.580 HEAT: 19.15818
 CYCLE:    46 TIME:   0.005 TIME LEFT:  2.00D  GRAD.:     0.667 HEAT: 19.15717
 CYCLE:    47 TIME:   0.005 TIME LEFT:  2.00D  GRAD.:     0.874 HEAT: 19.15553
 CYCLE:    48 TIME:   0.005 TIME LEFT:  2.00D  GRAD.:     1.044 HEAT: 19.15329
 CYCLE:    49 TIME:   0.005 TIME LEFT:  2.00D  GRAD.:     1.442 HEAT: 19.14790
 CYCLE:    50 TIME:   0.005 TIME LEFT:  2.00D  GRAD.:     1.368 HEAT: 19.14360
 CYCLE:    51 TIME:   0.005 TIME LEFT:  2.00D  GRAD.:     2.068 HEAT: 19.13489
 CYCLE:    52 TIME:   0.005 TIME LEFT:  2.00D  GRAD.:     1.390 HEAT: 19.13193
 CYCLE:    53 TIME:   0.004 TIME LEFT:  2.00D  GRAD.:     0.998 HEAT: 19.12853
 CYCLE:    54 TIME:   0.005 TIME LEFT:  2.00D  GRAD.:     0.923 HEAT: 19.12380
 CYCLE:    55 TIME:   0.005 TIME LEFT:  2.00D  GRAD.:     1.089 HEAT: 19.12193
 CYCLE:    56 TIME:   0.005 TIME LEFT:  2.00D  GRAD.:     1.114 HEAT: 19.11929
 CYCLE:    57 TIME:   0.005 TIME LEFT:  2.00D  GRAD.:     0.814 HEAT: 19.11771
 CYCLE:    58 TIME:   0.005 TIME LEFT:  2.00D  GRAD.:     0.802 HEAT: 19.11503
 CYCLE:    59 TIME:   0.005 TIME LEFT:  2.00D  GRAD.:     0.700 HEAT: 19.11398
 CYCLE:    60 TIME:   0.005 TIME LEFT:  2.00D  GRAD.:     0.631 HEAT: 19.11295
 CYCLE:    61 TIME:   0.004 TIME LEFT:  2.00D  GRAD.:     0.661 HEAT: 19.11216
 CYCLE:    62 TIME:   0.005 TIME LEFT:  2.00D  GRAD.:     0.856 HEAT: 19.11038
 CYCLE:    63 TIME:   0.005 TIME LEFT:  2.00D  GRAD.:     1.059 HEAT: 19.10803
 CYCLE:    64 TIME:   0.005 TIME LEFT:  2.00D  GRAD.:     1.006 HEAT: 19.10600
 CYCLE:    65 TIME:   0.005 TIME LEFT:  2.00D  GRAD.:     0.667 HEAT: 19.10516
 CYCLE:    66 TIME:   0.005 TIME LEFT:  2.00D  GRAD.:     0.574 HEAT: 19.10429
 CYCLE:    67 TIME:   0.004 TIME LEFT:  2.00D  GRAD.:     0.580 HEAT: 19.10362
 CYCLE:    68 TIME:   0.005 TIME LEFT:  2.00D  GRAD.:     0.604 HEAT: 19.10243
 CYCLE:    69 TIME:   0.004 TIME LEFT:  2.00D  GRAD.:     0.520 HEAT: 19.10186
 CYCLE:    70 TIME:   0.004 TIME LEFT:  2.00D  GRAD.:     0.449 HEAT: 19.10132
 CYCLE:    71 TIME:   0.004 TIME LEFT:  2.00D  GRAD.:     0.375 HEAT: 19.10098
 CYCLE:    72 TIME:   0.004 TIME LEFT:  2.00D  GRAD.:     0.302 HEAT: 19.10070
 CYCLE:    73 TIME:   0.005 TIME LEFT:  2.00D  GRAD.:     0.284 HEAT: 19.10048
 CYCLE:    74 TIME:   0.005 TIME LEFT:  2.00D  GRAD.:     0.272 HEAT: 19.10028
 CYCLE:    75 TIME:   0.005 TIME LEFT:  2.00D  GRAD.:     0.277 HEAT: 19.10009
 CYCLE:    76 TIME:   0.004 TIME LEFT:  2.00D  GRAD.:     0.322 HEAT: 19.09990
 CYCLE:    77 TIME:   0.004 TIME LEFT:  2.00D  GRAD.:     0.449 HEAT: 19.09965
 CYCLE:    78 TIME:   0.005 TIME LEFT:  2.00D  GRAD.:     0.560 HEAT: 19.09920
 CYCLE:    79 TIME:   0.004 TIME LEFT:  2.00D  GRAD.:     0.566 HEAT: 19.09863
 CYCLE:    80 TIME:   0.005 TIME LEFT:  2.00D  GRAD.:     1.076 HEAT: 19.09563
 CYCLE:    81 TIME:   0.004 TIME LEFT:  2.00D  GRAD.:     0.803 HEAT: 19.09429
 CYCLE:    82 TIME:   0.004 TIME LEFT:  2.00D  GRAD.:     0.444 HEAT: 19.09262
 CYCLE:    83 TIME:   0.004 TIME LEFT:  2.00D  GRAD.:     0.444 HEAT: 19.09168
 CYCLE:    84 TIME:   0.005 TIME LEFT:  2.00D  GRAD.:     0.440 HEAT: 19.09112
 CYCLE:    85 TIME:   0.005 TIME LEFT:  2.00D  GRAD.:     0.407 HEAT: 19.09071
 CYCLE:    86 TIME:   0.005 TIME LEFT:  2.00D  GRAD.:     0.365 HEAT: 19.09017
 CYCLE:    87 TIME:   0.005 TIME LEFT:  2.00D  GRAD.:     0.286 HEAT: 19.08993
 CYCLE:    88 TIME:   0.004 TIME LEFT:  2.00D  GRAD.:     0.266 HEAT: 19.08966
 CYCLE:    89 TIME:   0.004 TIME LEFT:  2.00D  GRAD.:     0.225 HEAT: 19.08953
 CYCLE:    90 TIME:   0.004 TIME LEFT:  2.00D  GRAD.:     0.261 HEAT: 19.08939
 CYCLE:    91 TIME:   0.005 TIME LEFT:  2.00D  GRAD.:     0.550 HEAT: 19.08880
 CYCLE:    92 TIME:   0.008 TIME LEFT:  2.00D  GRAD.:     0.596 HEAT: 19.08828
 CYCLE:    93 TIME:   0.005 TIME LEFT:  2.00D  GRAD.:     1.726 HEAT: 19.08349
 CYCLE:    94 TIME:   0.005 TIME LEFT:  2.00D  GRAD.:     1.208 HEAT: 19.07994
 CYCLE:    95 TIME:   0.005 TIME LEFT:  2.00D  GRAD.:     1.113 HEAT: 19.07484
 CYCLE:    96 TIME:   0.005 TIME LEFT:  2.00D  GRAD.:     1.330 HEAT: 19.06998
 CYCLE:    97 TIME:   0.005 TIME LEFT:  2.00D  GRAD.:     1.089 HEAT: 19.06720
 CYCLE:    98 TIME:   0.005 TIME LEFT:  2.00D  GRAD.:     2.147 HEAT: 19.06580
 CYCLE:    99 TIME:   0.004 TIME LEFT:  2.00D  GRAD.:     0.909 HEAT: 19.06270
 CYCLE:   100 TIME:   0.005 TIME LEFT:  2.00D  GRAD.:     0.661 HEAT: 19.06189
 CYCLE:   101 TIME:   0.004 TIME LEFT:  2.00D  GRAD.:     0.611 HEAT: 19.06140
 CYCLE:   102 TIME:   0.004 TIME LEFT:  2.00D  GRAD.:     0.484 HEAT: 19.06107
 CYCLE:   103 TIME:   0.004 TIME LEFT:  2.00D  GRAD.:     0.330 HEAT: 19.06084
 CYCLE:   104 TIME:   0.004 TIME LEFT:  2.00D  GRAD.:     0.218 HEAT: 19.06070
 CYCLE:   105 TIME:   0.004 TIME LEFT:  2.00D  GRAD.:     0.145 HEAT: 19.06061
 CYCLE:   106 TIME:   0.004 TIME LEFT:  2.00D  GRAD.:     0.089 HEAT: 19.06056
 CYCLE:   107 TIME:   0.004 TIME LEFT:  2.00D  GRAD.:     0.066 HEAT: 19.06056
 CYCLE:   108 TIME:   0.004 TIME LEFT:  2.00D  GRAD.:     0.206 HEAT: 19.06064
 CYCLE:   109 TIME:   0.004 TIME LEFT:  2.00D  GRAD.:     0.033 HEAT: 19.06055

     RMS GRADIENT =  0.03341  IS LESS THAN CUTOFF =  0.05000



 -------------------------------------------------------------------------------
pm3  precise nosym
 InChI=1S/C7H12/c1-2-3-4-7-5-6-7/h3-4,7H,2,5-6H2,1H3



     GEOMETRY OPTIMISED USING EIGENVECTOR FOLLOWING (EF).     
     SCF FIELD WAS ACHIEVED                                   


                              PM3 CALCULATION
                                                       MOPAC2012 (Version: 13.159M)
                                                       Mon Jun  2 14:10:47 2014
                                                       No. of days left =   6




          FINAL HEAT OF FORMATION =         19.06055 KCAL/MOL =      79.74935 KJ/MOL


          TOTAL ENERGY            =      -1013.64851 EV
          ELECTRONIC ENERGY       =      -4701.05799 EV  POINT GROUP:     C1  
          CORE-CORE REPULSION     =       3687.40948 EV
          COSMO AREA              =        159.47 SQUARE ANGSTROMS
          COSMO VOLUME            =        148.86 CUBIC ANGSTROMS

          GRADIENT NORM           =          0.03341
          IONIZATION POTENTIAL    =          9.762431 EV
          HOMO LUMO ENERGIES (EV) =         -9.762  1.085
          NO. OF FILLED LEVELS    =         20
          MOLECULAR WEIGHT        =         96.172

          MOLECULAR DIMENSIONS (Angstroms)

            Atom       Atom       Distance
            H    17    H    11     7.69996
            H    19    H     9     3.71228
            H    12    H     8     3.14155


          SCF CALCULATIONS        =        117
          COMPUTATION TIME        =          0.537 SECONDS




   ATOM   CHEMICAL          X               Y               Z
  NUMBER   SYMBOL      (ANGSTROMS)     (ANGSTROMS)     (ANGSTROMS)
 
     1       C         -1.84093310  *   0.36613028  *  -0.35519773  *
     2       C         -2.05281155  *   0.26570022  *   1.13031274  *
     3       C         -2.66094279  *  -0.75624610  *   0.22019452  *
     4       C          1.93848972  *   0.23690034  *  -1.09823358  *
     5       C          2.94560026  *  -0.28533828  *  -0.09615255  *
     6       C         -0.53154544  *   0.06709068  *  -0.96229397  *
     7       C          0.62299404  *   0.50050863  *  -0.45542005  *
     8       H         -2.35836743  *   1.17094467  *  -0.91019913  *
     9       H         -2.69002346  *   0.99703012  *   1.63883886  *
    10       H         -1.21734891  *  -0.01273068  *   1.78318850  *
    11       H         -3.74434263  *  -0.77566431  *   0.06112332  *
    12       H         -2.26763644  *  -1.77888283  *   0.20917694  *
    13       H          1.83693532  *  -0.47596342  *  -1.94105212  *
    14       H          2.30157040  *   1.18306167  *  -1.54802893  *
    15       H          3.09511507  *   0.41774451  *   0.73405823  *
    16       H          2.62359494  *  -1.23996656  *   0.33956367  *
    17       H          3.92316729  *  -0.45158546  *  -0.56631969  *
    18       H          0.64651359  *   1.08405309  *   0.47404700  *
    19       H         -0.56995429  *  -0.52663043  *  -1.88433593  *

           Empirical Formula: C7 H12  =    19 atoms



      MOLECULAR POINT GROUP   :   C1  


                  EIGENVALUES  
 -39.75057 -35.89720 -29.37242 -23.72221 -22.35726 -20.78751 -18.94551 -17.12680
 -16.85459 -15.74499 -15.15137 -14.00782 -13.40426 -12.90130 -12.30309 -12.21977
 -12.02077 -11.81933 -11.35374  -9.76243   1.08481   2.95612   3.15611   3.34179
   3.49162   3.69668   3.81788   3.95545   4.02150   4.10322   4.21571   4.51649
   4.73007   4.84255   4.85269   4.91392   4.94965   4.96646   5.74748   5.97099


              NET ATOMIC CHARGES AND DIPOLE CONTRIBUTIONS

  ATOM NO.   TYPE          CHARGE      No. of ELECS.   s-Pop       p-Pop       
    1          C          -0.102186        4.1022     1.16056     2.94163
    2          C          -0.149868        4.1499     1.16095     2.98892
    3          C          -0.146333        4.1463     1.16080     2.98553
    4          C          -0.060740        4.0607     1.14552     2.91522
    5          C          -0.105896        4.1059     1.13767     2.96823
    6          C          -0.123766        4.1238     1.18614     2.93763
    7          C          -0.147014        4.1470     1.19613     2.95088
    8          H           0.097781        0.9022     0.90222
    9          H           0.075702        0.9243     0.92430
   10          H           0.081230        0.9188     0.91877
   11          H           0.075076        0.9249     0.92492
   12          H           0.080161        0.9198     0.91984
   13          H           0.051049        0.9490     0.94895
   14          H           0.053113        0.9469     0.94689
   15          H           0.037887        0.9621     0.96211
   16          H           0.039761        0.9602     0.96024
   17          H           0.036750        0.9632     0.96325
   18          H           0.104164        0.8958     0.89584
   19          H           0.103128        0.8969     0.89687
 DIPOLE           X         Y         Z       TOTAL
 POINT-CHG.     0.115     0.012    -0.033     0.121
 HYBRID        -0.024     0.005     0.027     0.036
 SUM            0.092     0.017    -0.006     0.093


          ATOMIC ORBITAL ELECTRON POPULATIONS

    Atom      s        px        py        pz   
    1  C   1.16056   0.96994   1.01110   0.96059
    2  C   1.16095   1.03328   1.02414   0.93150
    3  C   1.16080   0.99175   0.95247   1.04131
    4  C   1.14552   0.93946   1.00437   0.97139
    5  C   1.13767   0.97862   1.00456   0.98504
    6  C   1.18614   0.93609   1.00586   0.99567
    7  C   1.19613   0.94779   1.00295   1.00014
    8  H   0.90222
    9  H   0.92430
   10  H   0.91877
   11  H   0.92492
   12  H   0.91984
   13  H   0.94895
   14  H   0.94689
   15  H   0.96211
   16  H   0.96024
   17  H   0.96325
   18  H   0.89584
   19  H   0.89687
 *******************************************************************************
 ** Site#: 14399           For non-commercial use only        Version 13.159M **
 *******************************************************************************
 ** Cite this work as: MOPAC2012, James J. P. Stewart, Stewart Computational  **
 ** Chemistry, Version 13.159M web: HTTP://OpenMOPAC.net  Days remaining:   6 **
 *******************************************************************************
 **                                                                           **
 **                                MOPAC2012                                  **
 **                                                                           **
 *******************************************************************************

                            PM3 CALCULATION RESULTS


 *******************************************************************************
 *  CALCULATION DONE:                                Mon Jun  2 14:10:47 2014  *
 *  PM3      - The PM3 Hamiltonian to be used
 *  OLDGEO   - PREVIOUS GEOMETRY TO BE USED
 *  PRECISE  - CRITERIA TO BE INCREASED BY 100 TIMES
 *  NOSYM    - POINT-GROUP SYMMETRY SET TO C1
 *  T=       - A TIME OF 172800.0 SECONDS REQUESTED
 *  DUMP=N   - RESTART FILE WRITTEN EVERY  7200.000 SECONDS
 *  THERMO   - THERMODYNAMIC QUANTITIES TO BE CALCULATED
 *******************************************************************************
oldgeo thermo nosym precise  pm3

   ATOM   CHEMICAL          X               Y               Z
  NUMBER   SYMBOL      (ANGSTROMS)     (ANGSTROMS)     (ANGSTROMS)
 
     1       C         -1.84093310  *   0.36613028  *  -0.35519773  *
     2       C         -2.05281155  *   0.26570022  *   1.13031274  *
     3       C         -2.66094279  *  -0.75624610  *   0.22019452  *
     4       C          1.93848972  *   0.23690034  *  -1.09823358  *
     5       C          2.94560026  *  -0.28533828  *  -0.09615255  *
     6       C         -0.53154544  *   0.06709068  *  -0.96229397  *
     7       C          0.62299404  *   0.50050863  *  -0.45542005  *
     8       H         -2.35836743  *   1.17094467  *  -0.91019913  *
     9       H         -2.69002346  *   0.99703012  *   1.63883886  *
    10       H         -1.21734891  *  -0.01273068  *   1.78318850  *
    11       H         -3.74434263  *  -0.77566431  *   0.06112332  *
    12       H         -2.26763644  *  -1.77888283  *   0.20917694  *
    13       H          1.83693532  *  -0.47596342  *  -1.94105212  *
    14       H          2.30157040  *   1.18306167  *  -1.54802893  *
    15       H          3.09511507  *   0.41774451  *   0.73405823  *
    16       H          2.62359494  *  -1.23996656  *   0.33956367  *
    17       H          3.92316729  *  -0.45158546  *  -0.56631969  *
    18       H          0.64651359  *   1.08405309  *   0.47404700  *
    19       H         -0.56995429  *  -0.52663043  *  -1.88433593  *
 


          CARTESIAN COORDINATES 

    NO.       ATOM         X         Y         Z

     1         C       -1.8409    0.3661   -0.3552
     2         C       -2.0528    0.2657    1.1303
     3         C       -2.6609   -0.7562    0.2202
     4         C        1.9385    0.2369   -1.0982
     5         C        2.9456   -0.2853   -0.0962
     6         C       -0.5315    0.0671   -0.9623
     7         C        0.6230    0.5005   -0.4554
     8         H       -2.3584    1.1709   -0.9102
     9         H       -2.6900    0.9970    1.6388
    10         H       -1.2173   -0.0127    1.7832
    11         H       -3.7443   -0.7757    0.0611
    12         H       -2.2676   -1.7789    0.2092
    13         H        1.8369   -0.4760   -1.9411
    14         H        2.3016    1.1831   -1.5480
    15         H        3.0951    0.4177    0.7341
    16         H        2.6236   -1.2400    0.3396
    17         H        3.9232   -0.4516   -0.5663
    18         H        0.6465    1.0841    0.4740
    19         H       -0.5700   -0.5266   -1.8843

  H: (PM3): J. J. P. STEWART, J. COMP. CHEM. 10, 209 (1989).
  C: (PM3): J. J. P. STEWART, J. COMP. CHEM. 10, 209 (1989).

           Empirical Formula: C7 H12  =    19 atoms



      MOLECULAR POINT GROUP   :   C1  


      RHF CALCULATION, NO. OF DOUBLY OCCUPIED LEVELS =   20



          HEAT OF FORMATION =      19.060553 KCALS/MOLE


          INTERNAL COORDINATE DERIVATIVES

   NUMBER  ATOM       BOND         ANGLE      DIHEDRAL

     1       C     -0.007605    -0.006244    -0.003439
     2       C      0.004932    -0.004593    -0.003777
     3       C      0.000739     0.005966    -0.003379
     4       C     -0.001915    -0.000133    -0.001165
     5       C      0.001490     0.003794    -0.001187
     6       C     -0.001037    -0.006403     0.005991
     7       C     -0.000198    -0.000850     0.001697
     8       H     -0.000779     0.000242    -0.002467
     9       H      0.001755    -0.008070    -0.000357
    10       H      0.002325     0.005732     0.001056
    11       H      0.000250     0.005664     0.001388
    12       H      0.001705     0.005004     0.005615
    13       H     -0.003907     0.004799    -0.003028
    14       H     -0.003311    -0.005585    -0.000357
    15       H      0.003470    -0.007278    -0.002423
    16       H      0.003228     0.001907     0.012761
    17       H      0.002534     0.004103    -0.009276
    18       H     -0.005970     0.007535     0.002425
    19       H      0.002292    -0.005591    -0.000079


          GRADIENT NORM =   0.03332


          TIME FOR SCF CALCULATION =    0.00

          TIME FOR DERIVATIVES     =    0.00

          MOLECULAR WEIGHT =   96.17



          ROTATIONAL CONSTANTS IN CM(-1)

          A =    0.23706020   B =    0.03803533   C =    0.03622526



           PRINCIPAL MOMENTS OF INERTIA IN UNITS OF 10**(-40)*GRAM-CM**2

          A =      118.0830   B =      735.9677   C =      772.7419


          ORIENTATION OF MOLECULE IN FORCE CALCULATION

    NO.       ATOM         X         Y         Z

     1          C       0.0777    0.6648   -1.5589
     2          C       1.5816    0.6648   -1.5589
     3          C       0.8366    1.9638   -1.5589
     4          C      -1.1801   -1.2037    1.5683
     5          C      -0.2972   -1.4601    2.7708
     6          C      -0.6864    0.2741   -0.3606
     7          C      -0.3774   -0.7852    0.3877
     8          H      -0.4513    0.3593   -2.4810
     9          H       2.1249    0.3430   -2.4538
    10          H       2.1274    0.3483   -0.6624
    11          H       0.8334    2.5959   -2.4533
    12          H       0.8386    2.5930   -0.6619
    13          H      -1.9507   -0.4469    1.8176
    14          H      -1.7387   -2.1234    1.3007
    15          H       0.4548   -2.2335    2.5656
    16          H       0.2423   -0.5542    3.0759
    17          H      -0.8883   -1.7966    3.6321
    18          H       0.4984   -1.4042    0.1536
    19          H      -1.5522    0.9086   -0.1325


    FIRST DERIVATIVES WILL BE USED IN THE CALCULATION OF SECOND DERIVATIVES

          ESTIMATED TIME TO COMPLETE CALCULATION =        1.37 SECONDS

    FOR POINT-GROUP C1   THERE ARE   1 UNIQUE SYMMETRY FUNCTIONS.

 STEP:   1 TIME =     0.02 SECS, INTEGRAL =      0.02 TIME LEFT: 172799.97
 STEP:   2 TIME =     0.02 SECS, INTEGRAL =      0.04 TIME LEFT: 172799.95
 STEP:   3 TIME =     0.02 SECS, INTEGRAL =      0.06 TIME LEFT: 172799.93
 STEP:   4 TIME =     0.02 SECS, INTEGRAL =      0.08 TIME LEFT: 172799.91
 STEP:   5 TIME =     0.02 SECS, INTEGRAL =      0.10 TIME LEFT: 172799.89
 STEP:   6 TIME =     0.02 SECS, INTEGRAL =      0.12 TIME LEFT: 172799.87
 STEP:   7 TIME =     0.02 SECS, INTEGRAL =      0.14 TIME LEFT: 172799.85
 STEP:   8 TIME =     0.02 SECS, INTEGRAL =      0.16 TIME LEFT: 172799.83
 STEP:   9 TIME =     0.02 SECS, INTEGRAL =      0.18 TIME LEFT: 172799.81
 STEP:  10 TIME =     0.02 SECS, INTEGRAL =      0.20 TIME LEFT: 172799.79
 STEP:  11 TIME =     0.02 SECS, INTEGRAL =      0.22 TIME LEFT: 172799.77
 STEP:  12 TIME =     0.02 SECS, INTEGRAL =      0.24 TIME LEFT: 172799.75
 STEP:  13 TIME =     0.02 SECS, INTEGRAL =      0.26 TIME LEFT: 172799.74
 STEP:  14 TIME =     0.02 SECS, INTEGRAL =      0.28 TIME LEFT: 172799.72
 STEP:  15 TIME =     0.02 SECS, INTEGRAL =      0.30 TIME LEFT: 172799.70
 STEP:  16 TIME =     0.02 SECS, INTEGRAL =      0.32 TIME LEFT: 172799.67
 STEP:  17 TIME =     0.02 SECS, INTEGRAL =      0.34 TIME LEFT: 172799.65
 STEP:  18 TIME =     0.02 SECS, INTEGRAL =      0.36 TIME LEFT: 172799.63
 STEP:  19 TIME =     0.02 SECS, INTEGRAL =      0.38 TIME LEFT: 172799.61
 STEP:  20 TIME =     0.02 SECS, INTEGRAL =      0.41 TIME LEFT: 172799.59
 STEP:  21 TIME =     0.02 SECS, INTEGRAL =      0.43 TIME LEFT: 172799.57
 STEP:  22 TIME =     0.02 SECS, INTEGRAL =      0.45 TIME LEFT: 172799.54
 STEP:  23 TIME =     0.02 SECS, INTEGRAL =      0.47 TIME LEFT: 172799.52
 STEP:  24 TIME =     0.02 SECS, INTEGRAL =      0.49 TIME LEFT: 172799.50
 STEP:  25 TIME =     0.02 SECS, INTEGRAL =      0.51 TIME LEFT: 172799.48
 STEP:  26 TIME =     0.02 SECS, INTEGRAL =      0.53 TIME LEFT: 172799.46
 STEP:  27 TIME =     0.02 SECS, INTEGRAL =      0.55 TIME LEFT: 172799.44
 STEP:  28 TIME =     0.02 SECS, INTEGRAL =      0.57 TIME LEFT: 172799.42
 STEP:  29 TIME =     0.02 SECS, INTEGRAL =      0.59 TIME LEFT: 172799.40
 STEP:  30 TIME =     0.02 SECS, INTEGRAL =      0.61 TIME LEFT: 172799.38
 STEP:  31 TIME =     0.02 SECS, INTEGRAL =      0.63 TIME LEFT: 172799.36
 STEP:  32 TIME =     0.02 SECS, INTEGRAL =      0.65 TIME LEFT: 172799.34
 STEP:  33 TIME =     0.02 SECS, INTEGRAL =      0.67 TIME LEFT: 172799.32
 STEP:  34 TIME =     0.02 SECS, INTEGRAL =      0.69 TIME LEFT: 172799.30
 STEP:  35 TIME =     0.02 SECS, INTEGRAL =      0.71 TIME LEFT: 172799.28
 STEP:  36 TIME =     0.02 SECS, INTEGRAL =      0.73 TIME LEFT: 172799.26
 STEP:  37 TIME =     0.02 SECS, INTEGRAL =      0.75 TIME LEFT: 172799.24
 STEP:  38 TIME =     0.02 SECS, INTEGRAL =      0.77 TIME LEFT: 172799.22
 STEP:  39 TIME =     0.03 SECS, INTEGRAL =      0.80 TIME LEFT: 172799.20
 STEP:  40 TIME =     0.02 SECS, INTEGRAL =      0.82 TIME LEFT: 172799.18
 STEP:  41 TIME =     0.02 SECS, INTEGRAL =      0.84 TIME LEFT: 172799.16
 STEP:  42 TIME =     0.02 SECS, INTEGRAL =      0.86 TIME LEFT: 172799.14
 STEP:  43 TIME =     0.02 SECS, INTEGRAL =      0.88 TIME LEFT: 172799.12
 STEP:  44 TIME =     0.02 SECS, INTEGRAL =      0.90 TIME LEFT: 172799.10
 STEP:  45 TIME =     0.02 SECS, INTEGRAL =      0.92 TIME LEFT: 172799.08
 STEP:  46 TIME =     0.02 SECS, INTEGRAL =      0.94 TIME LEFT: 172799.06
 STEP:  47 TIME =     0.02 SECS, INTEGRAL =      0.96 TIME LEFT: 172799.04
 STEP:  48 TIME =     0.02 SECS, INTEGRAL =      0.98 TIME LEFT: 172799.02
 STEP:  49 TIME =     0.02 SECS, INTEGRAL =      1.00 TIME LEFT: 172799.00
 STEP:  50 TIME =     0.02 SECS, INTEGRAL =      1.02 TIME LEFT: 172798.98
 STEP:  51 TIME =     0.02 SECS, INTEGRAL =      1.04 TIME LEFT: 172798.96
 STEP:  52 TIME =     0.02 SECS, INTEGRAL =      1.06 TIME LEFT: 172798.94
 STEP:  53 TIME =     0.02 SECS, INTEGRAL =      1.08 TIME LEFT: 172798.92
 STEP:  54 TIME =     0.02 SECS, INTEGRAL =      1.10 TIME LEFT: 172798.90
 STEP:  55 TIME =     0.02 SECS, INTEGRAL =      1.12 TIME LEFT: 172798.88
 STEP:  56 TIME =     0.02 SECS, INTEGRAL =      1.14 TIME LEFT: 172798.86
 STEP:  57 TIME =     0.02 SECS, INTEGRAL =      1.16 TIME LEFT: 172798.84

(To convert to Hartree/Bohr^2, multiply by (10^(-21) x N x a0^2)/(4.184 x 627.51) = 0.0642)


           FORCE MATRIX IN MILLIDYNES/ANGSTROM


                  C  1       C  2       C  3       C  4       C  5       C  6
 ------------------------------------------------------------------------------
     C    1  15.920826
     C    2   4.843135  15.398271
     C    3   4.815674   5.124206  15.384856
     C    4   0.143797   0.006569   0.016763  14.701439
     C    5   0.018974   0.001228   0.003657   4.410056  14.351409
     C    6   5.344099   0.556572   0.581479   0.820947   0.040853  18.391493
     C    7   0.845867   0.037542   0.046787   4.973114   0.716989  10.705342
     H    8   4.530377   0.440630   0.445557   0.017504   0.001860   0.392045
     H    9   0.452953   4.844353   0.459751   0.000822   0.000400   0.045231
     H   10   0.465035   4.811912   0.461302   0.001895   0.000456   0.020846
     H   11   0.452918   0.459706   4.843594   0.002739   0.000903   0.043695
     H   12   0.465453   0.462184   4.832735   0.001116   0.000559   0.025437
     H   13   0.003367   0.000693   0.000580   4.440897   0.434722   0.049926
     H   14   0.019983   0.000939   0.002106   4.421406   0.445694   0.032459
     H   15   0.000717   0.000453   0.000237   0.464478   4.725311   0.002135
     H   16   0.000879   0.000247   0.000274   0.461130   4.746100   0.002530
     H   17   0.003513   0.000281   0.000747   0.448673   4.750869   0.007085
     H   18   0.085012   0.011420   0.007915   0.429870   0.025955   0.471860
     H   19   0.427078   0.040746   0.014020   0.082002   0.008139   4.768142


                  C  7       H  8       H  9       H 10       H 11       H 12
 ------------------------------------------------------------------------------
     C    7  18.205460
     H    8   0.024766   5.042059
     H    9   0.004661   0.020401   5.450753
     H   10   0.011417   0.038190   0.494714   5.422949
     H   11   0.006566   0.020216   0.020549   0.041844   5.450415
     H   12   0.004503   0.038968   0.042171   0.021260   0.494953   5.439186
     H   13   0.459564   0.000851   0.000194   0.000379   0.000179   0.000203
     H   14   0.408321   0.003164   0.000213   0.000392   0.000205   0.000381
     H   15   0.027457   0.000218   0.000118   0.000143   0.000079   0.000112
     H   16   0.015653   0.000219   0.000159   0.000149   0.000101   0.000125
     H   17   0.052232   0.000201   0.000100   0.000224   0.000179   0.000114
     H   18   4.764484   0.009228   0.001437   0.017660   0.001552   0.001023
     H   19   0.471897   0.015684   0.006660   0.004046   0.002510   0.003590


                  H 13       H 14       H 15       H 16       H 17       H 18
 ------------------------------------------------------------------------------
     H   13   5.052103
     H   14   0.565495   5.018846
     H   15   0.047444   0.023897   5.470409
     H   16   0.024594   0.048726   0.576966   5.484667
     H   17   0.030192   0.028766   0.572657   0.573691   5.488677
     H   18   0.038624   0.017121   0.019957   0.002627   0.001987   5.144190
     H   19   0.029885   0.009723   0.000593   0.000508   0.001545   0.103652


                  H 19
 ------------------
     H   19   5.139241


          HEAT OF FORMATION =      19.060553 KCALS/MOLE

          ZERO POINT ENERGY     106.627 KCAL/MOL


           NORMAL COORDINATE ANALYSIS (Total motion = 1 Angstrom)


   Root No.       1         2         3         4         5         6         7         8

                 1 A       2 A       3 A       4 A       5 A       6 A       7 A       8 A   

                  53.5     112.9     126.5     170.4     211.5     340.4     401.2     434.8
  
           1   -0.0114    0.0066    0.0050    0.0071   -0.0091   -0.0272   -0.0022    0.0086
           2    0.0158   -0.0086    0.0053   -0.0044    0.0107    0.0102    0.0458   -0.0097
           3    0.0031    0.0070    0.0209   -0.0025    0.0072   -0.0158    0.0094   -0.0331
           4   -0.0114    0.0072    0.0045    0.0066   -0.0091   -0.0297   -0.0023    0.0121
           5   -0.0200    0.0024    0.0121    0.0191   -0.0119   -0.0156    0.0115    0.0056
           6   -0.0152    0.0469   -0.0220   -0.0260    0.0174    0.0327    0.0006   -0.0067
           7    0.0198   -0.0027   -0.0019   -0.0131    0.0099   -0.0081    0.0389   -0.0010
           8   -0.0022   -0.0034    0.0086    0.0080   -0.0010   -0.0019    0.0320   -0.0032
           9    0.0407   -0.0023   -0.0390    0.0194   -0.0194    0.0029   -0.0324    0.0066
          10    0.0051   -0.0109   -0.0091   -0.0066    0.0090    0.0359    0.0044    0.0290
          11   -0.0278   -0.0010   -0.0312    0.0109   -0.0256    0.0242   -0.0055   -0.0180
          12   -0.0152    0.0017   -0.0076    0.0048   -0.0135   -0.0178    0.0244    0.0172
          13    0.0049    0.0404   -0.0225   -0.0110   -0.0011   -0.0180    0.0013   -0.0007
          14    0.0491    0.0248    0.0064    0.0075   -0.0028    0.0013   -0.0075   -0.0168
          15    0.0014   -0.0296    0.0098    0.0069   -0.0014    0.0135    0.0319    0.0473
          16   -0.0083   -0.0064    0.0342    0.0202   -0.0136    0.0183   -0.0222   -0.0108
          17   -0.0067    0.0081    0.0223   -0.0207    0.0152    0.0017   -0.0404    0.0292
          18   -0.0023    0.0047    0.0451   -0.0005    0.0063    0.0058   -0.0249   -0.0219
          19   -0.0009   -0.0445   -0.0040    0.0023    0.0121    0.0369   -0.0201   -0.0391
          20   -0.0127   -0.0268   -0.0218   -0.0288    0.0226   -0.0209   -0.0374    0.0185
          21   -0.0140   -0.0295   -0.0013   -0.0050    0.0071   -0.0317   -0.0134   -0.0202
          22   -0.0291    0.0294   -0.0188   -0.0009   -0.0086   -0.0308   -0.0032    0.0282
          23    0.0612   -0.0328   -0.0213    0.0072    0.0025    0.0179    0.0807   -0.0144
          24   -0.0017    0.0024    0.0429   -0.0018    0.0093   -0.0145   -0.0037   -0.0416
          25   -0.0305    0.0348   -0.0191   -0.0039   -0.0062    0.0038   -0.0105    0.0327
          26   -0.0012   -0.0134   -0.0114    0.0518   -0.0433   -0.0278   -0.0371    0.0369
          27   -0.0335    0.0694   -0.0280   -0.0442    0.0306    0.0584    0.0133   -0.0057
          28   -0.0070   -0.0166    0.0298    0.0261   -0.0209   -0.0768   -0.0126    0.0000
          29   -0.0644    0.0253    0.0395    0.0030    0.0033   -0.0257    0.0261   -0.0114
          30   -0.0335    0.0696   -0.0279   -0.0439    0.0302    0.0588    0.0125   -0.0056
          31    0.0240    0.0167   -0.0311   -0.0363    0.0242    0.0354    0.0423    0.0192
          32    0.0302   -0.0241   -0.0185    0.0330   -0.0255   -0.0092   -0.0085    0.0245
          33    0.0635   -0.0170   -0.0582    0.0373   -0.0369   -0.0024   -0.0627    0.0267
          34    0.0459   -0.0315    0.0214   -0.0105    0.0159   -0.0300    0.0858   -0.0362
          35   -0.0346    0.0174    0.0360   -0.0171    0.0235    0.0046    0.0743   -0.0305
          36    0.0634   -0.0168   -0.0584    0.0371   -0.0369   -0.0017   -0.0638    0.0267
          37   -0.0380    0.0021   -0.0348    0.0183   -0.0260    0.0642    0.0304   -0.0029
          38   -0.0627    0.0079   -0.0507    0.0400   -0.0593    0.0610    0.0210   -0.0544
          39   -0.0425    0.0143   -0.0271   -0.0050   -0.0197   -0.0363    0.0263    0.0263
          40    0.0571   -0.0245    0.0210   -0.0376    0.0513   -0.0027   -0.0275    0.0693
          41   -0.0637   -0.0046   -0.0495    0.0241   -0.0454    0.0459    0.0035   -0.0421
          42    0.0003    0.0438   -0.0074    0.0249   -0.0339   -0.0129    0.0608    0.0112
          43    0.0437    0.0215    0.0111   -0.1027   -0.0794   -0.0184    0.0041   -0.0076
          44    0.0789    0.0093    0.0347   -0.0935   -0.0946   -0.0056   -0.0061   -0.0328
          45    0.0311   -0.0405    0.0263    0.0526    0.0588    0.0404    0.0383    0.0868
          46   -0.0411    0.0658   -0.0632    0.0974    0.0911   -0.0226   -0.0035    0.0020
          47    0.0835    0.0277    0.0280   -0.0288   -0.0274   -0.0100   -0.0088   -0.0248
          48   -0.0193   -0.0828    0.0173   -0.0766   -0.0913    0.0544    0.0435    0.0641
          49    0.0122    0.0760   -0.0263   -0.0315   -0.0234   -0.0667   -0.0079   -0.0432
          50    0.0458    0.0587   -0.0135    0.1429    0.1333   -0.0028   -0.0116    0.0021
          51    0.0050    0.0079   -0.0006    0.0457    0.0364   -0.0208    0.0247    0.0272
          52    0.0029   -0.0858   -0.0403   -0.0158    0.0381   -0.0006   -0.0126   -0.0730
          53   -0.0050   -0.0688   -0.0572   -0.0530    0.0558   -0.0566   -0.0320   -0.0085
          54   -0.0201   -0.0738   -0.0423   -0.0051    0.0156   -0.0717    0.0022   -0.0793
          55   -0.0130    0.0345    0.0771    0.0321   -0.0334    0.0493   -0.0579    0.0359
          56   -0.0157    0.0518    0.0635   -0.0085   -0.0080    0.0202   -0.0829    0.0871
          57    0.0053    0.0369    0.0940    0.0141   -0.0070    0.0727   -0.0389   -0.0085


   Root No.       9        10        11        12        13        14        15        16

                 9 A      10 A      11 A      12 A      13 A      14 A      15 A      16 A   

                 555.7     810.6     827.5     870.6     901.7     916.9     923.5     959.0
  
           1    0.0123    0.0019   -0.0015   -0.0037    0.0291    0.0065   -0.0010   -0.0027
           2   -0.0149    0.0000   -0.0005    0.0013    0.0110   -0.0014    0.0023    0.0192
           3    0.0538    0.0049    0.0079   -0.0045    0.0134    0.0051   -0.0005   -0.0011
           4    0.0186   -0.0027    0.0027   -0.0138   -0.0190   -0.0105    0.0030    0.0300
           5    0.0003   -0.0025    0.0030    0.0044   -0.0279   -0.0042   -0.0018   -0.0104
           6   -0.0060   -0.0001    0.0049    0.0054    0.0124    0.0134    0.0004    0.0031
           7   -0.0060   -0.0035    0.0036    0.0108   -0.0248   -0.0023   -0.0022   -0.0153
           8   -0.0134    0.0012   -0.0006    0.0135    0.0189    0.0109   -0.0039   -0.0244
           9    0.0055    0.0014    0.0045   -0.0132    0.0108    0.0112    0.0012    0.0018
          10    0.0328    0.0009    0.0019   -0.0032    0.0002    0.0014   -0.0018   -0.0063
          11    0.0159    0.0265    0.0186    0.0037   -0.0009   -0.0023    0.0015   -0.0022
          12   -0.0198    0.0046    0.0024    0.0030   -0.0038    0.0001   -0.0019    0.0027
          13   -0.0050   -0.0003   -0.0007   -0.0012    0.0084   -0.0015    0.0058   -0.0072
          14    0.0033    0.0057    0.0056    0.0020   -0.0001   -0.0081    0.0087   -0.0032
          15    0.0005   -0.0021   -0.0025    0.0019    0.0043   -0.0025    0.0028    0.0135
          16   -0.0508    0.0034   -0.0075   -0.0019    0.0506   -0.0101   -0.0051    0.0017
          17    0.0087   -0.0132   -0.0070   -0.0012    0.0182   -0.0243   -0.0032    0.0045
          18    0.0090   -0.0113    0.0037    0.0038   -0.0116   -0.0308   -0.0057   -0.0052
          19    0.0004    0.0009    0.0017    0.0041   -0.0219    0.0070   -0.0227    0.0090
          20   -0.0032    0.0020   -0.0036   -0.0069   -0.0013    0.0146   -0.0239    0.0029
          21   -0.0335    0.0040    0.0013   -0.0016   -0.0157    0.0137   -0.0258   -0.0071
          22    0.0288    0.0035   -0.0078    0.0702    0.0215    0.0553   -0.0157   -0.0850
          23   -0.0480    0.0275   -0.0076   -0.1324   -0.0110    0.0088    0.0230    0.1998
          24    0.0528   -0.0062    0.0143   -0.0020    0.0228   -0.0287    0.0011   -0.0148
          25   -0.0482   -0.0035   -0.0162   -0.1293   -0.1170   -0.1073    0.0081   -0.0217
          26   -0.0213   -0.0773    0.1255   -0.1047   -0.0888   -0.0329    0.0026   -0.0745
          27   -0.0403    0.0287   -0.0550   -0.0285   -0.0270   -0.0386    0.0020   -0.0055
          28    0.0997   -0.0075    0.0253    0.0846    0.0045    0.0636    0.0092    0.1062
          29    0.0462    0.0647   -0.1126    0.0817   -0.0843   -0.0133    0.0082    0.0944
          30   -0.0410    0.0288   -0.0542   -0.0303   -0.0243   -0.0386    0.0005   -0.0078
          31   -0.0780   -0.0963    0.1056    0.1650   -0.0796   -0.0186   -0.0054    0.0109
          32   -0.0248    0.0189   -0.0758    0.1056   -0.0255   -0.0447   -0.0095   -0.0358
          33   -0.0024    0.0156   -0.0533    0.0565   -0.0214   -0.0307   -0.0032   -0.0073
          34    0.0402    0.0830   -0.0916   -0.0890   -0.0642    0.0138   -0.0078   -0.1600
          35   -0.0017   -0.0164    0.0744   -0.0794    0.0582    0.0674    0.0023   -0.0138
          36   -0.0027    0.0147   -0.0522    0.0575   -0.0189   -0.0315   -0.0034   -0.0054
          37    0.0591   -0.0992   -0.0624   -0.0208    0.0024    0.0145   -0.0104   -0.0073
          38    0.0464   -0.0677   -0.0395   -0.0093   -0.0004   -0.0014    0.0063    0.0019
          39   -0.0236   -0.0336   -0.0286   -0.0144   -0.0017    0.0396   -0.0445   -0.0142
          40   -0.0007    0.1254    0.0811    0.0164    0.0019   -0.0119    0.0068   -0.0093
          41    0.0334   -0.0445   -0.0290   -0.0121   -0.0122    0.0276   -0.0304   -0.0005
          42   -0.0091   -0.0246   -0.0083    0.0136    0.0313   -0.0712    0.0865    0.0048
          43   -0.0080   -0.0440   -0.0339   -0.0142    0.0036    0.0324   -0.0295   -0.0069
          44   -0.0065   -0.0224   -0.0160   -0.0040   -0.0104    0.0150   -0.0197    0.0104
          45    0.0301   -0.0680   -0.0511   -0.0276    0.0266    0.0418   -0.0280   -0.0425
          46   -0.0076    0.0516    0.0381    0.0162    0.0099   -0.0403    0.0446    0.0053
          47   -0.0069   -0.0459   -0.0340   -0.0126   -0.0123    0.0355   -0.0407    0.0038
          48    0.0345    0.0518    0.0407    0.0124    0.0356   -0.0570    0.0737   -0.0277
          49   -0.0528   -0.0048   -0.0071    0.0098   -0.0250    0.0115   -0.0237    0.0661
          50    0.0061   -0.0294   -0.0215   -0.0112   -0.0007    0.0215   -0.0219   -0.0132
          51   -0.0301   -0.0189   -0.0173    0.0040   -0.0174    0.0171   -0.0278    0.0582
          52    0.0111   -0.0418   -0.0207    0.0078    0.0083   -0.0209    0.1908   -0.0005
          53    0.0278   -0.0516   -0.0301   -0.0038    0.0180   -0.0201    0.1976    0.0015
          54   -0.0713   -0.0152   -0.0130    0.0047    0.0427   -0.0002    0.1850   -0.0372
          55   -0.0701    0.0264   -0.0124   -0.0102   -0.0345    0.1208    0.1183   -0.0079
          56   -0.0125    0.0096   -0.0169   -0.0180   -0.0432    0.1148    0.1234   -0.0121
          57   -0.0094    0.0120    0.0132    0.0176   -0.1657    0.0769    0.1111    0.0070


   Root No.      17        18        19        20        21        22        23        24

                17 A      18 A      19 A      20 A      21 A      22 A      23 A      24 A   

                 969.4    1023.7    1034.0    1064.2    1115.4    1117.6    1129.0    1144.1
  
           1    0.0039   -0.0190    0.0125   -0.0202    0.0018    0.0008    0.0061    0.0150
           2   -0.0001   -0.0192    0.0054    0.0355   -0.0069    0.0034   -0.0131   -0.0515
           3   -0.0025   -0.0178    0.0029   -0.0219   -0.0098    0.0085   -0.0067   -0.0137
           4   -0.0063   -0.0155    0.0065    0.0240   -0.0006   -0.0020   -0.0061   -0.0176
           5   -0.0027    0.0127   -0.0062   -0.0059    0.0034   -0.0042    0.0004    0.0130
           6    0.0034    0.0149   -0.0064    0.0214   -0.0245    0.0252    0.0145    0.0133
           7   -0.0005    0.0050   -0.0012   -0.0067    0.0028   -0.0023    0.0043    0.0254
           8    0.0069   -0.0123    0.0107   -0.0183    0.0050   -0.0027    0.0065    0.0190
           9    0.0031    0.0177   -0.0056   -0.0071    0.0271   -0.0267   -0.0126   -0.0163
          10   -0.0093   -0.0023    0.0008   -0.0115    0.0165    0.0153    0.0328   -0.0081
          11   -0.0078   -0.0142   -0.0251    0.0005    0.0149    0.0155   -0.0192    0.0135
          12    0.0021   -0.0016    0.0019    0.0048    0.0220    0.0158    0.0186   -0.0064
          13   -0.0181    0.0024   -0.0006    0.0061   -0.0209   -0.0160   -0.0314    0.0127
          14   -0.0026    0.0080    0.0163   -0.0004   -0.0134   -0.0193    0.0274   -0.0111
          15    0.0303   -0.0038   -0.0149   -0.0044   -0.0214   -0.0179   -0.0141    0.0051
          16   -0.0056    0.0160   -0.0176    0.0026   -0.0015    0.0042    0.0071   -0.0155
          17    0.0103    0.0078   -0.0085    0.0111    0.0075   -0.0051   -0.0017    0.0118
          18   -0.0039   -0.0004   -0.0032    0.0036    0.0111   -0.0089    0.0094    0.0330
          19    0.0207    0.0017    0.0160    0.0067    0.0007    0.0009   -0.0140   -0.0011
          20    0.0004    0.0069    0.0147   -0.0007   -0.0058    0.0016   -0.0083   -0.0136
          21   -0.0172    0.0054    0.0238   -0.0062   -0.0066    0.0005    0.0021    0.0023
          22    0.0594   -0.0184    0.0360    0.1218    0.0710   -0.0769    0.0028    0.0745
          23   -0.0675    0.0255    0.0263   -0.0395   -0.0124    0.0197    0.0661    0.1945
          24   -0.0125   -0.0344   -0.0180   -0.0808   -0.0488    0.0489   -0.0320   -0.1329
          25   -0.0083   -0.0564    0.0052   -0.0312    0.0176   -0.0206   -0.0348   -0.0717
          26    0.0206    0.0462   -0.0453    0.0330   -0.0883    0.0891    0.0265    0.0030
          27   -0.0070   -0.0240    0.0072   -0.0294    0.0209   -0.0210   -0.0140   -0.0188
          28   -0.0205    0.0989   -0.0394    0.0787   -0.0450    0.0457    0.0213   -0.0089
          29   -0.0560    0.1164   -0.0559   -0.0611    0.0421   -0.0399   -0.0297   -0.0516
          30   -0.0072   -0.0211    0.0049   -0.0355    0.0181   -0.0183   -0.0140   -0.0161
          31   -0.0526    0.0451   -0.0327   -0.1124    0.0195   -0.0197   -0.0284   -0.0666
          32   -0.0058   -0.0722    0.0268   -0.0055   -0.0680    0.0692    0.0381    0.0572
          33   -0.0063   -0.0271    0.0061    0.0017   -0.0276    0.0272    0.0105    0.0110
          34    0.0571    0.1276   -0.0693    0.0345   -0.0307    0.0326    0.0108   -0.0329
          35    0.0199    0.0443   -0.0009   -0.0311    0.0813   -0.0771   -0.0207   -0.0044
          36   -0.0070   -0.0254    0.0033    0.0021   -0.0293    0.0283    0.0070    0.0000
          37   -0.0043    0.0204    0.0404   -0.0223   -0.0121   -0.0131    0.0824   -0.0347
          38    0.0209    0.0206    0.0331   -0.0238   -0.0217    0.0011   -0.0267    0.0205
          39   -0.0729   -0.0344   -0.0456    0.0486    0.0448   -0.0302    0.1901   -0.1076
          40   -0.0250   -0.0350   -0.0567   -0.0093    0.0646    0.0623    0.0160    0.0100
          41   -0.0092   -0.0226   -0.0346   -0.0105   -0.0417   -0.0495    0.0233    0.0076
          42    0.0429    0.0934    0.1506    0.0353    0.1140    0.1389   -0.0875   -0.0243
          43   -0.0323   -0.0186   -0.0382    0.0089    0.0079    0.0230   -0.0848    0.0349
          44    0.0200   -0.0103   -0.0155   -0.0072    0.0104    0.0101    0.0092   -0.0019
          45   -0.1240   -0.0146   -0.0364    0.0349    0.0005    0.0198   -0.1438    0.0528
          46    0.0288    0.0218    0.0307   -0.0034   -0.0657   -0.0698    0.0197   -0.0089
          47   -0.0048   -0.0210   -0.0314   -0.0027    0.0378    0.0402   -0.0071    0.0059
          48   -0.0443    0.0432    0.0631    0.0187   -0.0926   -0.0975   -0.0060   -0.0052
          49    0.1501   -0.0286   -0.0598   -0.0307   -0.0083   -0.0014   -0.0054    0.0037
          50   -0.0399   -0.0076   -0.0100    0.0068    0.0157    0.0174   -0.0178    0.0081
          51    0.1271   -0.0299   -0.0640   -0.0250   -0.0019    0.0056   -0.0156    0.0061
          52    0.0298   -0.0110   -0.0358   -0.0002    0.0245    0.0024    0.0249    0.0149
          53    0.0315    0.0029   -0.0217   -0.0252    0.0287    0.0077    0.0565    0.0037
          54   -0.0643   -0.0305   -0.0719    0.0346   -0.0084   -0.0109   -0.0277    0.0177
          55   -0.0018   -0.0060    0.0246   -0.0465   -0.0286    0.0256   -0.0098   -0.0430
          56    0.0161    0.0010    0.0421   -0.0942   -0.0388    0.0390   -0.0237   -0.0166
          57   -0.0065   -0.0652    0.0172    0.1118    0.0356   -0.0503    0.0006    0.0097


   Root No.      25        26        27        28        29        30        31        32

                25 A      26 A      27 A      28 A      29 A      30 A      31 A      32 A   

                1156.6    1173.3    1178.5    1197.9    1223.2    1296.6    1350.2    1396.4
  
           1   -0.0258    0.0072    0.0172    0.0214    0.0143   -0.0036    0.0117    0.0188
           2   -0.0160   -0.0030   -0.0199   -0.0227   -0.0041    0.0017    0.0012    0.0069
           3   -0.0210    0.0025    0.0014    0.0035   -0.0125    0.0423    0.0063   -0.0121
           4    0.0154   -0.0343    0.0040   -0.0100    0.0004   -0.0203   -0.0059    0.0071
           5    0.0537   -0.0363    0.0095   -0.0076   -0.0146    0.0259    0.0038   -0.0078
           6    0.0117   -0.0023    0.0045    0.0005    0.0043   -0.0080   -0.0012    0.0013
           7    0.0603    0.0377   -0.0183   -0.0046   -0.0085    0.0126    0.0002   -0.0039
           8   -0.0117    0.0156    0.0073    0.0129    0.0152   -0.0313   -0.0058    0.0026
           9    0.0113    0.0026   -0.0031    0.0000    0.0032   -0.0088   -0.0002    0.0021
          10    0.0012   -0.0166   -0.0303    0.0109    0.0154    0.0019    0.0046   -0.0292
          11   -0.0023    0.0024    0.0059   -0.0082   -0.0025    0.0028   -0.0132   -0.0102
          12   -0.0018    0.0028    0.0033   -0.0209    0.0016   -0.0202    0.0444    0.0267
          13   -0.0016    0.0052    0.0095   -0.0095    0.0010   -0.0032    0.0148   -0.0072
          14    0.0008    0.0000   -0.0011    0.0027   -0.0037   -0.0014    0.0002    0.0019
          15    0.0007    0.0009    0.0025    0.0056    0.0005    0.0036    0.0084   -0.0141
          16    0.0028    0.0016    0.0005   -0.0090    0.0188    0.0277   -0.0018   -0.0117
          17   -0.0008   -0.0007    0.0017    0.0182   -0.0113   -0.0084    0.0140    0.0095
          18   -0.0088   -0.0072   -0.0086   -0.0165   -0.0108   -0.0206   -0.0132    0.0001
          19   -0.0013    0.0126    0.0218    0.0055   -0.0404   -0.0151    0.0135    0.0132
          20    0.0051    0.0021    0.0047    0.0205    0.0150    0.0187    0.0011   -0.0067
          21   -0.0025   -0.0094   -0.0192   -0.0165    0.0226    0.0007   -0.0189   -0.0065
          22   -0.1796   -0.0087   -0.0720   -0.0625   -0.0662    0.1061   -0.0008   -0.0233
          23   -0.1003   -0.0386    0.0338    0.0278   -0.0260    0.0504    0.0069   -0.0081
          24    0.1005    0.0242    0.0360    0.0360    0.0426   -0.0380    0.0122    0.0181
          25   -0.1152    0.0656   -0.0327   -0.0006    0.0079   -0.0491   -0.0407   -0.0859
          26   -0.1065    0.1281   -0.0406    0.0174   -0.0008    0.0496    0.0272    0.0452
          27   -0.0106   -0.0007    0.0002   -0.0026    0.0031   -0.0293   -0.0280   -0.0690
          28   -0.0380    0.0522   -0.0235    0.0019    0.0317   -0.1100   -0.0488   -0.0745
          29   -0.0754    0.1352   -0.0562    0.0205    0.0061    0.0222    0.0251    0.0517
          30   -0.0011    0.0057   -0.0013    0.0033   -0.0069    0.0428    0.0302    0.0665
          31   -0.1685   -0.1164    0.0648    0.0244    0.0051    0.0167    0.0047   -0.0021
          32   -0.0428    0.0150    0.0173    0.0186    0.0177   -0.0692   -0.0453   -0.0487
          33   -0.0104    0.0030    0.0041    0.0043    0.0043   -0.0309   -0.0255   -0.0317
          34   -0.1022   -0.1207    0.0698    0.0202    0.0258   -0.0365    0.0000    0.0104
          35    0.0071    0.0254   -0.0005    0.0151    0.0312   -0.1111   -0.0477   -0.0389
          36   -0.0014   -0.0040    0.0024   -0.0016   -0.0079    0.0446    0.0269    0.0285
          37    0.0062   -0.0328   -0.0620    0.0374    0.0317    0.0190   -0.0736    0.1098
          38   -0.0007   -0.0344   -0.0617   -0.0070    0.0704    0.0033   -0.0398    0.1247
          39    0.0089    0.0688    0.1193    0.0520   -0.1644    0.0279   -0.0859   -0.0083
          40   -0.0042   -0.0174   -0.0314   -0.0126    0.0123    0.0058   -0.0851    0.1395
          41   -0.0038   -0.0026   -0.0055   -0.0255    0.0126   -0.0172    0.0606   -0.0716
          42    0.0146    0.0188    0.0396    0.0870   -0.0384    0.0443   -0.0502   -0.0606
          43   -0.0035    0.0068    0.0147   -0.0145    0.0033    0.0066   -0.0437    0.0374
          44    0.0004   -0.0044   -0.0075    0.0031    0.0041    0.0046   -0.0220    0.0247
          45   -0.0058    0.0261    0.0501   -0.0255   -0.0164    0.0112   -0.0851    0.0430
          46    0.0019    0.0032    0.0050    0.0116   -0.0086    0.0088   -0.0492    0.0393
          47   -0.0014   -0.0051   -0.0090   -0.0084    0.0098   -0.0095    0.0544   -0.0349
          48    0.0010    0.0206    0.0357    0.0023   -0.0246    0.0114   -0.0685    0.0298
          49    0.0042   -0.0102   -0.0142    0.0405   -0.0074    0.0297   -0.1020    0.0057
          50   -0.0022    0.0041    0.0075   -0.0167    0.0044   -0.0023    0.0023    0.0088
          51    0.0036   -0.0062   -0.0071    0.0331   -0.0051    0.0274   -0.0790   -0.0004
          52   -0.0054    0.0185    0.0390   -0.0641   -0.0133   -0.0122    0.0067    0.0111
          53   -0.0052    0.0315    0.0670   -0.1665    0.1019    0.0381   -0.0290   -0.0147
          54    0.0110   -0.0638   -0.1163    0.2143   -0.0899   -0.0322    0.0308    0.0026
          55   -0.0021    0.0000   -0.0100   -0.0373   -0.0344    0.0157   -0.0098   -0.0127
          56   -0.0149   -0.0180   -0.0423   -0.0690   -0.1594   -0.0542   -0.0071    0.0072
          57    0.0144    0.0300    0.0668    0.1245    0.1960    0.0522    0.0178    0.0089


   Root No.      33        34        35        36        37        38        39        40

                33 A      34 A      35 A      36 A      37 A      38 A      39 A      40 A   

                1399.7    1407.0    1411.8    1415.0    1430.1    1603.7    1894.2    2945.0
  
           1   -0.0055    0.0022   -0.0041   -0.0127   -0.0126    0.1235   -0.0278   -0.0001
           2    0.0014    0.0011   -0.0021   -0.0076   -0.0088    0.0672   -0.0215    0.0000
           3    0.0026   -0.0022    0.0044    0.0157    0.0237   -0.0494    0.0371    0.0000
           4    0.0246    0.0006   -0.0019   -0.0075   -0.0141   -0.0933    0.0076    0.0000
           5   -0.0112   -0.0010    0.0024    0.0086    0.0138    0.0514   -0.0019    0.0000
           6   -0.0005    0.0003   -0.0005   -0.0019   -0.0029    0.0034   -0.0033    0.0000
           7   -0.0009   -0.0005    0.0011    0.0036    0.0047   -0.0025   -0.0009    0.0000
           8   -0.0303    0.0018   -0.0032   -0.0109   -0.0186   -0.1053    0.0070    0.0000
           9   -0.0003    0.0003   -0.0006   -0.0019   -0.0025    0.0042    0.0009    0.0000
          10    0.0062    0.0074   -0.0007   -0.0285    0.0006    0.0046    0.0130    0.0055
          11    0.0023   -0.0013    0.0006   -0.0031   -0.0158    0.0076    0.0156   -0.0536
          12   -0.0059    0.0036   -0.0031   -0.0029    0.0475   -0.0144   -0.0298   -0.0166
          13    0.0013    0.0022   -0.0230    0.0226   -0.0193    0.0009    0.0003   -0.0004
          14   -0.0006   -0.0323   -0.0144   -0.0075    0.0084   -0.0006    0.0006    0.0026
          15    0.0023   -0.0188    0.0260    0.0228   -0.0335    0.0018   -0.0021    0.0007
          16    0.0030   -0.0014    0.0025    0.0077    0.0118   -0.0333   -0.0141    0.0005
          17   -0.0026    0.0005    0.0002    0.0023    0.0104    0.0044    0.1808   -0.0002
          18    0.0001    0.0010   -0.0024   -0.0099   -0.0209    0.0201   -0.1664   -0.0006
          19   -0.0032   -0.0004    0.0003    0.0052    0.0079    0.0012    0.0201   -0.0019
          20    0.0011   -0.0010    0.0016    0.0064    0.0084   -0.0259   -0.1798    0.0010
          21    0.0019    0.0004   -0.0020   -0.0091   -0.0200    0.0275    0.1602    0.0007
          22    0.0082   -0.0034    0.0062    0.0200    0.0249   -0.0303   -0.0049   -0.0001
          23   -0.0029   -0.0014    0.0031    0.0109    0.0152   -0.0114    0.0066   -0.0001
          24   -0.0041    0.0020   -0.0034   -0.0100   -0.0065    0.0724    0.0089   -0.0003
          25   -0.1250   -0.0066    0.0154    0.0532    0.0650    0.0048    0.0139    0.0000
          26    0.0684    0.0032   -0.0075   -0.0257   -0.0294   -0.0197    0.0021    0.0000
          27   -0.1114   -0.0052    0.0127    0.0443    0.0571    0.0853   -0.0009    0.0000
          28   -0.1275   -0.0043    0.0112    0.0377    0.0424    0.0350   -0.0065    0.0002
          29    0.0683    0.0043   -0.0096   -0.0329   -0.0395   -0.0062   -0.0054   -0.0001
          30    0.1120    0.0047   -0.0117   -0.0406   -0.0516   -0.0938    0.0048    0.0002
          31    0.0049   -0.0007    0.0013    0.0048    0.0077   -0.0154    0.0057    0.0000
          32    0.1730   -0.0114    0.0187    0.0594    0.0700    0.0121    0.0038    0.0000
          33    0.1333   -0.0084    0.0139    0.0448    0.0566    0.0843    0.0005    0.0000
          34   -0.0003    0.0014   -0.0028   -0.0094   -0.0123    0.0118   -0.0024    0.0000
          35    0.1715   -0.0099    0.0158    0.0499    0.0570    0.0341    0.0025    0.0001
          36   -0.1319    0.0079   -0.0128   -0.0409   -0.0510   -0.0924    0.0063    0.0001
          37   -0.0224   -0.0224   -0.0128    0.0869   -0.0058   -0.0038   -0.0061   -0.2920
          38   -0.0258   -0.0240   -0.0138    0.0888    0.0162   -0.0093   -0.0278    0.2767
          39    0.0025   -0.0110    0.0092    0.0292   -0.0669    0.0139    0.0370    0.0920
          40   -0.0282   -0.0265   -0.0148    0.1042   -0.0097    0.0035    0.0120    0.2294
          41    0.0146    0.0172    0.0030   -0.0685    0.0185    0.0022    0.0012    0.3684
          42    0.0127   -0.0030    0.0114   -0.0123   -0.0502    0.0036   -0.0055    0.1086
          43   -0.0072    0.0614    0.2171   -0.0414    0.0300   -0.0007   -0.0004    0.0130
          44   -0.0047    0.0917    0.2346   -0.0228    0.0104   -0.0007   -0.0008   -0.0149
          45   -0.0085   -0.1629   -0.0747   -0.0982    0.0954   -0.0026   -0.0027   -0.0077
          46   -0.0091   -0.1038    0.2424   -0.0676    0.0417   -0.0017   -0.0006   -0.0089
          47    0.0063   -0.0272   -0.1053    0.0573   -0.0523    0.0022    0.0016   -0.0194
          48   -0.0023    0.2298   -0.1320   -0.0350    0.0650   -0.0022   -0.0008   -0.0028
          49    0.0010   -0.0133   -0.1564   -0.0798    0.0620    0.0030    0.0062   -0.0005
          50    0.0012    0.3459    0.0417    0.0348   -0.0083   -0.0002    0.0010    0.0002
          51    0.0027    0.1228   -0.0758   -0.0373    0.0251    0.0027   -0.0005    0.0008
          52   -0.0009   -0.0006   -0.0001    0.0007    0.0022    0.0067    0.1140    0.0196
          53    0.0068   -0.0058   -0.0015   -0.0034   -0.0138   -0.0056   -0.0252   -0.0170
          54   -0.0035    0.0096    0.0034   -0.0004    0.0163   -0.0143   -0.0875   -0.0040
          55    0.0038   -0.0013    0.0021    0.0050    0.0008   -0.0262   -0.1110   -0.0050
          56   -0.0005    0.0014   -0.0012   -0.0073   -0.0168    0.0170    0.0306    0.0047
          57   -0.0043   -0.0008   -0.0006    0.0049    0.0121    0.0253    0.0801    0.0007


   Root No.      41        42        43        44        45        46        47        48

                41 A      42 A      43 A      44 A      45 A      46 A      47 A      48 A   

                2994.4    3024.2    3036.7    3038.1    3081.3    3083.3    3086.0    3097.7
  
           1   -0.0322   -0.0001   -0.0007    0.0007    0.0000   -0.0002    0.0000   -0.0012
           2   -0.0185   -0.0001    0.0001    0.0003    0.0000    0.0000    0.0000   -0.0007
           3   -0.0532   -0.0001   -0.0011    0.0007    0.0000   -0.0003    0.0000   -0.0026
           4    0.0004    0.0000   -0.0001   -0.0003    0.0000   -0.0018    0.0000   -0.0021
           5   -0.0008    0.0000    0.0002    0.0001    0.0000    0.0009    0.0000    0.0011
           6    0.0036    0.0001   -0.0003   -0.0009    0.0000   -0.0334   -0.0003   -0.0266
           7   -0.0005    0.0000    0.0000    0.0001    0.0000    0.0001    0.0000   -0.0001
           8    0.0007    0.0000    0.0000    0.0000    0.0000    0.0005    0.0000   -0.0010
           9    0.0034    0.0000    0.0002    0.0001    0.0000    0.0270    0.0004   -0.0332
          10    0.0001   -0.0354   -0.0015   -0.0051    0.0012    0.0000    0.0024    0.0000
          11    0.0000   -0.0027    0.0013    0.0014   -0.0022    0.0000    0.0009    0.0000
          12   -0.0001    0.0002    0.0001    0.0007   -0.0007    0.0000    0.0001    0.0000
          13    0.0000    0.0025    0.0000    0.0005    0.0183   -0.0003    0.0369    0.0000
          14    0.0000    0.0007    0.0003    0.0004   -0.0424   -0.0002    0.0266    0.0000
          15    0.0000   -0.0023    0.0000   -0.0004   -0.0215    0.0001   -0.0210    0.0000
          16    0.0017   -0.0027   -0.0295    0.0258   -0.0001   -0.0005   -0.0002   -0.0004
          17   -0.0011    0.0024    0.0215   -0.0225    0.0001    0.0005    0.0002    0.0000
          18   -0.0007    0.0002    0.0079   -0.0033    0.0000    0.0000    0.0000    0.0001
          19   -0.0003    0.0045   -0.0280   -0.0273   -0.0002    0.0005    0.0004    0.0002
          20   -0.0002   -0.0039    0.0194    0.0229    0.0001   -0.0005   -0.0004   -0.0002
          21    0.0002   -0.0004    0.0079    0.0038    0.0002   -0.0001    0.0003    0.0000
          22    0.3839    0.0010    0.0050   -0.0052    0.0001    0.0034    0.0000    0.0173
          23    0.2223    0.0007    0.0041   -0.0040    0.0001   -0.0010    0.0000    0.0103
          24    0.6476    0.0018    0.0107   -0.0109    0.0001    0.0030    0.0000    0.0247
          25    0.0123    0.0004    0.0009   -0.0031    0.0001   -0.1192   -0.0012   -0.0911
          26   -0.0102   -0.0002   -0.0006    0.0017    0.0000    0.0691    0.0007    0.0554
          27   -0.0242   -0.0006   -0.0019    0.0046   -0.0001    0.1841    0.0019    0.1378
          28   -0.0104   -0.0007    0.0020    0.0054    0.0000    0.1416    0.0012    0.1162
          29    0.0095    0.0003   -0.0009   -0.0027    0.0000   -0.0798   -0.0007   -0.0682
          30   -0.0228   -0.0010    0.0028    0.0084    0.0000    0.2217    0.0019    0.1806
          31   -0.0025    0.0000   -0.0002    0.0001    0.0000    0.0010    0.0000    0.0017
          32    0.0159   -0.0001    0.0002    0.0011   -0.0001    0.1176    0.0016   -0.1439
          33   -0.0242    0.0001   -0.0005   -0.0013    0.0001   -0.1589   -0.0021    0.1894
          34    0.0029    0.0000    0.0000   -0.0002    0.0000   -0.0021    0.0000   -0.0002
          35   -0.0133    0.0001   -0.0006   -0.0010    0.0001   -0.1247   -0.0016    0.1559
          36   -0.0221    0.0002   -0.0009   -0.0014    0.0001   -0.1706   -0.0022    0.2088
          37   -0.0006    0.2620    0.0171    0.0459   -0.0207   -0.0001   -0.0132   -0.0001
          38    0.0006   -0.2934   -0.0150   -0.0488    0.0192    0.0001    0.0163    0.0001
          39    0.0003   -0.0959   -0.0084   -0.0171    0.0031    0.0001    0.0038    0.0000
          40   -0.0004    0.1680    0.0006    0.0137    0.0071    0.0002   -0.0149    0.0000
          41   -0.0008    0.3267    0.0049    0.0314    0.0061    0.0002   -0.0254   -0.0001
          42   -0.0001    0.0967    0.0021    0.0101    0.0036    0.0001   -0.0105   -0.0001
          43    0.0001   -0.0097    0.0023   -0.0010   -0.3181    0.0003   -0.0545    0.0000
          44   -0.0001    0.0119   -0.0025    0.0014    0.3213   -0.0006    0.0909    0.0001
          45    0.0000    0.0031    0.0001    0.0012    0.0904   -0.0001    0.0121    0.0000
          46    0.0000   -0.0046   -0.0011   -0.0017    0.1655    0.0012   -0.1507   -0.0002
          47    0.0000   -0.0100   -0.0018   -0.0027    0.2503    0.0022   -0.2833   -0.0004
          48    0.0000   -0.0036   -0.0007   -0.0011    0.0728    0.0008   -0.1024   -0.0001
          49    0.0000   -0.0200   -0.0013   -0.0052   -0.0663    0.0017   -0.2360   -0.0003
          50    0.0000   -0.0095   -0.0007   -0.0025   -0.0634    0.0009   -0.1253   -0.0001
          51   -0.0001    0.0226    0.0020    0.0067    0.0933   -0.0025    0.3407    0.0004
          52    0.0026   -0.0529    0.3346    0.3152    0.0029   -0.0060   -0.0034   -0.0028
          53   -0.0010    0.0376   -0.2379   -0.2209   -0.0027    0.0039    0.0024    0.0017
          54   -0.0002    0.0133   -0.0898   -0.0872    0.0002    0.0017    0.0015    0.0008
          55   -0.0202    0.0291    0.3510   -0.2966    0.0017    0.0036    0.0018    0.0015
          56    0.0139   -0.0215   -0.2592    0.2160   -0.0011   -0.0027   -0.0012   -0.0014
          57    0.0032   -0.0069   -0.0906    0.0795   -0.0005   -0.0008   -0.0005   -0.0004


   Root No.      49        50        51

                49 A      50 A      51 A   

                3133.2    3135.4    3183.1
  
           1   -0.0004   -0.0010    0.0000
           2   -0.0007   -0.0003    0.0000
           3   -0.0002   -0.0002    0.0000
           4    0.0310    0.0075    0.0000
           5   -0.0183   -0.0041    0.0000
           6   -0.0051   -0.0014    0.0000
           7    0.0003    0.0000    0.0000
           8   -0.0069    0.0366    0.0000
           9   -0.0005   -0.0022    0.0000
          10    0.0000    0.0000   -0.0001
          11    0.0000    0.0000    0.0001
          12    0.0000    0.0000   -0.0005
          13    0.0000    0.0000   -0.0136
          14    0.0000    0.0000    0.0034
          15    0.0000    0.0000   -0.0203
          16   -0.0001    0.0000    0.0000
          17    0.0000   -0.0001    0.0000
          18    0.0001    0.0000    0.0000
          19   -0.0002    0.0000    0.0001
          20    0.0002    0.0000   -0.0001
          21    0.0000    0.0000    0.0000
          22    0.0014    0.0012    0.0000
          23    0.0009    0.0005    0.0000
          24    0.0026    0.0024    0.0000
          25   -0.2032   -0.0441    0.0000
          26    0.1204    0.0259    0.0000
          27    0.3560    0.0777    0.0000
          28   -0.1654   -0.0337    0.0000
          29    0.0948    0.0189    0.0000
          30   -0.2949   -0.0611    0.0000
          31   -0.0003    0.0011    0.0000
          32    0.0443   -0.2250    0.0000
          33   -0.0673    0.3410   -0.0001
          34   -0.0001   -0.0013    0.0000
          35    0.0487   -0.2044    0.0001
          36    0.0730   -0.3151    0.0001
          37    0.0001    0.0000   -0.0024
          38   -0.0001    0.0000    0.0021
          39    0.0000    0.0000   -0.0002
          40    0.0000    0.0001   -0.0014
          41    0.0001    0.0001   -0.0016
          42    0.0001    0.0001   -0.0012
          43    0.0000    0.0001    0.2061
          44    0.0000   -0.0001   -0.2210
          45    0.0000    0.0000   -0.0749
          46    0.0001    0.0000    0.1526
          47    0.0001    0.0001    0.2791
          48    0.0000    0.0000    0.0765
          49    0.0001    0.0000   -0.1917
          50    0.0000    0.0000   -0.0997
          51   -0.0001    0.0001    0.2467
          52    0.0033    0.0005   -0.0018
          53   -0.0020   -0.0003    0.0014
          54   -0.0009   -0.0002    0.0001
          55    0.0006    0.0000    0.0000
          56   -0.0006    0.0002    0.0000
          57   -0.0001    0.0000    0.0000


           MASS-WEIGHTED COORDINATE ANALYSIS (NORMAL COORDINATES)


   Root No.       1         2         3         4         5         6         7         8

                 1 A       2 A       3 A       4 A       5 A       6 A       7 A       8 A   

                  53.5     112.9     126.5     170.4     211.5     340.4     401.2     434.8
  
           1   -0.1033    0.0544    0.0426    0.0676   -0.0907   -0.2303   -0.0168    0.0723
           2    0.1432   -0.0702    0.0454   -0.0426    0.1061    0.0866    0.3507   -0.0818
           3    0.0284    0.0572    0.1798   -0.0244    0.0711   -0.1335    0.0720   -0.2797
           4   -0.1033    0.0591    0.0388    0.0628   -0.0901   -0.2517   -0.0178    0.1019
           5   -0.1807    0.0193    0.1038    0.1834   -0.1179   -0.1318    0.0878    0.0476
           6   -0.1372    0.3843   -0.1892   -0.2492    0.1723    0.2767    0.0049   -0.0567
           7    0.1787   -0.0221   -0.0167   -0.1255    0.0982   -0.0685    0.2981   -0.0081
           8   -0.0195   -0.0277    0.0742    0.0762   -0.0100   -0.0162    0.2450   -0.0266
           9    0.3677   -0.0189   -0.3351    0.1857   -0.1920    0.0244   -0.2484    0.0556
          10    0.0458   -0.0893   -0.0782   -0.0628    0.0897    0.3038    0.0334    0.2445
          11   -0.2514   -0.0084   -0.2676    0.1043   -0.2542    0.2047   -0.0419   -0.1522
          12   -0.1376    0.0137   -0.0652    0.0459   -0.1335   -0.1509    0.1870    0.1450
          13    0.0447    0.3312   -0.1929   -0.1054   -0.0112   -0.1521    0.0099   -0.0062
          14    0.4441    0.2030    0.0547    0.0718   -0.0281    0.0110   -0.0574   -0.1415
          15    0.0125   -0.2421    0.0839    0.0665   -0.0137    0.1139    0.2445    0.3996
          16   -0.0751   -0.0528    0.2936    0.1936   -0.1344    0.1549   -0.1698   -0.0914
          17   -0.0607    0.0666    0.1918   -0.1982    0.1510    0.0143   -0.3094    0.2464
          18   -0.0212    0.0382    0.3874   -0.0052    0.0629    0.0490   -0.1911   -0.1845
          19   -0.0078   -0.3646   -0.0344    0.0222    0.1196    0.3120   -0.1541   -0.3302
          20   -0.1146   -0.2199   -0.1875   -0.2762    0.2239   -0.1770   -0.2868    0.1564
          21   -0.1262   -0.2416   -0.0114   -0.0476    0.0702   -0.2680   -0.1025   -0.1704
          22   -0.0764    0.0697   -0.0467   -0.0026   -0.0246   -0.0755   -0.0072    0.0689
          23    0.1602   -0.0779   -0.0531    0.0199    0.0071    0.0438    0.1790   -0.0352
          24   -0.0045    0.0057    0.1068   -0.0049    0.0267   -0.0356   -0.0082   -0.1018
          25   -0.0799    0.0825   -0.0476   -0.0108   -0.0179    0.0092   -0.0234    0.0799
          26   -0.0031   -0.0318   -0.0284    0.1437   -0.1244   -0.0681   -0.0824    0.0901
          27   -0.0878    0.1648   -0.0696   -0.1228    0.0878    0.1432    0.0295   -0.0139
          28   -0.0184   -0.0394    0.0741    0.0724   -0.0599   -0.1883   -0.0279   -0.0001
          29   -0.1687    0.0601    0.0983    0.0083    0.0095   -0.0631    0.0579   -0.0278
          30   -0.0877    0.1650   -0.0696   -0.1218    0.0868    0.1441    0.0276   -0.0136
          31    0.0629    0.0396   -0.0775   -0.1007    0.0695    0.0868    0.0938    0.0469
          32    0.0791   -0.0571   -0.0462    0.0915   -0.0731   -0.0227   -0.0189    0.0599
          33    0.1664   -0.0404   -0.1449    0.1036   -0.1061   -0.0059   -0.1392    0.0653
          34    0.1202   -0.0748    0.0532   -0.0292    0.0458   -0.0734    0.1904   -0.0885
          35   -0.0907    0.0414    0.0895   -0.0475    0.0675    0.0114    0.1648   -0.0746
          36    0.1660   -0.0399   -0.1452    0.1031   -0.1059   -0.0042   -0.1416    0.0654
          37   -0.0997    0.0051   -0.0865    0.0508   -0.0746    0.1574    0.0675   -0.0072
          38   -0.1642    0.0187   -0.1262    0.1109   -0.1704    0.1496    0.0467   -0.1329
          39   -0.1114    0.0340   -0.0676   -0.0139   -0.0567   -0.0889    0.0583    0.0643
          40    0.1495   -0.0581    0.0523   -0.1044    0.1472   -0.0067   -0.0611    0.1694
          41   -0.1670   -0.0110   -0.1232    0.0670   -0.1303    0.1126    0.0078   -0.1029
          42    0.0007    0.1040   -0.0185    0.0691   -0.0973   -0.0315    0.1349    0.0275
          43    0.1145    0.0511    0.0275   -0.2849   -0.2281   -0.0452    0.0091   -0.0185
          44    0.2068    0.0220    0.0863   -0.2594   -0.2718   -0.0137   -0.0135   -0.0802
          45    0.0815   -0.0961    0.0656    0.1459    0.1690    0.0990    0.0851    0.2123
          46   -0.1077    0.1562   -0.1572    0.2704    0.2618   -0.0554   -0.0077    0.0049
          47    0.2187    0.0657    0.0698   -0.0800   -0.0787   -0.0245   -0.0194   -0.0605
          48   -0.0506   -0.1964    0.0431   -0.2127   -0.2623    0.1334    0.0964    0.1566
          49    0.0319    0.1804   -0.0653   -0.0875   -0.0672   -0.1635   -0.0176   -0.1056
          50    0.1201    0.1393   -0.0337    0.3965    0.3830   -0.0070   -0.0258    0.0050
          51    0.0132    0.0188   -0.0014    0.1268    0.1046   -0.0509    0.0549    0.0665
          52    0.0077   -0.2035   -0.1003   -0.0437    0.1096   -0.0015   -0.0281   -0.1784
          53   -0.0131   -0.1632   -0.1424   -0.1470    0.1602   -0.1388   -0.0710   -0.0208
          54   -0.0525   -0.1750   -0.1052   -0.0142    0.0449   -0.1757    0.0050   -0.1939
          55   -0.0340    0.0819    0.1918    0.0891   -0.0959    0.1208   -0.1284    0.0878
          56   -0.0411    0.1229    0.1580   -0.0235   -0.0229    0.0496   -0.1840    0.2130
          57    0.0138    0.0875    0.2338    0.0391   -0.0201    0.1782   -0.0864   -0.0208


   Root No.       9        10        11        12        13        14        15        16

                 9 A      10 A      11 A      12 A      13 A      14 A      15 A      16 A   

                 555.7     810.6     827.5     870.6     901.7     916.9     923.5     959.0
  
           1    0.1026    0.0207   -0.0158   -0.0343    0.2429    0.0652   -0.0076   -0.0246
           2   -0.1245   -0.0001   -0.0054    0.0118    0.0916   -0.0138    0.0177    0.1739
           3    0.4502    0.0534    0.0847   -0.0420    0.1113    0.0507   -0.0036   -0.0102
           4    0.1553   -0.0298    0.0284   -0.1278   -0.1587   -0.1051    0.0236    0.2709
           5    0.0028   -0.0277    0.0324    0.0405   -0.2322   -0.0424   -0.0137   -0.0939
           6   -0.0501   -0.0013    0.0524    0.0498    0.1030    0.1343    0.0031    0.0281
           7   -0.0502   -0.0386    0.0383    0.0997   -0.2070   -0.0228   -0.0167   -0.1383
           8   -0.1117    0.0134   -0.0069    0.1248    0.1574    0.1092   -0.0300   -0.2200
           9    0.0458    0.0154    0.0483   -0.1222    0.0902    0.1119    0.0089    0.0164
          10    0.2741    0.0103    0.0201   -0.0298    0.0019    0.0138   -0.0139   -0.0568
          11    0.1330    0.2909    0.1976    0.0341   -0.0078   -0.0235    0.0115   -0.0200
          12   -0.1659    0.0500    0.0253    0.0275   -0.0315    0.0009   -0.0148    0.0245
          13   -0.0418   -0.0031   -0.0075   -0.0107    0.0697   -0.0148    0.0446   -0.0653
          14    0.0274    0.0625    0.0592    0.0189   -0.0011   -0.0816    0.0672   -0.0290
          15    0.0044   -0.0234   -0.0271    0.0173    0.0358   -0.0248    0.0213    0.1216
          16   -0.4245    0.0378   -0.0803   -0.0174    0.4213   -0.1012   -0.0397    0.0157
          17    0.0727   -0.1453   -0.0747   -0.0113    0.1519   -0.2442   -0.0245    0.0403
          18    0.0751   -0.1241    0.0398    0.0352   -0.0964   -0.3087   -0.0443   -0.0466
          19    0.0030    0.0093    0.0184    0.0377   -0.1825    0.0700   -0.1754    0.0817
          20   -0.0265    0.0221   -0.0385   -0.0634   -0.0111    0.1464   -0.1846    0.0260
          21   -0.2804    0.0437    0.0135   -0.0149   -0.1305    0.1377   -0.1995   -0.0638
          22    0.0698    0.0112   -0.0240    0.1881    0.0519    0.1607   -0.0352   -0.2224
          23   -0.1162    0.0874   -0.0236   -0.3549   -0.0265    0.0256    0.0515    0.5229
          24    0.1280   -0.0198    0.0442   -0.0054    0.0551   -0.0833    0.0024   -0.0388
          25   -0.1167   -0.0112   -0.0499   -0.3467   -0.2824   -0.3119    0.0182   -0.0568
          26   -0.0517   -0.2458    0.3875   -0.2807   -0.2144   -0.0957    0.0058   -0.1950
          27   -0.0976    0.0913   -0.1699   -0.0763   -0.0652   -0.1122    0.0045   -0.0144
          28    0.2414   -0.0240    0.0782    0.2267    0.0108    0.1847    0.0206    0.2780
          29    0.1118    0.2058   -0.3476    0.2189   -0.2036   -0.0386    0.0183    0.2472
          30   -0.0994    0.0916   -0.1672   -0.0812   -0.0586   -0.1122    0.0010   -0.0204
          31   -0.1890   -0.3064    0.3260    0.4422   -0.1921   -0.0541   -0.0120    0.0285
          32   -0.0601    0.0602   -0.2340    0.2831   -0.0616   -0.1299   -0.0213   -0.0937
          33   -0.0058    0.0495   -0.1646    0.1515   -0.0517   -0.0891   -0.0071   -0.0190
          34    0.0975    0.2640   -0.2827   -0.2386   -0.1549    0.0401   -0.0175   -0.4188
          35   -0.0042   -0.0521    0.2297   -0.2128    0.1405    0.1958    0.0052   -0.0362
          36   -0.0066    0.0468   -0.1612    0.1541   -0.0456   -0.0914   -0.0075   -0.0141
          37    0.1432   -0.3154   -0.1925   -0.0556    0.0058    0.0422   -0.0232   -0.0190
          38    0.1123   -0.2151   -0.1220   -0.0249   -0.0009   -0.0039    0.0141    0.0048
          39   -0.0572   -0.1067   -0.0884   -0.0386   -0.0041    0.1150   -0.0996   -0.0371
          40   -0.0018    0.3988    0.2503    0.0439    0.0047   -0.0347    0.0153   -0.0243
          41    0.0808   -0.1415   -0.0897   -0.0323   -0.0296    0.0801   -0.0681   -0.0014
          42   -0.0221   -0.0782   -0.0256    0.0364    0.0755   -0.2070    0.1936    0.0127
          43   -0.0195   -0.1400   -0.1046   -0.0380    0.0088    0.0941   -0.0661   -0.0181
          44   -0.0157   -0.0711   -0.0493   -0.0106   -0.0251    0.0437   -0.0441    0.0273
          45    0.0729   -0.2162   -0.1579   -0.0740    0.0642    0.1214   -0.0626   -0.1112
[...]

 VIBRATION   30   30A       ATOM PAIR        ENERGY CONTRIBUTION    RADIAL
 FREQ.      1296.58        C  1 --  C  6          +13.2% ( 51.7%)    83.1%
 T-DIPOLE    0.0512        C  2 --  C  3          +12.1% ( 49.6%)   100.0%
 TRAVEL      0.0844        C  1 --  C  3          +10.2% ( 45.4%)    10.4%
 RED. MASS   0.6713        C  1 --  C  2           +9.7% ( 44.3%)     8.3%
 EFF. MASS   7.3038

 VIBRATION   31   31A       ATOM PAIR        ENERGY CONTRIBUTION    RADIAL
 FREQ.      1350.15        C  4 --  H 13          +16.7% ( 50.3%)     0.2%
 T-DIPOLE    0.0923        C  4 --  H 14          +16.1% ( 49.3%)     0.2%
 TRAVEL      0.1056        C  4 --  C  7          +15.9% ( 49.0%)    81.3%
 RED. MASS   0.6527        C  5 --  H 17           +8.6% ( 36.0%)     0.0%
 EFF. MASS   4.4749

 VIBRATION   32   32A       ATOM PAIR        ENERGY CONTRIBUTION    RADIAL
 FREQ.      1396.41        C  4 --  H 14          +19.3% ( 50.3%)     3.5%
 T-DIPOLE    0.0299        C  4 --  H 13          +19.2% ( 50.1%)     4.5%
 TRAVEL      0.1128        C  4 --  C  7          +10.7% ( 37.4%)    86.5%
 RED. MASS   0.4194        C  4 --  C  5           +8.8% ( 33.9%)    20.4%
 EFF. MASS   3.7972

 VIBRATION   33   33A       ATOM PAIR        ENERGY CONTRIBUTION    RADIAL
 FREQ.      1399.67        C  3 --  H 11          +23.7% ( 49.0%)     2.7%
 T-DIPOLE    0.0858        C  3 --  H 12          +23.3% ( 48.6%)     2.8%
 TRAVEL      0.1538        C  2 --  H 10          +17.2% ( 41.7%)     2.7%
 RED. MASS   0.2653        C  2 --  H  9          +16.7% ( 41.2%)     3.1%
 EFF. MASS   2.0359

 VIBRATION   34   34A       ATOM PAIR        ENERGY CONTRIBUTION    RADIAL
 FREQ.      1406.96        C  5 --  H 17          +51.6% ( 62.5%)     0.1%
 T-DIPOLE    0.0401        C  5 --  H 16          +25.0% ( 43.5%)     8.8%
 TRAVEL      0.1730        C  5 --  H 15          +15.8% ( 34.6%)    14.4%
 RED. MASS   0.4096        C  4 --  C  5           +5.4% ( 20.2%)    16.3%
 EFF. MASS   1.6010

 VIBRATION   35   35A       ATOM PAIR        ENERGY CONTRIBUTION    RADIAL
 FREQ.      1411.80        C  5 --  H 15          +43.2% ( 57.6%)     0.6%
 T-DIPOLE    0.0663        C  5 --  H 16          +35.3% ( 52.1%)     1.7%
 TRAVEL      0.1704        C  5 --  H 17          +13.4% ( 32.1%)    32.6%
 RED. MASS   0.3888        C  4 --  C  5           +5.5% ( 20.5%)    10.3%
 EFF. MASS   1.6440

 VIBRATION   36   36A       ATOM PAIR        ENERGY CONTRIBUTION    RADIAL
 FREQ.      1414.99        C  4 --  C  5          +11.1% ( 39.0%)    78.9%
 T-DIPOLE    0.0632        C  4 --  H 13          +11.0% ( 38.8%)     5.9%
 TRAVEL      0.1082        C  5 --  H 15          +10.8% ( 38.5%)     5.7%
 RED. MASS   0.3363        C  4 --  H 14          +10.6% ( 38.1%)     6.5%
 EFF. MASS   4.0726

 VIBRATION   37   37A       ATOM PAIR        ENERGY CONTRIBUTION    RADIAL
 FREQ.      1430.09        C  4 --  C  5          +14.0% ( 52.7%)    85.0%
 T-DIPOLE    0.0896        C  4 --  C  7          +10.9% ( 46.5%)    79.6%
 TRAVEL      0.0817        C  4 --  H 13           +8.7% ( 41.5%)     0.0%
 RED. MASS   0.8895        C  4 --  H 14           +7.9% ( 39.6%)     0.0%
 EFF. MASS   7.0638

 VIBRATION   38   38A       ATOM PAIR        ENERGY CONTRIBUTION    RADIAL
 FREQ.      1603.69        C  1 --  C  2          +19.9% ( 74.1%)    93.9%
 T-DIPOLE    0.0813        C  1 --  C  3          +19.6% ( 73.6%)    93.1%
 TRAVEL      0.0601        C  2 --  C  3          +13.6% ( 61.3%)   100.0%
 RED. MASS   3.3870        C  1 --  C  6          +12.5% ( 58.6%)    71.5%
 EFF. MASS  11.6241        C  1 --  H  8          +10.6% ( 54.1%)     2.1%

 VIBRATION   39   39A       ATOM PAIR        ENERGY CONTRIBUTION    RADIAL
 FREQ.      1894.24        C  6 --  C  7          +43.2% ( 97.1%)    95.9%
 T-DIPOLE    0.0536        C  1 --  C  6          +15.0% ( 57.2%)    62.0%
 TRAVEL      0.0549        C  4 --  C  7          +13.7% ( 54.7%)    54.9%
 RED. MASS   5.3034        C  6 --  H 19          +13.4% ( 54.0%)     3.7%
 EFF. MASS  11.8259        C  7 --  H 18          +12.9% ( 53.0%)     3.5%

 VIBRATION   40   40A       ATOM PAIR        ENERGY CONTRIBUTION    RADIAL
 FREQ.      2944.99        C  4 --  H 14          +52.2% ( 75.0%)    96.8%
 T-DIPOLE    0.0200        C  4 --  H 13          +45.0% ( 69.7%)    96.1%
 TRAVEL      0.1218        C  4 --  C  5           +1.2% ( 11.2%)     0.0%
 RED. MASS   0.5165        C  4 --  C  7           +1.2% ( 11.1%)     0.2%
 EFF. MASS   1.5437

 VIBRATION   41   41A       ATOM PAIR        ENERGY CONTRIBUTION    RADIAL
 FREQ.      2994.43        C  1 --  H  8          +96.0% ( 99.7%)   100.0%
 T-DIPOLE    0.2140        C  1 --  C  2           +1.1% ( 10.7%)    23.2%
 TRAVEL      0.1246        C  1 --  C  3           +1.1% ( 10.7%)    23.3%
 RED. MASS   0.9187        C  1 --  C  6           +1.1% ( 10.6%)     9.9%
 EFF. MASS   1.4509

 VIBRATION   42   42A       ATOM PAIR        ENERGY CONTRIBUTION    RADIAL
 FREQ.      3024.21        C  4 --  H 13          +51.4% ( 70.7%)    98.1%
 T-DIPOLE    0.0420        C  4 --  H 14          +44.8% ( 66.0%)    97.3%
 TRAVEL      0.1318        C  7 --  H 18           +1.5% ( 12.1%)    99.7%
 RED. MASS   0.4634        C  4 --  C  7           +0.7% (  8.1%)    29.5%
 EFF. MASS   1.2845

 VIBRATION   43   43A       ATOM PAIR        ENERGY CONTRIBUTION    RADIAL
 FREQ.      3036.74        C  6 --  H 19          +51.8% ( 72.7%)   100.0%
 T-DIPOLE    0.3635        C  7 --  H 18          +46.0% ( 68.5%)   100.0%
 TRAVEL      0.1244        C  6 --  C  7           +0.8% (  8.9%)    60.8%
 RED. MASS   0.4645        C  1 --  C  6           +0.7% (  8.2%)    20.1%
 EFF. MASS   1.4343

 VIBRATION   44   44A       ATOM PAIR        ENERGY CONTRIBUTION    RADIAL
 FREQ.      3038.11        C  7 --  H 18          +49.5% ( 71.6%)    99.9%
 T-DIPOLE    0.0112        C  6 --  H 19          +44.9% ( 68.2%)   100.0%
 TRAVEL      0.1183        C  6 --  C  7           +2.2% ( 15.0%)    39.9%
 RED. MASS   0.4484        C  4 --  H 13           +1.4% ( 12.1%)    99.5%
 EFF. MASS   1.5862

 VIBRATION   45   45A       ATOM PAIR        ENERGY CONTRIBUTION    RADIAL
 FREQ.      3081.25        C  5 --  H 15          +63.7% ( 82.3%)    98.7%
 T-DIPOLE    0.0086        C  5 --  H 16          +29.2% ( 55.7%)    92.5%
 TRAVEL      0.1207        C  5 --  H 17           +5.9% ( 25.0%)    59.7%
 RED. MASS   0.5219        C  4 --  C  5           +1.0% ( 10.2%)     0.0%
 EFF. MASS   1.5013

 VIBRATION   46   46A       ATOM PAIR        ENERGY CONTRIBUTION    RADIAL
 FREQ.      3083.27        C  2 --  H 10          +34.3% ( 60.7%)    97.8%
 T-DIPOLE    0.0349        C  2 --  H  9          +24.7% ( 51.5%)    95.9%
 TRAVEL      0.1185        C  3 --  H 12          +20.5% ( 46.9%)    97.3%
 RED. MASS   0.2763        C  3 --  H 11          +18.1% ( 44.1%)    96.6%
 EFF. MASS   1.5564

 VIBRATION   47   47A       ATOM PAIR        ENERGY CONTRIBUTION    RADIAL
 FREQ.      3085.99        C  5 --  H 17          +58.7% ( 79.0%)    98.3%
 T-DIPOLE    0.0082        C  5 --  H 16          +35.7% ( 61.6%)    94.4%
 TRAVEL      0.1205        C  5 --  H 15           +4.2% ( 21.2%)    48.5%
 RED. MASS   0.5015        C  4 --  C  5           +1.0% ( 10.3%)     0.0%
 EFF. MASS   1.5041

 VIBRATION   48   48A       ATOM PAIR        ENERGY CONTRIBUTION    RADIAL
 FREQ.      3097.73        C  3 --  H 12          +32.0% ( 58.3%)    97.7%
 T-DIPOLE    0.2440        C  3 --  H 11          +27.0% ( 53.6%)    96.7%
 TRAVEL      0.1188        C  2 --  H 10          +23.6% ( 50.1%)    98.3%
 RED. MASS   0.2749        C  2 --  H  9          +14.7% ( 39.5%)    95.7%
 EFF. MASS   1.5432

 VIBRATION   49   49A       ATOM PAIR        ENERGY CONTRIBUTION    RADIAL
 FREQ.      3133.17        C  2 --  H  9          +56.6% ( 74.7%)    97.7%
 T-DIPOLE    0.1971        C  2 --  H 10          +37.5% ( 60.9%)    94.6%
 TRAVEL      0.1291        C  3 --  H 12           +2.3% ( 15.2%)    97.5%
 RED. MASS   0.4594        C  3 --  H 11           +2.0% ( 13.9%)    96.4%
 EFF. MASS   1.2918

 VIBRATION   50   50A       ATOM PAIR        ENERGY CONTRIBUTION    RADIAL
 FREQ.      3135.41        C  3 --  H 11          +51.0% ( 71.1%)    97.0%
 T-DIPOLE    0.1885        C  3 --  H 12          +42.8% ( 65.1%)    95.7%
 TRAVEL      0.1279        C  2 --  H  9           +2.7% ( 16.3%)    97.5%
 RED. MASS   0.4472        C  2 --  H 10           +1.6% ( 12.6%)    92.9%
 EFF. MASS   1.3152

 VIBRATION   51   51A       ATOM PAIR        ENERGY CONTRIBUTION    RADIAL
 FREQ.      3183.07        C  5 --  H 17          +34.6% ( 56.5%)    97.3%
 T-DIPOLE    0.0195        C  5 --  H 16          +34.3% ( 56.4%)    97.3%
 TRAVEL      0.1366        C  5 --  H 15          +30.8% ( 53.4%)    96.7%
 RED. MASS   0.3277        C  4 --  C  5           +0.3% (  5.1%)    99.8%
 EFF. MASS   1.1360

 SYMMETRY NUMBER FOR POINT-GROUP C1  =  1


          SYSTEM IS A GROUND STATE


    NULL



          MOLECULE IS NOT LINEAR

          THERE ARE 51 GENUINE VIBRATIONS IN THIS SYSTEM
          THIS THERMODYNAMICS CALCULATION IS LIMITED TO
          MOLECULES WHICH HAVE NO INTERNAL ROTATIONS




                    CALCULATED THERMODYNAMIC PROPERTIES
                                          *
   TEMP. (K)   PARTITION FUNCTION   H.O.F.    ENTHALPY  HEAT CAPACITY ENTROPY
                                   KCAL/MOL   CAL/MOLE    CAL/K/MOL  CAL/K/MOL


 298.00  VIB.     0.1343D+03                  3324.5250    23.2469    20.8941
         ROT.     0.2923D+06                   888.2813     2.9808    27.9911
         INT.     0.3927D+08                  4212.8063    26.2277    48.8852
         TRA.     0.9118D+27                  1480.4688     4.9680    39.5994
         TOT.                       19.061    5693.2751    31.1957    88.4847

 200.00  VIB.     0.2144D+02                  1492.9485    14.5542    13.5561
         ROT.     0.1607D+06                   596.1620     2.9808    26.8024
         INT.     0.3446D+07                  2089.1104    17.5350    40.3586
         TRA.     0.5013D+27                   993.6033     4.9680    37.6183
         TOT.                       16.450    3082.7137    22.5030    77.9769

 210.00  VIB.     0.2587D+02                  1642.2547    15.3126    14.2845
         ROT.     0.1729D+06                   625.9700     2.9808    26.9479
         INT.     0.4473D+07                  2268.2248    18.2934    41.2323
         TRA.     0.5394D+27                  1043.2834     4.9680    37.8607
         TOT.                       16.679    3311.5082    23.2614    79.0930

 220.00  VIB.     0.3119D+02                  1799.3119    16.1044    15.0150
         ROT.     0.1854D+06                   655.7781     2.9808    27.0865
         INT.     0.5784D+07                  2455.0900    19.0852    42.1015
         TRA.     0.5784D+27                  1092.9636     4.9680    38.0918
         TOT.                       16.915    3548.0536    24.0532    80.1933

 230.00  VIB.     0.3760D+02                  1964.4527    16.9292    15.7489
         ROT.     0.1982D+06                   685.5862     2.9808    27.2190
         INT.     0.7454D+07                  2650.0390    19.9100    42.9679
         TRA.     0.6182D+27                  1142.6437     4.9680    38.3126
         TOT.                       17.160    3792.6827    24.8780    81.2806

 240.00  VIB.     0.4533D+02                  2138.0015    17.7857    16.4874
         ROT.     0.2113D+06                   715.3943     2.9808    27.3459
         INT.     0.9577D+07                  2853.3959    20.7665    43.8333
         TRA.     0.6590D+27                  1192.3239     4.9680    38.5241
         TOT.                       17.413    4045.7198    25.7345    82.3573

 250.00  VIB.     0.5464D+02                  2320.2658    18.6719    17.2313
         ROT.     0.2246D+06                   745.2024     2.9808    27.4676
         INT.     0.1227D+08                  3065.4682    21.6527    44.6989
         TRA.     0.7006D+27                  1242.0041     4.9680    38.7269
         TOT.                       17.675    4307.4723    26.6207    83.4257

 260.00  VIB.     0.6586D+02                  2511.5296    19.5851    17.9813
         ROT.     0.2382D+06                   775.0105     2.9808    27.5845
         INT.     0.1569D+08                  3286.5401    22.5659    45.5658
         TRA.     0.7431D+27                  1291.6842     4.9680    38.9217
         TOT.                       17.946    4578.2243    27.5340    84.4875

 270.00  VIB.     0.7941D+02                  2712.0487    20.5224    18.7380
         ROT.     0.2521D+06                   804.8186     2.9808    27.6970
         INT.     0.2002D+08                  3516.8674    23.5033    46.4350
         TRA.     0.7864D+27                  1341.3644     4.9680    39.1092
         TOT.                       18.226    4858.2318    28.4713    85.5442

 280.00  VIB.     0.9578D+02                  2922.0478    21.4806    19.5016
         ROT.     0.2663D+06                   834.6267     2.9808    27.8054
         INT.     0.2550D+08                  3756.6746    24.4614    47.3070
         TRA.     0.8304D+27                  1391.0445     4.9680    39.2899
         TOT.                       18.515    5147.7191    29.4294    86.5969

 290.00  VIB.     0.1156D+03                  3141.7182    22.4561    20.2724
         ROT.     0.2806D+06                   864.4348     2.9808    27.9100
         INT.     0.3243D+08                  4006.1531    25.4370    48.1823
         TRA.     0.8753D+27                  1440.7247     4.9680    39.4642
         TOT.                       18.814    5446.8778    30.4050    87.6466

 300.00  VIB.     0.1395D+03                  3371.2176    23.4458    21.0503
         ROT.     0.2953D+06                   894.2429     2.9808    28.0110
         INT.     0.4119D+08                  4265.4605    26.4266    49.0613
         TRA.     0.9210D+27                  1490.4049     4.9680    39.6326
         TOT.                       19.123    5755.8654    31.3946    88.6940

 310.00  VIB.     0.1685D+03                  3610.6700    24.4462    21.8354
         ROT.     0.3102D+06                   924.0510     2.9808    28.1088
         INT.     0.5226D+08                  4534.7210    27.4270    49.9441
         TRA.     0.9674D+27                  1540.0850     4.9680    39.7955
         TOT.                       19.442    6074.8061    32.3950    89.7397

 320.00  VIB.     0.2036D+03                  3860.1671    25.4542    22.6274
         ROT.     0.3253D+06                   953.8591     2.9808    28.2034
         INT.     0.6623D+08                  4814.0262    28.4350    50.8308
         TRA.     0.1015D+28                  1589.7652     4.9680    39.9533
         TOT.                       19.771    6403.7914    33.4030    90.7841

 330.00  VIB.     0.2462D+03                  4119.7695    26.4668    23.4262
         ROT.     0.3407D+06                   983.6672     2.9808    28.2951
         INT.     0.8388D+08                  5103.4367    29.4476    51.7213
         TRA.     0.1063D+28                  1639.4454     4.9680    40.1062
         TOT.                       20.110    6742.8821    34.4156    91.8275

 340.00  VIB.     0.2980D+03                  4389.5090    27.4812    24.2313
         ROT.     0.3563D+06                  1013.4753     2.9808    28.3841
         INT.     0.1062D+09                  5402.9843    30.4620    52.6155
         TRA.     0.1111D+28                  1689.1255     4.9680    40.2545
         TOT.                       20.459    7092.1098    35.4300    92.8699

 350.00  VIB.     0.3608D+03                  4669.3903    28.4948    25.0426
         ROT.     0.3721D+06                  1043.2834     2.9808    28.4705
         INT.     0.1343D+09                  5712.6737    31.4756    53.5131
         TRA.     0.1161D+28                  1738.8057     4.9680    40.3985
         TOT.                       20.819    7451.4794    36.4436    93.9116

 360.00  VIB.     0.4373D+03                  4959.3939    29.5053    25.8595
         ROT.     0.3882D+06                  1073.0915     2.9808    28.5545
         INT.     0.1697D+09                  6032.4854    32.4861    54.4140
         TRA.     0.1211D+28                  1788.4859     4.9680    40.5384
         TOT.                       21.188    7820.9712    37.4541    94.9524

 370.00  VIB.     0.5303D+03                  5259.4781    30.5106    26.6816
         ROT.     0.4044D+06                  1102.8996     2.9808    28.6362
         INT.     0.2145D+09                  6362.3777    33.4914    55.3178
         TRA.     0.1261D+28                  1838.1660     4.9680    40.6745
         TOT.                       21.568    8200.5437    38.4594    95.9923

 380.00  VIB.     0.6437D+03                  5569.5817    31.5088    27.5085
         ROT.     0.4210D+06                  1132.7077     2.9808    28.7157
         INT.     0.2710D+09                  6702.2895    34.4897    56.2242
         TRA.     0.1313D+28                  1887.8462     4.9680    40.8070
         TOT.                       21.957    8590.1356    39.4577    97.0313

 390.00  VIB.     0.7819D+03                  5889.6263    32.4985    28.3398
         ROT.     0.4377D+06                  1162.5158     2.9808    28.7931
         INT.     0.3422D+09                  7052.1421    35.4793    57.1329
         TRA.     0.1365D+28                  1937.5263     4.9680    40.9361
         TOT.                       22.357    8989.6684    40.4473    98.0690

 400.00  VIB.     0.9505D+03                  6219.5182    33.4781    29.1750
         ROT.     0.4546D+06                  1192.3239     2.9808    28.8686
         INT.     0.4321D+09                  7411.8421    36.4589    58.0435
         TRA.     0.1418D+28                  1987.2065     4.9680    41.0619
         TOT.                       22.766    9399.0486    41.4269    99.1054

   *: NOTE: HEATS OF FORMATION ARE RELATIVE TO THE
            ELEMENTS IN THEIR STANDARD STATE AT 298K
              (=  Standard Enthalpy of Formation).

            Hvib:  Zero-point energy is not included.
                   frequencies of less than zero cm-1 are not included.
            Hrot = (3/2)RT
            Htra = (3/2)RT + pV = (5/2)RT

            Heat capacity is Cp, not Cv

           For more information, see: HTTP://OpenMOPAC.net/Manual/thermochemistry.html


           FORCE CONSTANT IN CARTESIAN COORDINATES (Millidynes/A)

    ATOM   CHEMICAL       X               Y               Z
   NUMBER   SYMBOL  FORCE CONSTANT  FORCE CONSTANT  FORCE CONSTANT

      1       C       10.266277        6.625406        9.282213
      2       C        9.897343        6.481003        8.765170
      3       C        4.556836       11.801623        8.754008
      4       C        8.526321        8.210625        8.697672
      5       C        8.237467        8.217263        8.400221
      6       C        7.445690       10.806507        9.333031
      7       C        7.327661       10.703559        9.199724
      8       H        1.711996        0.911727        3.602410
      9       H        1.837704        0.984700        3.839504
     10       H        1.850737        0.968823        3.818941
     11       H        0.526942        2.297251        3.835940
     12       H        0.523762        2.282311        3.838570
     13       H        2.644743        2.776469        0.977961
     14       H        1.665926        3.678780        0.933089
     15       H        2.833834        3.026457        0.924724
     16       H        1.778197        3.989445        1.017049
     17       H        2.171165        1.108847        3.515134
     18       H        3.376955        1.996139        0.837889
     19       H        3.304818        2.063373        0.807840



 TOTAL CPU TIME:             1.72 SECONDS

 == MOPAC DONE ==
