 *******************************************************************************
 ** Site#: 14399           For non-commercial use only        Version 13.159M **
 *******************************************************************************
 ** Cite this work as: MOPAC2012, James J. P. Stewart, Stewart Computational  **
 ** Chemistry, Version 13.159M web: HTTP://OpenMOPAC.net  Days remaining:   6 **
 *******************************************************************************
 **                                                                           **
 **                                MOPAC2012                                  **
 **                                                                           **
 *******************************************************************************

                            PM3 CALCULATION RESULTS


 *******************************************************************************
 *  CALCULATION DONE:                                Mon Jun  2 14:10:53 2014  *
 *  PM3      - The PM3 Hamiltonian to be used
 *  PRECISE  - CRITERIA TO BE INCREASED BY 100 TIMES
 *  NOSYM    - POINT-GROUP SYMMETRY SET TO C1
 *  T=       - A TIME OF 172800.0 SECONDS REQUESTED
 *  DUMP=N   - RESTART FILE WRITTEN EVERY  7200.000 SECONDS
 *******************************************************************************
pm3  precise nosym
 InChI=1S/C8H14/c1-2-3-5-8-6-4-7-8/h3,5,8H,2,4,6-7H2,1H3

   ATOM   CHEMICAL          X               Y               Z
  NUMBER   SYMBOL      (ANGSTROMS)     (ANGSTROMS)     (ANGSTROMS)
 
     1       C          1.24410000  *   0.20130000  *  -0.71060000  *
     2       C          2.39830000  *  -0.84870000  *  -0.70520000  *
     3       C          1.76180000  *   0.71460000  *   0.62940000  *
     4       C          2.93380000  *  -0.19890000  *   0.56140000  *
     5       C         -2.62120000  *  -0.11790000  *  -0.48480000  *
     6       C         -3.29040000  *   0.19460000  *   0.84730000  *
     7       C         -0.14710000  *  -0.37260000  *  -0.67490000  *
     8       C         -1.21810000  *   0.41740000  *  -0.52320000  *
     9       H          1.37410000  *   0.94490000  *  -1.53300000  *
    10       H          2.07880000  *  -1.90310000  *  -0.53050000  *
    11       H          3.08610000  *  -0.74100000  *  -1.57590000  *
    12       H          2.99330000  *  -0.90570000  *   1.42190000  *
    13       H          3.89240000  *   0.34410000  *   0.38660000  *
    14       H          2.04390000  *   1.79280000  *   0.59580000  *
    15       H          1.10170000  *   0.48390000  *   1.49960000  *
    16       H         -2.65970000  *  -1.21980000  *  -0.65320000  *
    17       H         -3.20100000  *   0.35810000  *  -1.30820000  *
    18       H         -2.73920000  *  -0.28590000  *   1.68780000  *
    19       H         -4.33260000  *  -0.19780000  *   0.84730000  *
    20       H         -3.33670000  *   1.29370000  *   1.02330000  *
    21       H         -1.08240000  *   1.49420000  *  -0.41950000  *
    22       H         -0.27970000  *  -1.44840000  *  -0.78640000  *
 


          CARTESIAN COORDINATES 

    NO.       ATOM         X         Y         Z

     1         C        1.2441    0.2013   -0.7106
     2         C        2.3983   -0.8487   -0.7052
     3         C        1.7618    0.7146    0.6294
     4         C        2.9338   -0.1989    0.5614
     5         C       -2.6212   -0.1179   -0.4848
     6         C       -3.2904    0.1946    0.8473
     7         C       -0.1471   -0.3726   -0.6749
     8         C       -1.2181    0.4174   -0.5232
     9         H        1.3741    0.9449   -1.5330
    10         H        2.0788   -1.9031   -0.5305
    11         H        3.0861   -0.7410   -1.5759
    12         H        2.9933   -0.9057    1.4219
    13         H        3.8924    0.3441    0.3866
    14         H        2.0439    1.7928    0.5958
    15         H        1.1017    0.4839    1.4996
    16         H       -2.6597   -1.2198   -0.6532
    17         H       -3.2010    0.3581   -1.3082
    18         H       -2.7392   -0.2859    1.6878
    19         H       -4.3326   -0.1978    0.8473
    20         H       -3.3367    1.2937    1.0233
    21         H       -1.0824    1.4942   -0.4195
    22         H       -0.2797   -1.4484   -0.7864

  H: (PM3): J. J. P. STEWART, J. COMP. CHEM. 10, 209 (1989).
  C: (PM3): J. J. P. STEWART, J. COMP. CHEM. 10, 209 (1989).

           Empirical Formula: C8 H14  =    22 atoms



      MOLECULAR POINT GROUP   :   C1  


      RHF CALCULATION, NO. OF DOUBLY OCCUPIED LEVELS =   23

      Geometry optimization using EF

          DIAGONAL MATRIX USED AS START HESSIAN

 CYCLE:     1 TIME:   0.008 TIME LEFT:  2.00D  GRAD.:   100.265 HEAT: 5.727923
 CYCLE:     2 TIME:   0.011 TIME LEFT:  2.00D  GRAD.:   112.418 HEAT: 5.352929
 CYCLE:     3 TIME:   0.006 TIME LEFT:  2.00D  GRAD.:    81.125 HEAT: 3.118601
 CYCLE:     4 TIME:   0.012 TIME LEFT:  2.00D  GRAD.:    61.026 HEAT: 2.005257
 CYCLE:     5 TIME:   0.006 TIME LEFT:  2.00D  GRAD.:    63.102 HEAT: 1.914184
 CYCLE:     6 TIME:   0.011 TIME LEFT:  2.00D  GRAD.:    30.909 HEAT:0.9257599
 CYCLE:     7 TIME:   0.011 TIME LEFT:  2.00D  GRAD.:    20.452 HEAT:0.6539230
 CYCLE:     8 TIME:   0.011 TIME LEFT:  2.00D  GRAD.:    19.682 HEAT:0.5553267
 CYCLE:     9 TIME:   0.006 TIME LEFT:  2.00D  GRAD.:    13.549 HEAT:0.4010063
 CYCLE:    10 TIME:   0.006 TIME LEFT:  2.00D  GRAD.:    16.860 HEAT:0.3458077
 CYCLE:    11 TIME:   0.011 TIME LEFT:  2.00D  GRAD.:    11.824 HEAT:0.2691411
 CYCLE:    12 TIME:   0.011 TIME LEFT:  2.00D  GRAD.:     7.302 HEAT:0.2334488
 CYCLE:    13 TIME:   0.011 TIME LEFT:  2.00D  GRAD.:     5.768 HEAT:0.2171882
 CYCLE:    14 TIME:   0.006 TIME LEFT:  2.00D  GRAD.:     9.202 HEAT:0.2171443
 CYCLE:    15 TIME:   0.006 TIME LEFT:  2.00D  GRAD.:     5.225 HEAT:0.1923065
 CYCLE:    16 TIME:   0.006 TIME LEFT:  2.00D  GRAD.:     4.371 HEAT:0.1831455
 CYCLE:    17 TIME:   0.006 TIME LEFT:  2.00D  GRAD.:     4.450 HEAT:0.1772206
 CYCLE:    18 TIME:   0.006 TIME LEFT:  2.00D  GRAD.:     4.198 HEAT:0.1710562
 CYCLE:    19 TIME:   0.006 TIME LEFT:  2.00D  GRAD.:     4.393 HEAT:0.1649673
 CYCLE:    20 TIME:   0.006 TIME LEFT:  2.00D  GRAD.:     3.229 HEAT:0.1562381
 CYCLE:    21 TIME:   0.006 TIME LEFT:  2.00D  GRAD.:     4.341 HEAT:0.1496040
 CYCLE:    22 TIME:   0.006 TIME LEFT:  2.00D  GRAD.:     4.043 HEAT:0.1428691
 CYCLE:    23 TIME:   0.006 TIME LEFT:  2.00D  GRAD.:     3.022 HEAT:0.1383613
 CYCLE:    24 TIME:   0.006 TIME LEFT:  2.00D  GRAD.:     2.732 HEAT:0.1357478
 CYCLE:    25 TIME:   0.006 TIME LEFT:  2.00D  GRAD.:     1.716 HEAT:0.1314166
 CYCLE:    26 TIME:   0.006 TIME LEFT:  2.00D  GRAD.:     1.771 HEAT:0.1265268
 CYCLE:    27 TIME:   0.006 TIME LEFT:  2.00D  GRAD.:     3.247 HEAT:0.1181862
 CYCLE:    28 TIME:   0.006 TIME LEFT:  2.00D  GRAD.:     3.442 HEAT:0.1149627
 CYCLE:    29 TIME:   0.006 TIME LEFT:  2.00D  GRAD.:     2.101 HEAT:0.1087983
 CYCLE:    30 TIME:   0.006 TIME LEFT:  2.00D  GRAD.:     2.271 HEAT:0.1007959
 CYCLE:    31 TIME:   0.006 TIME LEFT:  2.00D  GRAD.:     3.665 HEAT:0.8766913E-01
 CYCLE:    32 TIME:   0.006 TIME LEFT:  2.00D  GRAD.:     3.357 HEAT:0.7415576E-01
 CYCLE:    33 TIME:   0.006 TIME LEFT:  2.00D  GRAD.:     2.155 HEAT:0.6412370E-01
 CYCLE:    34 TIME:   0.006 TIME LEFT:  2.00D  GRAD.:     1.899 HEAT:0.5741933E-01
 CYCLE:    35 TIME:   0.006 TIME LEFT:  2.00D  GRAD.:     1.799 HEAT:0.5234459E-01
 CYCLE:    36 TIME:   0.006 TIME LEFT:  2.00D  GRAD.:     1.369 HEAT:0.4905758E-01
 CYCLE:    37 TIME:   0.006 TIME LEFT:  2.00D  GRAD.:     1.189 HEAT:0.4653708E-01
 CYCLE:    38 TIME:   0.006 TIME LEFT:  2.00D  GRAD.:     1.135 HEAT:0.4447168E-01
 CYCLE:    39 TIME:   0.006 TIME LEFT:  2.00D  GRAD.:     0.866 HEAT:0.4265955E-01
 CYCLE:    40 TIME:   0.006 TIME LEFT:  2.00D  GRAD.:     0.698 HEAT:0.4132442E-01
 CYCLE:    41 TIME:   0.006 TIME LEFT:  2.00D  GRAD.:     0.790 HEAT:0.3985526E-01
 CYCLE:    42 TIME:   0.006 TIME LEFT:  2.00D  GRAD.:     0.791 HEAT:0.3861029E-01
 CYCLE:    43 TIME:   0.006 TIME LEFT:  2.00D  GRAD.:     0.708 HEAT:0.3763482E-01
 CYCLE:    44 TIME:   0.006 TIME LEFT:  2.00D  GRAD.:     0.708 HEAT:0.3680370E-01
 CYCLE:    45 TIME:   0.006 TIME LEFT:  2.00D  GRAD.:     0.655 HEAT:0.3585517E-01
 CYCLE:    46 TIME:   0.006 TIME LEFT:  2.00D  GRAD.:     0.698 HEAT:0.3462484E-01
 CYCLE:    47 TIME:   0.006 TIME LEFT:  2.00D  GRAD.:     0.675 HEAT:0.3348757E-01
 CYCLE:    48 TIME:   0.006 TIME LEFT:  2.00D  GRAD.:     0.732 HEAT:0.3220015E-01
 CYCLE:    49 TIME:   0.006 TIME LEFT:  2.00D  GRAD.:     1.072 HEAT:0.3001500E-01
 CYCLE:    50 TIME:   0.007 TIME LEFT:  2.00D  GRAD.:     1.389 HEAT:0.2697088E-01
 CYCLE:    51 TIME:   0.006 TIME LEFT:  2.00D  GRAD.:     2.157 HEAT:0.2140678E-01
 CYCLE:    52 TIME:   0.006 TIME LEFT:  2.00D  GRAD.:     1.491 HEAT:0.1773691E-01
 CYCLE:    53 TIME:   0.006 TIME LEFT:  2.00D  GRAD.:     1.406 HEAT:0.1154263E-01
 CYCLE:    54 TIME:   0.006 TIME LEFT:  2.00D  GRAD.:     1.577 HEAT:0.7151943E-02
 CYCLE:    55 TIME:   0.006 TIME LEFT:  2.00D  GRAD.:     1.608 HEAT:0.1631968E-02
 CYCLE:    56 TIME:   0.006 TIME LEFT:  2.00D  GRAD.:     1.949 HEAT:-.3511204E-02
 CYCLE:    57 TIME:   0.006 TIME LEFT:  2.00D  GRAD.:     1.111 HEAT:-.6358832E-02
 CYCLE:    58 TIME:   0.007 TIME LEFT:  2.00D  GRAD.:     1.185 HEAT:-.9045581E-02
 CYCLE:    59 TIME:   0.006 TIME LEFT:  2.00D  GRAD.:     0.826 HEAT:-.1058878E-01
 CYCLE:    60 TIME:   0.006 TIME LEFT:  2.00D  GRAD.:     0.585 HEAT:-.1167874E-01
 CYCLE:    61 TIME:   0.006 TIME LEFT:  2.00D  GRAD.:     0.623 HEAT:-.1271496E-01
 CYCLE:    62 TIME:   0.006 TIME LEFT:  2.00D  GRAD.:     0.728 HEAT:-.1397181E-01
 CYCLE:    63 TIME:   0.006 TIME LEFT:  2.00D  GRAD.:     1.402 HEAT:-.1558071E-01
 CYCLE:    64 TIME:   0.006 TIME LEFT:  2.00D  GRAD.:     0.747 HEAT:-.1670393E-01
 CYCLE:    65 TIME:   0.006 TIME LEFT:  2.00D  GRAD.:     0.656 HEAT:-.1839155E-01
 CYCLE:    66 TIME:   0.006 TIME LEFT:  2.00D  GRAD.:     0.785 HEAT:-.2005695E-01
 CYCLE:    67 TIME:   0.006 TIME LEFT:  2.00D  GRAD.:     0.777 HEAT:-.2112157E-01
 CYCLE:    68 TIME:   0.006 TIME LEFT:  2.00D  GRAD.:     0.918 HEAT:-.2387940E-01
 CYCLE:    69 TIME:   0.006 TIME LEFT:  2.00D  GRAD.:     0.876 HEAT:-.2571868E-01
 CYCLE:    70 TIME:   0.006 TIME LEFT:  2.00D  GRAD.:     0.954 HEAT:-.2937004E-01
 CYCLE:    71 TIME:   0.006 TIME LEFT:  2.00D  GRAD.:     0.944 HEAT:-.3105380E-01
 CYCLE:    72 TIME:   0.006 TIME LEFT:  2.00D  GRAD.:     0.896 HEAT:-.3370355E-01
 CYCLE:    73 TIME:   0.006 TIME LEFT:  2.00D  GRAD.:     0.832 HEAT:-.3510732E-01
 CYCLE:    74 TIME:   0.006 TIME LEFT:  2.00D  GRAD.:     0.752 HEAT:-.3637454E-01
 CYCLE:    75 TIME:   0.006 TIME LEFT:  2.00D  GRAD.:     0.582 HEAT:-.3723532E-01
 CYCLE:    76 TIME:   0.007 TIME LEFT:  2.00D  GRAD.:     0.599 HEAT:-.3817341E-01
 CYCLE:    77 TIME:   0.007 TIME LEFT:  2.00D  GRAD.:     0.679 HEAT:-.3910613E-01
 CYCLE:    78 TIME:   0.006 TIME LEFT:  2.00D  GRAD.:     0.640 HEAT:-.4024301E-01
 CYCLE:    79 TIME:   0.006 TIME LEFT:  2.00D  GRAD.:     0.794 HEAT:-.4127806E-01
 CYCLE:    80 TIME:   0.007 TIME LEFT:  2.00D  GRAD.:     0.733 HEAT:-.4240781E-01
 CYCLE:    81 TIME:   0.008 TIME LEFT:  2.00D  GRAD.:     1.028 HEAT:-.4376264E-01
 CYCLE:    82 TIME:   0.008 TIME LEFT:  2.00D  GRAD.:     1.099 HEAT:-.4606293E-01
 CYCLE:    83 TIME:   0.006 TIME LEFT:  2.00D  GRAD.:     1.125 HEAT:-.4948130E-01
 CYCLE:    84 TIME:   0.006 TIME LEFT:  2.00D  GRAD.:     0.889 HEAT:-.5081362E-01
 CYCLE:    85 TIME:   0.006 TIME LEFT:  2.00D  GRAD.:     0.864 HEAT:-.5249640E-01
 CYCLE:    86 TIME:   0.006 TIME LEFT:  2.00D  GRAD.:     0.629 HEAT:-.5312239E-01
 CYCLE:    87 TIME:   0.006 TIME LEFT:  2.00D  GRAD.:     0.790 HEAT:-.5386096E-01
 CYCLE:    88 TIME:   0.006 TIME LEFT:  2.00D  GRAD.:     0.387 HEAT:-.5435911E-01
 CYCLE:    89 TIME:   0.006 TIME LEFT:  2.00D  GRAD.:     0.316 HEAT:-.5459550E-01
 CYCLE:    90 TIME:   0.006 TIME LEFT:  2.00D  GRAD.:     0.364 HEAT:-.5502031E-01
 CYCLE:    91 TIME:   0.006 TIME LEFT:  2.00D  GRAD.:     0.432 HEAT:-.5543318E-01
 CYCLE:    92 TIME:   0.006 TIME LEFT:  2.00D  GRAD.:     0.521 HEAT:-.5596693E-01
 CYCLE:    93 TIME:   0.006 TIME LEFT:  2.00D  GRAD.:     0.622 HEAT:-.5656311E-01
 CYCLE:    94 TIME:   0.006 TIME LEFT:  2.00D  GRAD.:     0.699 HEAT:-.5724850E-01
 CYCLE:    95 TIME:   0.006 TIME LEFT:  2.00D  GRAD.:     1.066 HEAT:-.5923412E-01
 CYCLE:    96 TIME:   0.006 TIME LEFT:  2.00D  GRAD.:     1.063 HEAT:-.6064953E-01
 CYCLE:    97 TIME:   0.006 TIME LEFT:  2.00D  GRAD.:     1.973 HEAT:-.6811971E-01
 CYCLE:    98 TIME:   0.006 TIME LEFT:  2.00D  GRAD.:     1.376 HEAT:-.7107401E-01
 CYCLE:    99 TIME:   0.006 TIME LEFT:  2.00D  GRAD.:     0.780 HEAT:-.7638650E-01
 CYCLE:   100 TIME:   0.006 TIME LEFT:  2.00D  GRAD.:     1.856 HEAT:-.7852921E-01
 CYCLE:   101 TIME:   0.006 TIME LEFT:  2.00D  GRAD.:     0.668 HEAT:-.8026232E-01
 CYCLE:   102 TIME:   0.006 TIME LEFT:  2.00D  GRAD.:     0.540 HEAT:-.8107923E-01
 CYCLE:   103 TIME:   0.007 TIME LEFT:  2.00D  GRAD.:     0.960 HEAT:-.8204543E-01
 CYCLE:   104 TIME:   0.008 TIME LEFT:  2.00D  GRAD.:     0.367 HEAT:-.8261670E-01
 CYCLE:   105 TIME:   0.006 TIME LEFT:  2.00D  GRAD.:     0.278 HEAT:-.8287575E-01
 CYCLE:   106 TIME:   0.007 TIME LEFT:  2.00D  GRAD.:     0.474 HEAT:-.8340954E-01
 CYCLE:   107 TIME:   0.006 TIME LEFT:  2.00D  GRAD.:     0.447 HEAT:-.8370883E-01
 CYCLE:   108 TIME:   0.006 TIME LEFT:  2.00D  GRAD.:     0.353 HEAT:-.8406450E-01
 CYCLE:   109 TIME:   0.006 TIME LEFT:  2.00D  GRAD.:     0.316 HEAT:-.8466511E-01
 CYCLE:   110 TIME:   0.006 TIME LEFT:  2.00D  GRAD.:     0.454 HEAT:-.8502293E-01
 CYCLE:   111 TIME:   0.006 TIME LEFT:  2.00D  GRAD.:     0.366 HEAT:-.8541049E-01
 CYCLE:   112 TIME:   0.006 TIME LEFT:  2.00D  GRAD.:     0.706 HEAT:-.8579344E-01
 CYCLE:   113 TIME:   0.006 TIME LEFT:  2.00D  GRAD.:     0.704 HEAT:-.8638228E-01
 CYCLE:   114 TIME:   0.006 TIME LEFT:  2.00D  GRAD.:     0.940 HEAT:-.8726704E-01
 CYCLE:   115 TIME:   0.006 TIME LEFT:  2.00D  GRAD.:     1.531 HEAT:-.8857724E-01
 CYCLE:   116 TIME:   0.006 TIME LEFT:  2.00D  GRAD.:     0.945 HEAT:-.8973241E-01
 CYCLE:   117 TIME:   0.006 TIME LEFT:  2.00D  GRAD.:     0.551 HEAT:-.9167371E-01
 CYCLE:   118 TIME:   0.006 TIME LEFT:  2.00D  GRAD.:     0.625 HEAT:-.9275270E-01
 CYCLE:   119 TIME:   0.006 TIME LEFT:  2.00D  GRAD.:     0.663 HEAT:-.9399335E-01
 CYCLE:   120 TIME:   0.006 TIME LEFT:  2.00D  GRAD.:     0.457 HEAT:-.9465086E-01
 CYCLE:   121 TIME:   0.006 TIME LEFT:  2.00D  GRAD.:     0.284 HEAT:-.9519337E-01
 CYCLE:   122 TIME:   0.006 TIME LEFT:  2.00D  GRAD.:     0.205 HEAT:-.9528871E-01
 CYCLE:   123 TIME:   0.006 TIME LEFT:  2.00D  GRAD.:     0.150 HEAT:-.9540549E-01
 CYCLE:   124 TIME:   0.006 TIME LEFT:  2.00D  GRAD.:     0.075 HEAT:-.9543359E-01
 CYCLE:   125 TIME:   0.006 TIME LEFT:  2.00D  GRAD.:     0.067 HEAT:-.9544595E-01
 CYCLE:   126 TIME:   0.006 TIME LEFT:  2.00D  GRAD.:     0.054 HEAT:-.9545594E-01
 CYCLE:   127 TIME:   0.006 TIME LEFT:  2.00D  GRAD.:     0.020 HEAT:-.9545970E-01

     RMS GRADIENT =  0.02006  IS LESS THAN CUTOFF =  0.05000



 -------------------------------------------------------------------------------
pm3  precise nosym
 InChI=1S/C8H14/c1-2-3-5-8-6-4-7-8/h3,5,8H,2,4,6-7H2,1H3



     GEOMETRY OPTIMISED USING EIGENVECTOR FOLLOWING (EF).     
     SCF FIELD WAS ACHIEVED                                   


                              PM3 CALCULATION
                                                       MOPAC2012 (Version: 13.159M)
                                                       Mon Jun  2 14:10:54 2014
                                                       No. of days left =   6




          FINAL HEAT OF FORMATION =         -0.09546 KCAL/MOL =      -0.39940 KJ/MOL


          TOTAL ENERGY            =      -1163.78497 EV
          ELECTRONIC ENERGY       =      -5890.61277 EV  POINT GROUP:     C1  
          CORE-CORE REPULSION     =       4726.82780 EV
          COSMO AREA              =        175.62 SQUARE ANGSTROMS
          COSMO VOLUME            =        169.60 CUBIC ANGSTROMS

          GRADIENT NORM           =          0.02006
          IONIZATION POTENTIAL    =          9.685608 EV
          HOMO LUMO ENERGIES (EV) =         -9.686  1.123
          NO. OF FILLED LEVELS    =         23
          MOLECULAR WEIGHT        =        110.199

          MOLECULAR DIMENSIONS (Angstroms)

            Atom       Atom       Distance
            H    19    H    13     8.20467
            H    14    H    10     3.89762
            H    12    H     9     3.60542


          SCF CALCULATIONS        =        136
          COMPUTATION TIME        =          0.833 SECONDS




   ATOM   CHEMICAL          X               Y               Z
  NUMBER   SYMBOL      (ANGSTROMS)     (ANGSTROMS)     (ANGSTROMS)
 
     1       C          1.26700462  *   0.18479605  *  -0.80950289  *
     2       C          2.34982062  *  -0.91022097  *  -0.63085747  *
     3       C          1.75564763  *   0.86041553  *   0.49757011  *
     4       C          2.84485893  *  -0.21736026  *   0.65262090  *
     5       C         -2.57019092  *  -0.08071428  *  -0.44900593  *
     6       C         -3.27082949  *   0.09393219  *   0.88135515  *
     7       C         -0.13023915  *  -0.31057582  *  -0.82721258  *
     8       C         -1.16562680  *   0.40611135  *  -0.38785982  *
     9       H          1.42622767  *   0.81237021  *  -1.71238164  *
    10       H          1.95697083  *  -1.92808011  *  -0.48376713  *
    11       H          3.08744594  *  -0.96137342  *  -1.44514782  *
    12       H          2.76512671  *  -0.82582605  *   1.56566185  *
    13       H          3.87724030  *   0.15985083  *   0.60445476  *
    14       H          2.13179603  *   1.88597286  *   0.36937004  *
    15       H          1.01072306  *   0.88511800  *   1.30799835  *
    16       H         -2.61323837  *  -1.14275347  *  -0.76371347  *
    17       H         -3.10172495  *   0.48760554  *  -1.23883355  *
    18       H         -2.78062937  *  -0.48527544  *   1.67448972  *
    19       H         -4.31463122  *  -0.24054497  *   0.82692848  *
    20       H         -3.27818210  *   1.14415473  *   1.20209615  *
    21       H         -1.02088715  *   1.40596857  *   0.04128742  *
    22       H         -0.27367415  *  -1.31347754  *  -1.25040831  *

           Empirical Formula: C8 H14  =    22 atoms



      MOLECULAR POINT GROUP   :   C1  


                  EIGENVALUES  
 -40.51271 -36.26917 -30.08943 -25.71503 -24.88031 -21.82222 -19.67578 -18.33363
 -17.02268 -16.83498 -15.81782 -15.19285 -14.29158 -13.67569 -13.35234 -13.21686
 -12.82281 -12.47699 -12.01740 -11.81411 -11.63310 -11.20046  -9.68561   1.12322
   3.23124   3.39929   3.52873   3.66263   3.73697   3.82176   3.97472   3.98585
   4.09572   4.20503   4.32793   4.35876   4.49897   4.51077   4.54625   4.72162
   4.81618   4.88214   5.26220   5.51367   5.81405   6.00253


              NET ATOMIC CHARGES AND DIPOLE CONTRIBUTIONS

  ATOM NO.   TYPE          CHARGE      No. of ELECS.   s-Pop       p-Pop       
    1          C          -0.058517        4.0585     1.17704     2.88147
    2          C          -0.107113        4.1071     1.17495     2.93216
    3          C          -0.107059        4.1071     1.17422     2.93284
    4          C          -0.107281        4.1073     1.16996     2.93732
    5          C          -0.059326        4.0593     1.14538     2.91395
    6          C          -0.105955        4.1060     1.13771     2.96824
    7          C          -0.138448        4.1384     1.19426     2.94419
    8          C          -0.155104        4.1551     1.19587     2.95923
    9          H           0.075685        0.9243     0.92432
   10          H           0.059374        0.9406     0.94063
   11          H           0.054078        0.9459     0.94592
   12          H           0.055663        0.9443     0.94434
   13          H           0.054217        0.9458     0.94578
   14          H           0.054137        0.9459     0.94586
   15          H           0.062581        0.9374     0.93742
   16          H           0.050576        0.9494     0.94942
   17          H           0.052267        0.9477     0.94773
   18          H           0.039925        0.9601     0.96007
   19          H           0.036446        0.9636     0.96355
   20          H           0.037589        0.9624     0.96241
   21          H           0.103392        0.8966     0.89661
   22          H           0.102874        0.8971     0.89713
 DIPOLE           X         Y         Z       TOTAL
 POINT-CHG.    -0.032     0.004    -0.003     0.033
 HYBRID         0.004     0.010     0.001     0.011
 SUM           -0.029     0.014    -0.003     0.032


          ATOMIC ORBITAL ELECTRON POPULATIONS

    Atom      s        px        py        pz   
    1  C   1.17704   0.92899   0.97411   0.97837
    2  C   1.17495   0.98061   0.97485   0.97671
    3  C   1.17422   0.98524   0.97401   0.97359
    4  C   1.16996   0.97980   0.98042   0.97709
    5  C   1.14538   0.94014   1.00377   0.97004
    6  C   1.13771   0.99224   1.00904   0.96696
    7  C   1.19426   0.94553   0.99127   1.00739
    8  C   1.19587   0.95105   0.99696   1.01122
    9  H   0.92432
   10  H   0.94063
   11  H   0.94592
   12  H   0.94434
   13  H   0.94578
   14  H   0.94586
   15  H   0.93742
   16  H   0.94942
   17  H   0.94773
   18  H   0.96007
   19  H   0.96355
   20  H   0.96241
   21  H   0.89661
   22  H   0.89713
 *******************************************************************************
 ** Site#: 14399           For non-commercial use only        Version 13.159M **
 *******************************************************************************
 ** Cite this work as: MOPAC2012, James J. P. Stewart, Stewart Computational  **
 ** Chemistry, Version 13.159M web: HTTP://OpenMOPAC.net  Days remaining:   6 **
 *******************************************************************************
 **                                                                           **
 **                                MOPAC2012                                  **
 **                                                                           **
 *******************************************************************************

                            PM3 CALCULATION RESULTS


 *******************************************************************************
 *  CALCULATION DONE:                                Mon Jun  2 14:10:54 2014  *
 *  PM3      - The PM3 Hamiltonian to be used
 *  OLDGEO   - PREVIOUS GEOMETRY TO BE USED
 *  PRECISE  - CRITERIA TO BE INCREASED BY 100 TIMES
 *  NOSYM    - POINT-GROUP SYMMETRY SET TO C1
 *  T=       - A TIME OF 172800.0 SECONDS REQUESTED
 *  DUMP=N   - RESTART FILE WRITTEN EVERY  7200.000 SECONDS
 *  THERMO   - THERMODYNAMIC QUANTITIES TO BE CALCULATED
 *******************************************************************************
oldgeo thermo nosym precise  pm3

   ATOM   CHEMICAL          X               Y               Z
  NUMBER   SYMBOL      (ANGSTROMS)     (ANGSTROMS)     (ANGSTROMS)
 
     1       C          1.26700462  *   0.18479605  *  -0.80950289  *
     2       C          2.34982062  *  -0.91022097  *  -0.63085747  *
     3       C          1.75564763  *   0.86041553  *   0.49757011  *
     4       C          2.84485893  *  -0.21736026  *   0.65262090  *
     5       C         -2.57019092  *  -0.08071428  *  -0.44900593  *
     6       C         -3.27082949  *   0.09393219  *   0.88135515  *
     7       C         -0.13023915  *  -0.31057582  *  -0.82721258  *
     8       C         -1.16562680  *   0.40611135  *  -0.38785982  *
     9       H          1.42622767  *   0.81237021  *  -1.71238164  *
    10       H          1.95697083  *  -1.92808011  *  -0.48376713  *
    11       H          3.08744594  *  -0.96137342  *  -1.44514782  *
    12       H          2.76512671  *  -0.82582605  *   1.56566185  *
    13       H          3.87724030  *   0.15985083  *   0.60445476  *
    14       H          2.13179603  *   1.88597286  *   0.36937004  *
    15       H          1.01072306  *   0.88511800  *   1.30799835  *
    16       H         -2.61323837  *  -1.14275347  *  -0.76371347  *
    17       H         -3.10172495  *   0.48760554  *  -1.23883355  *
    18       H         -2.78062937  *  -0.48527544  *   1.67448972  *
    19       H         -4.31463122  *  -0.24054497  *   0.82692848  *
    20       H         -3.27818210  *   1.14415473  *   1.20209615  *
    21       H         -1.02088715  *   1.40596857  *   0.04128742  *
    22       H         -0.27367415  *  -1.31347754  *  -1.25040831  *
 


          CARTESIAN COORDINATES 

    NO.       ATOM         X         Y         Z

     1         C        1.2670    0.1848   -0.8095
     2         C        2.3498   -0.9102   -0.6309
     3         C        1.7556    0.8604    0.4976
     4         C        2.8449   -0.2174    0.6526
     5         C       -2.5702   -0.0807   -0.4490
     6         C       -3.2708    0.0939    0.8814
     7         C       -0.1302   -0.3106   -0.8272
     8         C       -1.1656    0.4061   -0.3879
     9         H        1.4262    0.8124   -1.7124
    10         H        1.9570   -1.9281   -0.4838
    11         H        3.0874   -0.9614   -1.4451
    12         H        2.7651   -0.8258    1.5657
    13         H        3.8772    0.1599    0.6045
    14         H        2.1318    1.8860    0.3694
    15         H        1.0107    0.8851    1.3080
    16         H       -2.6132   -1.1428   -0.7637
    17         H       -3.1017    0.4876   -1.2388
    18         H       -2.7806   -0.4853    1.6745
    19         H       -4.3146   -0.2405    0.8269
    20         H       -3.2782    1.1442    1.2021
    21         H       -1.0209    1.4060    0.0413
    22         H       -0.2737   -1.3135   -1.2504

  H: (PM3): J. J. P. STEWART, J. COMP. CHEM. 10, 209 (1989).
  C: (PM3): J. J. P. STEWART, J. COMP. CHEM. 10, 209 (1989).

           Empirical Formula: C8 H14  =    22 atoms



      MOLECULAR POINT GROUP   :   C1  


      RHF CALCULATION, NO. OF DOUBLY OCCUPIED LEVELS =   23



          HEAT OF FORMATION =      -0.095460 KCALS/MOLE


          INTERNAL COORDINATE DERIVATIVES

   NUMBER  ATOM       BOND         ANGLE      DIHEDRAL

     1       C      0.001561     0.001750    -0.003763
     2       C      0.002694    -0.001078    -0.000576
     3       C      0.004501    -0.000021    -0.002050
     4       C      0.000566     0.000051    -0.004207
     5       C     -0.001830     0.000026     0.005607
     6       C      0.003896     0.000093    -0.006450
     7       C      0.004859     0.002643     0.001371
     8       C      0.001809    -0.003116    -0.000999
     9       H     -0.004503     0.000263     0.002169
    10       H      0.000586     0.001491    -0.001595
    11       H     -0.000670    -0.001978     0.003799
    12       H      0.000238    -0.000657     0.002863
    13       H     -0.001034     0.001854     0.001394
    14       H     -0.003368     0.003942    -0.002187
    15       H     -0.000159    -0.004188     0.001757
    16       H     -0.003677     0.001958    -0.000970
    17       H      0.000140     0.002516     0.002576
    18       H     -0.000841    -0.001331     0.001282
    19       H      0.000531    -0.001700     0.002111
    20       H     -0.000931    -0.002645    -0.001960
    21       H     -0.002503     0.001717    -0.001961
    22       H     -0.001866    -0.001589     0.001790


          GRADIENT NORM =   0.02006


          TIME FOR SCF CALCULATION =    0.00

          TIME FOR DERIVATIVES     =    0.00

          MOLECULAR WEIGHT =  110.20



          ROTATIONAL CONSTANTS IN CM(-1)

          A =    0.17052903   B =    0.02929817   C =    0.02761623



           PRINCIPAL MOMENTS OF INERTIA IN UNITS OF 10**(-40)*GRAM-CM**2

          A =      164.1525   B =      955.4444   C =     1013.6349


          ORIENTATION OF MOLECULE IN FORCE CALCULATION

    NO.       ATOM         X         Y         Z

     1          C       0.6001   -0.1498   -1.2182
     2          C       2.1504   -0.1498   -1.2182
     3          C       0.6148    1.4006   -1.2182
     4          C       2.1547    1.3903   -1.2443
     5          C      -1.8509   -1.1477    1.5962
     6          C      -2.3103   -0.1665    2.6533
     7          C      -0.0280   -0.8150   -0.0516
     8          C      -1.2067   -0.4474    0.4525
     9          H       0.1640   -0.5832   -2.1436
    10          H       2.6119   -0.5975   -0.3246
    11          H       2.6079   -0.6304   -2.0954
    12          H       2.6340    1.8652   -0.3754
    13          H       2.6038    1.8352   -2.1447
    14          H       0.1384    1.8625   -2.0953
    15          H       0.1705    1.8640   -0.3237
    16          H      -1.1671   -1.8959    2.0450
    17          H      -2.7146   -1.7253    1.2092
    18          H      -1.4674    0.3963    3.0748
    19          H      -2.8094   -0.6824    3.4834
    20          H      -3.0203    0.5661    2.2468
    21          H      -1.7624    0.4010    0.0327
    22          H       0.5315   -1.6594    0.3721


    FIRST DERIVATIVES WILL BE USED IN THE CALCULATION OF SECOND DERIVATIVES

          ESTIMATED TIME TO COMPLETE CALCULATION =        2.11 SECONDS

    FOR POINT-GROUP C1   THERE ARE   1 UNIQUE SYMMETRY FUNCTIONS.

 STEP:   1 TIME =     0.03 SECS, INTEGRAL =      0.03 TIME LEFT: 172799.96
 STEP:   2 TIME =     0.03 SECS, INTEGRAL =      0.06 TIME LEFT: 172799.93
 STEP:   3 TIME =     0.03 SECS, INTEGRAL =      0.09 TIME LEFT: 172799.90
 STEP:   4 TIME =     0.03 SECS, INTEGRAL =      0.11 TIME LEFT: 172799.88
 STEP:   5 TIME =     0.03 SECS, INTEGRAL =      0.14 TIME LEFT: 172799.85
 STEP:   6 TIME =     0.03 SECS, INTEGRAL =      0.17 TIME LEFT: 172799.83
 STEP:   7 TIME =     0.03 SECS, INTEGRAL =      0.20 TIME LEFT: 172799.79
 STEP:   8 TIME =     0.03 SECS, INTEGRAL =      0.23 TIME LEFT: 172799.77
 STEP:   9 TIME =     0.03 SECS, INTEGRAL =      0.25 TIME LEFT: 172799.74
 STEP:  10 TIME =     0.03 SECS, INTEGRAL =      0.28 TIME LEFT: 172799.71
 STEP:  11 TIME =     0.03 SECS, INTEGRAL =      0.30 TIME LEFT: 172799.69
 STEP:  12 TIME =     0.03 SECS, INTEGRAL =      0.33 TIME LEFT: 172799.66
 STEP:  13 TIME =     0.03 SECS, INTEGRAL =      0.36 TIME LEFT: 172799.64
 STEP:  14 TIME =     0.03 SECS, INTEGRAL =      0.38 TIME LEFT: 172799.61
 STEP:  15 TIME =     0.03 SECS, INTEGRAL =      0.41 TIME LEFT: 172799.58
 STEP:  16 TIME =     0.03 SECS, INTEGRAL =      0.44 TIME LEFT: 172799.56
 STEP:  17 TIME =     0.03 SECS, INTEGRAL =      0.46 TIME LEFT: 172799.53
 STEP:  18 TIME =     0.03 SECS, INTEGRAL =      0.49 TIME LEFT: 172799.50
 STEP:  19 TIME =     0.03 SECS, INTEGRAL =      0.51 TIME LEFT: 172799.48
 STEP:  20 TIME =     0.03 SECS, INTEGRAL =      0.54 TIME LEFT: 172799.45
 STEP:  21 TIME =     0.03 SECS, INTEGRAL =      0.57 TIME LEFT: 172799.42
 STEP:  22 TIME =     0.03 SECS, INTEGRAL =      0.60 TIME LEFT: 172799.39
 STEP:  23 TIME =     0.03 SECS, INTEGRAL =      0.63 TIME LEFT: 172799.36
 STEP:  24 TIME =     0.03 SECS, INTEGRAL =      0.66 TIME LEFT: 172799.34
 STEP:  25 TIME =     0.03 SECS, INTEGRAL =      0.68 TIME LEFT: 172799.31
 STEP:  26 TIME =     0.03 SECS, INTEGRAL =      0.71 TIME LEFT: 172799.28
 STEP:  27 TIME =     0.03 SECS, INTEGRAL =      0.74 TIME LEFT: 172799.25
 STEP:  28 TIME =     0.03 SECS, INTEGRAL =      0.77 TIME LEFT: 172799.22
 STEP:  29 TIME =     0.03 SECS, INTEGRAL =      0.80 TIME LEFT: 172799.20
 STEP:  30 TIME =     0.03 SECS, INTEGRAL =      0.82 TIME LEFT: 172799.17
 STEP:  31 TIME =     0.03 SECS, INTEGRAL =      0.85 TIME LEFT: 172799.14
 STEP:  32 TIME =     0.03 SECS, INTEGRAL =      0.88 TIME LEFT: 172799.12
 STEP:  33 TIME =     0.03 SECS, INTEGRAL =      0.90 TIME LEFT: 172799.09
 STEP:  34 TIME =     0.03 SECS, INTEGRAL =      0.93 TIME LEFT: 172799.06
 STEP:  35 TIME =     0.03 SECS, INTEGRAL =      0.96 TIME LEFT: 172799.03
 STEP:  36 TIME =     0.03 SECS, INTEGRAL =      0.98 TIME LEFT: 172799.01
 STEP:  37 TIME =     0.03 SECS, INTEGRAL =      1.01 TIME LEFT: 172798.98
 STEP:  38 TIME =     0.03 SECS, INTEGRAL =      1.04 TIME LEFT: 172798.95
 STEP:  39 TIME =     0.03 SECS, INTEGRAL =      1.07 TIME LEFT: 172798.93
 STEP:  40 TIME =     0.03 SECS, INTEGRAL =      1.09 TIME LEFT: 172798.90
 STEP:  41 TIME =     0.03 SECS, INTEGRAL =      1.12 TIME LEFT: 172798.87
 STEP:  42 TIME =     0.03 SECS, INTEGRAL =      1.15 TIME LEFT: 172798.85
 STEP:  43 TIME =     0.03 SECS, INTEGRAL =      1.17 TIME LEFT: 172798.82
 STEP:  44 TIME =     0.03 SECS, INTEGRAL =      1.20 TIME LEFT: 172798.79
 STEP:  45 TIME =     0.03 SECS, INTEGRAL =      1.23 TIME LEFT: 172798.76
 STEP:  46 TIME =     0.03 SECS, INTEGRAL =      1.26 TIME LEFT: 172798.74
 STEP:  47 TIME =     0.03 SECS, INTEGRAL =      1.28 TIME LEFT: 172798.71
 STEP:  48 TIME =     0.03 SECS, INTEGRAL =      1.32 TIME LEFT: 172798.68
 STEP:  49 TIME =     0.03 SECS, INTEGRAL =      1.34 TIME LEFT: 172798.65
 STEP:  50 TIME =     0.03 SECS, INTEGRAL =      1.37 TIME LEFT: 172798.62
 STEP:  51 TIME =     0.03 SECS, INTEGRAL =      1.39 TIME LEFT: 172798.60
 STEP:  52 TIME =     0.03 SECS, INTEGRAL =      1.42 TIME LEFT: 172798.57
 STEP:  53 TIME =     0.03 SECS, INTEGRAL =      1.45 TIME LEFT: 172798.54
 STEP:  54 TIME =     0.03 SECS, INTEGRAL =      1.47 TIME LEFT: 172798.52
 STEP:  55 TIME =     0.03 SECS, INTEGRAL =      1.50 TIME LEFT: 172798.49
 STEP:  56 TIME =     0.03 SECS, INTEGRAL =      1.53 TIME LEFT: 172798.46
 STEP:  57 TIME =     0.03 SECS, INTEGRAL =      1.56 TIME LEFT: 172798.44
 STEP:  58 TIME =     0.03 SECS, INTEGRAL =      1.58 TIME LEFT: 172798.41
 STEP:  59 TIME =     0.03 SECS, INTEGRAL =      1.61 TIME LEFT: 172798.38
 STEP:  60 TIME =     0.03 SECS, INTEGRAL =      1.64 TIME LEFT: 172798.35
 STEP:  61 TIME =     0.03 SECS, INTEGRAL =      1.67 TIME LEFT: 172798.33
 STEP:  62 TIME =     0.03 SECS, INTEGRAL =      1.69 TIME LEFT: 172798.30
 STEP:  63 TIME =     0.03 SECS, INTEGRAL =      1.72 TIME LEFT: 172798.27
 STEP:  64 TIME =     0.03 SECS, INTEGRAL =      1.75 TIME LEFT: 172798.24
 STEP:  65 TIME =     0.03 SECS, INTEGRAL =      1.78 TIME LEFT: 172798.22
 STEP:  66 TIME =     0.03 SECS, INTEGRAL =      1.80 TIME LEFT: 172798.19

(To convert to Hartree/Bohr^2, multiply by (10^(-21) x N x a0^2)/(4.184 x 627.51) = 0.0642)


           FORCE MATRIX IN MILLIDYNES/ANGSTROM


                  C  1       C  2       C  3       C  4       C  5       C  6
 ------------------------------------------------------------------------------
     C    1  14.837673
     C    2   3.407228  14.393455
     C    3   3.381081   1.837813  14.374198
     C    4   1.828654   3.729921   3.732650  14.511421
     C    5   0.139246   0.010955   0.007973   0.001902  14.701292
     C    6   0.017749   0.002409   0.000542   0.000630   4.409110  14.350721
     C    7   5.085001   0.574745   0.549032   0.039553   0.825443   0.040143
     C    8   0.818184   0.048539   0.051583   0.006888   4.969728   0.717441
     H    9   4.392527   0.431723   0.433074   0.026686   0.016957   0.001824
     H   10   0.453105   4.676675   0.028413   0.445075   0.001050   0.000411
     H   11   0.439495   4.708651   0.031021   0.443815   0.001313   0.000445
     H   12   0.030165   0.445607   0.445794   4.703268   0.000460   0.000295
     H   13   0.030551   0.445209   0.445375   4.697967   0.000388   0.000236
     H   14   0.439901   0.031251   4.709192   0.444044   0.001021   0.000338
     H   15   0.451413   0.028299   4.672277   0.444780   0.001586   0.000483
     H   16   0.003183   0.000507   0.000345   0.000338   4.440548   0.434642
     H   17   0.018847   0.000997   0.001338   0.000335   4.420856   0.445841
     H   18   0.000799   0.000199   0.000316   0.000112   0.460913   4.745995
     H   19   0.002871   0.000582   0.000322   0.000245   0.448978   4.750102
     H   20   0.000527   0.000132   0.000295   0.000265   0.464136   4.725526
     H   21   0.083237   0.003059   0.016724   0.001845   0.430291   0.025992
     H   22   0.433367   0.031210   0.035034   0.002063   0.083734   0.008859


                  C  7       C  8       H  9       H 10       H 11       H 12
 ------------------------------------------------------------------------------
     C    7  18.290538
     C    8  10.683897  18.185390
     H    9   0.390818   0.024606   4.870345
     H   10   0.027702   0.003094   0.031807   5.305095
     H   11   0.033770   0.005475   0.026643   0.555540   5.330299
     H   12   0.002424   0.000950   0.001252   0.023521   0.032492   5.326452
     H   13   0.002202   0.000901   0.002505   0.032742   0.023185   0.559505
     H   14   0.033236   0.003407   0.026542   0.001139   0.003227   0.032459
     H   15   0.016922   0.015318   0.031292   0.002733   0.001183   0.023520
     H   16   0.050028   0.459692   0.000728   0.000180   0.000111   0.000121
     H   17   0.032151   0.408491   0.002881   0.000267   0.000082   0.000145
     H   18   0.002312   0.016150   0.000236   0.000157   0.000107   0.000077
     H   19   0.006922   0.052330   0.000230   0.000132   0.000198   0.000087
     H   20   0.002162   0.027030   0.000141   0.000133   0.000101   0.000095
     H   21   0.471303   4.764335   0.009863   0.000718   0.000607   0.000532
     H   22   4.752318   0.470790   0.014297   0.029196   0.001922   0.000765


                  H 13       H 14       H 15       H 16       H 17       H 18
 ------------------------------------------------------------------------------
     H   13   5.323179
     H   14   0.023176   5.330143
     H   15   0.032512   0.553124   5.298318
     H   16   0.000074   0.000185   0.000383   5.051782
     H   17   0.000062   0.000144   0.000278   0.565814   5.018885
     H   18   0.000093   0.000178   0.000328   0.024603   0.048710   5.484631
     H   19   0.000065   0.000107   0.000216   0.030246   0.028623   0.573017
     H   20   0.000084   0.000081   0.000118   0.047389   0.023945   0.577862
     H   21   0.000527   0.001571   0.024645   0.038784   0.017676   0.002722
     H   22   0.000687   0.004197   0.003372   0.030102   0.009777   0.000495


                  H 19       H 20       H 21       H 22
 ------------------------------------------------------
     H   19   5.488111
     H   20   0.572362   5.470754
     H   21   0.002063   0.019857   5.145857
     H   22   0.001639   0.000573   0.103686   5.126352


          HEAT OF FORMATION =      -0.095460 KCALS/MOLE

          ZERO POINT ENERGY     124.927 KCAL/MOL


           NORMAL COORDINATE ANALYSIS (Total motion = 1 Angstrom)


   Root No.       1         2         3         4         5         6         7         8

                 1 A       2 A       3 A       4 A       5 A       6 A       7 A       8 A   

                  46.8      99.8     114.1     167.0     181.7     220.1     336.2     384.0
  
           1    0.0055   -0.0069    0.0027   -0.0072    0.0010    0.0077   -0.0131    0.0255
           2   -0.0102   -0.0054    0.0053    0.0111    0.0038   -0.0120    0.0242   -0.0050
           3   -0.0021   -0.0127    0.0234   -0.0017    0.0002    0.0068    0.0095   -0.0037
           4    0.0057   -0.0070    0.0021   -0.0066    0.0013    0.0071   -0.0140    0.0351
           5    0.0087    0.0011    0.0030   -0.0099    0.0025    0.0023    0.0046    0.0216
           6    0.0335   -0.0165   -0.0121    0.0050    0.0269   -0.0251    0.0024   -0.0260
           7   -0.0132   -0.0128    0.0048    0.0138    0.0031   -0.0079    0.0114    0.0204
           8   -0.0100   -0.0046    0.0056    0.0106    0.0039   -0.0123    0.0270   -0.0036
           9   -0.0197    0.0238    0.0317   -0.0269    0.0194    0.0007   -0.0293   -0.0100
          10   -0.0125   -0.0127    0.0037    0.0148    0.0025   -0.0082    0.0132    0.0201
          11    0.0084    0.0022    0.0030   -0.0102    0.0016    0.0034    0.0032    0.0225
          12    0.0168    0.0456   -0.0291    0.0118   -0.0203    0.0079   -0.0020   -0.0051
          13   -0.0213    0.0181   -0.0250    0.0075    0.0047   -0.0238   -0.0249   -0.0265
          14    0.0042    0.0023   -0.0102   -0.0110   -0.0014    0.0105   -0.0323    0.0096
          15   -0.0191    0.0109   -0.0101    0.0058    0.0011   -0.0178    0.0113    0.0303
          16    0.0525    0.0169    0.0165    0.0083    0.0052   -0.0043    0.0033   -0.0232
          17    0.0045    0.0396    0.0116   -0.0118    0.0049   -0.0044    0.0154    0.0062
          18    0.0129   -0.0235   -0.0119    0.0063   -0.0043    0.0041   -0.0179    0.0436
          19   -0.0104    0.0024    0.0130   -0.0064   -0.0178    0.0174    0.0059   -0.0239
          20   -0.0068   -0.0189    0.0064    0.0341   -0.0172   -0.0024   -0.0174   -0.0214
          21   -0.0088   -0.0147    0.0297    0.0115   -0.0231    0.0184    0.0012   -0.0259
          22   -0.0118   -0.0004   -0.0185   -0.0301   -0.0038    0.0186    0.0187   -0.0269
          23   -0.0007   -0.0262   -0.0293   -0.0068   -0.0005    0.0153   -0.0311   -0.0347
          24   -0.0169   -0.0163   -0.0176   -0.0144   -0.0032    0.0103    0.0363   -0.0087
          25    0.0314   -0.0107   -0.0150   -0.0123    0.0191   -0.0054   -0.0237    0.0438
          26   -0.0261    0.0106    0.0126    0.0005    0.0197   -0.0227    0.0258   -0.0021
          27   -0.0068   -0.0178    0.0281    0.0060   -0.0160    0.0178    0.0129   -0.0145
          28   -0.0095   -0.0013    0.0215   -0.0141   -0.0188    0.0324   -0.0164    0.0604
          29    0.0240   -0.0344    0.0133   -0.0210    0.0337   -0.0163   -0.0010    0.0103
          30    0.0489   -0.0372   -0.0170    0.0034    0.0532   -0.0481    0.0009   -0.0463
          31    0.0316   -0.0086   -0.0180   -0.0109    0.0201   -0.0099   -0.0265    0.0221
          32    0.0047    0.0396   -0.0081   -0.0114   -0.0288    0.0292   -0.0055    0.0478
          33    0.0492   -0.0385   -0.0165    0.0036    0.0542   -0.0491    0.0013   -0.0479
          34   -0.0388   -0.0284    0.0403   -0.0024    0.0296   -0.0197    0.0027    0.0082
          35    0.0236   -0.0323    0.0131   -0.0222    0.0317   -0.0132   -0.0048    0.0147
          36    0.0230    0.0732   -0.0550    0.0279   -0.0520    0.0235    0.0084    0.0061
          37    0.0034   -0.0001   -0.0327    0.0456   -0.0245   -0.0060    0.0413    0.0202
          38    0.0041    0.0416   -0.0090   -0.0109   -0.0306    0.0302   -0.0049    0.0465
          39    0.0226    0.0715   -0.0534    0.0269   -0.0500    0.0225    0.0081    0.0067
          40    0.0019   -0.0013   -0.0305    0.0449   -0.0224   -0.0076    0.0422    0.0203
          41   -0.0262    0.0131    0.0131    0.0004    0.0194   -0.0225    0.0037   -0.0136
          42   -0.0364    0.0269    0.0550   -0.0493    0.0417   -0.0050   -0.0591   -0.0155
          43   -0.0394   -0.0282    0.0408   -0.0069    0.0309   -0.0173   -0.0031    0.0097
          44   -0.0043   -0.0262   -0.0022    0.0312   -0.0100   -0.0103    0.0659   -0.0049
          45   -0.0357    0.0274    0.0537   -0.0482    0.0407   -0.0049   -0.0580   -0.0151
          46   -0.0483    0.0322   -0.0406    0.0357    0.0145   -0.0567   -0.0663   -0.0252
          47   -0.0395    0.0283   -0.0266    0.0107    0.0082   -0.0270   -0.0608    0.0140
          48   -0.0508    0.0324   -0.0139   -0.0001    0.0025   -0.0302    0.0238    0.0354
          49   -0.0586    0.0218   -0.0455    0.0137    0.0072   -0.0392   -0.0440   -0.0371
          50    0.0556   -0.0230    0.0120   -0.0374   -0.0120    0.0526    0.0074    0.0078
          51   -0.0121    0.0409    0.0030    0.0318    0.0119   -0.0467   -0.0047    0.0561
          52    0.0901    0.0141    0.0387   -0.0021   -0.0074   -0.0091    0.0211   -0.0248
          53   -0.0447    0.0696   -0.0111    0.0517    0.0850    0.0660    0.0175    0.0041
          54    0.0033   -0.0578   -0.0258   -0.0577   -0.0859   -0.0802   -0.0557    0.0488
          55    0.0485    0.0349    0.0098    0.0885    0.1024    0.1069    0.0038   -0.0168
          56    0.0113    0.0672    0.0335   -0.0209   -0.0003   -0.0271    0.0637   -0.0070
          57    0.0148    0.0043   -0.0024    0.0487    0.0508    0.0568    0.0116    0.0403
          58    0.0776    0.0011    0.0348   -0.0605   -0.0785   -0.0943    0.0131   -0.0291
          59    0.0468    0.0124    0.0304   -0.0669   -0.0647   -0.0650    0.0128    0.0080
          60    0.0455   -0.0451   -0.0099    0.0275    0.0167    0.0525   -0.0409    0.0583
          61   -0.0051   -0.0127   -0.0394   -0.0701    0.0092    0.0404    0.0457   -0.0327
          62    0.0027   -0.0416   -0.0658   -0.0475    0.0200    0.0302    0.0060   -0.0410
          63   -0.0190   -0.0318   -0.0639   -0.0417    0.0213    0.0110    0.0723   -0.0138
          64   -0.0188    0.0146    0.0415    0.0219   -0.0366    0.0084    0.0024   -0.0274
          65   -0.0107   -0.0075    0.0465    0.0723   -0.0432   -0.0082   -0.0489   -0.0275
          66   -0.0054   -0.0085    0.0712    0.0522   -0.0500    0.0172   -0.0576   -0.0333


   Root No.       9        10        11        12        13        14        15        16

                 9 A      10 A      11 A      12 A      13 A      14 A      15 A      16 A   

                 464.1     548.1     769.7     814.5     827.9     868.4     913.0     924.6
  
           1   -0.0154   -0.0058   -0.0368   -0.0052   -0.0044    0.0008    0.0004   -0.0003
           2    0.0100    0.0108   -0.0385   -0.0053   -0.0042    0.0004   -0.0067   -0.0033
           3   -0.0306    0.0548   -0.0196    0.0018   -0.0111   -0.0017    0.0021   -0.0040
           4   -0.0199   -0.0166   -0.0385   -0.0055   -0.0041    0.0098    0.0086   -0.0004
           5   -0.0053    0.0010    0.0392    0.0050    0.0036   -0.0032   -0.0009    0.0005
           6    0.0154    0.0014   -0.0079    0.0063    0.0065   -0.0287    0.0045   -0.0012
           7   -0.0024    0.0002    0.0386    0.0052    0.0034    0.0009   -0.0012    0.0004
           8    0.0147    0.0180   -0.0253   -0.0055   -0.0045   -0.0036    0.0203    0.0029
           9   -0.0013   -0.0061   -0.0068    0.0061    0.0066    0.0282    0.0011   -0.0007
          10   -0.0017    0.0013    0.0373    0.0053    0.0031   -0.0036   -0.0081   -0.0026
          11   -0.0073    0.0009    0.0381    0.0053    0.0031   -0.0004   -0.0072   -0.0015
          12    0.0027   -0.0031   -0.0035    0.0092    0.0178    0.0002   -0.0061    0.0027
          13   -0.0068    0.0185    0.0001    0.0242   -0.0164   -0.0005   -0.0023    0.0017
          14    0.0293    0.0281    0.0024    0.0014   -0.0009   -0.0016    0.0006   -0.0021
          15    0.0000   -0.0165   -0.0039    0.0087   -0.0060    0.0013    0.0021   -0.0017
          16   -0.0164    0.0028    0.0035    0.0066   -0.0050   -0.0003   -0.0062    0.0089
          17    0.0008   -0.0046   -0.0045   -0.0013    0.0003   -0.0007   -0.0065    0.0063
          18    0.0280    0.0026   -0.0067   -0.0019    0.0001    0.0007   -0.0040    0.0039
          19    0.0386   -0.0001   -0.0084   -0.0123    0.0062   -0.0016   -0.0270    0.0016
          20   -0.0117   -0.0497   -0.0298   -0.0042    0.0017   -0.0009   -0.0398   -0.0036
          21   -0.0089    0.0123    0.0259   -0.0078    0.0009   -0.0008   -0.0239    0.0005
          22    0.0300   -0.0030   -0.0040   -0.0006    0.0037   -0.0013    0.0093   -0.0200
          23   -0.0313   -0.0011    0.0137    0.0040   -0.0001    0.0039    0.0187   -0.0256
          24   -0.0147   -0.0341    0.0063    0.0048    0.0009    0.0008    0.0190   -0.0294
          25   -0.0192   -0.0278   -0.0722    0.0010   -0.0067   -0.0406    0.0544   -0.0043
          26    0.0296    0.0180   -0.0559   -0.0011   -0.0049    0.0533    0.0490   -0.0097
          27   -0.0364    0.0592    0.0072   -0.0036   -0.0095   -0.0068   -0.0499    0.0015
          28   -0.0643    0.0247   -0.0953    0.0147   -0.0009   -0.0677    0.0575   -0.0069
          29    0.0078   -0.0101    0.0736   -0.0350   -0.0606    0.0999    0.0114   -0.0009
          30    0.0469   -0.0264    0.0400   -0.0265   -0.0299    0.0688   -0.0150    0.0021
          31    0.0167   -0.0712    0.0095   -0.0286   -0.0077    0.0982   -0.0109    0.0166
          32   -0.0292   -0.0016    0.0208    0.0452    0.0684   -0.0920    0.0045    0.0094
          33    0.0488   -0.0268    0.0312   -0.0296   -0.0333    0.0722   -0.0103    0.0028
          34    0.0062    0.0011    0.0275    0.0509    0.0807    0.0707   -0.0265    0.0046
          35   -0.0028   -0.0080    0.0190    0.0510    0.0800   -0.0746   -0.0211    0.0042
          36   -0.0043    0.0020    0.0157   -0.0439   -0.0724   -0.0003    0.0132   -0.0046
          37    0.0043    0.0152    0.0683   -0.0401   -0.0764   -0.0908    0.0204   -0.0082
          38   -0.0268   -0.0040    0.0650   -0.0402   -0.0751    0.0862   -0.0007   -0.0083
          39   -0.0041    0.0016    0.0250   -0.0394   -0.0661   -0.0006    0.0121   -0.0040
          40    0.0052    0.0210    0.0326    0.0437    0.0686    0.0930   -0.0040    0.0046
          41    0.0433   -0.0462    0.0129   -0.0266   -0.0111   -0.0867    0.0091    0.0116
          42    0.0100   -0.0530    0.0200   -0.0277   -0.0347   -0.0720   -0.0040    0.0017
          43    0.0031   -0.0116    0.0660   -0.0345   -0.0600   -0.0998    0.0228    0.0103
          44   -0.0021    0.0910   -0.0683    0.0112    0.0025    0.0790    0.0604    0.0103
          45    0.0102   -0.0523    0.0292   -0.0245   -0.0312   -0.0704   -0.0085    0.0005
          46   -0.0411    0.0552    0.0181   -0.0560    0.0341   -0.0013   -0.0063    0.0152
          47    0.0009    0.0592    0.0176   -0.0952    0.0630   -0.0037    0.0134   -0.0142
          48    0.0040   -0.0164   -0.0033   -0.0374    0.0285   -0.0011    0.0315   -0.0432
          49   -0.0232    0.0343    0.0165   -0.0338    0.0267   -0.0010    0.0421   -0.0490
          50    0.0650   -0.0106   -0.0195    0.1147   -0.0762   -0.0003   -0.0190    0.0141
          51   -0.0195    0.0068   -0.0065   -0.0398    0.0160    0.0001   -0.0653    0.0849
          52   -0.0296   -0.0119    0.0119   -0.0508    0.0393    0.0010    0.0474   -0.0566
          53    0.0055   -0.0051   -0.0112    0.0530   -0.0405    0.0005   -0.0437    0.0540
          54    0.0466    0.0322   -0.0134    0.0350   -0.0299   -0.0035   -0.0566    0.0656
          55    0.0008    0.0087    0.0068   -0.0245    0.0185   -0.0023    0.0125   -0.0178
          56   -0.0433   -0.0500   -0.0029   -0.0057    0.0057    0.0074    0.0297   -0.0286
          57    0.0125   -0.0211   -0.0043   -0.0233    0.0175    0.0043    0.0280   -0.0320
          58   -0.0375   -0.0100    0.0068   -0.0082    0.0066    0.0021    0.0154   -0.0155
          59   -0.0032   -0.0043    0.0006   -0.0487    0.0359   -0.0015    0.0254   -0.0341
          60    0.0595    0.0273   -0.0026   -0.0671    0.0479   -0.0053    0.0184   -0.0307
          61    0.0183    0.0350    0.0062   -0.0454    0.0233   -0.0074   -0.0084    0.1570
          62   -0.0688    0.0120    0.0066   -0.0383    0.0178   -0.0001   -0.0101    0.2042
          63   -0.0768   -0.0556   -0.0200   -0.0221    0.0113    0.0006   -0.0152    0.1998
          64    0.0893   -0.0302   -0.0044    0.0017    0.0145   -0.0032    0.0984    0.0775
          65    0.0333   -0.0804   -0.0021    0.0226    0.0061    0.0063    0.1481    0.1019
          66    0.0129   -0.0109    0.0760    0.0269   -0.0009    0.0152    0.1851    0.1113


   Root No.      17        18        19        20        21        22        23        24

                17 A      18 A      19 A      20 A      21 A      22 A      23 A      24 A   

                 946.9     972.2     995.2    1022.7    1031.1    1038.0    1055.4    1077.3
  
           1    0.0022    0.0085   -0.0199   -0.0164   -0.0080   -0.0293   -0.0186    0.0106
           2   -0.0147    0.0051    0.0142    0.0071    0.0025    0.0109   -0.0291   -0.0205
           3   -0.0109    0.0013   -0.0004    0.0001   -0.0054    0.0040   -0.0132   -0.0104
           4    0.0159   -0.0176    0.0270    0.0161    0.0014    0.0207   -0.0070   -0.0140
           5   -0.0005   -0.0020   -0.0092   -0.0067    0.0194    0.0368    0.0056    0.0087
           6   -0.0112    0.0064   -0.0023    0.0073    0.0035    0.0004    0.0197   -0.0171
           7   -0.0004   -0.0021    0.0118    0.0128   -0.0163   -0.0219    0.0348    0.0001
           8    0.0385   -0.0136   -0.0224   -0.0126   -0.0038   -0.0137    0.0044    0.0089
           9   -0.0120    0.0066    0.0019   -0.0051    0.0060   -0.0003    0.0129    0.0306
          10   -0.0183    0.0097   -0.0068   -0.0099    0.0140    0.0157   -0.0342   -0.0041
          11   -0.0141    0.0105    0.0020    0.0013   -0.0158   -0.0367   -0.0105   -0.0039
          12    0.0060   -0.0021   -0.0002   -0.0002   -0.0024    0.0022   -0.0031   -0.0029
          13   -0.0039   -0.0071   -0.0015   -0.0081   -0.0217    0.0139    0.0016    0.0017
          14   -0.0046   -0.0101    0.0016    0.0025   -0.0001    0.0042   -0.0018   -0.0066
          15    0.0039    0.0009   -0.0006   -0.0035   -0.0041   -0.0008   -0.0016    0.0010
          16    0.0019   -0.0119    0.0017    0.0054    0.0153   -0.0103   -0.0027   -0.0019
          17   -0.0092   -0.0145   -0.0018   -0.0025   -0.0005   -0.0021    0.0021    0.0043
          18    0.0104    0.0334   -0.0002    0.0000   -0.0076    0.0083    0.0032    0.0003
          19    0.0036    0.0128   -0.0017   -0.0018   -0.0013   -0.0011    0.0063    0.0081
          20   -0.0201    0.0026   -0.0033   -0.0049   -0.0034    0.0033    0.0205    0.0078
          21    0.0254   -0.0115    0.0027    0.0008   -0.0022    0.0011   -0.0028    0.0040
          22   -0.0055    0.0074   -0.0010    0.0024    0.0090   -0.0073    0.0012   -0.0006
          23    0.0169    0.0153    0.0023    0.0046    0.0118   -0.0088   -0.0071    0.0011
          24   -0.0058   -0.0214    0.0025    0.0064    0.0183   -0.0106   -0.0039   -0.0064
          25    0.0009    0.0160   -0.1423   -0.0598    0.0472   -0.0636    0.0215    0.0354
          26   -0.0204    0.0149    0.1460    0.0569    0.0050   -0.0269   -0.0714    0.0198
          27   -0.0041   -0.0091   -0.0041   -0.0025   -0.0337    0.0395   -0.0128   -0.0424
          28   -0.0251   -0.0080   -0.0423    0.1185    0.0199    0.0721    0.0982    0.0305
          29   -0.0091   -0.0137   -0.0624    0.0742    0.0185    0.0919    0.0517    0.0952
          30    0.0071   -0.0050    0.0059   -0.0070   -0.0065    0.0016   -0.0142    0.0026
          31    0.1151   -0.0717    0.1136   -0.0791    0.0055    0.0395   -0.0272   -0.0330
          32    0.0532   -0.0299    0.0691   -0.0730    0.0391    0.0575    0.0610   -0.0471
          33    0.0108   -0.0069    0.0017   -0.0054   -0.0063   -0.0008   -0.0215    0.0025
          34    0.0036    0.0024   -0.1162   -0.0481    0.0442    0.0488   -0.0257   -0.1140
          35    0.0000    0.0038    0.1119    0.0388   -0.0566   -0.0640   -0.0392    0.0947
          36   -0.0145    0.0055    0.0003    0.0008    0.0038   -0.0005    0.0110    0.0046
          37   -0.0235    0.0187    0.0298   -0.0344    0.0401    0.0472   -0.0792    0.1579
          38   -0.0448    0.0131   -0.0331    0.0289   -0.0299   -0.0720    0.0631   -0.1536
          39   -0.0141    0.0050    0.0005    0.0010    0.0039   -0.0002    0.0106    0.0042
          40    0.0429   -0.0366   -0.0546    0.0989   -0.0415    0.0021    0.0419    0.0633
          41    0.1314   -0.0754   -0.0926    0.0891   -0.0534    0.0135   -0.0440   -0.0238
          42    0.0142   -0.0075   -0.0009    0.0010   -0.0065    0.0021   -0.0169   -0.0212
          43    0.0121   -0.0042    0.0764   -0.0439    0.0020   -0.0151    0.1623   -0.0524
          44    0.0113    0.0063    0.0570   -0.0817    0.0360   -0.0174    0.1687    0.0484
          45    0.0093   -0.0056   -0.0063    0.0041   -0.0070    0.0049   -0.0115   -0.0179
          46    0.0167    0.0296    0.0081    0.0261    0.0404   -0.0079    0.0018   -0.0132
          47   -0.0116   -0.0115    0.0038    0.0156    0.0312   -0.0131   -0.0034   -0.0127
          48   -0.0391   -0.0597   -0.0114   -0.0331   -0.0436    0.0006   -0.0053    0.0139
          49   -0.0202   -0.0108   -0.0031   -0.0188   -0.0562    0.0399    0.0024   -0.0048
          50   -0.0055   -0.0214   -0.0017   -0.0144   -0.0395    0.0265    0.0007   -0.0021
          51    0.0409    0.0288    0.0079    0.0453    0.1296   -0.0900   -0.0067    0.0081
          52   -0.0121    0.0112   -0.0028   -0.0139   -0.0385    0.0253    0.0010   -0.0021
          53    0.0249    0.0185    0.0039    0.0158    0.0342   -0.0182   -0.0002   -0.0005
          54   -0.0084   -0.0546    0.0006    0.0124    0.0485   -0.0380   -0.0007    0.0073
          55   -0.0308   -0.0600   -0.0027   -0.0071   -0.0017   -0.0064   -0.0012    0.0032
          56    0.0606    0.1712    0.0021   -0.0024   -0.0509    0.0521    0.0080   -0.0068
          57    0.0325    0.1156   -0.0007   -0.0076   -0.0476    0.0424    0.0077   -0.0028
          58    0.0185    0.0430    0.0023    0.0024   -0.0080    0.0116   -0.0006   -0.0064
          59   -0.0369   -0.0342   -0.0072   -0.0192   -0.0351    0.0156    0.0058    0.0100
          60   -0.0737   -0.1062   -0.0116   -0.0267   -0.0309    0.0019    0.0063    0.0190
          61    0.0105    0.0471    0.0058    0.0101    0.0020    0.0103    0.0163   -0.0161
          62    0.0004    0.0272   -0.0028   -0.0058   -0.0312    0.0227    0.0012    0.0050
          63   -0.0584   -0.0491   -0.0169   -0.0252   -0.0586    0.0281   -0.0066    0.0221
          64   -0.0565    0.0272    0.0152    0.0422    0.0364    0.0302    0.0096   -0.0474
          65   -0.0593    0.0117    0.0043    0.0111    0.0131    0.0034   -0.0117   -0.0257
          66    0.0274   -0.0122   -0.0054   -0.0264   -0.0188   -0.0423   -0.0717    0.0102


   Root No.      25        26        27        28        29        30        31        32

                25 A      26 A      27 A      28 A      29 A      30 A      31 A      32 A   

                1102.5    1116.4    1126.1    1129.3    1150.3    1179.6    1180.3    1202.1
  
           1   -0.0053   -0.0001    0.0009   -0.0058   -0.0189   -0.0270    0.0085    0.0126
           2   -0.0035    0.0007   -0.0047    0.0073    0.0157    0.0071    0.0235   -0.0146
           3   -0.0156   -0.0030   -0.0100    0.0006    0.0047   -0.0205    0.0257    0.0012
           4   -0.0024    0.0016    0.0044    0.0016    0.0052    0.0295   -0.0174   -0.0112
           5    0.0071    0.0001   -0.0014   -0.0013   -0.0023   -0.0036    0.0203   -0.0151
           6    0.0234   -0.0031   -0.0127   -0.0026   -0.0212    0.0082   -0.0140    0.0012
           7   -0.0041   -0.0016   -0.0052    0.0007   -0.0010   -0.0223    0.0122    0.0081
           8   -0.0098    0.0001    0.0047   -0.0044   -0.0108    0.0026   -0.0289    0.0121
           9   -0.0012   -0.0037   -0.0211    0.0114   -0.0035    0.0140   -0.0109   -0.0006
          10    0.0042    0.0013    0.0048    0.0008    0.0062    0.0243   -0.0139   -0.0098
          11   -0.0034    0.0003    0.0034   -0.0004   -0.0012    0.0034   -0.0228    0.0164
          12   -0.0201    0.0092    0.0363   -0.0093    0.0126   -0.0081    0.0076   -0.0016
          13    0.0066    0.0218   -0.0060   -0.0210    0.0096    0.0060    0.0020    0.0029
          14   -0.0003    0.0326    0.0000    0.0377    0.0070   -0.0221   -0.0225   -0.0077
          15    0.0056    0.0391    0.0021    0.0109   -0.0024    0.0080    0.0065    0.0166
          16   -0.0013   -0.0240    0.0091    0.0271   -0.0081   -0.0023    0.0003   -0.0013
          17   -0.0013   -0.0386   -0.0024   -0.0337    0.0051    0.0095    0.0061    0.0065
          18   -0.0019   -0.0402    0.0013   -0.0067   -0.0005   -0.0001    0.0004   -0.0046
          19    0.0118    0.0023    0.0016   -0.0070   -0.0078   -0.0003    0.0004   -0.0154
          20    0.0001    0.0025   -0.0007    0.0088   -0.0064   -0.0031    0.0020    0.0098
          21    0.0322    0.0009    0.0074    0.0026    0.0234    0.0057   -0.0119    0.0041
          22   -0.0107   -0.0020   -0.0033   -0.0072   -0.0143   -0.0016    0.0068   -0.0143
          23   -0.0022    0.0022    0.0003   -0.0158   -0.0112    0.0125    0.0182   -0.0036
          24   -0.0109   -0.0072   -0.0030    0.0055    0.0138   -0.0111   -0.0149    0.0084
          25    0.0789   -0.0113   -0.0163    0.0613    0.1920    0.0009    0.0710   -0.0330
          26    0.2099   -0.0042    0.0532   -0.0507   -0.0150   -0.0929    0.0263    0.0362
          27   -0.1590    0.0044   -0.0305   -0.0039   -0.0824    0.0137   -0.0057   -0.0009
          28    0.0346    0.0145    0.0533   -0.0264   -0.0431    0.0082   -0.0644    0.0381
          29   -0.0393    0.0230    0.0835   -0.0261   -0.0011   -0.0677    0.0390    0.0257
          30   -0.0215    0.0018    0.0049   -0.0008    0.0046   -0.0131    0.0191   -0.0032
          31   -0.0316   -0.0158   -0.0497    0.0140    0.0155   -0.0426    0.0132    0.0425
          32    0.0629   -0.0273   -0.0942    0.0046   -0.0555   -0.0626    0.0320    0.0332
          33   -0.0243    0.0029    0.0103    0.0003    0.0130    0.0015   -0.0023    0.0023
          34    0.0240    0.0149    0.0755   -0.0443   -0.0290   -0.0303   -0.0344    0.0456
          35   -0.0815    0.0128    0.0381    0.0186    0.0744    0.0486    0.0019   -0.0398
          36    0.0123   -0.0053   -0.0222    0.0053   -0.0099   -0.0014    0.0037   -0.0013
          37    0.0009   -0.0126   -0.0521    0.0190   -0.0315    0.0035   -0.0526    0.0484
          38    0.0628   -0.0128   -0.0449    0.0085   -0.0014    0.0627   -0.0264   -0.0356
          39    0.0116   -0.0043   -0.0168    0.0044   -0.0069    0.0105   -0.0130    0.0016
          40    0.0187   -0.0246   -0.1118    0.0423    0.0051    0.0072    0.0621   -0.0307
          41    0.0021   -0.0099   -0.0340    0.0040    0.0076    0.0112    0.0320   -0.0247
          42   -0.0095    0.0037    0.0166   -0.0069    0.0027    0.0008   -0.0038    0.0011
          43   -0.0355    0.0198    0.0768   -0.0206    0.0382   -0.0172    0.0608   -0.0486
          44   -0.0218    0.0102    0.0296    0.0058    0.0181    0.0661   -0.0384   -0.0437
          45   -0.0123    0.0019    0.0073   -0.0045    0.0015   -0.0155    0.0179    0.0005
          46   -0.0246   -0.0268   -0.0291   -0.0455    0.0684   -0.0478   -0.0721    0.0083
          47   -0.0121   -0.0231    0.0148    0.1010   -0.0129   -0.0469   -0.0356   -0.0312
          48    0.0340    0.0194    0.0624    0.1506   -0.1259    0.0526    0.1008   -0.0284
          49    0.0101   -0.1311    0.0207    0.0350    0.0209    0.0021   -0.0118    0.0277
          50    0.0148    0.1408   -0.0132    0.0147    0.0207   -0.0165   -0.0210    0.0022
          51   -0.0246    0.2160   -0.0374   -0.0759   -0.0464    0.0059    0.0323   -0.0532
          52    0.0069    0.1044   -0.0126   -0.0006    0.0140   -0.0082   -0.0121    0.0057
          53   -0.0087   -0.1447    0.0176    0.0136   -0.0133    0.0027    0.0064   -0.0084
          54   -0.0076   -0.1528    0.0172   -0.0173   -0.0195    0.0218    0.0257    0.0011
          55    0.0034    0.0309   -0.0033   -0.0148    0.0046    0.0101    0.0064    0.0159
          56   -0.0015   -0.0112   -0.0078   -0.0023    0.0060   -0.0168   -0.0133   -0.0307
          57    0.0008    0.0086   -0.0093   -0.0147    0.0057   -0.0069   -0.0052   -0.0179
          58   -0.0002    0.0155    0.0030    0.0360   -0.0001   -0.0133   -0.0117   -0.0056
          59    0.0042    0.0302   -0.0217   -0.0944    0.0214    0.0197    0.0105    0.0122
          60    0.0069    0.0204   -0.0231   -0.1331    0.0152    0.0402    0.0314    0.0175
          61    0.0093    0.0361    0.0126    0.0604    0.0211    0.0914    0.0620    0.1642
          62    0.0284    0.0238    0.0077    0.0169    0.0024    0.0306    0.0204    0.0372
          63    0.0245   -0.0143   -0.0091   -0.0206   -0.0052   -0.0959   -0.0828   -0.1436
          64   -0.0821   -0.0052   -0.0439    0.0135    0.0708   -0.0387   -0.0042    0.0595
          65   -0.0611   -0.0052   -0.0203    0.0072   -0.0007   -0.0135    0.0159    0.0224
          66    0.0334   -0.0056    0.0269   -0.0302   -0.0665    0.0323    0.0187   -0.0717


   Root No.      33        34        35        36        37        38        39        40

                33 A      34 A      35 A      36 A      37 A      38 A      39 A      40 A   

                1232.1    1255.1    1281.1    1282.4    1342.3    1391.6    1407.0    1409.4
  
           1   -0.0172    0.0207    0.0297    0.0032    0.0084    0.0202    0.0023    0.0015
           2    0.0002   -0.0248   -0.0278   -0.0045    0.0235    0.0260    0.0020    0.0064
           3    0.0011    0.0038    0.0031   -0.0141   -0.0130   -0.0237   -0.0023   -0.0043
           4   -0.0041    0.0114   -0.0270    0.0237   -0.0076   -0.0079   -0.0010   -0.0060
           5   -0.0222    0.0169    0.0050    0.0429   -0.0076   -0.0063   -0.0004   -0.0029
           6   -0.0011    0.0006    0.0013    0.0028    0.0035    0.0046    0.0004    0.0007
           7    0.0085   -0.0263   -0.0190    0.0380   -0.0035   -0.0064   -0.0010    0.0205
           8    0.0122   -0.0147    0.0169    0.0274   -0.0101   -0.0068   -0.0003   -0.0289
           9    0.0004   -0.0022   -0.0019    0.0024    0.0027    0.0038    0.0004    0.0007
          10    0.0018   -0.0057    0.0503   -0.0165   -0.0024    0.0014    0.0007    0.0165
          11    0.0119    0.0128   -0.0432   -0.0262    0.0025    0.0021    0.0004    0.0245
          12   -0.0001    0.0000   -0.0001   -0.0011   -0.0009   -0.0013   -0.0001   -0.0009
          13    0.0037   -0.0015   -0.0036   -0.0024   -0.0240   -0.0121   -0.0015    0.0013
          14   -0.0121   -0.0019    0.0003   -0.0010    0.0069   -0.0249    0.0087    0.0033
          15   -0.0029    0.0054    0.0084    0.0093    0.0482    0.0221    0.0021   -0.0016
          16    0.0019    0.0017    0.0011    0.0010    0.0003    0.0059   -0.0280    0.0011
          17   -0.0006   -0.0001    0.0007    0.0013    0.0147   -0.0128    0.0009   -0.0013
          18    0.0009   -0.0017   -0.0017   -0.0020    0.0037   -0.0171   -0.0254   -0.0013
          19    0.0077   -0.0010   -0.0015    0.0004    0.0177    0.0059    0.0000   -0.0012
          20   -0.0186   -0.0026    0.0027   -0.0101   -0.0145   -0.0171   -0.0012   -0.0025
          21    0.0149    0.0045   -0.0005    0.0108    0.0000    0.0100    0.0013    0.0025
          22   -0.0066   -0.0095   -0.0064   -0.0097   -0.0026   -0.0104   -0.0012   -0.0010
          23    0.0295    0.0101    0.0029    0.0072    0.0169    0.0118   -0.0007   -0.0005
          24   -0.0224   -0.0037    0.0003   -0.0024   -0.0200   -0.0037    0.0006    0.0015
          25    0.0478   -0.0538   -0.0499   -0.0232   -0.0088   -0.0224   -0.0027    0.0015
          26   -0.0214    0.0626    0.0512   -0.0116   -0.0335   -0.0303   -0.0021   -0.0150
          27   -0.0198   -0.0020    0.0036    0.0036    0.0220    0.0232    0.0020    0.0052
          28    0.0543   -0.0784   -0.0054   -0.0965    0.0262    0.0183    0.0025    0.0131
          29    0.0209   -0.0800    0.0605   -0.0706    0.0223    0.0265    0.0013    0.0141
          30   -0.0088    0.0005    0.0178    0.0077    0.0003    0.0061   -0.0006   -0.0015
          31    0.0658   -0.0641   -0.0023   -0.1145    0.0044   -0.0119   -0.0002    0.0079
          32    0.0240   -0.0676    0.0659   -0.0679    0.0199    0.0226    0.0009    0.0130
          33    0.0090    0.0071   -0.0183   -0.0079   -0.0049   -0.0126    0.0000   -0.0003
          34    0.0153    0.0483   -0.1098   -0.0681   -0.0004   -0.0211   -0.0039   -0.0908
          35    0.0108   -0.0342    0.1285   -0.0427   -0.0096   -0.0214   -0.0032   -0.1130
          36   -0.0062   -0.0038   -0.0053    0.0336    0.0038    0.0208    0.0038    0.1189
          37    0.0173    0.0427   -0.1126   -0.0646    0.0014   -0.0188   -0.0037   -0.0939
          38    0.0081   -0.0295    0.1313   -0.0379   -0.0062   -0.0179   -0.0030   -0.1165
          39    0.0050    0.0029    0.0044   -0.0279   -0.0023   -0.0180   -0.0035   -0.1115
          40   -0.0432    0.0747   -0.0400   -0.0706    0.0254    0.0315    0.0041   -0.1012
          41   -0.0357    0.0966    0.0430   -0.1043   -0.0116   -0.0253   -0.0032    0.1262
          42    0.0027    0.0014    0.0222   -0.0073   -0.0130   -0.0245   -0.0036    0.1325
          43   -0.0419    0.0817   -0.0401   -0.0698    0.0299    0.0374    0.0049   -0.1057
          44   -0.0312    0.0905    0.0329   -0.0828    0.0078    0.0028   -0.0003    0.1313
          45   -0.0014   -0.0040   -0.0199    0.0052    0.0088    0.0179    0.0029   -0.1297
          46   -0.0762   -0.0139    0.0042   -0.0016   -0.0121    0.1233   -0.0254   -0.0114
          47   -0.0149   -0.0036   -0.0027   -0.0105   -0.0777    0.1109   -0.0265   -0.0108
          48    0.1125    0.0198   -0.0090   -0.0073   -0.0957    0.0112   -0.0142   -0.0026
          49   -0.0174    0.0032    0.0084    0.0114    0.0712   -0.0579    0.0191    0.0068
          50   -0.0073    0.0016    0.0006   -0.0029   -0.0808    0.1382   -0.0306   -0.0125
          51    0.0339   -0.0108   -0.0189   -0.0198   -0.0507   -0.0819    0.0045    0.0060
          52   -0.0119    0.0003    0.0048    0.0042    0.0624   -0.0545   -0.0701   -0.0023
          53    0.0091   -0.0005   -0.0042   -0.0040   -0.0524    0.0519   -0.0890    0.0008
          54    0.0173    0.0012   -0.0039   -0.0026   -0.0509    0.0346    0.2339    0.0030
          55   -0.0053    0.0013    0.0036    0.0037    0.0173    0.0066    0.3179   -0.0056
          56    0.0116   -0.0071   -0.0143   -0.0144   -0.1125    0.0306    0.0014    0.0099
          57    0.0067   -0.0062   -0.0102   -0.0107   -0.0732    0.0148    0.1884    0.0027
          58   -0.0058   -0.0013   -0.0002   -0.0014   -0.0065    0.0161    0.1167   -0.0047
          59    0.0011   -0.0025   -0.0039   -0.0024   -0.0479    0.0508    0.0433   -0.0008
          60    0.0153   -0.0007   -0.0063   -0.0031   -0.0794    0.0646   -0.1471    0.0079
          61   -0.0938   -0.0287    0.0010   -0.0069   -0.0489   -0.0154   -0.0073   -0.0022
          62    0.0149    0.0072    0.0064    0.0125    0.0132    0.0101   -0.0003   -0.0018
          63    0.0565    0.0126   -0.0040    0.0021    0.0299   -0.0030    0.0083    0.0006
          64    0.1443    0.1113    0.0584    0.0479    0.0014    0.0120    0.0017   -0.0004
          65    0.0071    0.0186    0.0125   -0.0023   -0.0184   -0.0148   -0.0011   -0.0018
          66   -0.1114   -0.0984   -0.0583   -0.0333    0.0166    0.0102   -0.0008    0.0027


   Root No.      41        42        43        44        45        46        47        48

                41 A      42 A      43 A      44 A      45 A      46 A      47 A      48 A   

                1411.9    1412.3    1415.5    1431.8    1461.5    1890.7    2938.9    2944.9
  
           1   -0.0043    0.0024   -0.0152   -0.0172    0.0347   -0.0259   -0.0259    0.0000
           2   -0.0023   -0.0045   -0.0136   -0.0138    0.0333   -0.0150   -0.0256   -0.0001
           3    0.0037    0.0009    0.0160    0.0208   -0.0311    0.0307   -0.0535    0.0000
           4    0.0065   -0.0228    0.0005   -0.0035   -0.0229   -0.0002   -0.0008    0.0000
           5   -0.0037    0.0194    0.0071    0.0142    0.0184   -0.0024   -0.0002    0.0000
           6   -0.0006   -0.0001   -0.0025   -0.0030    0.0039    0.0011    0.0040    0.0000
           7    0.0047   -0.0106    0.0072    0.0147    0.0176    0.0016   -0.0002    0.0000
           8   -0.0020    0.0071    0.0001   -0.0043   -0.0216    0.0007   -0.0008    0.0000
           9   -0.0006   -0.0001   -0.0025   -0.0031    0.0037   -0.0025    0.0040    0.0000
          10   -0.0045    0.0163   -0.0010   -0.0099   -0.0236    0.0016    0.0005    0.0000
          11   -0.0015    0.0056   -0.0008   -0.0093   -0.0237    0.0023    0.0005    0.0000
          12    0.0003   -0.0003    0.0007    0.0012   -0.0004    0.0002   -0.0004    0.0000
          13    0.0003    0.0018   -0.0027   -0.0199    0.0140    0.0218    0.0001   -0.0494
          14   -0.0018    0.0030   -0.0321    0.0020    0.0030    0.0107    0.0000    0.0042
          15   -0.0014   -0.0031   -0.0024    0.0352   -0.0220   -0.0281    0.0000   -0.0267
          16   -0.0171   -0.0026   -0.0129    0.0107   -0.0039    0.0010    0.0000    0.0024
          17   -0.0175   -0.0039    0.0272   -0.0163    0.0050    0.0002    0.0000   -0.0003
          18    0.0206    0.0041    0.0222   -0.0224    0.0081   -0.0020    0.0000    0.0012
          19    0.0012   -0.0013    0.0046    0.0122   -0.0096    0.2121    0.0007   -0.0001
          20    0.0014    0.0020    0.0070    0.0092   -0.0162   -0.0313   -0.0001    0.0005
          21   -0.0020   -0.0007   -0.0099   -0.0167    0.0194   -0.1250   -0.0004   -0.0007
          22    0.0018    0.0000    0.0085    0.0110   -0.0158   -0.2106   -0.0004    0.0009
          23    0.0007   -0.0018    0.0049    0.0051   -0.0024    0.0336   -0.0001   -0.0018
          24   -0.0022    0.0017   -0.0086   -0.0162    0.0161    0.1231    0.0002    0.0011
          25    0.0071   -0.0118    0.0157    0.0180   -0.0297    0.0145    0.3149    0.0003
          26    0.0007    0.0109    0.0140    0.0138   -0.0276   -0.0046    0.3120    0.0004
          27   -0.0031    0.0000   -0.0119   -0.0090    0.0292    0.0011    0.6511    0.0007
          28   -0.0296    0.1140    0.0103    0.0241    0.0630   -0.0035   -0.0096    0.0001
          29    0.0204   -0.1009   -0.0321   -0.0540   -0.0434   -0.0032    0.0127   -0.0001
          30    0.0269   -0.1167   -0.0240   -0.0457   -0.0645    0.0045   -0.0247    0.0001
          31   -0.0247    0.1120    0.0275    0.0448    0.0315    0.0029    0.0092    0.0000
          32    0.0203   -0.0974   -0.0289   -0.0494   -0.0461    0.0022   -0.0152    0.0000
          33   -0.0266    0.1196    0.0285    0.0518    0.0597    0.0028   -0.0260    0.0000
          34    0.0196   -0.0655    0.0097    0.0419    0.0576    0.0011    0.0020    0.0000
          35    0.0112   -0.0355    0.0093    0.0408    0.0580    0.0002    0.0019    0.0000
          36   -0.0177    0.0600   -0.0091   -0.0483   -0.0807    0.0022    0.0042   -0.0001
          37    0.0199   -0.0680    0.0080    0.0410    0.0632   -0.0003    0.0011    0.0000
          38    0.0111   -0.0373    0.0074    0.0400    0.0637    0.0004    0.0011    0.0000
          39    0.0165   -0.0565    0.0078    0.0446    0.0774   -0.0021   -0.0019   -0.0001
          40   -0.0209    0.0495   -0.0278   -0.0483   -0.0424   -0.0005   -0.0151    0.0000
          41    0.0183   -0.0408    0.0260    0.0428    0.0277    0.0091    0.0093    0.0000
          42    0.0214   -0.0513    0.0275    0.0508    0.0550    0.0035   -0.0259    0.0000
          43   -0.0225    0.0517   -0.0319   -0.0539   -0.0394   -0.0029    0.0126   -0.0001
          44    0.0143   -0.0419    0.0081    0.0207    0.0579   -0.0066   -0.0097    0.0002
          45   -0.0198    0.0495   -0.0229   -0.0443   -0.0595   -0.0007   -0.0248    0.0003
          46   -0.0096   -0.0139    0.0919    0.0270   -0.0236   -0.0352   -0.0005    0.2493
          47   -0.0073   -0.0116    0.0991   -0.0049   -0.0051   -0.0032    0.0005   -0.2833
          48    0.0064    0.0001    0.0441   -0.0479    0.0241    0.0322   -0.0003    0.1655
          49   -0.0010    0.0057   -0.0711    0.0187   -0.0032    0.0027   -0.0008    0.3451
          50   -0.0083   -0.0142    0.1150   -0.0065   -0.0028    0.0119   -0.0005    0.2365
          51    0.0084    0.0096   -0.0359   -0.0375    0.0216   -0.0066   -0.0002    0.1556
          52   -0.0651   -0.0116    0.0683   -0.0467    0.0142    0.0018    0.0001   -0.0187
          53    0.1948    0.0374   -0.0748    0.0350   -0.0106   -0.0007    0.0001   -0.0091
          54   -0.1399   -0.0285   -0.0241    0.0377   -0.0114   -0.0005    0.0000   -0.0056
          55    0.0511    0.0029    0.0444   -0.0081   -0.0006    0.0011    0.0001    0.0001
          56   -0.1397   -0.0209   -0.0952    0.0453   -0.0055    0.0063    0.0001   -0.0003
          57   -0.0429   -0.0082   -0.0273    0.0118    0.0013   -0.0008   -0.0001    0.0007
          58    0.2136    0.0368   -0.0016   -0.0050    0.0004   -0.0003    0.0000   -0.0131
          59    0.1798    0.0321   -0.0523    0.0283   -0.0085   -0.0006    0.0000    0.0124
          60   -0.0437   -0.0043   -0.1096    0.0690   -0.0193   -0.0027    0.0000   -0.0114
          61   -0.0028    0.0034   -0.0023   -0.0125    0.0057   -0.0075   -0.0007   -0.0159
          62    0.0007   -0.0010    0.0013    0.0032   -0.0010    0.1083    0.0022    0.0192
          63    0.0031   -0.0010   -0.0016    0.0106   -0.0101   -0.1017   -0.0005   -0.0089
          64   -0.0001   -0.0036   -0.0093   -0.0182    0.0153    0.0096   -0.0028    0.0048
          65    0.0014    0.0007    0.0048    0.0012   -0.0088   -0.1068    0.0009   -0.0055
          66   -0.0005   -0.0013    0.0034    0.0068    0.0031    0.0981   -0.0020    0.0023


   Root No.      49        50        51        52        53        54        55        56

                49 A      50 A      51 A      52 A      53 A      54 A      55 A      56 A   

                3024.1    3028.2    3031.7    3035.7    3038.1    3048.7    3081.2    3085.9
  
           1    0.0000    0.0007    0.0003   -0.0001    0.0003   -0.0006    0.0000    0.0000
           2    0.0000    0.0006   -0.0003    0.0000    0.0001   -0.0006    0.0000    0.0000
           3    0.0001    0.0014   -0.0001    0.0000   -0.0001   -0.0015    0.0000    0.0000
           4    0.0000    0.0005    0.0002   -0.0008   -0.0003   -0.0007    0.0000    0.0000
           5   -0.0001   -0.0002   -0.0004    0.0003    0.0002    0.0003    0.0000    0.0000
           6    0.0005    0.0160   -0.0010   -0.0244   -0.0096   -0.0172    0.0000    0.0000
           7    0.0000   -0.0003    0.0002   -0.0005    0.0001    0.0005    0.0000   -0.0001
           8    0.0001    0.0006    0.0000    0.0010    0.0001   -0.0008    0.0000    0.0001
           9    0.0010    0.0172   -0.0045    0.0237    0.0100   -0.0165    0.0000    0.0000
          10    0.0000   -0.0003    0.0001    0.0000    0.0000   -0.0003    0.0000    0.0000
          11    0.0000   -0.0003    0.0001    0.0000    0.0000   -0.0003    0.0000    0.0000
          12   -0.0007   -0.0222    0.0053    0.0017   -0.0021   -0.0251    0.0000    0.0000
          13   -0.0031    0.0000    0.0003   -0.0003    0.0014    0.0000    0.0020    0.0009
          14   -0.0331    0.0010    0.0041    0.0013   -0.0039    0.0001   -0.0012    0.0025
          15    0.0024   -0.0001   -0.0007   -0.0003    0.0011    0.0000    0.0012    0.0001
          16    0.0011    0.0000   -0.0001   -0.0001    0.0004    0.0000    0.0373    0.0310
          17    0.0021   -0.0001   -0.0004   -0.0001    0.0003    0.0000   -0.0165    0.0353
          18   -0.0022    0.0001    0.0004    0.0001   -0.0002    0.0000    0.0305   -0.0189
          19    0.0036    0.0022    0.0276    0.0019   -0.0053    0.0004   -0.0001    0.0002
          20   -0.0045   -0.0027   -0.0381   -0.0018    0.0039   -0.0008    0.0001   -0.0002
          21    0.0017    0.0012    0.0175    0.0005    0.0000    0.0003    0.0000    0.0001
          22   -0.0035   -0.0008    0.0002   -0.0057    0.0223   -0.0007    0.0000   -0.0004
          23    0.0039    0.0008   -0.0045    0.0077   -0.0302    0.0008    0.0002    0.0004
          24   -0.0012   -0.0002    0.0042   -0.0033    0.0132   -0.0003   -0.0002    0.0002
          25   -0.0003   -0.0089    0.0013    0.0021    0.0002    0.0086    0.0000    0.0001
[...]

 VIBRATION   40   40A       ATOM PAIR        ENERGY CONTRIBUTION    RADIAL
 FREQ.      1409.37        C  3 --  H 15          +20.7% ( 48.1%)     3.7%
 T-DIPOLE    0.0069        C  3 --  H 14          +19.9% ( 47.2%)     4.4%
 TRAVEL      0.1432        C  4 --  H 12          +15.6% ( 41.8%)     3.7%
 RED. MASS   0.2971        C  4 --  H 13          +15.5% ( 41.6%)     3.9%
 EFF. MASS   2.3347

 VIBRATION   41   41A       ATOM PAIR        ENERGY CONTRIBUTION    RADIAL
 FREQ.      1411.89        C  6 --  H 20          +41.3% ( 56.9%)     0.5%
 T-DIPOLE    0.0564        C  6 --  H 18          +32.3% ( 50.3%)     1.8%
 TRAVEL      0.1692        C  6 --  H 19          +12.9% ( 31.8%)    31.1%
 RED. MASS   0.3585        C  5 --  C  6           +5.0% ( 19.8%)    10.6%
 EFF. MASS   1.6673

 VIBRATION   42   42A       ATOM PAIR        ENERGY CONTRIBUTION    RADIAL
 FREQ.      1412.32        C  2 --  H 10          +24.6% ( 51.5%)     3.8%
 T-DIPOLE    0.0237        C  2 --  H 11          +24.1% ( 51.0%)     4.0%
 TRAVEL      0.1455        C  2 --  C  4           +6.9% ( 27.2%)    11.0%
 RED. MASS   0.2745        C  4 --  H 13           +6.5% ( 26.6%)     3.6%
 EFF. MASS   2.2541

 VIBRATION   43   43A       ATOM PAIR        ENERGY CONTRIBUTION    RADIAL
 FREQ.      1415.51        C  5 --  C  6          +12.2% ( 42.2%)    81.6%
 T-DIPOLE    0.0306        C  6 --  H 20          +11.7% ( 41.4%)     5.5%
 TRAVEL      0.1043        C  5 --  H 16          +11.6% ( 41.3%)     5.9%
 RED. MASS   0.4450        C  5 --  H 17          +11.3% ( 40.7%)     6.4%
 EFF. MASS   4.3777        C  6 --  H 19          +10.9% ( 39.9%)     1.7%
                           C  6 --  H 18          +10.3% ( 38.9%)     2.9%

 VIBRATION   44   44A       ATOM PAIR        ENERGY CONTRIBUTION    RADIAL
 FREQ.      1431.80        C  5 --  C  6          +10.9% ( 46.1%)    82.1%
 T-DIPOLE    0.0603        C  5 --  C  8           +9.6% ( 43.3%)    81.9%
 TRAVEL      0.0850        C  1 --  C  7           +8.1% ( 39.7%)    97.6%
 RED. MASS   0.6600        C  5 --  H 16           +7.2% ( 37.5%)     0.0%
 EFF. MASS   6.5181

 VIBRATION   45   45A       ATOM PAIR        ENERGY CONTRIBUTION    RADIAL
 FREQ.      1461.54        C  1 --  C  7          +11.7% ( 52.1%)    93.6%
 T-DIPOLE    0.0776        C  1 --  C  4          +10.7% ( 49.9%)    88.3%
 TRAVEL      0.0779        C  1 --  C  2           +9.8% ( 47.8%)    69.6%
 RED. MASS   1.0012        C  1 --  C  3           +9.5% ( 47.1%)    67.1%
 EFF. MASS   7.6044

 VIBRATION   46   46A       ATOM PAIR        ENERGY CONTRIBUTION    RADIAL
 FREQ.      1890.65        C  7 --  C  8          +43.5% ( 97.5%)    96.3%
 T-DIPOLE    0.0622        C  1 --  C  7          +14.5% ( 56.3%)    57.5%
 TRAVEL      0.0549        C  5 --  C  8          +14.0% ( 55.3%)    54.9%
 RED. MASS   5.3674        C  7 --  H 22          +13.3% ( 53.9%)     3.7%
 EFF. MASS  11.8192        C  8 --  H 21          +13.1% ( 53.4%)     3.6%

 VIBRATION   47   47A       ATOM PAIR        ENERGY CONTRIBUTION    RADIAL
 FREQ.      2938.95        C  1 --  H  9          +95.2% ( 99.7%)   100.0%
 T-DIPOLE    0.0989        C  1 --  C  2           +1.0% ( 10.4%)    13.7%
 TRAVEL      0.1261        C  1 --  C  3           +1.0% ( 10.4%)    13.7%
 RED. MASS   0.9185        C  1 --  C  4           +1.0% ( 10.3%)    31.6%
 EFF. MASS   1.4431

 VIBRATION   48   48A       ATOM PAIR        ENERGY CONTRIBUTION    RADIAL
 FREQ.      2944.86        C  5 --  H 17          +52.2% ( 75.0%)    96.8%
 T-DIPOLE    0.0175        C  5 --  H 16          +45.1% ( 69.7%)    96.1%
 TRAVEL      0.1218        C  5 --  C  6           +1.2% ( 11.2%)     0.0%
 RED. MASS   0.5164        C  5 --  C  8           +1.2% ( 11.1%)     0.2%
 EFF. MASS   1.5438

 VIBRATION   49   49A       ATOM PAIR        ENERGY CONTRIBUTION    RADIAL
 FREQ.      3024.10        C  5 --  H 16          +50.7% ( 70.3%)    98.1%
 T-DIPOLE    0.0339        C  5 --  H 17          +44.4% ( 65.7%)    97.3%
 TRAVEL      0.1316        C  7 --  H 22           +1.6% ( 12.7%)    99.9%
 RED. MASS   0.4537        C  8 --  H 21           +1.3% ( 11.4%)    99.7%
 EFF. MASS   1.2880

 VIBRATION   50   50A       ATOM PAIR        ENERGY CONTRIBUTION    RADIAL
 FREQ.      3028.15        C  4 --  H 13          +22.7% ( 49.9%)    96.6%
 T-DIPOLE    0.0399        C  4 --  H 12          +22.1% ( 49.2%)    96.5%
 TRAVEL      0.1194        C  3 --  H 15          +15.1% ( 40.6%)    97.3%
 RED. MASS   0.1824        C  2 --  H 10          +12.9% ( 37.6%)    97.2%
 EFF. MASS   1.5610        C  3 --  H 14          +11.6% ( 35.6%)    95.7%
                           C  2 --  H 11          +10.3% ( 33.5%)    95.8%

 VIBRATION   51   51A       ATOM PAIR        ENERGY CONTRIBUTION    RADIAL
 FREQ.      3031.72        C  7 --  H 22          +92.8% ( 97.6%)   100.0%
 T-DIPOLE    0.2857        C  8 --  H 21           +1.8% ( 13.6%)    99.2%
 TRAVEL      0.1220        C  1 --  C  7           +1.3% ( 11.5%)    14.8%
 RED. MASS   0.8462        C  7 --  C  8           +1.3% ( 11.5%)    39.5%
 EFF. MASS   1.4936

 VIBRATION   52   52A       ATOM PAIR        ENERGY CONTRIBUTION    RADIAL
 FREQ.      3035.66        C  2 --  H 10          +25.3% ( 52.3%)    97.4%
 T-DIPOLE    0.0806        C  3 --  H 15          +24.5% ( 51.5%)    97.6%
 TRAVEL      0.1202        C  2 --  H 11          +19.9% ( 46.4%)    96.1%
 RED. MASS   0.2219        C  3 --  H 14          +17.9% ( 44.0%)    95.8%
 EFF. MASS   1.5363

 VIBRATION   53   53A       ATOM PAIR        ENERGY CONTRIBUTION    RADIAL
 FREQ.      3038.10        C  8 --  H 21          +84.6% ( 93.5%)   100.0%
 T-DIPOLE    0.2032        C  3 --  H 15           +2.6% ( 16.5%)    97.0%
 TRAVEL      0.1206        C  2 --  H 10           +2.6% ( 16.5%)    97.5%
 RED. MASS   0.7164        C  3 --  H 14           +2.4% ( 15.8%)    96.5%
 EFF. MASS   1.5257

 VIBRATION   54   54A       ATOM PAIR        ENERGY CONTRIBUTION    RADIAL
 FREQ.      3048.69        C  4 --  H 13          +25.7% ( 52.6%)    97.1%
 T-DIPOLE    0.1008        C  4 --  H 12          +24.9% ( 51.8%)    96.9%
 TRAVEL      0.1203        C  2 --  H 10          +13.6% ( 38.2%)    97.7%
 RED. MASS   0.2012        C  3 --  H 15          +12.9% ( 37.3%)    97.8%
 EFF. MASS   1.5291        C  2 --  H 11          +10.2% ( 33.1%)    96.1%

 VIBRATION   55   55A       ATOM PAIR        ENERGY CONTRIBUTION    RADIAL
 FREQ.      3081.23        C  6 --  H 20          +63.7% ( 82.3%)    98.7%
 T-DIPOLE    0.0100        C  6 --  H 18          +29.1% ( 55.6%)    92.4%
 TRAVEL      0.1207        C  6 --  H 19           +6.0% ( 25.2%)    60.2%
 RED. MASS   0.5213        C  5 --  C  6           +1.0% ( 10.2%)     0.0%
 EFF. MASS   1.5012

 VIBRATION   56   56A       ATOM PAIR        ENERGY CONTRIBUTION    RADIAL
 FREQ.      3085.94        C  6 --  H 19          +58.7% ( 79.0%)    98.3%
 T-DIPOLE    0.0107        C  6 --  H 18          +35.8% ( 61.7%)    94.4%
 TRAVEL      0.1205        C  6 --  H 20           +4.1% ( 21.0%)    47.8%
 RED. MASS   0.5024        C  5 --  C  6           +1.0% ( 10.3%)     0.1%
 EFF. MASS   1.5041

 VIBRATION   57   57A       ATOM PAIR        ENERGY CONTRIBUTION    RADIAL
 FREQ.      3102.96        C  3 --  H 14          +38.7% ( 61.7%)    98.1%
 T-DIPOLE    0.0934        C  3 --  H 15          +28.1% ( 52.5%)    96.1%
 TRAVEL      0.1311        C  2 --  H 11          +17.6% ( 41.5%)    98.1%
 RED. MASS   0.2787        C  2 --  H 10          +13.6% ( 36.5%)    96.5%
 EFF. MASS   1.2643

 VIBRATION   58   58A       ATOM PAIR        ENERGY CONTRIBUTION    RADIAL
 FREQ.      3105.51        C  2 --  H 11          +33.0% ( 57.0%)    97.9%
 T-DIPOLE    0.0264        C  2 --  H 10          +25.1% ( 49.7%)    96.1%
 TRAVEL      0.1294        C  3 --  H 14          +14.6% ( 38.0%)    97.9%
 RED. MASS   0.2173        C  3 --  H 15          +10.6% ( 32.2%)    95.6%
 EFF. MASS   1.2973

 VIBRATION   59   59A       ATOM PAIR        ENERGY CONTRIBUTION    RADIAL
 FREQ.      3108.68        C  4 --  H 12          +41.9% ( 64.2%)    97.3%
 T-DIPOLE    0.0642        C  4 --  H 13          +41.3% ( 63.7%)    97.2%
 TRAVEL      0.1296        C  2 --  H 11           +4.9% ( 21.9%)    97.9%
 RED. MASS   0.3559        C  2 --  H 10           +3.7% ( 19.2%)    96.1%
 EFF. MASS   1.2919

 VIBRATION   60   60A       ATOM PAIR        ENERGY CONTRIBUTION    RADIAL
 FREQ.      3183.03        C  6 --  H 18          +34.4% ( 56.4%)    97.3%
 T-DIPOLE    0.0194        C  6 --  H 19          +34.4% ( 56.4%)    97.3%
 TRAVEL      0.1366        C  6 --  H 20          +30.9% ( 53.5%)    96.7%
 RED. MASS   0.3277        C  5 --  C  6           +0.3% (  5.1%)    99.8%
 EFF. MASS   1.1360

 SYMMETRY NUMBER FOR POINT-GROUP C1  =  1


          SYSTEM IS A GROUND STATE


    NULL



          MOLECULE IS NOT LINEAR

          THERE ARE 60 GENUINE VIBRATIONS IN THIS SYSTEM
          THIS THERMODYNAMICS CALCULATION IS LIMITED TO
          MOLECULES WHICH HAVE NO INTERNAL ROTATIONS




                    CALCULATED THERMODYNAMIC PROPERTIES
                                          *
   TEMP. (K)   PARTITION FUNCTION   H.O.F.    ENTHALPY  HEAT CAPACITY ENTROPY
                                   KCAL/MOL   CAL/MOLE    CAL/K/MOL  CAL/K/MOL


 298.00  VIB.     0.3179D+03                  3836.9671    26.8587    24.3256
         ROT.     0.4498D+06                   888.2813     2.9808    28.8473
         INT.     0.1430D+09                  4725.2485    29.8395    53.1729
         TRA.     0.1118D+28                  1480.4688     4.9680    40.0052
         TOT.                       -0.095    6205.7173    34.8075    93.1782

 200.00  VIB.     0.3815D+02                  1730.2646    16.6867    15.8876
         ROT.     0.2473D+06                   596.1620     2.9808    27.6587
         INT.     0.9434D+07                  2326.4266    19.6675    43.5463
         TRA.     0.6149D+27                   993.6033     4.9680    38.0241
         TOT.                       -2.981    3320.0298    24.6355    81.5704

 210.00  VIB.     0.4741D+02                  1901.4486    17.5573    16.7227
         ROT.     0.2661D+06                   625.9700     2.9808    27.8041
         INT.     0.1261D+08                  2527.4186    20.5381    44.5268
         TRA.     0.6616D+27                  1043.2834     4.9680    38.2665
         TOT.                       -2.730    3570.7021    25.5061    82.7933

 220.00  VIB.     0.5888D+02                  2081.5542    18.4711    17.5603
         ROT.     0.2853D+06                   655.7781     2.9808    27.9428
         INT.     0.1680D+08                  2737.3323    21.4519    45.5031
         TRA.     0.7094D+27                  1092.9636     4.9680    38.4976
         TOT.                       -2.471    3830.2959    26.4199    84.0007

 230.00  VIB.     0.7309D+02                  2271.0126    19.4277    18.4024
         ROT.     0.3050D+06                   685.5862     2.9808    28.0753
         INT.     0.2229D+08                  2956.5988    22.4085    46.4776
         TRA.     0.7583D+27                  1142.6437     4.9680    38.7185
         TOT.                       -2.202    4099.2426    27.3765    85.1961

 240.00  VIB.     0.9070D+02                  2470.2446    20.4254    19.2501
         ROT.     0.3251D+06                   715.3943     2.9808    28.2021
         INT.     0.2949D+08                  3185.6389    23.4062    47.4523
         TRA.     0.8083D+27                  1192.3239     4.9680    38.9299
         TOT.                       -1.923    4377.9628    28.3742    86.3822

 250.00  VIB.     0.1125D+03                  2679.6498    21.4618    20.1048
         ROT.     0.3456D+06                   745.2024     2.9808    28.3238
         INT.     0.3890D+08                  3424.8522    24.4426    48.4286
         TRA.     0.8594D+27                  1242.0041     4.9680    39.1327
         TOT.                       -1.634    4666.8563    29.4106    87.5613

 260.00  VIB.     0.1396D+03                  2899.5984    22.5335    20.9673
         ROT.     0.3666D+06                   775.0105     2.9808    28.4407
         INT.     0.5119D+08                  3674.6089    25.5143    49.4081
         TRA.     0.9114D+27                  1291.6842     4.9680    39.3276
         TOT.                       -1.335    4966.2931    30.4823    88.7356

 270.00  VIB.     0.1733D+03                  3130.4251    23.6368    21.8384
         ROT.     0.3879D+06                   804.8186     2.9808    28.5532
         INT.     0.6723D+08                  3935.2438    26.6176    50.3916
         TRA.     0.9645D+27                  1341.3644     4.9680    39.5150
         TOT.                       -1.025    5276.6082    31.5856    89.9066

 280.00  VIB.     0.2152D+03                  3372.4256    24.7675    22.7183
         ROT.     0.4097D+06                   834.6267     2.9808    28.6616
         INT.     0.8814D+08                  4207.0523    27.7484    51.3800
         TRA.     0.1019D+28                  1391.0445     4.9680    39.6957
         TOT.                       -0.703    5598.0969    32.7164    91.0757

 290.00  VIB.     0.2672D+03                  3625.8536    25.9216    23.6075
         ROT.     0.4318D+06                   864.4348     2.9808    28.7662
         INT.     0.1154D+09                  4490.2884    28.9024    52.3738
         TRA.     0.1074D+28                  1440.7247     4.9680    39.8701
         TOT.                       -0.370    5931.0131    33.8704    92.2438

 300.00  VIB.     0.3320D+03                  3890.9203    27.0946    24.5060
         ROT.     0.4543D+06                   894.2429     2.9808    28.8673
         INT.     0.1509D+09                  4785.1632    30.0754    53.3733
         TRA.     0.1130D+28                  1490.4049     4.9680    40.0385
         TOT.                       -0.026    6275.5681    35.0434    93.4118

 310.00  VIB.     0.4129D+03                  4167.7948    28.2824    25.4138
         ROT.     0.4772D+06                   924.0510     2.9808    28.9650
         INT.     0.1970D+09                  5091.8458    31.2632    54.3788
         TRA.     0.1187D+28                  1540.0850     4.9680    40.2014
         TOT.                        0.331    6631.9309    36.2313    94.5802

 320.00  VIB.     0.5138D+03                  4456.6050    29.4811    26.3306
         ROT.     0.5005D+06                   953.8591     2.9808    29.0597
         INT.     0.2571D+09                  5410.4642    32.4619    55.3903
         TRA.     0.1244D+28                  1589.7652     4.9680    40.3591
         TOT.                        0.699    7000.2294    37.4299    95.7494

 330.00  VIB.     0.6398D+03                  4757.4399    30.6867    27.2563
         ROT.     0.5241D+06                   983.6672     2.9808    29.1514
         INT.     0.3354D+09                  5741.1071    33.6676    56.4076
         TRA.     0.1303D+28                  1639.4454     4.9680    40.5120
         TOT.                        1.079    7380.5525    38.6356    96.9196

 340.00  VIB.     0.7975D+03                  5070.3516    31.8959    28.1903
         ROT.     0.5482D+06                  1013.4753     2.9808    29.2404
         INT.     0.4372D+09                  6083.8269    34.8767    57.4307
         TRA.     0.1363D+28                  1689.1255     4.9680    40.6603
         TOT.                        1.472    7772.9524    39.8447    98.0910

 350.00  VIB.     0.9949D+03                  5395.3582    33.1052    29.1323
         ROT.     0.5725D+06                  1043.2834     2.9808    29.3268
         INT.     0.5696D+09                  6438.6416    36.0860    58.4591
         TRA.     0.1424D+28                  1738.8057     4.9680    40.8043
         TOT.                        1.876    8177.4473    41.0541    99.2634

 360.00  VIB.     0.1242D+04                  5732.4471    34.3119    30.0819
         ROT.     0.5972D+06                  1073.0915     2.9808    29.4107
         INT.     0.7420D+09                  6805.5386    37.2927    59.4926
         TRA.     0.1485D+28                  1788.4859     4.9680    40.9443
         TOT.                        2.293    8594.0245    42.2607   100.4369

 370.00  VIB.     0.1553D+04                  6081.5773    35.5131    31.0384
         ROT.     0.6223D+06                  1102.8996     2.9808    29.4924
         INT.     0.9663D+09                  7184.4770    38.4939    60.5308
         TRA.     0.1547D+28                  1838.1660     4.9680    41.0804
         TOT.                        2.721    9022.6430    43.4619   101.6112

 380.00  VIB.     0.1943D+04                  6442.6832    36.7066    32.0013
         ROT.     0.6477D+06                  1132.7077     2.9808    29.5719
         INT.     0.1258D+10                  7575.3909    39.6874    61.5732
         TRA.     0.1610D+28                  1887.8462     4.9680    41.2129
         TOT.                        3.162    9463.2371    44.6554   102.7861

 390.00  VIB.     0.2433D+04                  6815.6769    37.8903    32.9701
         ROT.     0.6734D+06                  1162.5158     2.9808    29.6493
         INT.     0.1638D+10                  7978.1927    40.8712    62.6194
         TRA.     0.1674D+28                  1937.5263     4.9680    41.3419
         TOT.                        3.615    9915.7191    45.8392   103.9614

 400.00  VIB.     0.3050D+04                  7200.4516    39.0625    33.9442
         ROT.     0.6995D+06                  1192.3239     2.9808    29.7248
         INT.     0.2133D+10                  8392.7755    42.0433    63.6690
         TRA.     0.1739D+28                  1987.2065     4.9680    41.4677
         TOT.                        4.079   10379.9820    47.0113   105.1367

   *: NOTE: HEATS OF FORMATION ARE RELATIVE TO THE
            ELEMENTS IN THEIR STANDARD STATE AT 298K
              (=  Standard Enthalpy of Formation).

            Hvib:  Zero-point energy is not included.
                   frequencies of less than zero cm-1 are not included.
            Hrot = (3/2)RT
            Htra = (3/2)RT + pV = (5/2)RT

            Heat capacity is Cp, not Cv

           For more information, see: HTTP://OpenMOPAC.net/Manual/thermochemistry.html


           FORCE CONSTANT IN CARTESIAN COORDINATES (Millidynes/A)

    ATOM   CHEMICAL       X               Y               Z
   NUMBER   SYMBOL  FORCE CONSTANT  FORCE CONSTANT  FORCE CONSTANT

      1       C        8.262253        8.088049        8.897742
      2       C        7.782687        8.099706        8.582709
      3       C        8.065138        7.780887        8.580648
      4       C        8.081826        8.043422        8.542403
      5       C        8.322775        8.470927        8.641050
      6       C        8.246084        8.224560        8.383104
      7       C       12.653082        7.065769        7.660773
      8       C       12.486442        7.050618        7.668645
      9       H        1.333810        1.311673        3.474925
     10       H        1.487686        1.411069        3.732154
     11       H        1.452895        1.530299        3.653516
     12       H        1.524792        1.509367        3.598612
     13       H        1.420672        1.406641        3.801544
     14       H        1.514961        1.467710        3.651715
     15       H        1.401826        1.482400        3.731442
     16       H        2.410110        2.527193        1.461790
     17       H        3.317360        1.743494        1.218663
     18       H        3.575101        1.873673        1.335453
     19       H        1.633970        1.841891        3.319404
     20       H        2.638008        2.716445        1.431184
     21       H        1.781284        3.184270        1.251016
     22       H        1.801545        3.150741        1.245750



 TOTAL CPU TIME:             2.66 SECONDS

 == MOPAC DONE ==
