 *******************************************************************************
 ** Site#: 14399           For non-commercial use only        Version 13.159M **
 *******************************************************************************
 ** Cite this work as: MOPAC2012, James J. P. Stewart, Stewart Computational  **
 ** Chemistry, Version 13.159M web: HTTP://OpenMOPAC.net  Days remaining:   5 **
 *******************************************************************************
 **                                                                           **
 **                                MOPAC2012                                  **
 **                                                                           **
 *******************************************************************************

                            PM3 CALCULATION RESULTS


 *******************************************************************************
 *  CALCULATION DONE:                                Tue Jun  3 11:51:50 2014  *
 *  PM3      - The PM3 Hamiltonian to be used
 *  PRECISE  - CRITERIA TO BE INCREASED BY 100 TIMES
 *  NOSYM    - POINT-GROUP SYMMETRY SET TO C1
 *  T=       - A TIME OF 172800.0 SECONDS REQUESTED
 *  DUMP=N   - RESTART FILE WRITTEN EVERY  7200.000 SECONDS
 *******************************************************************************
pm3  precise nosym
 InChI=1S/C6H10/c1-3-6-4-5(6)2/h4-5H,3H2,1-2H3

   ATOM   CHEMICAL          X               Y               Z
  NUMBER   SYMBOL      (ANGSTROMS)     (ANGSTROMS)     (ANGSTROMS)
 
     1       C         -1.30570000  *   0.02680000  *  -0.69080000  *
     2       C          1.38660000  *   0.56420000  *  -0.42890000  *
     3       C         -2.23790000  *  -0.75290000  *   0.22830000  *
     4       C          2.28370000  *  -0.37300000  *   0.36730000  *
     5       C          0.00250000  *   0.57720000  *   0.14900000  *
     6       C         -0.91170000  *   1.31170000  *  -0.33430000  *
     7       H         -1.01670000  *  -0.37950000  *  -1.68610000  *
     8       H          1.37980000  *   0.23310000  *  -1.49380000  *
     9       H          1.81780000  *   1.59190000  *  -0.39370000  *
    10       H          1.89800000  *  -1.41780000  *   0.33010000  *
    11       H          2.35580000  *  -0.04920000  *   1.43100000  *
    12       H         -2.55450000  *  -0.18700000  *   1.13520000  *
    13       H         -3.15470000  *  -1.02530000  *  -0.34050000  *
    14       H         -1.73920000  *  -1.69420000  *   0.55200000  *
    15       H          3.31040000  *  -0.36900000  *  -0.06410000  *
    16       H         -1.51420000  *   1.94280000  *   0.31640000  *
 


          CARTESIAN COORDINATES 

    NO.       ATOM         X         Y         Z

     1         C       -1.3057    0.0268   -0.6908
     2         C        1.3866    0.5642   -0.4289
     3         C       -2.2379   -0.7529    0.2283
     4         C        2.2837   -0.3730    0.3673
     5         C        0.0025    0.5772    0.1490
     6         C       -0.9117    1.3117   -0.3343
     7         H       -1.0167   -0.3795   -1.6861
     8         H        1.3798    0.2331   -1.4938
     9         H        1.8178    1.5919   -0.3937
    10         H        1.8980   -1.4178    0.3301
    11         H        2.3558   -0.0492    1.4310
    12         H       -2.5545   -0.1870    1.1352
    13         H       -3.1547   -1.0253   -0.3405
    14         H       -1.7392   -1.6942    0.5520
    15         H        3.3104   -0.3690   -0.0641
    16         H       -1.5142    1.9428    0.3164

  H: (PM3): J. J. P. STEWART, J. COMP. CHEM. 10, 209 (1989).
  C: (PM3): J. J. P. STEWART, J. COMP. CHEM. 10, 209 (1989).

           Empirical Formula: C6 H10  =    16 atoms



      MOLECULAR POINT GROUP   :   C1  


      RHF CALCULATION, NO. OF DOUBLY OCCUPIED LEVELS =   17

      Geometry optimization using EF

          DIAGONAL MATRIX USED AS START HESSIAN

 CYCLE:     1 TIME:   0.004 TIME LEFT:  2.00D  GRAD.:   312.877 HEAT: 119.1174
 CYCLE:     2 TIME:   0.004 TIME LEFT:  2.00D  GRAD.:   359.164 HEAT: 106.7486
 CYCLE:     3 TIME:   0.003 TIME LEFT:  2.00D  GRAD.:   121.557 HEAT: 74.56665
 CYCLE:     4 TIME:   0.006 TIME LEFT:  2.00D  GRAD.:   188.835 HEAT: 71.93612
 CYCLE:     5 TIME:   0.003 TIME LEFT:  2.00D  GRAD.:   138.247 HEAT: 65.32658
 CYCLE:     6 TIME:   0.006 TIME LEFT:  2.00D  GRAD.:    90.853 HEAT: 61.47387
 CYCLE:     7 TIME:   0.003 TIME LEFT:  2.00D  GRAD.:    65.569 HEAT: 59.27537
 CYCLE:     8 TIME:   0.006 TIME LEFT:  2.00D  GRAD.:    47.521 HEAT: 57.57009
 CYCLE:     9 TIME:   0.003 TIME LEFT:  2.00D  GRAD.:    58.635 HEAT: 56.59343
 CYCLE:    10 TIME:   0.003 TIME LEFT:  2.00D  GRAD.:    48.794 HEAT: 54.83315
 CYCLE:    11 TIME:   0.003 TIME LEFT:  2.00D  GRAD.:    72.883 HEAT: 54.11842
 CYCLE:    12 TIME:   0.003 TIME LEFT:  2.00D  GRAD.:    67.837 HEAT: 53.51942
 CYCLE:    13 TIME:   0.006 TIME LEFT:  2.00D  GRAD.:    38.506 HEAT: 52.43664
 CYCLE:    14 TIME:   0.006 TIME LEFT:  2.00D  GRAD.:    26.952 HEAT: 52.01868
 CYCLE:    15 TIME:   0.003 TIME LEFT:  2.00D  GRAD.:    21.481 HEAT: 51.67057
 CYCLE:    16 TIME:   0.003 TIME LEFT:  2.00D  GRAD.:    18.428 HEAT: 51.24136
 CYCLE:    17 TIME:   0.003 TIME LEFT:  2.00D  GRAD.:    13.973 HEAT: 50.72699
 CYCLE:    18 TIME:   0.003 TIME LEFT:  2.00D  GRAD.:    18.343 HEAT: 50.19706
 CYCLE:    19 TIME:   0.003 TIME LEFT:  2.00D  GRAD.:    29.204 HEAT: 49.86696
 CYCLE:    20 TIME:   0.003 TIME LEFT:  2.00D  GRAD.:    18.289 HEAT: 49.50651
 CYCLE:    21 TIME:   0.003 TIME LEFT:  2.00D  GRAD.:    15.437 HEAT: 49.29365
 CYCLE:    22 TIME:   0.003 TIME LEFT:  2.00D  GRAD.:    14.139 HEAT: 48.90180
 CYCLE:    23 TIME:   0.003 TIME LEFT:  2.00D  GRAD.:    17.699 HEAT: 48.42077
 CYCLE:    24 TIME:   0.003 TIME LEFT:  2.00D  GRAD.:    24.100 HEAT: 48.20339
 CYCLE:    25 TIME:   0.003 TIME LEFT:  2.00D  GRAD.:    13.415 HEAT: 47.93133
 CYCLE:    26 TIME:   0.003 TIME LEFT:  2.00D  GRAD.:    16.193 HEAT: 47.64623
 CYCLE:    27 TIME:   0.003 TIME LEFT:  2.00D  GRAD.:    15.095 HEAT: 47.44326
 CYCLE:    28 TIME:   0.003 TIME LEFT:  2.00D  GRAD.:    14.513 HEAT: 47.20713
 CYCLE:    29 TIME:   0.003 TIME LEFT:  2.00D  GRAD.:    12.305 HEAT: 46.94397
 CYCLE:    30 TIME:   0.003 TIME LEFT:  2.00D  GRAD.:    13.758 HEAT: 46.72602
 CYCLE:    31 TIME:   0.003 TIME LEFT:  2.00D  GRAD.:    14.964 HEAT: 46.38651
 CYCLE:    32 TIME:   0.003 TIME LEFT:  2.00D  GRAD.:    14.193 HEAT: 45.98909
 CYCLE:    33 TIME:   0.003 TIME LEFT:  2.00D  GRAD.:    10.717 HEAT: 45.76199
 CYCLE:    34 TIME:   0.003 TIME LEFT:  2.00D  GRAD.:     8.393 HEAT: 45.59261
 CYCLE:    35 TIME:   0.003 TIME LEFT:  2.00D  GRAD.:     8.543 HEAT: 45.46434
 CYCLE:    36 TIME:   0.003 TIME LEFT:  2.00D  GRAD.:     7.032 HEAT: 45.38732
 CYCLE:    37 TIME:   0.003 TIME LEFT:  2.00D  GRAD.:     3.676 HEAT: 45.34599
 CYCLE:    38 TIME:   0.003 TIME LEFT:  2.00D  GRAD.:     2.795 HEAT: 45.32402
 CYCLE:    39 TIME:   0.003 TIME LEFT:  2.00D  GRAD.:     2.548 HEAT: 45.31167
 CYCLE:    40 TIME:   0.003 TIME LEFT:  2.00D  GRAD.:     2.161 HEAT: 45.30026
 CYCLE:    41 TIME:   0.003 TIME LEFT:  2.00D  GRAD.:     2.059 HEAT: 45.28930
 CYCLE:    42 TIME:   0.003 TIME LEFT:  2.00D  GRAD.:     1.879 HEAT: 45.27928
 CYCLE:    43 TIME:   0.003 TIME LEFT:  2.00D  GRAD.:     1.752 HEAT: 45.27251
 CYCLE:    44 TIME:   0.003 TIME LEFT:  2.00D  GRAD.:     1.490 HEAT: 45.26740
 CYCLE:    45 TIME:   0.003 TIME LEFT:  2.00D  GRAD.:     1.297 HEAT: 45.26334
 CYCLE:    46 TIME:   0.003 TIME LEFT:  2.00D  GRAD.:     1.326 HEAT: 45.25917
 CYCLE:    47 TIME:   0.003 TIME LEFT:  2.00D  GRAD.:     1.691 HEAT: 45.25378
 CYCLE:    48 TIME:   0.003 TIME LEFT:  2.00D  GRAD.:     2.302 HEAT: 45.24575
 CYCLE:    49 TIME:   0.003 TIME LEFT:  2.00D  GRAD.:     3.166 HEAT: 45.23168
 CYCLE:    50 TIME:   0.003 TIME LEFT:  2.00D  GRAD.:     2.828 HEAT: 45.22038
 CYCLE:    51 TIME:   0.003 TIME LEFT:  2.00D  GRAD.:     3.258 HEAT: 45.19661
 CYCLE:    52 TIME:   0.003 TIME LEFT:  2.00D  GRAD.:     2.403 HEAT: 45.18742
 CYCLE:    53 TIME:   0.003 TIME LEFT:  2.00D  GRAD.:     3.245 HEAT: 45.15998
 CYCLE:    54 TIME:   0.003 TIME LEFT:  2.00D  GRAD.:     2.379 HEAT: 45.14860
 CYCLE:    55 TIME:   0.003 TIME LEFT:  2.00D  GRAD.:     2.557 HEAT: 45.12962
 CYCLE:    56 TIME:   0.003 TIME LEFT:  2.00D  GRAD.:     2.563 HEAT: 45.11817
 CYCLE:    57 TIME:   0.003 TIME LEFT:  2.00D  GRAD.:     2.711 HEAT: 45.09945
 CYCLE:    58 TIME:   0.003 TIME LEFT:  2.00D  GRAD.:     2.449 HEAT: 45.07921
 CYCLE:    59 TIME:   0.003 TIME LEFT:  2.00D  GRAD.:     3.637 HEAT: 45.07137
 CYCLE:    60 TIME:   0.003 TIME LEFT:  2.00D  GRAD.:     2.088 HEAT: 45.05731
 CYCLE:    61 TIME:   0.003 TIME LEFT:  2.00D  GRAD.:     1.662 HEAT: 45.05232
 CYCLE:    62 TIME:   0.003 TIME LEFT:  2.00D  GRAD.:     1.420 HEAT: 45.04584
 CYCLE:    63 TIME:   0.003 TIME LEFT:  2.00D  GRAD.:     0.950 HEAT: 45.04367
 CYCLE:    64 TIME:   0.003 TIME LEFT:  2.00D  GRAD.:     0.649 HEAT: 45.04208
 CYCLE:    65 TIME:   0.003 TIME LEFT:  2.00D  GRAD.:     0.693 HEAT: 45.04097
 CYCLE:    66 TIME:   0.003 TIME LEFT:  2.00D  GRAD.:     0.699 HEAT: 45.03984
 CYCLE:    67 TIME:   0.003 TIME LEFT:  2.00D  GRAD.:     0.812 HEAT: 45.03840
 CYCLE:    68 TIME:   0.003 TIME LEFT:  2.00D  GRAD.:     1.015 HEAT: 45.03657
 CYCLE:    69 TIME:   0.003 TIME LEFT:  2.00D  GRAD.:     1.486 HEAT: 45.03357
 CYCLE:    70 TIME:   0.003 TIME LEFT:  2.00D  GRAD.:     1.835 HEAT: 45.02884
 CYCLE:    71 TIME:   0.003 TIME LEFT:  2.00D  GRAD.:     3.091 HEAT: 45.01853
 CYCLE:    72 TIME:   0.003 TIME LEFT:  2.00D  GRAD.:     2.489 HEAT: 45.00939
 CYCLE:    73 TIME:   0.003 TIME LEFT:  2.00D  GRAD.:     1.663 HEAT: 44.99352
 CYCLE:    74 TIME:   0.003 TIME LEFT:  2.00D  GRAD.:     2.360 HEAT: 44.98745
 CYCLE:    75 TIME:   0.003 TIME LEFT:  2.00D  GRAD.:     1.934 HEAT: 44.98289
 CYCLE:    76 TIME:   0.003 TIME LEFT:  2.00D  GRAD.:     1.562 HEAT: 44.97890
 CYCLE:    77 TIME:   0.003 TIME LEFT:  2.00D  GRAD.:     1.724 HEAT: 44.97627
 CYCLE:    78 TIME:   0.003 TIME LEFT:  2.00D  GRAD.:     1.970 HEAT: 44.97752
 CYCLE:    79 TIME:   0.003 TIME LEFT:  2.00D  GRAD.:     0.750 HEAT: 44.97383
 CYCLE:    80 TIME:   0.003 TIME LEFT:  2.00D  GRAD.:     0.756 HEAT: 44.97317
 CYCLE:    81 TIME:   0.003 TIME LEFT:  2.00D  GRAD.:     0.619 HEAT: 44.97185
 CYCLE:    82 TIME:   0.003 TIME LEFT:  2.00D  GRAD.:     0.767 HEAT: 44.97124
 CYCLE:    83 TIME:   0.003 TIME LEFT:  2.00D  GRAD.:     0.417 HEAT: 44.97025
 CYCLE:    84 TIME:   0.003 TIME LEFT:  2.00D  GRAD.:     0.254 HEAT: 44.97004
 CYCLE:    85 TIME:   0.003 TIME LEFT:  2.00D  GRAD.:     0.113 HEAT: 44.96994
 CYCLE:    86 TIME:   0.003 TIME LEFT:  2.00D  GRAD.:     0.134 HEAT: 44.96991
 CYCLE:    87 TIME:   0.003 TIME LEFT:  2.00D  GRAD.:     0.109 HEAT: 44.96987
 CYCLE:    88 TIME:   0.003 TIME LEFT:  2.00D  GRAD.:     0.109 HEAT: 44.96983
 CYCLE:    89 TIME:   0.003 TIME LEFT:  2.00D  GRAD.:     0.112 HEAT: 44.96979
 CYCLE:    90 TIME:   0.003 TIME LEFT:  2.00D  GRAD.:     0.128 HEAT: 44.96976
 CYCLE:    91 TIME:   0.003 TIME LEFT:  2.00D  GRAD.:     0.207 HEAT: 44.96970
 CYCLE:    92 TIME:   0.003 TIME LEFT:  2.00D  GRAD.:     0.207 HEAT: 44.96965
 CYCLE:    93 TIME:   0.003 TIME LEFT:  2.00D  GRAD.:     0.357 HEAT: 44.96921
 CYCLE:    94 TIME:   0.003 TIME LEFT:  2.00D  GRAD.:     0.596 HEAT: 44.96834
 CYCLE:    95 TIME:   0.003 TIME LEFT:  2.00D  GRAD.:     0.995 HEAT: 44.96694
 CYCLE:    96 TIME:   0.003 TIME LEFT:  2.00D  GRAD.:     0.720 HEAT: 44.96522
 CYCLE:    97 TIME:   0.003 TIME LEFT:  2.00D  GRAD.:     1.038 HEAT: 44.96324
 CYCLE:    98 TIME:   0.003 TIME LEFT:  2.00D  GRAD.:     1.841 HEAT: 44.96468
 CYCLE:    99 TIME:   0.003 TIME LEFT:  2.00D  GRAD.:     0.294 HEAT: 44.96228
 CYCLE:   100 TIME:   0.003 TIME LEFT:  2.00D  GRAD.:     0.345 HEAT: 44.96207
 CYCLE:   101 TIME:   0.003 TIME LEFT:  2.00D  GRAD.:     0.240 HEAT: 44.96188
 CYCLE:   102 TIME:   0.003 TIME LEFT:  2.00D  GRAD.:     0.166 HEAT: 44.96181
 CYCLE:   103 TIME:   0.003 TIME LEFT:  2.00D  GRAD.:     0.057 HEAT: 44.96181
 CYCLE:   104 TIME:   0.003 TIME LEFT:  2.00D  GRAD.:     0.103 HEAT: 44.96180
 CYCLE:   105 TIME:   0.003 TIME LEFT:  2.00D  GRAD.:     0.026 HEAT: 44.96179

     RMS GRADIENT =  0.02619  IS LESS THAN CUTOFF =  0.05000



 -------------------------------------------------------------------------------
pm3  precise nosym
 InChI=1S/C6H10/c1-3-6-4-5(6)2/h4-5H,3H2,1-2H3



     GEOMETRY OPTIMISED USING EIGENVECTOR FOLLOWING (EF).     
     SCF FIELD WAS ACHIEVED                                   


                              PM3 CALCULATION
                                                       MOPAC2012 (Version: 13.159M)
                                                       Tue Jun  3 11:51:51 2014
                                                       No. of days left =   5




          FINAL HEAT OF FORMATION =         44.96179 KCAL/MOL =     188.12013 KJ/MOL


          TOTAL ENERGY            =       -863.21955 EV
          ELECTRONIC ENERGY       =      -3727.71396 EV  POINT GROUP:     C1  
          CORE-CORE REPULSION     =       2864.49440 EV
          COSMO AREA              =        139.02 SQUARE ANGSTROMS
          COSMO VOLUME            =        129.80 CUBIC ANGSTROMS

          GRADIENT NORM           =          0.02619
          IONIZATION POTENTIAL    =          9.689876 EV
          HOMO LUMO ENERGIES (EV) =         -9.690  0.928
          NO. OF FILLED LEVELS    =         17
          MOLECULAR WEIGHT        =         82.145

          MOLECULAR DIMENSIONS (Angstroms)

            Atom       Atom       Distance
            H    15    H    13     5.89116
            H    16    H    14     4.34984
            H     7    H    11     3.07661


          SCF CALCULATIONS        =        111
          COMPUTATION TIME        =          0.354 SECONDS




   ATOM   CHEMICAL          X               Y               Z
  NUMBER   SYMBOL      (ANGSTROMS)     (ANGSTROMS)     (ANGSTROMS)
 
     1       C         -1.27698303  *   0.04835727  *  -0.63937989  *
     2       C          1.45965972  *   0.62587262  *  -0.41100951  *
     3       C         -1.80148044  *  -0.89551074  *   0.39916033  *
     4       C          1.89831750  *  -0.55054512  *   0.43704656  *
     5       C          0.01241678  *   0.76320163  *  -0.43121797  *
     6       C         -1.07790852  *   1.49009422  *  -0.32420809  *
     7       H         -1.57410925  *  -0.24798609  *  -1.66453022  *
     8       H          1.81000966  *   0.50251948  *  -1.45589514  *
     9       H          1.91619754  *   1.56497236  *  -0.04122364  *
    10       H          1.44760362  *  -1.48988787  *   0.09007478  *
    11       H          1.60895745  *  -0.42094896  *   1.48801435  *
    12       H         -1.53854248  *  -0.58555336  *   1.41885976  *
    13       H         -2.89533696  *  -0.96575093  *   0.34620935  *
    14       H         -1.39328275  *  -1.90326233  *   0.24666729  *
    15       H          2.98823758  *  -0.67306037  *   0.40666697  *
    16       H         -1.57522808  *   2.42472184  *  -0.15008269  *

           Empirical Formula: C6 H10  =    16 atoms



      MOLECULAR POINT GROUP   :   C1  


                  EIGENVALUES  
 -39.52608 -33.40277 -28.59693 -23.60577 -20.20160 -18.56204 -16.67733 -15.69516
 -15.41912 -14.19105 -14.05261 -13.53644 -12.89268 -12.28558 -11.85707 -10.81876
  -9.68988   0.92812   2.63388   3.01665   3.32000   3.77690   3.87279   4.00342
   4.16405   4.24211   4.41105   4.66355   4.68727   4.78468   4.89395   4.98908
   5.25045   5.84198


              NET ATOMIC CHARGES AND DIPOLE CONTRIBUTIONS

  ATOM NO.   TYPE          CHARGE      No. of ELECS.   s-Pop       p-Pop       
    1          C          -0.053193        4.0532     1.15849     2.89470
    2          C           0.013993        3.9860     1.12214     2.86387
    3          C          -0.104192        4.1042     1.13524     2.96895
    4          C          -0.106979        4.1070     1.13709     2.96989
    5          C          -0.163061        4.1631     1.21457     2.94849
    6          C          -0.180707        4.1807     1.21561     2.96509
    7          H           0.074511        0.9255     0.92549
    8          H           0.057124        0.9429     0.94288
    9          H           0.053283        0.9467     0.94672
   10          H           0.043871        0.9561     0.95613
   11          H           0.041414        0.9586     0.95859
   12          H           0.041262        0.9587     0.95874
   13          H           0.041105        0.9589     0.95889
   14          H           0.040581        0.9594     0.95942
   15          H           0.038147        0.9619     0.96185
   16          H           0.162841        0.8372     0.83716
 DIPOLE           X         Y         Z       TOTAL
 POINT-CHG.     0.492     0.017    -0.005     0.493
 HYBRID        -0.067     0.088     0.083     0.138
 SUM            0.426     0.106     0.077     0.445


          ATOMIC ORBITAL ELECTRON POPULATIONS

    Atom      s        px        py        pz   
    1  C   1.15849   0.98139   0.92841   0.98490
    2  C   1.12214   0.88810   0.98195   0.99382
    3  C   1.13524   1.00088   0.98696   0.98111
    4  C   1.13709   1.00002   0.97567   0.99420
    5  C   1.21457   0.94079   1.02145   0.98625
    6  C   1.21561   0.99389   0.96445   1.00675
    7  H   0.92549
    8  H   0.94288
    9  H   0.94672
   10  H   0.95613
   11  H   0.95859
   12  H   0.95874
   13  H   0.95889
   14  H   0.95942
   15  H   0.96185
   16  H   0.83716
 *******************************************************************************
 ** Site#: 14399           For non-commercial use only        Version 13.159M **
 *******************************************************************************
 ** Cite this work as: MOPAC2012, James J. P. Stewart, Stewart Computational  **
 ** Chemistry, Version 13.159M web: HTTP://OpenMOPAC.net  Days remaining:   5 **
 *******************************************************************************
 **                                                                           **
 **                                MOPAC2012                                  **
 **                                                                           **
 *******************************************************************************

                            PM3 CALCULATION RESULTS


 *******************************************************************************
 *  CALCULATION DONE:                                Tue Jun  3 11:51:51 2014  *
 *  PM3      - The PM3 Hamiltonian to be used
 *  OLDGEO   - PREVIOUS GEOMETRY TO BE USED
 *  PRECISE  - CRITERIA TO BE INCREASED BY 100 TIMES
 *  NOSYM    - POINT-GROUP SYMMETRY SET TO C1
 *  T=       - A TIME OF 172800.0 SECONDS REQUESTED
 *  DUMP=N   - RESTART FILE WRITTEN EVERY  7200.000 SECONDS
 *  THERMO   - THERMODYNAMIC QUANTITIES TO BE CALCULATED
 *******************************************************************************
oldgeo thermo nosym precise  pm3

   ATOM   CHEMICAL          X               Y               Z
  NUMBER   SYMBOL      (ANGSTROMS)     (ANGSTROMS)     (ANGSTROMS)
 
     1       C         -1.27698303  *   0.04835727  *  -0.63937989  *
     2       C          1.45965972  *   0.62587262  *  -0.41100951  *
     3       C         -1.80148044  *  -0.89551074  *   0.39916033  *
     4       C          1.89831750  *  -0.55054512  *   0.43704656  *
     5       C          0.01241678  *   0.76320163  *  -0.43121797  *
     6       C         -1.07790852  *   1.49009422  *  -0.32420809  *
     7       H         -1.57410925  *  -0.24798609  *  -1.66453022  *
     8       H          1.81000966  *   0.50251948  *  -1.45589514  *
     9       H          1.91619754  *   1.56497236  *  -0.04122364  *
    10       H          1.44760362  *  -1.48988787  *   0.09007478  *
    11       H          1.60895745  *  -0.42094896  *   1.48801435  *
    12       H         -1.53854248  *  -0.58555336  *   1.41885976  *
    13       H         -2.89533696  *  -0.96575093  *   0.34620935  *
    14       H         -1.39328275  *  -1.90326233  *   0.24666729  *
    15       H          2.98823758  *  -0.67306037  *   0.40666697  *
    16       H         -1.57522808  *   2.42472184  *  -0.15008269  *
 


          CARTESIAN COORDINATES 

    NO.       ATOM         X         Y         Z

     1         C       -1.2770    0.0484   -0.6394
     2         C        1.4597    0.6259   -0.4110
     3         C       -1.8015   -0.8955    0.3992
     4         C        1.8983   -0.5505    0.4370
     5         C        0.0124    0.7632   -0.4312
     6         C       -1.0779    1.4901   -0.3242
     7         H       -1.5741   -0.2480   -1.6645
     8         H        1.8100    0.5025   -1.4559
     9         H        1.9162    1.5650   -0.0412
    10         H        1.4476   -1.4899    0.0901
    11         H        1.6090   -0.4209    1.4880
    12         H       -1.5385   -0.5856    1.4189
    13         H       -2.8953   -0.9658    0.3462
    14         H       -1.3933   -1.9033    0.2467
    15         H        2.9882   -0.6731    0.4067
    16         H       -1.5752    2.4247   -0.1501

  H: (PM3): J. J. P. STEWART, J. COMP. CHEM. 10, 209 (1989).
  C: (PM3): J. J. P. STEWART, J. COMP. CHEM. 10, 209 (1989).

           Empirical Formula: C6 H10  =    16 atoms



      MOLECULAR POINT GROUP   :   C1  


      RHF CALCULATION, NO. OF DOUBLY OCCUPIED LEVELS =   17



          HEAT OF FORMATION =      44.961791 KCALS/MOLE


          INTERNAL COORDINATE DERIVATIVES

   NUMBER  ATOM       BOND         ANGLE      DIHEDRAL

     1       C      0.001358    -0.001065    -0.001644
     2       C     -0.000915    -0.002021    -0.003981
     3       C     -0.001202    -0.001886    -0.000564
     4       C      0.006938    -0.002709    -0.000542
     5       C      0.001329    -0.002204     0.002613
     6       C     -0.004178    -0.002799     0.000541
     7       H      0.001430    -0.001304     0.002895
     8       H     -0.000423    -0.004603     0.005187
     9       H      0.004279    -0.005376    -0.005931
    10       H     -0.003854     0.005077     0.011406
    11       H     -0.000939     0.010563    -0.007907
    12       H     -0.001646     0.002520     0.000450
    13       H     -0.000402     0.003062    -0.003213
    14       H      0.000331     0.002606     0.004246
    15       H     -0.001775     0.001828     0.002484
    16       H     -0.000330    -0.001689    -0.006039


          GRADIENT NORM =   0.02686


          TIME FOR SCF CALCULATION =    0.00

          TIME FOR DERIVATIVES     =    0.00

          MOLECULAR WEIGHT =   82.14



          ROTATIONAL CONSTANTS IN CM(-1)

          A =    0.19267437   B =    0.08751864   C =    0.06648392



           PRINCIPAL MOMENTS OF INERTIA IN UNITS OF 10**(-40)*GRAM-CM**2

          A =      145.2854   B =      319.8493   C =      421.0458


          ORIENTATION OF MOLECULE IN FORCE CALCULATION

    NO.       ATOM         X         Y         Z

     1          C      -1.2140   -0.3866    0.1651
     2          C       1.5922   -0.3866    0.1651
     3          C      -1.8353    0.9767    0.1651
     4          C       1.8469    1.0212    0.6639
     5          C       0.2075   -0.5713   -0.2376
     6          C      -0.6975   -0.9859   -1.0965
     7          H      -1.6482   -1.0459    0.9422
     8          H       1.8234   -1.1266    0.9580
     9          H       2.2608   -0.6261   -0.6851
    10          H       1.1858    1.2794    1.5019
    11          H       1.6769    1.7659   -0.1245
    12          H      -1.4321    1.6215   -0.6266
    13          H      -2.9207    0.9112    0.0179
    14          H      -1.6570    1.4825    1.1231
    15          H       2.8821    1.1353    1.0091
    16          H      -0.9760   -1.4359   -2.0299


    FIRST DERIVATIVES WILL BE USED IN THE CALCULATION OF SECOND DERIVATIVES

          ESTIMATED TIME TO COMPLETE CALCULATION =        0.86 SECONDS

    FOR POINT-GROUP C1   THERE ARE   1 UNIQUE SYMMETRY FUNCTIONS.

 STEP:   1 TIME =     0.01 SECS, INTEGRAL =      0.01 TIME LEFT: 172799.98
 STEP:   2 TIME =     0.01 SECS, INTEGRAL =      0.03 TIME LEFT: 172799.97
 STEP:   3 TIME =     0.01 SECS, INTEGRAL =      0.04 TIME LEFT: 172799.95
 STEP:   4 TIME =     0.01 SECS, INTEGRAL =      0.06 TIME LEFT: 172799.94
 STEP:   5 TIME =     0.01 SECS, INTEGRAL =      0.07 TIME LEFT: 172799.92
 STEP:   6 TIME =     0.01 SECS, INTEGRAL =      0.08 TIME LEFT: 172799.91
 STEP:   7 TIME =     0.01 SECS, INTEGRAL =      0.10 TIME LEFT: 172799.90
 STEP:   8 TIME =     0.01 SECS, INTEGRAL =      0.11 TIME LEFT: 172799.88
 STEP:   9 TIME =     0.01 SECS, INTEGRAL =      0.13 TIME LEFT: 172799.87
 STEP:  10 TIME =     0.01 SECS, INTEGRAL =      0.14 TIME LEFT: 172799.86
 STEP:  11 TIME =     0.01 SECS, INTEGRAL =      0.15 TIME LEFT: 172799.84
 STEP:  12 TIME =     0.02 SECS, INTEGRAL =      0.17 TIME LEFT: 172799.83
 STEP:  13 TIME =     0.02 SECS, INTEGRAL =      0.19 TIME LEFT: 172799.81
 STEP:  14 TIME =     0.01 SECS, INTEGRAL =      0.20 TIME LEFT: 172799.80
 STEP:  15 TIME =     0.01 SECS, INTEGRAL =      0.21 TIME LEFT: 172799.78
 STEP:  16 TIME =     0.01 SECS, INTEGRAL =      0.23 TIME LEFT: 172799.77
 STEP:  17 TIME =     0.01 SECS, INTEGRAL =      0.24 TIME LEFT: 172799.75
 STEP:  18 TIME =     0.01 SECS, INTEGRAL =      0.26 TIME LEFT: 172799.74
 STEP:  19 TIME =     0.01 SECS, INTEGRAL =      0.27 TIME LEFT: 172799.72
 STEP:  20 TIME =     0.01 SECS, INTEGRAL =      0.29 TIME LEFT: 172799.71
 STEP:  21 TIME =     0.02 SECS, INTEGRAL =      0.30 TIME LEFT: 172799.69
 STEP:  22 TIME =     0.01 SECS, INTEGRAL =      0.32 TIME LEFT: 172799.68
 STEP:  23 TIME =     0.01 SECS, INTEGRAL =      0.33 TIME LEFT: 172799.66
 STEP:  24 TIME =     0.01 SECS, INTEGRAL =      0.35 TIME LEFT: 172799.65
 STEP:  25 TIME =     0.01 SECS, INTEGRAL =      0.36 TIME LEFT: 172799.64
 STEP:  26 TIME =     0.02 SECS, INTEGRAL =      0.38 TIME LEFT: 172799.62
 STEP:  27 TIME =     0.02 SECS, INTEGRAL =      0.39 TIME LEFT: 172799.60
 STEP:  28 TIME =     0.01 SECS, INTEGRAL =      0.41 TIME LEFT: 172799.59
 STEP:  29 TIME =     0.01 SECS, INTEGRAL =      0.42 TIME LEFT: 172799.57
 STEP:  30 TIME =     0.01 SECS, INTEGRAL =      0.44 TIME LEFT: 172799.56
 STEP:  31 TIME =     0.01 SECS, INTEGRAL =      0.45 TIME LEFT: 172799.54
 STEP:  32 TIME =     0.01 SECS, INTEGRAL =      0.47 TIME LEFT: 172799.53
 STEP:  33 TIME =     0.01 SECS, INTEGRAL =      0.48 TIME LEFT: 172799.52
 STEP:  34 TIME =     0.01 SECS, INTEGRAL =      0.49 TIME LEFT: 172799.50
 STEP:  35 TIME =     0.01 SECS, INTEGRAL =      0.51 TIME LEFT: 172799.49
 STEP:  36 TIME =     0.01 SECS, INTEGRAL =      0.52 TIME LEFT: 172799.47
 STEP:  37 TIME =     0.01 SECS, INTEGRAL =      0.54 TIME LEFT: 172799.46
 STEP:  38 TIME =     0.01 SECS, INTEGRAL =      0.55 TIME LEFT: 172799.44
 STEP:  39 TIME =     0.01 SECS, INTEGRAL =      0.57 TIME LEFT: 172799.43
 STEP:  40 TIME =     0.01 SECS, INTEGRAL =      0.58 TIME LEFT: 172799.42
 STEP:  41 TIME =     0.01 SECS, INTEGRAL =      0.59 TIME LEFT: 172799.40
 STEP:  42 TIME =     0.01 SECS, INTEGRAL =      0.61 TIME LEFT: 172799.39
 STEP:  43 TIME =     0.01 SECS, INTEGRAL =      0.62 TIME LEFT: 172799.37
 STEP:  44 TIME =     0.01 SECS, INTEGRAL =      0.64 TIME LEFT: 172799.36
 STEP:  45 TIME =     0.01 SECS, INTEGRAL =      0.65 TIME LEFT: 172799.35
 STEP:  46 TIME =     0.01 SECS, INTEGRAL =      0.66 TIME LEFT: 172799.33
 STEP:  47 TIME =     0.01 SECS, INTEGRAL =      0.68 TIME LEFT: 172799.32
 STEP:  48 TIME =     0.01 SECS, INTEGRAL =      0.69 TIME LEFT: 172799.30

(To convert to Hartree/Bohr^2, multiply by (10^(-21) x N x a0^2)/(4.184 x 627.51) = 0.0642)


           FORCE MATRIX IN MILLIDYNES/ANGSTROM


                  C  1       C  2       C  3       C  4       C  5       C  6
 ------------------------------------------------------------------------------
     C    1  15.283728
     C    2   0.302131  15.008961
     C    3   4.715646   0.025850  14.534380
     C    4   0.017567   4.359163   0.010343  14.346706
     C    5   5.257355   5.980259   0.552569   0.769756  21.355132
     C    6   5.338176   0.490872   0.547108   0.041327  12.174573  20.334776
     H    7   4.424535   0.022821   0.421698   0.000818   0.433015   0.435601
     H    8   0.011384   4.411361   0.000782   0.445456   0.417942   0.035845
     H    9   0.024114   4.460432   0.002639   0.439564   0.443030   0.008951
     H   10   0.004377   0.464630   0.002153   4.735622   0.026320   0.003633
     H   11   0.003841   0.461192   0.001387   4.745591   0.016225   0.002147
     H   12   0.476968   0.002312   4.742667   0.001342   0.016357   0.016297
     H   13   0.441366   0.004227   4.748773   0.000709   0.047318   0.013719
     H   14   0.442687   0.003010   4.730039   0.002864   0.014563   0.046920
     H   15   0.002236   0.447514   0.001006   4.759203   0.056746   0.006903
     H   16   0.285300   0.031044   0.021106   0.003278   0.399864   5.560304


                  H  7       H  8       H  9       H 10       H 11       H 12
 ------------------------------------------------------------------------------
     H    7   4.987036
     H    8   0.004227   4.991520
     H    9   0.003432   0.552968   5.039040
     H   10   0.000429   0.022622   0.047899   5.469400
     H   11   0.000449   0.047656   0.024966   0.579645   5.483031
     H   12   0.043204   0.000433   0.000247   0.000596   0.004401   5.473592
     H   13   0.028391   0.000274   0.000692   0.000306   0.000210   0.568600
     H   14   0.025945   0.000210   0.000459   0.008191   0.000454   0.572708
     H   15   0.000351   0.029069   0.027426   0.563681   0.570471   0.000290
     H   16   0.017868   0.003433   0.002821   0.000644   0.000689   0.002521


                  H 13       H 14       H 15       H 16
 ------------------------------------------------------
     H   13   5.468350
     H   14   0.568719   5.451242
     H   15   0.000221   0.000432   5.489115
     H   16   0.002823   0.003578   0.000936   5.906000


          HEAT OF FORMATION =      44.961791 KCALS/MOLE

          ZERO POINT ENERGY      88.562 KCAL/MOL


           NORMAL COORDINATE ANALYSIS (Total motion = 1 Angstrom)


   Root No.       1         2         3         4         5         6         7         8

                 1 A       2 A       3 A       4 A       5 A       6 A       7 A       8 A   

                  61.5     122.1     134.6     173.7     327.4     342.2     419.2     580.6
  
           1   -0.0098    0.0053    0.0045    0.0072    0.0447   -0.0149    0.0101   -0.0189
           2   -0.0126   -0.0064   -0.0048    0.0016    0.0330   -0.0029   -0.0398   -0.0245
           3   -0.0122   -0.0079   -0.0008    0.0081    0.0196    0.0149    0.0525    0.0165
           4   -0.0097   -0.0054   -0.0028    0.0021    0.0216    0.0258   -0.0167   -0.0004
           5   -0.0159   -0.0015   -0.0023    0.0061   -0.0340   -0.0142    0.0127   -0.0216
           6    0.0448    0.0085    0.0029   -0.0155    0.0099   -0.0232    0.0074   -0.0123
           7   -0.0103    0.0446    0.0479    0.0042   -0.0281   -0.0120    0.0349    0.0175
           8   -0.0130    0.0117    0.0153    0.0001   -0.0002    0.0008   -0.0328   -0.0130
           9    0.0252    0.0155    0.0144    0.0052   -0.0031   -0.0192   -0.0364   -0.0039
          10    0.0166   -0.0460   -0.0474   -0.0049   -0.0372   -0.0175    0.0106   -0.0254
          11    0.0110    0.0104    0.0124    0.0008   -0.0171   -0.0098    0.0097   -0.0299
          12   -0.0443   -0.0012   -0.0130    0.0039   -0.0088   -0.0163    0.0079   -0.0154
          13   -0.0019    0.0025    0.0014    0.0017    0.0281    0.0008   -0.0073   -0.0100
          14    0.0007   -0.0203   -0.0270    0.0016    0.0031   -0.0296    0.0031    0.1068
          15    0.0097   -0.0083    0.0011   -0.0114   -0.0267    0.0665   -0.0169    0.0050
          16    0.0152   -0.0008   -0.0030   -0.0098   -0.0069    0.0225   -0.0394    0.0339
          17    0.0318   -0.0032   -0.0052   -0.0100    0.0221    0.0460    0.0438    0.0105
          18   -0.0232   -0.0126   -0.0044    0.0066    0.0032    0.0087   -0.0048    0.0153
          19   -0.0248   -0.0048   -0.0168    0.0194    0.0885   -0.0679    0.0349    0.0074
          20   -0.0405   -0.0057   -0.0025    0.0074    0.0405   -0.0145   -0.0362   -0.0402
          21   -0.0442   -0.0132   -0.0112    0.0200    0.0516   -0.0258    0.0642    0.0149
          22   -0.0595   -0.0062    0.0144    0.0010   -0.0198    0.1336   -0.0511   -0.0527
          23    0.0318    0.0111    0.0125   -0.0023   -0.0178   -0.0271    0.0182   -0.0464
          24    0.1037    0.0203    0.0113   -0.0227    0.0370   -0.0684    0.0234   -0.0207
          25    0.0115    0.0137    0.0051    0.0063    0.0613   -0.0382    0.0034   -0.0148
          26   -0.0945    0.0024    0.0065    0.0176   -0.0532    0.0440   -0.0062   -0.0538
          27    0.0836    0.0227    0.0068   -0.0152    0.0477   -0.0909    0.0291   -0.0137
          28   -0.0016   -0.0944   -0.0207   -0.1494   -0.0549   -0.0597    0.0290   -0.0543
          29    0.0881    0.0171   -0.0181    0.0597   -0.0383   -0.0227    0.0222   -0.0560
          30   -0.0824   -0.0409    0.0175   -0.1278   -0.0155   -0.0453    0.0182   -0.0287
          31    0.0633   -0.0133   -0.1239    0.1934   -0.0758   -0.0031    0.0184   -0.0531
          32   -0.0380   -0.0049    0.0013   -0.0047   -0.0392   -0.0164    0.0165   -0.0451
          33   -0.1007   -0.0228   -0.0074   -0.0439   -0.0218   -0.0262    0.0131   -0.0248
          34   -0.0041   -0.0621    0.1844    0.0502   -0.0690   -0.0119    0.0789    0.0715
          35    0.0118   -0.0436    0.0625    0.0210    0.0110   -0.0254   -0.1085   -0.0530
          36    0.0486   -0.0838    0.1220    0.0457   -0.0143   -0.0409   -0.0782   -0.0110
          37   -0.0092    0.0190    0.0668    0.0132   -0.0229   -0.0115    0.0401    0.0167
          38   -0.0087    0.0408    0.0628    0.0005   -0.0819   -0.0059   -0.0232    0.0542
          39    0.0143    0.1949   -0.1460   -0.0620   -0.0114   -0.0216   -0.0757   -0.0154
          40   -0.0183    0.2183   -0.0721   -0.0546   -0.0745   -0.0164    0.0125    0.0456
          41   -0.0427    0.0558   -0.0633   -0.0232    0.0326    0.0337    0.0438   -0.0073
          42    0.0424   -0.0395    0.0780    0.0284   -0.0124   -0.0364   -0.0745   -0.0120
          43    0.0094   -0.0656   -0.0369   -0.0635   -0.0451   -0.0350    0.0184   -0.0373
          44    0.0038    0.0284    0.0657   -0.0567    0.0426    0.0166   -0.0159    0.0167
          45   -0.0202    0.0511   -0.0628    0.1991   -0.0075    0.0261   -0.0053   -0.0016
          46    0.0339   -0.0054   -0.0085   -0.0231   -0.0519    0.0529   -0.0918    0.1095
          47    0.0642    0.0099    0.0109   -0.0217    0.0220    0.1342    0.1292   -0.1071
          48   -0.0444   -0.0176   -0.0105    0.0162    0.0167   -0.0426   -0.0303    0.0506


   Root No.       9        10        11        12        13        14        15        16

                 9 A      10 A      11 A      12 A      13 A      14 A      15 A      16 A   

                 758.6     814.5     866.9     928.8     953.9     977.7    1000.8    1036.5
  
           1   -0.0399    0.0034   -0.0079   -0.0108   -0.0038   -0.0035   -0.0071   -0.0128
           2   -0.0175    0.0004   -0.0041   -0.0128   -0.0006   -0.0002   -0.0005   -0.0057
           3   -0.0132   -0.0069   -0.0053    0.0200   -0.0040   -0.0026    0.0064   -0.0001
           4    0.0580   -0.0015    0.0059    0.0078    0.0000    0.0004    0.0061    0.0163
           5   -0.0085   -0.0135   -0.0058   -0.0029   -0.0036   -0.0086    0.0036   -0.0116
           6   -0.0010    0.0382    0.0145   -0.0006    0.0059    0.0087   -0.0189    0.0195
           7   -0.0142    0.0053   -0.0090   -0.0267   -0.0183    0.0193    0.0119    0.0145
           8    0.0001   -0.0088    0.0036    0.0245   -0.0112    0.0020   -0.0047    0.0026
           9   -0.0054   -0.0024   -0.0053    0.0282   -0.0189    0.0056   -0.0160   -0.0013
          10    0.0167    0.0017    0.0032    0.0039    0.0019    0.0339    0.0021   -0.0196
          11    0.0103    0.0014   -0.0038    0.0037    0.0037    0.0113    0.0010   -0.0012
          12    0.0062    0.0100    0.0079    0.0065   -0.0051    0.0051    0.0120   -0.0127
          13    0.0160   -0.0002    0.0013    0.0015   -0.0030   -0.0225   -0.0016    0.0030
          14    0.0035    0.0051    0.0229   -0.0209   -0.0128    0.0040   -0.0144    0.0171
          15   -0.0153   -0.0082   -0.0150   -0.0204    0.0067   -0.0005    0.0047   -0.0228
          16   -0.0308   -0.0127   -0.0019    0.0016   -0.0047   -0.0173   -0.0209   -0.0311
          17    0.0090    0.0215   -0.0421   -0.0025    0.0196   -0.0078    0.0189   -0.0027
          18    0.0177   -0.0125    0.0174   -0.0224   -0.0110   -0.0156    0.0085    0.0125
          19   -0.0875    0.0064    0.0537    0.0496    0.1665    0.0207   -0.0273   -0.0391
          20   -0.0392   -0.0127    0.0353   -0.0271    0.0758    0.0298    0.0417    0.0068
          21   -0.0593   -0.0161    0.0620    0.0386    0.1564    0.0373    0.0321   -0.0039
          22    0.0324    0.1369    0.0186    0.0026    0.0670    0.0484   -0.1149    0.1850
          23    0.0226   -0.0927   -0.0696   -0.0161    0.0438    0.0100   -0.0528    0.0736
          24    0.0368   -0.0819   -0.0513   -0.0120    0.0318    0.0111   -0.0371    0.0528
          25    0.1148   -0.0654    0.0052    0.0538   -0.0398   -0.0856    0.1065    0.0198
          26   -0.0334    0.1398    0.0679    0.0384   -0.0307   -0.0635    0.0394    0.0235
          27    0.0514   -0.0604   -0.0094    0.0226   -0.0172   -0.0412    0.0493    0.0094
          28   -0.0326    0.0238    0.0029    0.0102   -0.0069   -0.0645    0.0124    0.0332
          29   -0.0501    0.1209    0.0612    0.0360   -0.0404   -0.0968    0.0636    0.0049
          30   -0.0122   -0.0131   -0.0143    0.0003    0.0032   -0.0348   -0.0012    0.0262
          31   -0.0275   -0.0071   -0.0208   -0.0010    0.0091   -0.0494   -0.0118    0.0481
          32    0.0027   -0.0972   -0.0792   -0.0232    0.0439   -0.0054   -0.0566    0.0708
          33    0.0085   -0.0859   -0.0617   -0.0192    0.0332    0.0066   -0.0422    0.0440
          34    0.0307    0.0031    0.0087    0.0706    0.0361   -0.0349   -0.0478   -0.0366
          35   -0.0141   -0.0065    0.0208   -0.1116    0.0192    0.0174    0.0737    0.0334
          36    0.0049   -0.0017    0.0179   -0.0385    0.0338   -0.0082    0.0207   -0.0007
          37   -0.0203    0.0057   -0.0141   -0.0228   -0.0302    0.0263    0.0098    0.0179
          38    0.0927   -0.0150    0.0615    0.1104    0.1354   -0.1098   -0.0577   -0.0788
          39    0.0047   -0.0015    0.0138   -0.0384    0.0263   -0.0072    0.0204    0.0003
          40    0.0376    0.0071    0.0310   -0.0552    0.0918   -0.0412    0.0212   -0.0215
          41   -0.0312   -0.0143   -0.0402    0.1654   -0.1261    0.0368   -0.0784    0.0059
          42    0.0021   -0.0002    0.0121   -0.0420    0.0246   -0.0030    0.0219    0.0028
          43   -0.0060    0.0127    0.0041    0.0062   -0.0028   -0.0116    0.0068    0.0026
          44    0.1032    0.0390    0.0524    0.0220   -0.0109    0.1871    0.0349   -0.1327
          45    0.0410   -0.0362   -0.0164   -0.0052    0.0150    0.0736   -0.0143   -0.0252
          46   -0.1119   -0.0756    0.0107    0.1562    0.0425    0.0694    0.1581    0.1451
          47   -0.0167   -0.1338    0.2374   -0.0644   -0.0506   -0.0120   -0.0528    0.0088
          48    0.0531    0.0807   -0.1216   -0.0405    0.0082   -0.0410   -0.0102   -0.0469


   Root No.      17        18        19        20        21        22        23        24

                17 A      18 A      19 A      20 A      21 A      22 A      23 A      24 A   

                1089.3    1115.3    1117.9    1121.8    1199.6    1225.3    1341.3    1362.4
  
           1   -0.0387    0.0134    0.0034    0.0032   -0.0185   -0.0220   -0.0171    0.0382
           2   -0.0250   -0.0029   -0.0283   -0.0480   -0.0103   -0.0267   -0.0018   -0.0182
           3   -0.0218    0.0178    0.0277    0.0393   -0.0410   -0.0098   -0.0048   -0.0325
           4    0.0148   -0.0117   -0.0140    0.0063    0.0004    0.0062   -0.0417   -0.0009
           5    0.0074    0.0609    0.0118   -0.0223    0.0225    0.0267   -0.0430   -0.0058
           6   -0.0085   -0.0066    0.0344   -0.0188    0.0094    0.0179   -0.0207   -0.0044
           7    0.0190   -0.0064   -0.0046   -0.0058    0.0069    0.0010    0.0012    0.0194
           8    0.0155    0.0059    0.0265    0.0438    0.0166   -0.0038    0.0020   -0.0423
           9    0.0102   -0.0086   -0.0154   -0.0228    0.0000    0.0108    0.0014    0.0002
          10   -0.0068    0.0080    0.0141   -0.0093   -0.0023   -0.0041    0.0074   -0.0014
          11   -0.0117   -0.0652   -0.0099    0.0214   -0.0077   -0.0065   -0.0171   -0.0064
          12    0.0007    0.0116   -0.0369    0.0254   -0.0025   -0.0027   -0.0038   -0.0028
          13   -0.0131   -0.0006    0.0035    0.0042    0.0341    0.0478    0.0256   -0.0075
          14    0.0053   -0.0032   -0.0041    0.0009   -0.0132   -0.0134   -0.0054    0.0130
          15    0.0205   -0.0066   -0.0090   -0.0131    0.0001   -0.0327   -0.0201    0.0255
          16    0.0200   -0.0010    0.0108    0.0175   -0.0245    0.0121    0.0225   -0.0271
          17    0.0005   -0.0004   -0.0004   -0.0040    0.0179    0.0172    0.0128    0.0038
          18   -0.0166   -0.0046   -0.0081   -0.0137    0.0481    0.0166    0.0284    0.0076
          19    0.1175   -0.0350   -0.0146   -0.0049    0.2353   -0.1652   -0.0010   -0.0089
          20    0.0641   -0.0324   -0.0499   -0.0873   -0.2084    0.2261    0.0097    0.0422
          21    0.1407   -0.0348   -0.0021   -0.0004   -0.0615    0.1176    0.0126   -0.0090
          22    0.0148    0.0960   -0.0330    0.0240   -0.0835   -0.0846   -0.0212   -0.0148
          23    0.0334    0.2314   -0.0798    0.0189   -0.0235   -0.0313    0.1187    0.0171
          24    0.0176    0.1220   -0.0471    0.0148   -0.0119   -0.0140    0.1104    0.0191
          25    0.1057   -0.0001    0.0500   -0.0882   -0.1077   -0.1615   -0.0056    0.0152
          26    0.0379    0.0332    0.1710   -0.1507   -0.0297   -0.0513    0.1635    0.0315
          27    0.0524    0.0112    0.0394   -0.0561   -0.0580   -0.0883   -0.0381    0.0003
          28    0.0133   -0.0343   -0.0445    0.0341   -0.0163   -0.0197    0.0422    0.0158
          29    0.0215   -0.0321   -0.1672    0.1214   -0.0290   -0.0351    0.1042    0.0261
          30    0.0048   -0.0333   -0.0328    0.0281   -0.0079   -0.0077   -0.0026    0.0035
          31    0.0054   -0.0559   -0.0057    0.0122   -0.0129   -0.0139    0.0191    0.0057
          32   -0.0267   -0.2033    0.0697   -0.0096   -0.0268   -0.0295    0.0853    0.0196
          33   -0.0163   -0.1064    0.0445   -0.0096   -0.0170   -0.0201    0.0784    0.0177
          34   -0.0433   -0.0133   -0.0641   -0.1034   -0.0163   -0.0149    0.0033   -0.1023
          35    0.0321    0.0345    0.1107    0.1759    0.0196   -0.0048   -0.0095    0.1160
          36   -0.0073    0.0111    0.0233    0.0354   -0.0111    0.0019   -0.0054    0.0504
          37    0.0265   -0.0107   -0.0110   -0.0153    0.0121   -0.0021    0.0033   -0.0186
          38   -0.1024    0.0343    0.0263    0.0363   -0.0346    0.0073   -0.0216    0.2242
          39   -0.0082    0.0102    0.0199    0.0299   -0.0120    0.0014   -0.0019    0.0459
          40   -0.0617    0.0129   -0.0093   -0.0220   -0.0231   -0.0370    0.0003   -0.1437
          41    0.0730   -0.0244   -0.0110   -0.0053    0.0383    0.0451   -0.0049    0.1622
          42   -0.0061    0.0050    0.0078    0.0100   -0.0085   -0.0058    0.0041   -0.0601
          43    0.0033    0.0043   -0.0094    0.0054   -0.0004    0.0011   -0.0194   -0.0078
          44   -0.0356    0.0293   -0.0044    0.0104   -0.0280   -0.0479    0.1610    0.0286
          45   -0.0184   -0.0148    0.0288   -0.0128   -0.0084   -0.0138    0.0426    0.0118
          46   -0.1237    0.0163   -0.0155   -0.0333    0.0584    0.0089    0.0034    0.0122
          47   -0.0025   -0.0117   -0.0141   -0.0142    0.0150    0.0001    0.0201   -0.0010
          48    0.0268   -0.0046    0.0062    0.0059    0.0276    0.0265    0.0354   -0.0017


   Root No.      25        26        27        28        29        30        31        32

                25 A      26 A      27 A      28 A      29 A      30 A      31 A      32 A   

                1387.2    1396.6    1400.3    1403.6    1410.0    1414.7    1466.1    2082.9
  
           1    0.0112   -0.0083    0.0015    0.0006    0.0013   -0.0056   -0.0874   -0.0595
           2    0.0005    0.0083   -0.0017   -0.0019   -0.0007    0.0034    0.0879    0.0296
           3    0.0074    0.0071   -0.0007   -0.0024    0.0006   -0.0007    0.0583    0.0417
           4    0.0710    0.0084    0.0010   -0.0038    0.0082   -0.0176    0.0250   -0.0637
           5   -0.0102   -0.0010    0.0045    0.0000    0.0112   -0.0423    0.0136   -0.0118
           6    0.0130    0.0018    0.0007   -0.0009    0.0057   -0.0171    0.0124   -0.0205
           7   -0.0082    0.0158   -0.0041   -0.0282   -0.0050    0.0027    0.0397    0.0044
           8    0.0071    0.0085   -0.0001   -0.0141    0.0003   -0.0089   -0.0766   -0.0060
           9    0.0017   -0.0303    0.0046   -0.0186   -0.0019    0.0008   -0.0059   -0.0018
          10   -0.0083   -0.0006    0.0038    0.0053   -0.0383    0.0076   -0.0033    0.0001
          11   -0.0082    0.0032    0.0051   -0.0007   -0.0109    0.0625   -0.0087   -0.0011
          12   -0.0039   -0.0046   -0.0362    0.0014   -0.0086    0.0192   -0.0034   -0.0006
          13   -0.0229   -0.0019    0.0003    0.0016   -0.0016    0.0039   -0.0050    0.2323
          14    0.0088   -0.0014    0.0000   -0.0004    0.0002    0.0003   -0.0229    0.0618
          15    0.0185   -0.0030    0.0005   -0.0003    0.0016   -0.0056   -0.0403    0.1246
          16   -0.0197    0.0029   -0.0011   -0.0003   -0.0027    0.0092    0.0420   -0.1044
          17   -0.0144   -0.0020    0.0000    0.0014   -0.0012    0.0032   -0.0100   -0.0619
          18   -0.0294   -0.0045   -0.0003    0.0022   -0.0031    0.0091   -0.0165   -0.1286
          19   -0.0012    0.0076   -0.0021   -0.0055   -0.0021    0.0040    0.0597   -0.0177
          20   -0.0084   -0.0145    0.0024    0.0032    0.0004   -0.0021   -0.1037   -0.0356
          21   -0.0056   -0.0034    0.0007   -0.0015   -0.0002   -0.0003   -0.0177    0.0334
          22   -0.2156   -0.0226    0.0039    0.0104   -0.0158   -0.0191   -0.0226   -0.0035
          23    0.0738    0.0074   -0.0055   -0.0025   -0.0143    0.0686   -0.0154    0.0106
          24    0.1466    0.0154   -0.0093   -0.0061   -0.0111    0.0765   -0.0033   -0.0092
          25   -0.1184   -0.0159   -0.0016    0.0064   -0.0157    0.0073   -0.0397   -0.0063
          26    0.1688    0.0170   -0.0098   -0.0068   -0.0151    0.1050   -0.0172    0.0087
          27   -0.1600   -0.0196    0.0011    0.0078   -0.0055   -0.0298   -0.0291    0.0202
          28    0.0031    0.0300    0.2124   -0.0256    0.1598   -0.0310    0.0084   -0.0031
          29    0.0408   -0.0040    0.0406    0.0226   -0.1263   -0.1977    0.0212   -0.0044
          30   -0.0075    0.0237    0.1421   -0.0279    0.1688    0.0476   -0.0014   -0.0008
          31   -0.0073   -0.0186   -0.1615   -0.0378    0.3027    0.0129    0.0010   -0.0016
          32    0.0251   -0.0167   -0.0718    0.0101   -0.0244   -0.1434    0.0135   -0.0015
          33    0.0245   -0.0143   -0.0451    0.0184   -0.0888   -0.1516    0.0146   -0.0018
          34    0.0137    0.1256   -0.0122    0.2398    0.0336   -0.0133   -0.1126   -0.0075
          35   -0.0027   -0.0883    0.0143    0.1333    0.0135    0.0238    0.1271    0.0082
          36    0.0038   -0.0221    0.0073    0.2324    0.0282    0.0152    0.0628    0.0044
          37    0.0034   -0.0359    0.0057   -0.0191   -0.0017    0.0018    0.0184    0.0024
          38   -0.0304   -0.0004   -0.0088   -0.1405   -0.0244    0.0145    0.0987   -0.0081
          39   -0.0340    0.3066   -0.0482    0.1289    0.0107   -0.0097   -0.0166    0.0006
          40    0.0557   -0.2474    0.0479    0.1186    0.0244    0.0041   -0.0292    0.0026
          41   -0.0131   -0.0642    0.0102    0.1853    0.0185    0.0246    0.0742   -0.0066
          42   -0.0028    0.0703   -0.0129   -0.1285   -0.0152   -0.0151   -0.0585    0.0007
          43   -0.0010   -0.0141   -0.1089    0.0058   -0.0316    0.0296   -0.0039   -0.0055
          44   -0.0403   -0.0198   -0.0653   -0.0178    0.1866   -0.1197    0.0001    0.0107
          45   -0.0135    0.0450    0.3384   -0.0046   -0.0140   -0.0118    0.0002    0.0017
          46   -0.0077   -0.0019    0.0002    0.0011   -0.0002    0.0003   -0.0116   -0.0694
          47   -0.0178   -0.0013   -0.0007    0.0005   -0.0030    0.0085    0.0021   -0.1081
          48   -0.0370   -0.0040   -0.0004    0.0025   -0.0037    0.0114   -0.0071   -0.2257


   Root No.      33        34        35        36        37        38        39        40

                33 A      34 A      35 A      36 A      37 A      38 A      39 A      40 A   

                2944.4    2972.6    3019.4    3079.0    3081.5    3083.5    3087.9    3177.9
  
           1   -0.0002    0.0281   -0.0002    0.0005   -0.0002   -0.0010    0.0000   -0.0003
           2    0.0000    0.0393   -0.0001    0.0006   -0.0002   -0.0010    0.0000    0.0003
           3   -0.0001   -0.0486   -0.0001   -0.0010    0.0003    0.0014    0.0000    0.0001
           4    0.0122    0.0002    0.0289    0.0003    0.0007    0.0001   -0.0016    0.0000
           5    0.0192    0.0001   -0.0280    0.0001    0.0003    0.0000    0.0016    0.0000
           6   -0.0540    0.0002   -0.0066   -0.0007   -0.0018   -0.0001   -0.0001    0.0000
           7    0.0000   -0.0024    0.0000   -0.0059    0.0042   -0.0453   -0.0009   -0.0095
           8    0.0000   -0.0007    0.0000   -0.0026    0.0018   -0.0213   -0.0003    0.0200
           9    0.0000    0.0030    0.0000   -0.0370    0.0148    0.0096   -0.0007   -0.0007
          10   -0.0005    0.0000   -0.0036    0.0059    0.0131    0.0015   -0.0446    0.0007
          11   -0.0007    0.0000    0.0000    0.0034    0.0094    0.0003    0.0133    0.0025
          12    0.0026    0.0000   -0.0003   -0.0135   -0.0345   -0.0018   -0.0137    0.0007
          13   -0.0004   -0.0017    0.0000   -0.0001    0.0000    0.0003    0.0003    0.0001
          14   -0.0001   -0.0001    0.0001    0.0000    0.0000   -0.0003    0.0003    0.0000
          15   -0.0004   -0.0019    0.0000   -0.0001    0.0000   -0.0001    0.0002   -0.0001
          16    0.0003    0.0014   -0.0001   -0.0001    0.0001    0.0000    0.0000    0.0001
          17    0.0002    0.0011   -0.0001    0.0002   -0.0001   -0.0001    0.0000    0.0000
          18    0.0001    0.0007    0.0001    0.0000    0.0000    0.0000    0.0000    0.0000
          19   -0.0002   -0.3356    0.0003   -0.0052    0.0018    0.0069    0.0000    0.0003
          20   -0.0001   -0.4934    0.0001   -0.0099    0.0033    0.0154    0.0000    0.0015
          21    0.0001    0.5922   -0.0001    0.0092   -0.0030   -0.0159   -0.0001   -0.0011
          22    0.1017    0.0002   -0.0631    0.0009    0.0024    0.0001    0.0026    0.0000
          23   -0.3267    0.0004    0.2597   -0.0034   -0.0094   -0.0002   -0.0173    0.0002
          24    0.3449   -0.0004   -0.3075    0.0021    0.0063    0.0001    0.0170   -0.0001
          25   -0.2446   -0.0003   -0.2796   -0.0044   -0.0101   -0.0009    0.0113   -0.0001
          26    0.0946    0.0000    0.0843    0.0027    0.0064    0.0005   -0.0048    0.0001
          27    0.3054   -0.0001    0.3888    0.0062    0.0142    0.0012   -0.0183    0.0002
          28    0.0144    0.0002    0.0113   -0.0800   -0.1971   -0.0135    0.0996    0.0201
          29   -0.0014   -0.0001   -0.0031    0.0308    0.0758    0.0051   -0.0353   -0.0058
          30   -0.0155   -0.0002   -0.0151    0.0972    0.2371    0.0171   -0.1598   -0.0248
          31   -0.0047   -0.0001    0.0002    0.0210    0.0544    0.0029    0.0196    0.0060
          32    0.0124    0.0002   -0.0056   -0.0726   -0.1915   -0.0077   -0.1682   -0.0229
          33   -0.0190   -0.0002    0.0065    0.0757    0.2007    0.0078    0.1883    0.0270
          34    0.0000    0.0149    0.0000   -0.0914    0.0335    0.1179   -0.0005   -0.1182
          35    0.0000    0.0164    0.0001   -0.1331    0.0476    0.1988   -0.0005   -0.1613
          36    0.0000   -0.0256   -0.0001    0.1501   -0.0522   -0.2641    0.0001    0.2180
          37    0.0000    0.0200   -0.0002    0.1031   -0.0595    0.4313    0.0101    0.2862
          38    0.0000    0.0054    0.0000    0.0080   -0.0045    0.0288    0.0008    0.0341
          39    0.0000    0.0037    0.0000   -0.0044   -0.0009    0.0673    0.0011    0.0395
          40    0.0000   -0.0056   -0.0001    0.0595   -0.0243   -0.0077    0.0012   -0.0533
          41   -0.0001   -0.0061   -0.0002    0.1562   -0.0647    0.0278    0.0034   -0.1149
          42   -0.0002   -0.0179   -0.0004    0.2973   -0.1244    0.0831    0.0069   -0.2489
          43   -0.0026    0.0001    0.0307   -0.0109   -0.0141   -0.0072    0.4132   -0.0351
          44    0.0001    0.0000   -0.0006    0.0006    0.0032   -0.0005    0.0436   -0.0019
          45   -0.0003    0.0001    0.0093   -0.0114   -0.0243   -0.0035    0.1350   -0.0112
          46    0.0005    0.0003    0.0000    0.0002    0.0000   -0.0002   -0.0002   -0.0003
          47    0.0005    0.0037   -0.0001    0.0005   -0.0001   -0.0003   -0.0002   -0.0003
          48    0.0014    0.0047   -0.0007    0.0007   -0.0002   -0.0007   -0.0005   -0.0008


   Root No.      41        42

                41 A      42 A   

                3182.3    3288.0
  
           1   -0.0001   -0.0035
           2    0.0000    0.0015
           3    0.0000    0.0034
           4   -0.0002   -0.0010
           5   -0.0004   -0.0002
           6   -0.0001    0.0000
           7   -0.0010   -0.0001
           8    0.0025    0.0001
           9    0.0000    0.0002
          10   -0.0044   -0.0001
          11   -0.0206   -0.0001
          12   -0.0066   -0.0001
          13    0.0001    0.0122
          14    0.0000    0.0038
          15    0.0000    0.0076
          16    0.0000   -0.0269
          17    0.0000   -0.0363
          18    0.0000   -0.0753
          19    0.0001   -0.0001
          20    0.0002    0.0017
          21   -0.0002    0.0002
          22    0.0001   -0.0002
          23   -0.0015    0.0014
          24    0.0009   -0.0013
          25    0.0009   -0.0002
          26   -0.0011    0.0000
          27   -0.0018   -0.0001
          28   -0.1744    0.0002
          29    0.0508   -0.0001
          30    0.2137   -0.0004
          31   -0.0492    0.0000
          32    0.1867   -0.0002
          33   -0.2211    0.0003
          34   -0.0143   -0.0001
          35   -0.0194    0.0003
          36    0.0263    0.0000
          37    0.0335    0.0012
          38    0.0040   -0.0001
          39    0.0047    0.0002
          40   -0.0070   -0.0004
          41   -0.0146   -0.0008
          42   -0.0316   -0.0015
          43    0.2770    0.0004
          44    0.0144    0.0002
          45    0.0882    0.0002
          46    0.0000    0.2298
          47    0.0000    0.3699
          48   -0.0001    0.7674


           MASS-WEIGHTED COORDINATE ANALYSIS (NORMAL COORDINATES)


   Root No.       1         2         3         4         5         6         7         8

                 1 A       2 A       3 A       4 A       5 A       6 A       7 A       8 A   

                  61.5     122.1     134.6     173.7     327.4     342.2     419.2     580.6
  
           1   -0.0813    0.0415    0.0348    0.0634    0.3648   -0.1120    0.0725   -0.1259
           2   -0.1039   -0.0505   -0.0370    0.0136    0.2694   -0.0222   -0.2864   -0.1634
           3   -0.1011   -0.0621   -0.0065    0.0712    0.1597    0.1122    0.3774    0.1096
           4   -0.0804   -0.0425   -0.0216    0.0187    0.1763    0.1945   -0.1198   -0.0024
           5   -0.1317   -0.0118   -0.0180    0.0537   -0.2773   -0.1074    0.0911   -0.1435
           6    0.3699    0.0671    0.0226   -0.1361    0.0809   -0.1753    0.0534   -0.0817
           7   -0.0854    0.3514    0.3711    0.0370   -0.2293   -0.0903    0.2505    0.1162
           8   -0.1071    0.0919    0.1182    0.0005   -0.0020    0.0057   -0.2356   -0.0865
           9    0.2084    0.1225    0.1113    0.0456   -0.0255   -0.1449   -0.2620   -0.0262
          10    0.1369   -0.3625   -0.3669   -0.0429   -0.3039   -0.1318    0.0764   -0.1688
          11    0.0910    0.0821    0.0964    0.0072   -0.1395   -0.0736    0.0694   -0.1990
          12   -0.3664   -0.0097   -0.1006    0.0339   -0.0717   -0.1232    0.0571   -0.1026
          13   -0.0157    0.0194    0.0109    0.0152    0.2291    0.0059   -0.0526   -0.0665
          14    0.0058   -0.1599   -0.2090    0.0144    0.0253   -0.2229    0.0224    0.7114
          15    0.0803   -0.0654    0.0086   -0.0998   -0.2177    0.5012   -0.1214    0.0335
          16    0.1255   -0.0067   -0.0230   -0.0862   -0.0559    0.1700   -0.2829    0.2260
          17    0.2630   -0.0256   -0.0406   -0.0875    0.1800    0.3467    0.3149    0.0700
          18   -0.1915   -0.0997   -0.0340    0.0574    0.0262    0.0656   -0.0346    0.1022
          19   -0.0593   -0.0109   -0.0378    0.0493    0.2092   -0.1483    0.0726    0.0143
          20   -0.0970   -0.0130   -0.0055    0.0188    0.0959   -0.0318   -0.0754   -0.0776
          21   -0.1058   -0.0301   -0.0251    0.0507    0.1220   -0.0564    0.1337    0.0288
          22   -0.1424   -0.0142    0.0324    0.0025   -0.0469    0.2918   -0.1064   -0.1017
          23    0.0762    0.0254    0.0281   -0.0058   -0.0422   -0.0593    0.0380   -0.0896
          24    0.2481    0.0464    0.0253   -0.0577    0.0874   -0.1495    0.0487   -0.0399
          25    0.0274    0.0312    0.0115    0.0159    0.1449   -0.0834    0.0072   -0.0286
          26   -0.2263    0.0056    0.0146    0.0445   -0.1258    0.0961   -0.0129   -0.1039
          27    0.2001    0.0519    0.0153   -0.0386    0.1128   -0.1985    0.0605   -0.0265
          28   -0.0038   -0.2156   -0.0464   -0.3791   -0.1298   -0.1304    0.0604   -0.1048
          29    0.2108    0.0392   -0.0407    0.1514   -0.0905   -0.0495    0.0462   -0.1080
          30   -0.1971   -0.0934    0.0394   -0.3242   -0.0367   -0.0990    0.0379   -0.0554
          31    0.1516   -0.0304   -0.2781    0.4906   -0.1793   -0.0068    0.0382   -0.1024
          32   -0.0909   -0.0111    0.0029   -0.0119   -0.0927   -0.0359    0.0344   -0.0871
          33   -0.2410   -0.0520   -0.0165   -0.1113   -0.0514   -0.0573    0.0273   -0.0479
          34   -0.0099   -0.1419    0.4139    0.1275   -0.1632   -0.0259    0.1642    0.1378
          35    0.0283   -0.0995    0.1404    0.0533    0.0261   -0.0555   -0.2258   -0.1023
          36    0.1162   -0.1913    0.2739    0.1160   -0.0337   -0.0893   -0.1628   -0.0213
          37   -0.0219    0.0433    0.1498    0.0336   -0.0542   -0.0252    0.0835    0.0323
          38   -0.0207    0.0931    0.1410    0.0012   -0.1936   -0.0130   -0.0483    0.1045
          39    0.0343    0.4452   -0.3276   -0.1572   -0.0270   -0.0473   -0.1576   -0.0297
          40   -0.0439    0.4987   -0.1618   -0.1386   -0.1762   -0.0358    0.0259    0.0880
          41   -0.1021    0.1275   -0.1421   -0.0589    0.0770    0.0737    0.0911   -0.0141
          42    0.1014   -0.0901    0.1752    0.0722   -0.0293   -0.0795   -0.1550   -0.0232
          43    0.0224   -0.1498   -0.0828   -0.1611   -0.1067   -0.0765    0.0382   -0.0720
          44    0.0091    0.0648    0.1474   -0.1438    0.1008    0.0363   -0.0331    0.0322
          45   -0.0484    0.1168   -0.1409    0.5051   -0.0177    0.0570   -0.0110   -0.0032
          46    0.0810   -0.0123   -0.0190   -0.0587   -0.1228    0.1155   -0.1912    0.2112
          47    0.1536    0.0226    0.0245   -0.0550    0.0520    0.2932    0.2690   -0.2067
          48   -0.1062   -0.0403   -0.0236    0.0410    0.0395   -0.0930   -0.0630    0.0977


   Root No.       9        10        11        12        13        14        15        16

                 9 A      10 A      11 A      12 A      13 A      14 A      15 A      16 A   

                 758.6     814.5     866.9     928.8     953.9     977.7    1000.8    1036.5
  
           1   -0.3308    0.0296   -0.0683   -0.0936   -0.0346   -0.0324   -0.0704   -0.1135
           2   -0.1454    0.0033   -0.0353   -0.1105   -0.0057   -0.0023   -0.0047   -0.0502
           3   -0.1095   -0.0596   -0.0463    0.1730   -0.0363   -0.0245    0.0638   -0.0005
           4    0.4814   -0.0129    0.0511    0.0674    0.0000    0.0035    0.0607    0.1447
           5   -0.0701   -0.1162   -0.0503   -0.0254   -0.0327   -0.0805    0.0354   -0.1029
           6   -0.0085    0.3284    0.1261   -0.0050    0.0536    0.0814   -0.1887    0.1729
           7   -0.1179    0.0453   -0.0784   -0.2305   -0.1657    0.1803    0.1190    0.1284
           8    0.0011   -0.0758    0.0313    0.2118   -0.1017    0.0184   -0.0473    0.0235
           9   -0.0450   -0.0205   -0.0458    0.2438   -0.1709    0.0521   -0.1598   -0.0115
          10    0.1385    0.0145    0.0278    0.0336    0.0169    0.3169    0.0212   -0.1742
          11    0.0852    0.0122   -0.0326    0.0319    0.0335    0.1053    0.0095   -0.0103
          12    0.0517    0.0857    0.0686    0.0561   -0.0465    0.0473    0.1201   -0.1130
          13    0.1331   -0.0020    0.0113    0.0134   -0.0272   -0.2104   -0.0164    0.0269
          14    0.0287    0.0440    0.1991   -0.1804   -0.1161    0.0374   -0.1434    0.1520
          15   -0.1268   -0.0704   -0.1304   -0.1764    0.0606   -0.0051    0.0470   -0.2026
          16   -0.2553   -0.1089   -0.0163    0.0137   -0.0425   -0.1618   -0.2087   -0.2764
          17    0.0751    0.1849   -0.3656   -0.0214    0.1777   -0.0735    0.1880   -0.0242
          18    0.1468   -0.1075    0.1511   -0.1940   -0.0999   -0.1460    0.0846    0.1108
          19   -0.2102    0.0159    0.1352    0.1243    0.4364    0.0560   -0.0789   -0.1006
          20   -0.0942   -0.0317    0.0888   -0.0679    0.1986    0.0809    0.1205    0.0174
          21   -0.1425   -0.0400    0.1562    0.0966    0.4100    0.1011    0.0928   -0.0100
          22    0.0779    0.3411    0.0467    0.0064    0.1756    0.1313   -0.3319    0.4757
          23    0.0543   -0.2309   -0.1752   -0.0404    0.1148    0.0272   -0.1525    0.1891
          24    0.0885   -0.2039   -0.1292   -0.0300    0.0832    0.0301   -0.1073    0.1358
          25    0.2760   -0.1628    0.0131    0.1346   -0.1044   -0.2322    0.3077    0.0508
          26   -0.0802    0.3484    0.1711    0.0961   -0.0804   -0.1722    0.1139    0.0604
          27    0.1236   -0.1505   -0.0237    0.0567   -0.0450   -0.1117    0.1426    0.0241
          28   -0.0784    0.0594    0.0072    0.0256   -0.0180   -0.1750    0.0357    0.0853
          29   -0.1204    0.3011    0.1541    0.0901   -0.1059   -0.2626    0.1839    0.0127
          30   -0.0293   -0.0327   -0.0360    0.0007    0.0084   -0.0944   -0.0036    0.0674
          31   -0.0662   -0.0177   -0.0524   -0.0025    0.0239   -0.1340   -0.0340    0.1237
          32    0.0064   -0.2420   -0.1994   -0.0580    0.1151   -0.0146   -0.1636    0.1820
          33    0.0205   -0.2139   -0.1554   -0.0480    0.0871    0.0179   -0.1219    0.1132
          34    0.0737    0.0076    0.0218    0.1768    0.0946   -0.0948   -0.1380   -0.0941
          35   -0.0339   -0.0163    0.0525   -0.2795    0.0503    0.0473    0.2130    0.0858
          36    0.0117   -0.0042    0.0451   -0.0963    0.0885   -0.0222    0.0599   -0.0018
          37   -0.0488    0.0142   -0.0356   -0.0572   -0.0793    0.0714    0.0282    0.0461
          38    0.2227   -0.0375    0.1548    0.2765    0.3548   -0.2977   -0.1668   -0.2027
          39    0.0113   -0.0036    0.0346   -0.0962    0.0689   -0.0194    0.0589    0.0009
          40    0.0903    0.0178    0.0780   -0.1382    0.2407   -0.1116    0.0613   -0.0553
          41   -0.0750   -0.0357   -0.1013    0.4141   -0.3305    0.0999   -0.2265    0.0152
          42    0.0052   -0.0005    0.0305   -0.1051    0.0645   -0.0080    0.0633    0.0072
          43   -0.0144    0.0315    0.0103    0.0155   -0.0072   -0.0314    0.0197    0.0068
          44    0.2481    0.0973    0.1320    0.0551   -0.0285    0.5075    0.1008   -0.3411
          45    0.0985   -0.0903   -0.0414   -0.0131    0.0394    0.1996   -0.0412   -0.0649
          46   -0.2690   -0.1883    0.0270    0.3912    0.1114    0.1882    0.4568    0.3731
          47   -0.0401   -0.3334    0.5976   -0.1613   -0.1326   -0.0324   -0.1526    0.0226
          48    0.1275    0.2010   -0.3062   -0.1015    0.0216   -0.1112   -0.0294   -0.1205


   Root No.      17        18        19        20        21        22        23        24

                17 A      18 A      19 A      20 A      21 A      22 A      23 A      24 A   

                1089.3    1115.3    1117.9    1121.8    1199.6    1225.3    1341.3    1362.4
  
           1   -0.3356    0.0914    0.0277    0.0240   -0.1334   -0.1589   -0.1327    0.2826
           2   -0.2167   -0.0198   -0.2333   -0.3566   -0.0739   -0.1930   -0.0136   -0.1346
           3   -0.1890    0.1214    0.2283    0.2921   -0.2951   -0.0705   -0.0375   -0.2407
           4    0.1285   -0.0803   -0.1152    0.0472    0.0027    0.0447   -0.3227   -0.0068
           5    0.0641    0.4164    0.0973   -0.1657    0.1621    0.1926   -0.3332   -0.0427
           6   -0.0738   -0.0453    0.2841   -0.1396    0.0675    0.1294   -0.1607   -0.0322
           7    0.1648   -0.0438   -0.0380   -0.0434    0.0501    0.0072    0.0095    0.1435
           8    0.1344    0.0403    0.2189    0.3258    0.1192   -0.0277    0.0151   -0.3133
           9    0.0882   -0.0589   -0.1271   -0.1698   -0.0003    0.0784    0.0108    0.0012
          10   -0.0593    0.0550    0.1161   -0.0691   -0.0163   -0.0298    0.0576   -0.0103
          11   -0.1018   -0.4461   -0.0817    0.1592   -0.0556   -0.0470   -0.1327   -0.0471
          12    0.0057    0.0791   -0.3049    0.1886   -0.0178   -0.0193   -0.0293   -0.0210
          13   -0.1138   -0.0041    0.0291    0.0310    0.2458    0.3454    0.1982   -0.0553
          14    0.0463   -0.0217   -0.0339    0.0069   -0.0949   -0.0965   -0.0417    0.0960
          15    0.1778   -0.0452   -0.0746   -0.0976    0.0009   -0.2362   -0.1560    0.1883
          16    0.1734   -0.0068    0.0891    0.1298   -0.1764    0.0876    0.1742   -0.2002
          17    0.0048   -0.0029   -0.0029   -0.0294    0.1287    0.1239    0.0990    0.0278
          18   -0.1443   -0.0315   -0.0667   -0.1018    0.3468    0.1197    0.2196    0.0560
          19    0.2951   -0.0693   -0.0349   -0.0105    0.4910   -0.3455   -0.0023   -0.0191
          20    0.1608   -0.0641   -0.1193   -0.1881   -0.4348    0.4730    0.0217    0.0904
          21    0.3533   -0.0690   -0.0050   -0.0009   -0.1284    0.2461    0.0284   -0.0193
          22    0.0371    0.1902   -0.0788    0.0516   -0.1743   -0.1770   -0.0476   -0.0318
          23    0.0838    0.4585   -0.1908    0.0408   -0.0491   -0.0655    0.2664    0.0366
          24    0.0443    0.2418   -0.1126    0.0319   -0.0249   -0.0294    0.2476    0.0409
          25    0.2654   -0.0002    0.1195   -0.1900   -0.2248   -0.3379   -0.0125    0.0325
          26    0.0952    0.0658    0.4089   -0.3245   -0.0619   -0.1074    0.3668    0.0676
          27    0.1315    0.0223    0.0941   -0.1208   -0.1211   -0.1848   -0.0855    0.0007
          28    0.0334   -0.0680   -0.1064    0.0735   -0.0339   -0.0412    0.0947    0.0339
          29    0.0539   -0.0636   -0.3996    0.2614   -0.0606   -0.0734    0.2336    0.0559
          30    0.0120   -0.0659   -0.0783    0.0605   -0.0164   -0.0162   -0.0058    0.0075
          31    0.0136   -0.1107   -0.0137    0.0263   -0.0270   -0.0290    0.0429    0.0123
          32   -0.0670   -0.4029    0.1666   -0.0207   -0.0559   -0.0618    0.1914    0.0420
          33   -0.0409   -0.2108    0.1063   -0.0207   -0.0354   -0.0421    0.1759    0.0379
          34   -0.1088   -0.0264   -0.1532   -0.2228   -0.0340   -0.0313    0.0075   -0.2193
          35    0.0805    0.0683    0.2646    0.3789    0.0409   -0.0101   -0.0213    0.2488
          36   -0.0183    0.0221    0.0557    0.0763   -0.0232    0.0041   -0.0121    0.1081
          37    0.0666   -0.0211   -0.0263   -0.0329    0.0252   -0.0043    0.0074   -0.0399
          38   -0.2571    0.0679    0.0628    0.0781   -0.0721    0.0152   -0.0485    0.4807
          39   -0.0205    0.0203    0.0477    0.0643   -0.0250    0.0030   -0.0043    0.0985
          40   -0.1549    0.0256   -0.0222   -0.0475   -0.0481   -0.0773    0.0006   -0.3080
          41    0.1834   -0.0484   -0.0263   -0.0114    0.0800    0.0944   -0.0110    0.3476
          42   -0.0153    0.0100    0.0186    0.0214   -0.0178   -0.0122    0.0092   -0.1288
          43    0.0083    0.0085   -0.0225    0.0117   -0.0008    0.0022   -0.0435   -0.0167
          44   -0.0893    0.0580   -0.0105    0.0224   -0.0584   -0.1003    0.3611    0.0614
          45   -0.0462   -0.0293    0.0689   -0.0276   -0.0176   -0.0290    0.0957    0.0253
          46   -0.3105    0.0324   -0.0371   -0.0718    0.1218    0.0186    0.0076    0.0261
          47   -0.0063   -0.0231   -0.0336   -0.0305    0.0314    0.0003    0.0452   -0.0022
          48    0.0674   -0.0091    0.0147    0.0128    0.0577    0.0554    0.0793   -0.0037


   Root No.      25        26        27        28        29        30        31        32

                25 A      26 A      27 A      28 A      29 A      30 A      31 A      32 A   

                1387.2    1396.6    1400.3    1403.6    1410.0    1414.7    1466.1    2082.9
  
           1    0.0772   -0.0619    0.0101    0.0040    0.0092   -0.0418   -0.4503   -0.1709
           2    0.0037    0.0616   -0.0115   -0.0130   -0.0049    0.0259    0.4528    0.0849
           3    0.0507    0.0531   -0.0047   -0.0167    0.0045   -0.0055    0.3005    0.1198
           4    0.4890    0.0626    0.0069   -0.0262    0.0581   -0.1325    0.1288   -0.1829
           5   -0.0704   -0.0078    0.0310    0.0001    0.0802   -0.3181    0.0701   -0.0340
           6    0.0896    0.0137    0.0050   -0.0063    0.0405   -0.1284    0.0640   -0.0589
           7   -0.0564    0.1176   -0.0280   -0.1935   -0.0355    0.0203    0.2047    0.0127
           8    0.0492    0.0632   -0.0004   -0.0970    0.0024   -0.0666   -0.3948   -0.0172
           9    0.0116   -0.2256    0.0316   -0.1280   -0.0139    0.0059   -0.0304   -0.0052
          10   -0.0572   -0.0047    0.0262    0.0367   -0.2729    0.0573   -0.0168    0.0003
          11   -0.0566    0.0237    0.0352   -0.0050   -0.0775    0.4699   -0.0449   -0.0031
          12   -0.0271   -0.0341   -0.2482    0.0099   -0.0616    0.1441   -0.0176   -0.0017
          13   -0.1576   -0.0143    0.0018    0.0112   -0.0111    0.0296   -0.0258    0.6667
          14    0.0606   -0.0101    0.0001   -0.0028    0.0011    0.0019   -0.1182    0.1773
          15    0.1274   -0.0220    0.0031   -0.0018    0.0114   -0.0421   -0.2075    0.3577
          16   -0.1357    0.0213   -0.0077   -0.0018   -0.0192    0.0692    0.2165   -0.2995
          17   -0.0995   -0.0151   -0.0001    0.0095   -0.0082    0.0244   -0.0516   -0.1776
          18   -0.2027   -0.0331   -0.0018    0.0152   -0.0223    0.0685   -0.0848   -0.3691
          19   -0.0023    0.0164   -0.0041   -0.0109   -0.0043    0.0087    0.0891   -0.0147
          20   -0.0168   -0.0313    0.0047    0.0064    0.0009   -0.0046   -0.1548   -0.0296
          21   -0.0112   -0.0073    0.0015   -0.0030   -0.0004   -0.0005   -0.0264    0.0277
          22   -0.4302   -0.0487    0.0078    0.0207   -0.0326   -0.0417   -0.0337   -0.0029
          23    0.1473    0.0159   -0.0109   -0.0050   -0.0295    0.1493   -0.0230    0.0088
          24    0.2925    0.0331   -0.0184   -0.0121   -0.0230    0.1665   -0.0049   -0.0077
          25   -0.2363   -0.0342   -0.0032    0.0127   -0.0324    0.0158   -0.0592   -0.0052
          26    0.3368    0.0366   -0.0195   -0.0135   -0.0312    0.2286   -0.0257    0.0073
          27   -0.3192   -0.0422    0.0022    0.0155   -0.0113   -0.0649   -0.0434    0.0168
          28    0.0062    0.0646    0.4220   -0.0510    0.3301   -0.0674    0.0125   -0.0026
          29    0.0814   -0.0087    0.0806    0.0451   -0.2609   -0.4303    0.0316   -0.0037
          30   -0.0150    0.0510    0.2823   -0.0555    0.3487    0.1035   -0.0020   -0.0006
          31   -0.0146   -0.0402   -0.3209   -0.0753    0.6254    0.0281    0.0015   -0.0014
          32    0.0500   -0.0361   -0.1426    0.0200   -0.0503   -0.3121    0.0202   -0.0013
          33    0.0489   -0.0309   -0.0897    0.0366   -0.1835   -0.3299    0.0218   -0.0015
          34    0.0273    0.2706   -0.0243    0.4775    0.0695   -0.0289   -0.1680   -0.0063
          35   -0.0055   -0.1902    0.0285    0.2655    0.0279    0.0517    0.1897    0.0068
          36    0.0075   -0.0476    0.0146    0.4627    0.0582    0.0330    0.0938    0.0037
          37    0.0067   -0.0774    0.0112   -0.0380   -0.0036    0.0039    0.0274    0.0020
          38   -0.0607   -0.0008   -0.0175   -0.2798   -0.0503    0.0315    0.1473   -0.0068
          39   -0.0679    0.6605   -0.0958    0.2566    0.0222   -0.0211   -0.0248    0.0005
          40    0.1111   -0.5330    0.0951    0.2362    0.0504    0.0089   -0.0435    0.0021
          41   -0.0261   -0.1384    0.0203    0.3690    0.0382    0.0535    0.1107   -0.0055
          42   -0.0056    0.1514   -0.0256   -0.2559   -0.0314   -0.0328   -0.0873    0.0006
          43   -0.0021   -0.0304   -0.2162    0.0115   -0.0653    0.0645   -0.0059   -0.0046
          44   -0.0805   -0.0427   -0.1297   -0.0354    0.3856   -0.2606    0.0001    0.0089
          45   -0.0270    0.0970    0.6722   -0.0092   -0.0289   -0.0257    0.0004    0.0014
          46   -0.0154   -0.0041    0.0003    0.0023   -0.0005    0.0008   -0.0174   -0.0577
          47   -0.0355   -0.0028   -0.0014    0.0010   -0.0061    0.0184    0.0031   -0.0899
          48   -0.0739   -0.0085   -0.0009    0.0051   -0.0075    0.0248   -0.0106   -0.1876


   Root No.      33        34        35        36        37        38        39        40

                33 A      34 A      35 A      36 A      37 A      38 A      39 A      40 A   

                2944.4    2972.6    3019.4    3079.0    3081.5    3083.5    3087.9    3177.9
  
           1   -0.0008    0.1110   -0.0009    0.0039   -0.0014   -0.0058    0.0000   -0.0018
           2    0.0002    0.1551   -0.0003    0.0041   -0.0013   -0.0058    0.0001    0.0018
           3   -0.0005   -0.1919   -0.0004   -0.0071    0.0023    0.0081    0.0001    0.0010
           4    0.0633    0.0006    0.1534    0.0025    0.0051    0.0003   -0.0096    0.0001
           5    0.0997    0.0005   -0.1486    0.0006    0.0021   -0.0002    0.0100    0.0003
           6   -0.2810    0.0006   -0.0348   -0.0053   -0.0130   -0.0007   -0.0004    0.0001
           7    0.0001   -0.0093    0.0001   -0.0431    0.0299   -0.2627   -0.0054   -0.0642
           8    0.0000   -0.0029    0.0000   -0.0187    0.0128   -0.1237   -0.0019    0.1353
           9    0.0001    0.0116    0.0002   -0.2702    0.1062    0.0558   -0.0041   -0.0045
          10   -0.0027    0.0000   -0.0188    0.0429    0.0940    0.0088   -0.2717    0.0049
          11   -0.0038    0.0000    0.0002    0.0252    0.0675    0.0015    0.0811    0.0169
          12    0.0136    0.0001   -0.0015   -0.0985   -0.2474   -0.0104   -0.0835    0.0050
          13   -0.0023   -0.0066    0.0002   -0.0007   -0.0001    0.0018    0.0020    0.0004
          14   -0.0007   -0.0004    0.0003   -0.0001   -0.0002   -0.0015    0.0020   -0.0002
          15   -0.0018   -0.0073    0.0002   -0.0004   -0.0003   -0.0003    0.0013   -0.0004
          16    0.0017    0.0056   -0.0003   -0.0010    0.0005    0.0001   -0.0001    0.0006
          17    0.0010    0.0045   -0.0005    0.0013   -0.0004   -0.0006   -0.0001    0.0001
          18    0.0003    0.0026    0.0004    0.0003   -0.0001   -0.0002   -0.0002    0.0001
          19   -0.0003   -0.3837    0.0004   -0.0110    0.0037    0.0115   -0.0001    0.0007
          20   -0.0002   -0.5641    0.0002   -0.0210    0.0069    0.0259    0.0000    0.0029
          21    0.0002    0.6770   -0.0002    0.0193   -0.0062   -0.0267   -0.0001   -0.0022
          22    0.1533    0.0002   -0.0969    0.0019    0.0050    0.0001    0.0047    0.0000
          23   -0.4924    0.0004    0.3989   -0.0071   -0.0195   -0.0004   -0.0306    0.0004
          24    0.5199   -0.0005   -0.4722    0.0045    0.0130    0.0001    0.0300   -0.0002
          25   -0.3688   -0.0003   -0.4295   -0.0093   -0.0210   -0.0015    0.0200   -0.0002
          26    0.1427    0.0000    0.1295    0.0057    0.0133    0.0008   -0.0084    0.0003
          27    0.4604   -0.0002    0.5972    0.0131    0.0294    0.0021   -0.0323    0.0005
          28    0.0217    0.0002    0.0173   -0.1689   -0.4089   -0.0227    0.1758    0.0394
          29   -0.0022   -0.0001   -0.0048    0.0650    0.1574    0.0086   -0.0624   -0.0114
          30   -0.0234   -0.0002   -0.0232    0.2055    0.4921    0.0287   -0.2820   -0.0487
          31   -0.0071   -0.0001    0.0003    0.0443    0.1129    0.0048    0.0345    0.0117
          32    0.0187    0.0002   -0.0086   -0.1533   -0.3975   -0.0129   -0.2968   -0.0449
          33   -0.0286   -0.0002    0.0100    0.1600    0.4165    0.0131    0.3323    0.0530
          34    0.0000    0.0171    0.0000   -0.1931    0.0695    0.1979   -0.0009   -0.2319
          35    0.0000    0.0188    0.0001   -0.2812    0.0987    0.3338   -0.0008   -0.3165
          36    0.0000   -0.0292   -0.0001    0.3172   -0.1083   -0.4435    0.0002    0.4278
          37   -0.0001    0.0228   -0.0002    0.2179   -0.1236    0.7243    0.0179    0.5615
          38   -0.0001    0.0062    0.0000    0.0169   -0.0093    0.0483    0.0014    0.0669
          39    0.0000    0.0042    0.0000   -0.0093   -0.0018    0.1130    0.0020    0.0775
          40    0.0000   -0.0064   -0.0001    0.1258   -0.0505   -0.0130    0.0021   -0.1046
          41   -0.0001   -0.0070   -0.0003    0.3301   -0.1343    0.0467    0.0060   -0.2254
          42   -0.0003   -0.0204   -0.0007    0.6281   -0.2581    0.1396    0.0122   -0.4884
          43   -0.0039    0.0001    0.0472   -0.0231   -0.0293   -0.0121    0.7293   -0.0688
          44    0.0001    0.0000   -0.0009    0.0013    0.0065   -0.0009    0.0769   -0.0037
          45   -0.0004    0.0001    0.0142   -0.0240   -0.0504   -0.0059    0.2382   -0.0221
          46    0.0008    0.0004   -0.0001    0.0003    0.0000   -0.0003   -0.0003   -0.0006
          47    0.0007    0.0042   -0.0002    0.0010   -0.0003   -0.0005   -0.0004   -0.0007
          48    0.0021    0.0054   -0.0010    0.0015   -0.0004   -0.0011   -0.0009   -0.0016


   Root No.      41        42

                41 A      42 A   

                3182.3    3288.0
  
           1   -0.0004   -0.0130
           2    0.0002    0.0055
           3    0.0001    0.0127
           4   -0.0016   -0.0036
           5   -0.0024   -0.0007
           6   -0.0009   -0.0001
           7   -0.0070   -0.0003
           8    0.0167    0.0003
[...]
 TRAVEL      0.0904        C  1 --  C  6          +10.3% ( 47.3%)    20.8%
 RED. MASS   0.9338        C  1 --  C  5           +9.2% ( 44.7%)     1.6%
 EFF. MASS   7.3571

 VIBRATION   21   21A       ATOM PAIR        ENERGY CONTRIBUTION    RADIAL
 FREQ.      1199.56        C  1 --  H  7          +27.3% ( 69.6%)     1.4%
 T-DIPOLE    0.2084        C  1 --  C  6          +18.7% ( 57.5%)    90.1%
 TRAVEL      0.1007        C  5 --  C  6          +12.5% ( 47.0%)     0.0%
 RED. MASS   0.7654        C  1 --  C  5           +8.8% ( 39.4%)    34.9%
 EFF. MASS   5.5430

 VIBRATION   22   22A       ATOM PAIR        ENERGY CONTRIBUTION    RADIAL
 FREQ.      1225.33        C  1 --  H  7          +27.1% ( 65.2%)     1.8%
 T-DIPOLE    0.1966        C  1 --  C  5          +13.9% ( 46.7%)    90.9%
 TRAVEL      0.1090        C  2 --  H  9          +11.7% ( 42.9%)     1.7%
 RED. MASS   0.7099        C  5 --  C  6          +11.7% ( 42.8%)     6.4%
 EFF. MASS   4.6331        C  2 --  C  5          +11.3% ( 42.2%)     7.2%

 VIBRATION   23   23A       ATOM PAIR        ENERGY CONTRIBUTION    RADIAL
 FREQ.      1341.26        C  2 --  H  9          +17.1% ( 54.9%)     0.1%
 T-DIPOLE    0.1388        C  2 --  H  8          +16.7% ( 54.4%)     0.4%
 TRAVEL      0.0952        C  2 --  C  5          +14.6% ( 50.9%)    80.2%
 RED. MASS   0.9202        C  2 --  C  4           +9.0% ( 39.8%)    42.6%
 EFF. MASS   5.5429

 VIBRATION   24   24A       ATOM PAIR        ENERGY CONTRIBUTION    RADIAL
 FREQ.      1362.36        C  3 --  H 13          +17.5% ( 52.6%)     2.2%
 T-DIPOLE    0.1161        C  3 --  H 14          +17.0% ( 51.8%)     2.1%
 TRAVEL      0.1031        C  1 --  C  5          +12.5% ( 44.5%)    62.1%
 RED. MASS   0.6409        C  1 --  C  6          +12.5% ( 44.4%)    67.5%
 EFF. MASS   4.6584        C  3 --  H 12          +12.0% ( 43.5%)     3.1%
                           C  1 --  C  3          +10.7% ( 41.2%)    10.0%

 VIBRATION   25   25A       ATOM PAIR        ENERGY CONTRIBUTION    RADIAL
 FREQ.      1387.23        C  2 --  H  8          +24.6% ( 62.8%)     3.9%
 T-DIPOLE    0.0597        C  2 --  H  9          +23.3% ( 61.1%)     5.2%
 TRAVEL      0.0969        C  2 --  C  5          +15.6% ( 49.9%)    79.4%
 RED. MASS   1.0078        C  2 --  C  4          +11.7% ( 43.2%)     4.4%
 EFF. MASS   5.1754

 VIBRATION   26   26A       ATOM PAIR        ENERGY CONTRIBUTION    RADIAL
 FREQ.      1396.64        C  3 --  H 13          +42.0% ( 58.3%)     0.7%
 T-DIPOLE    0.0735        C  3 --  H 14          +31.4% ( 50.4%)     2.8%
 TRAVEL      0.1633        C  3 --  H 12          +11.1% ( 29.9%)    40.9%
 RED. MASS   0.3755        C  1 --  C  3           +6.5% ( 22.9%)     4.8%
 EFF. MASS   1.8107

 VIBRATION   27   27A       ATOM PAIR        ENERGY CONTRIBUTION    RADIAL
 FREQ.      1400.33        C  4 --  H 15          +51.3% ( 62.2%)     0.2%
 T-DIPOLE    0.0406        C  4 --  H 10          +26.7% ( 44.9%)     7.1%
 TRAVEL      0.1745        C  4 --  H 11          +14.0% ( 32.4%)    18.4%
 RED. MASS   0.4042        C  2 --  C  4           +5.1% ( 19.7%)     9.0%
 EFF. MASS   1.5812

 VIBRATION   28   28A       ATOM PAIR        ENERGY CONTRIBUTION    RADIAL
 FREQ.      1403.58        C  3 --  H 12          +51.0% ( 61.8%)     0.1%
 T-DIPOLE    0.0239        C  3 --  H 14          +26.2% ( 44.2%)     7.1%
 TRAVEL      0.1747        C  3 --  H 13          +15.2% ( 33.7%)    18.4%
 RED. MASS   0.4012        C  1 --  C  3           +4.9% ( 19.2%)     0.0%
 EFF. MASS   1.5747

 VIBRATION   29   29A       ATOM PAIR        ENERGY CONTRIBUTION    RADIAL
 FREQ.      1409.99        C  4 --  H 11          +40.9% ( 58.3%)     0.1%
 T-DIPOLE    0.0967        C  4 --  H 10          +29.7% ( 49.7%)     1.5%
 TRAVEL      0.1578        C  4 --  H 15          +15.8% ( 36.2%)    25.0%
 RED. MASS   0.3848        C  2 --  C  4           +8.1% ( 25.9%)    38.4%
 EFF. MASS   1.9200

 VIBRATION   30   30A       ATOM PAIR        ENERGY CONTRIBUTION    RADIAL
 FREQ.      1414.74        C  2 --  C  4          +20.5% ( 57.1%)    99.7%
 T-DIPOLE    0.0497        C  4 --  H 11          +20.0% ( 56.4%)     4.1%
 TRAVEL      0.0966        C  4 --  H 10          +19.7% ( 56.1%)     3.4%
 RED. MASS   1.0367        C  4 --  H 15          +13.7% ( 46.7%)     2.7%
 EFF. MASS   5.1054

 VIBRATION   31   31A       ATOM PAIR        ENERGY CONTRIBUTION    RADIAL
 FREQ.      1466.06        C  1 --  C  3          +24.4% ( 80.4%)    86.5%
 T-DIPOLE    0.4300        C  1 --  C  6          +17.5% ( 68.1%)    68.3%
 TRAVEL      0.0674        C  1 --  C  5          +16.2% ( 65.6%)    49.2%
 RED. MASS   3.5475        C  1 --  H  7          +16.1% ( 65.3%)     0.8%
 EFF. MASS  10.1325

 VIBRATION   32   32A       ATOM PAIR        ENERGY CONTRIBUTION    RADIAL
 FREQ.      2082.86        C  5 --  C  6          +39.0% ( 92.9%)    98.7%
 T-DIPOLE    0.4390        C  2 --  C  5          +21.2% ( 68.4%)    96.3%
 TRAVEL      0.0523        C  1 --  C  5          +20.9% ( 68.0%)    68.3%
 RED. MASS   5.2273        C  1 --  C  6           +9.1% ( 44.9%)    69.6%
 EFF. MASS  11.8416

 VIBRATION   33   33A       ATOM PAIR        ENERGY CONTRIBUTION    RADIAL
 FREQ.      2944.42        C  2 --  H  8          +57.0% ( 78.4%)    97.3%
 T-DIPOLE    0.0390        C  2 --  H  9          +40.4% ( 66.0%)    95.4%
 TRAVEL      0.1218        C  2 --  C  4           +1.1% ( 11.1%)     0.1%
 RED. MASS   0.5303        C  2 --  C  5           +1.1% ( 11.0%)     0.0%
 EFF. MASS   1.5431

 VIBRATION   34   34A       ATOM PAIR        ENERGY CONTRIBUTION    RADIAL
 FREQ.      2972.59        C  1 --  H  7          +96.5% ( 99.9%)   100.0%
 T-DIPOLE    0.0379        C  1 --  C  3           +1.1% ( 10.5%)    10.9%
 TRAVEL      0.1255        C  1 --  C  5           +1.1% ( 10.5%)    28.3%
 RED. MASS   0.9245        C  1 --  C  6           +1.1% ( 10.5%)    27.7%
 EFF. MASS   1.4402

 VIBRATION   35   35A       ATOM PAIR        ENERGY CONTRIBUTION    RADIAL
 FREQ.      3019.45        C  2 --  H  9          +58.3% ( 75.3%)    98.5%
 T-DIPOLE    0.0645        C  2 --  H  8          +40.0% ( 62.4%)    96.3%
 TRAVEL      0.1321        C  2 --  C  4           +0.7% (  8.0%)    27.3%
 RED. MASS   0.4945        C  2 --  C  5           +0.6% (  7.9%)    29.4%
 EFF. MASS   1.2800

 VIBRATION   36   36A       ATOM PAIR        ENERGY CONTRIBUTION    RADIAL
 FREQ.      3078.98        C  3 --  H 14          +55.5% ( 76.9%)    98.7%
 T-DIPOLE    0.0295        C  3 --  H 12          +23.8% ( 50.3%)    91.8%
 TRAVEL      0.1206        C  4 --  H 10           +8.0% ( 29.3%)    98.0%
 RED. MASS   0.3995        C  3 --  H 13           +5.8% ( 24.8%)    63.4%
 EFF. MASS   1.5050

 VIBRATION   37   37A       ATOM PAIR        ENERGY CONTRIBUTION    RADIAL
 FREQ.      3081.45        C  4 --  H 10          +46.6% ( 70.4%)    97.7%
 T-DIPOLE    0.0249        C  4 --  H 11          +37.3% ( 63.0%)    96.2%
 TRAVEL      0.1207        C  3 --  H 14           +9.3% ( 31.5%)    98.9%
 RED. MASS   0.3867        C  3 --  H 12           +2.9% ( 17.6%)    87.8%
 EFF. MASS   1.5023

 VIBRATION   38   38A       ATOM PAIR        ENERGY CONTRIBUTION    RADIAL
 FREQ.      3083.53        C  3 --  H 13          +58.0% ( 78.5%)    98.2%
 T-DIPOLE    0.0223        C  3 --  H 12          +37.6% ( 63.3%)    94.9%
 TRAVEL      0.1205        C  3 --  H 14           +3.1% ( 18.1%)    37.5%
 RED. MASS   0.5074        C  1 --  C  3           +1.0% ( 10.4%)     0.0%
 EFF. MASS   1.5069

 VIBRATION   39   39A       ATOM PAIR        ENERGY CONTRIBUTION    RADIAL
 FREQ.      3087.87        C  4 --  H 15          +63.9% ( 82.4%)    98.8%
 T-DIPOLE    0.0152        C  4 --  H 11          +21.9% ( 48.3%)    88.6%
 TRAVEL      0.1204        C  4 --  H 10          +12.8% ( 37.0%)    79.4%
 RED. MASS   0.5012        C  2 --  C  4           +1.0% ( 10.4%)     0.0%
 EFF. MASS   1.5065

 VIBRATION   40   40A       ATOM PAIR        ENERGY CONTRIBUTION    RADIAL
 FREQ.      3177.89        C  3 --  H 12          +34.5% ( 56.5%)    97.3%
 T-DIPOLE    0.0343        C  3 --  H 13          +33.3% ( 55.5%)    97.2%
 TRAVEL      0.1366        C  3 --  H 14          +30.4% ( 53.1%)    96.7%
 RED. MASS   0.3184        C  4 --  H 15           +0.5% (  7.1%)    97.6%
 EFF. MASS   1.1369

 VIBRATION   41   41A       ATOM PAIR        ENERGY CONTRIBUTION    RADIAL
 FREQ.      3182.26        C  4 --  H 11          +34.0% ( 56.1%)    97.3%
 T-DIPOLE    0.0301        C  4 --  H 15          +33.5% ( 55.7%)    97.2%
 TRAVEL      0.1366        C  4 --  H 10          +30.8% ( 53.4%)    96.8%
 RED. MASS   0.3181        C  3 --  H 12           +0.5% (  6.8%)    97.3%
 EFF. MASS   1.1355

 VIBRATION   42   42A       ATOM PAIR        ENERGY CONTRIBUTION    RADIAL
 FREQ.      3288.01        C  6 --  H 16          +94.2% ( 99.7%)   100.0%
 T-DIPOLE    0.6969        C  5 --  C  6           +3.1% ( 18.0%)    87.7%
 TRAVEL      0.1083        C  1 --  C  6           +2.6% ( 16.5%)    66.7%
 RED. MASS   0.9339
 EFF. MASS   1.7471

 SYMMETRY NUMBER FOR POINT-GROUP C1  =  1


          SYSTEM IS A GROUND STATE


    NULL



          MOLECULE IS NOT LINEAR

          THERE ARE 42 GENUINE VIBRATIONS IN THIS SYSTEM
          THIS THERMODYNAMICS CALCULATION IS LIMITED TO
          MOLECULES WHICH HAVE NO INTERNAL ROTATIONS




                    CALCULATED THERMODYNAMIC PROPERTIES
                                          *
   TEMP. (K)   PARTITION FUNCTION   H.O.F.    ENTHALPY  HEAT CAPACITY ENTROPY
                                   KCAL/MOL   CAL/MOLE    CAL/K/MOL  CAL/K/MOL


 298.00  VIB.     0.7085D+02                  2896.6080    19.7558    18.1869
         ROT.     0.1578D+06                   888.2813     2.9808    26.7658
         INT.     0.1118D+08                  3784.8893    22.7366    44.9526
         TRA.     0.7198D+27                  1480.4688     4.9680    39.1295
         TOT.                       44.962    5265.3582    27.7046    84.0821

 200.00  VIB.     0.1416D+02                  1316.5049    12.7783    11.8494
         ROT.     0.8676D+05                   596.1620     2.9808    25.5771
         INT.     0.1228D+07                  1912.6668    15.7591    37.4265
         TRA.     0.3957D+27                   993.6033     4.9680    37.1484
         TOT.                       42.603    2906.2701    20.7271    74.5749

 210.00  VIB.     0.1671D+02                  1447.3971    13.4038    12.4879
         ROT.     0.9335D+05                   625.9700     2.9808    25.7225
         INT.     0.1559D+07                  2073.3671    16.3846    38.2105
         TRA.     0.4258D+27                  1043.2834     4.9680    37.3907
         TOT.                       42.813    3116.6505    21.3526    75.6012

 220.00  VIB.     0.1970D+02                  1584.6534    14.0512    13.1263
         ROT.     0.1001D+06                   655.7781     2.9808    25.8612
         INT.     0.1972D+07                  2240.4315    17.0320    38.9875
         TRA.     0.4566D+27                  1092.9636     4.9680    37.6219
         TOT.                       43.030    3333.3951    22.0000    76.6094

 230.00  VIB.     0.2323D+02                  1728.4936    14.7205    13.7656
         ROT.     0.1070D+06                   685.5862     2.9808    25.9937
         INT.     0.2485D+07                  2414.0799    17.7013    39.7593
         TRA.     0.4880D+27                  1142.6437     4.9680    37.8427
         TOT.                       43.253    3556.7236    22.6693    77.6020

 240.00  VIB.     0.2737D+02                  1879.1349    15.4112    14.4066
         ROT.     0.1140D+06                   715.3943     2.9808    26.1206
         INT.     0.3122D+07                  2594.5293    18.3920    40.5272
         TRA.     0.5202D+27                  1192.3239     4.9680    38.0541
         TOT.                       43.483    3786.8532    23.3600    78.5813

 250.00  VIB.     0.3226D+02                  2036.7851    16.1221    15.0501
         ROT.     0.1212D+06                   745.2024     2.9808    26.2422
         INT.     0.3911D+07                  2781.9875    19.1029    41.2923
         TRA.     0.5531D+27                  1242.0041     4.9680    38.2569
         TOT.                       43.720    4023.9916    24.0709    79.5493

 260.00  VIB.     0.3800D+02                  2201.6379    16.8514    15.6966
         ROT.     0.1286D+06                   775.0105     2.9808    26.3591
         INT.     0.4887D+07                  2976.6484    19.8322    42.0557
         TRA.     0.5866D+27                  1291.6842     4.9680    38.4518
         TOT.                       43.965    4268.3326    24.8003    80.5075

 270.00  VIB.     0.4477D+02                  2373.8692    17.5974    16.3465
         ROT.     0.1361D+06                   804.8186     2.9808    26.4716
         INT.     0.6092D+07                  3178.6878    20.5782    42.8181
         TRA.     0.6208D+27                  1341.3644     4.9680    38.6393
         TOT.                       44.216    4520.0522    25.5462    81.4574

 280.00  VIB.     0.5274D+02                  2553.6344    18.3579    17.0002
         ROT.     0.1437D+06                   834.6267     2.9808    26.5801
         INT.     0.7580D+07                  3388.2612    21.3387    43.5802
         TRA.     0.6556D+27                  1391.0445     4.9680    38.8200
         TOT.                       44.476    4779.3057    26.3067    82.4002

 290.00  VIB.     0.6214D+02                  2741.0668    19.1305    17.6578
         ROT.     0.1515D+06                   864.4348     2.9808    26.6847
         INT.     0.9413D+07                  3605.5017    22.1113    44.3425
         TRA.     0.6910D+27                  1440.7247     4.9680    38.9943
         TOT.                       44.743    5046.2264    27.0793    83.3368

 300.00  VIB.     0.7322D+02                  2936.2767    19.9130    18.3195
         ROT.     0.1594D+06                   894.2429     2.9808    26.7857
         INT.     0.1167D+08                  3830.5196    22.8938    45.1052
         TRA.     0.7270D+27                  1490.4049     4.9680    39.1627
         TOT.                       45.017    5320.9245    27.8618    84.2680

 310.00  VIB.     0.8629D+02                  3139.3512    20.7030    18.9853
         ROT.     0.1674D+06                   924.0510     2.9808    26.8834
         INT.     0.1445D+08                  4063.4022    23.6838    45.8688
         TRA.     0.7637D+27                  1540.0850     4.9680    39.3256
         TOT.                       45.300    5603.4873    28.6518    85.1944

 320.00  VIB.     0.1017D+03                  3350.3549    21.4984    19.6552
         ROT.     0.1756D+06                   953.8591     2.9808    26.9781
         INT.     0.1786D+08                  4304.2141    24.4792    46.6333
         TRA.     0.8009D+27                  1589.7652     4.9680    39.4834
         TOT.                       45.590    5893.9793    29.4473    86.1166

 330.00  VIB.     0.1199D+03                  3569.3305    22.2971    20.3289
         ROT.     0.1839D+06                   983.6672     2.9808    27.0698
         INT.     0.2206D+08                  4552.9978    25.2779    47.3988
         TRA.     0.8388D+27                  1639.4454     4.9680    39.6362
         TOT.                       45.889    6192.4431    30.2459    87.0350

 340.00  VIB.     0.1415D+03                  3796.3001    23.0969    21.0065
         ROT.     0.1923D+06                  1013.4753     2.9808    27.1588
         INT.     0.2721D+08                  4809.7754    26.0777    48.1653
         TRA.     0.8772D+27                  1689.1255     4.9680    39.7845
         TOT.                       46.195    6498.9009    31.0457    87.9498

 350.00  VIB.     0.1669D+03                  4031.2664    23.8961    21.6875
         ROT.     0.2008D+06                  1043.2834     2.9808    27.2452
         INT.     0.3353D+08                  5074.5498    26.8769    48.9327
         TRA.     0.9162D+27                  1738.8057     4.9680    39.9285
         TOT.                       46.510    6813.3555    31.8449    88.8613

 360.00  VIB.     0.1970D+03                  4274.2145    24.6930    22.3719
         ROT.     0.2095D+06                  1073.0915     2.9808    27.3292
         INT.     0.4128D+08                  5347.3060    27.6738    49.7010
         TRA.     0.9557D+27                  1788.4859     4.9680    40.0685
         TOT.                       46.832    7135.7919    32.6418    89.7695

 370.00  VIB.     0.2326D+03                  4525.1135    25.4860    23.0593
         ROT.     0.2183D+06                  1102.8996     2.9808    27.4108
         INT.     0.5079D+08                  5628.0131    28.4668    50.4701
         TRA.     0.9958D+27                  1838.1660     4.9680    40.2046
         TOT.                       47.163    7466.1791    33.4349    90.6747

 380.00  VIB.     0.2748D+03                  4783.9179    26.2739    23.7494
         ROT.     0.2272D+06                  1132.7077     2.9808    27.4903
         INT.     0.6244D+08                  5916.6256    29.2547    51.2397
         TRA.     0.1036D+28                  1887.8462     4.9680    40.3371
         TOT.                       47.501    7804.4718    34.2227    91.5768

 390.00  VIB.     0.3247D+03                  5050.5696    27.0553    24.4420
         ROT.     0.2362D+06                  1162.5158     2.9808    27.5678
         INT.     0.7671D+08                  6213.0854    30.0361    52.0098
         TRA.     0.1078D+28                  1937.5263     4.9680    40.4662
         TOT.                       47.847    8150.6117    35.0041    92.4759

 400.00  VIB.     0.3838D+03                  5324.9992    27.8293    25.1367
         ROT.     0.2454D+06                  1192.3239     2.9808    27.6432
         INT.     0.9419D+08                  6517.3231    30.8101    52.7800
         TRA.     0.1119D+28                  1987.2065     4.9680    40.5919
         TOT.                       48.201    8504.5296    35.7781    93.3719

   *: NOTE: HEATS OF FORMATION ARE RELATIVE TO THE
            ELEMENTS IN THEIR STANDARD STATE AT 298K
              (=  Standard Enthalpy of Formation).

            Hvib:  Zero-point energy is not included.
                   frequencies of less than zero cm-1 are not included.
            Hrot = (3/2)RT
            Htra = (3/2)RT + pV = (5/2)RT

            Heat capacity is Cp, not Cv

           For more information, see: HTTP://OpenMOPAC.net/Manual/thermochemistry.html


           FORCE CONSTANT IN CARTESIAN COORDINATES (Millidynes/A)

    ATOM   CHEMICAL       X               Y               Z
   NUMBER   SYMBOL  FORCE CONSTANT  FORCE CONSTANT  FORCE CONSTANT

      1       C        8.515580        8.037082        8.120653
      2       C        9.596101        8.118377        8.182234
      3       C        8.371276        8.518254        8.278588
      4       C        8.433015        8.198731        8.214359
      5       C       17.161219        3.706602        7.673805
      6       C        7.989770        4.672268       14.100891
      7       H        1.315351        2.184877        2.703873
      8       H        0.778033        2.525814        2.914711
      9       H        2.151514        0.870091        3.282881
     10       H        2.414821        0.934968        3.417590
     11       H        0.785062        2.774946        3.222348
     12       H        1.356940        2.237760        3.169209
     13       H        5.266026        0.723678        0.742575
     14       H        0.791648        1.606322        4.313292
     15       H        4.914343        0.752247        1.120814
     16       H        0.856769        1.297702        4.530872



 TOTAL CPU TIME:             1.06 SECONDS

 == MOPAC DONE ==
