 *******************************************************************************
 ** Site#: 14399           For non-commercial use only        Version 13.159M **
 *******************************************************************************
 ** Cite this work as: MOPAC2012, James J. P. Stewart, Stewart Computational  **
 ** Chemistry, Version 13.159M web: HTTP://OpenMOPAC.net  Days remaining:   6 **
 *******************************************************************************
 **                                                                           **
 **                                MOPAC2012                                  **
 **                                                                           **
 *******************************************************************************

                            PM3 CALCULATION RESULTS


 *******************************************************************************
 *  CALCULATION DONE:                                Mon Jun  2 11:13:05 2014  *
 *  PM3      - The PM3 Hamiltonian to be used
 *  PRECISE  - CRITERIA TO BE INCREASED BY 100 TIMES
 *  NOSYM    - POINT-GROUP SYMMETRY SET TO C1
 *  T=       - A TIME OF 172800.0 SECONDS REQUESTED
 *  DUMP=N   - RESTART FILE WRITTEN EVERY  7200.000 SECONDS
 *******************************************************************************
pm3  precise nosym
 InChI=1S/C10H14/c1-2-3-4-7-10-8-5-6-9-10/h3-6,8-10H,2,7H2,1H3

   ATOM   CHEMICAL          X               Y               Z
  NUMBER   SYMBOL      (ANGSTROMS)     (ANGSTROMS)     (ANGSTROMS)
 
     1       C         -1.44200000  *   0.45770000  *   1.04640000  *
     2       C         -0.67980000  *   1.31350000  *   0.02880000  *
     3       C          2.94120000  *   0.25340000  *  -0.93110000  *
     4       C          3.21120000  *  -1.22840000  *  -1.15750000  *
     5       C         -1.46560000  *  -0.99760000  *   0.68500000  *
     6       C         -2.91050000  *   0.75440000  *   1.03590000  *
     7       C          0.79810000  *   1.03930000  *   0.07140000  *
     8       C          1.46870000  *   0.54690000  *  -0.97890000  *
     9       C         -2.70310000  *  -1.42480000  *   0.50000000  *
    10       C         -3.61430000  *  -0.32000000  *   0.72150000  *
    11       H         -1.04000000  *   0.59810000  *   2.07690000  *
    12       H         -1.10480000  *   1.16690000  *  -0.99330000  *
    13       H         -0.82090000  *   2.39130000  *   0.27450000  *
    14       H          3.44360000  *   0.84570000  *  -1.72950000  *
    15       H          3.40290000  *   0.55520000  *   0.03830000  *
    16       H          4.30780000  *  -1.42050000  *  -1.13220000  *
    17       H          2.82700000  *  -1.55820000  *  -2.15000000  *
    18       H          2.73290000  *  -1.84250000  *  -0.36020000  *
    19       H         -0.58790000  *  -1.62910000  *   0.59000000  *
    20       H         -3.35070000  *   1.72060000  *   1.26130000  *
    21       H          1.32170000  *   1.24200000  *   1.00550000  *
    22       H          0.94250000  *   0.33610000  *  -1.90990000  *
    23       H         -2.98200000  *  -2.43890000  *   0.23350000  *
    24       H         -4.69610000  *  -0.36100000  *   0.65020000  *
 


          CARTESIAN COORDINATES 

    NO.       ATOM         X         Y         Z

     1         C       -1.4420    0.4577    1.0464
     2         C       -0.6798    1.3135    0.0288
     3         C        2.9412    0.2534   -0.9311
     4         C        3.2112   -1.2284   -1.1575
     5         C       -1.4656   -0.9976    0.6850
     6         C       -2.9105    0.7544    1.0359
     7         C        0.7981    1.0393    0.0714
     8         C        1.4687    0.5469   -0.9789
     9         C       -2.7031   -1.4248    0.5000
    10         C       -3.6143   -0.3200    0.7215
    11         H       -1.0400    0.5981    2.0769
    12         H       -1.1048    1.1669   -0.9933
    13         H       -0.8209    2.3913    0.2745
    14         H        3.4436    0.8457   -1.7295
    15         H        3.4029    0.5552    0.0383
    16         H        4.3078   -1.4205   -1.1322
    17         H        2.8270   -1.5582   -2.1500
    18         H        2.7329   -1.8425   -0.3602
    19         H       -0.5879   -1.6291    0.5900
    20         H       -3.3507    1.7206    1.2613
    21         H        1.3217    1.2420    1.0055
    22         H        0.9425    0.3361   -1.9099
    23         H       -2.9820   -2.4389    0.2335
    24         H       -4.6961   -0.3610    0.6502

  H: (PM3): J. J. P. STEWART, J. COMP. CHEM. 10, 209 (1989).
  C: (PM3): J. J. P. STEWART, J. COMP. CHEM. 10, 209 (1989).

           Empirical Formula: C10 H14  =    24 atoms



      MOLECULAR POINT GROUP   :   C1  


      RHF CALCULATION, NO. OF DOUBLY OCCUPIED LEVELS =   27

      Geometry optimization using EF

          DIAGONAL MATRIX USED AS START HESSIAN

 CYCLE:     1 TIME:   0.011 TIME LEFT:  2.00D  GRAD.:   111.950 HEAT: 36.35108
 CYCLE:     2 TIME:   0.022 TIME LEFT:  2.00D  GRAD.:    71.594 HEAT: 34.67286
 CYCLE:     3 TIME:   0.008 TIME LEFT:  2.00D  GRAD.:    40.069 HEAT: 33.42952
 CYCLE:     4 TIME:   0.025 TIME LEFT:  2.00D  GRAD.:    25.922 HEAT: 33.12227
 CYCLE:     5 TIME:   0.008 TIME LEFT:  2.00D  GRAD.:    32.153 HEAT: 32.98688
 CYCLE:     6 TIME:   0.008 TIME LEFT:  2.00D  GRAD.:    28.407 HEAT: 32.74149
 CYCLE:     7 TIME:   0.008 TIME LEFT:  2.00D  GRAD.:    36.811 HEAT: 32.73768
 CYCLE:     8 TIME:   0.008 TIME LEFT:  2.00D  GRAD.:    21.388 HEAT: 32.43545
 CYCLE:     9 TIME:   0.015 TIME LEFT:  2.00D  GRAD.:    13.085 HEAT: 32.30603
 CYCLE:    10 TIME:   0.014 TIME LEFT:  2.00D  GRAD.:    10.194 HEAT: 32.26019
 CYCLE:    11 TIME:   0.008 TIME LEFT:  2.00D  GRAD.:    14.086 HEAT: 32.23391
 CYCLE:    12 TIME:   0.008 TIME LEFT:  2.00D  GRAD.:    10.708 HEAT: 32.19043
 CYCLE:    13 TIME:   0.014 TIME LEFT:  2.00D  GRAD.:    11.380 HEAT: 32.17800
 CYCLE:    14 TIME:   0.008 TIME LEFT:  2.00D  GRAD.:     8.868 HEAT: 32.15621
 CYCLE:    15 TIME:   0.014 TIME LEFT:  2.00D  GRAD.:     4.742 HEAT: 32.13539
 CYCLE:    16 TIME:   0.014 TIME LEFT:  2.00D  GRAD.:     3.618 HEAT: 32.12917
 CYCLE:    17 TIME:   0.008 TIME LEFT:  2.00D  GRAD.:     5.172 HEAT: 32.12521
 CYCLE:    18 TIME:   0.008 TIME LEFT:  2.00D  GRAD.:     3.508 HEAT: 32.11551
 CYCLE:    19 TIME:   0.008 TIME LEFT:  2.00D  GRAD.:     4.533 HEAT: 32.11001
 CYCLE:    20 TIME:   0.008 TIME LEFT:  2.00D  GRAD.:     4.483 HEAT: 32.10108
 CYCLE:    21 TIME:   0.008 TIME LEFT:  2.00D  GRAD.:     4.658 HEAT: 32.09403
 CYCLE:    22 TIME:   0.008 TIME LEFT:  2.00D  GRAD.:     4.032 HEAT: 32.08993
 CYCLE:    23 TIME:   0.007 TIME LEFT:  2.00D  GRAD.:     3.515 HEAT: 32.08785
 CYCLE:    24 TIME:   0.008 TIME LEFT:  2.00D  GRAD.:     3.304 HEAT: 32.08572
 CYCLE:    25 TIME:   0.008 TIME LEFT:  2.00D  GRAD.:     2.446 HEAT: 32.08310
 CYCLE:    26 TIME:   0.008 TIME LEFT:  2.00D  GRAD.:     2.058 HEAT: 32.08106
 CYCLE:    27 TIME:   0.008 TIME LEFT:  2.00D  GRAD.:     1.188 HEAT: 32.07871
 CYCLE:    28 TIME:   0.008 TIME LEFT:  2.00D  GRAD.:     1.569 HEAT: 32.07612
 CYCLE:    29 TIME:   0.008 TIME LEFT:  2.00D  GRAD.:     2.171 HEAT: 32.07183
 CYCLE:    30 TIME:   0.008 TIME LEFT:  2.00D  GRAD.:     1.822 HEAT: 32.06830
 CYCLE:    31 TIME:   0.008 TIME LEFT:  2.00D  GRAD.:     2.240 HEAT: 32.06476
 CYCLE:    32 TIME:   0.008 TIME LEFT:  2.00D  GRAD.:     2.042 HEAT: 32.05950
 CYCLE:    33 TIME:   0.008 TIME LEFT:  2.00D  GRAD.:     2.217 HEAT: 32.05310
 CYCLE:    34 TIME:   0.008 TIME LEFT:  2.00D  GRAD.:     2.366 HEAT: 32.04921
 CYCLE:    35 TIME:   0.008 TIME LEFT:  2.00D  GRAD.:     1.705 HEAT: 32.04478
 CYCLE:    36 TIME:   0.008 TIME LEFT:  2.00D  GRAD.:     1.775 HEAT: 32.03993
 CYCLE:    37 TIME:   0.008 TIME LEFT:  2.00D  GRAD.:     1.365 HEAT: 32.03705
 CYCLE:    38 TIME:   0.008 TIME LEFT:  2.00D  GRAD.:     0.891 HEAT: 32.03536
 CYCLE:    39 TIME:   0.008 TIME LEFT:  2.00D  GRAD.:     1.159 HEAT: 32.03421
 CYCLE:    40 TIME:   0.008 TIME LEFT:  2.00D  GRAD.:     1.029 HEAT: 32.03293
 CYCLE:    41 TIME:   0.008 TIME LEFT:  2.00D  GRAD.:     0.894 HEAT: 32.03140
 CYCLE:    42 TIME:   0.008 TIME LEFT:  2.00D  GRAD.:     0.882 HEAT: 32.02986
 CYCLE:    43 TIME:   0.008 TIME LEFT:  2.00D  GRAD.:     1.014 HEAT: 32.02859
 CYCLE:    44 TIME:   0.008 TIME LEFT:  2.00D  GRAD.:     0.795 HEAT: 32.02716
 CYCLE:    45 TIME:   0.008 TIME LEFT:  2.00D  GRAD.:     0.871 HEAT: 32.02545
 CYCLE:    46 TIME:   0.008 TIME LEFT:  2.00D  GRAD.:     1.106 HEAT: 32.02322
 CYCLE:    47 TIME:   0.008 TIME LEFT:  2.00D  GRAD.:     1.072 HEAT: 32.02102
 CYCLE:    48 TIME:   0.008 TIME LEFT:  2.00D  GRAD.:     0.818 HEAT: 32.01952
 CYCLE:    49 TIME:   0.008 TIME LEFT:  2.00D  GRAD.:     0.795 HEAT: 32.01809
 CYCLE:    50 TIME:   0.008 TIME LEFT:  2.00D  GRAD.:     1.023 HEAT: 32.01643
 CYCLE:    51 TIME:   0.008 TIME LEFT:  2.00D  GRAD.:     1.115 HEAT: 32.01423
 CYCLE:    52 TIME:   0.008 TIME LEFT:  2.00D  GRAD.:     1.065 HEAT: 32.01146
 CYCLE:    53 TIME:   0.008 TIME LEFT:  2.00D  GRAD.:     0.948 HEAT: 32.00989
 CYCLE:    54 TIME:   0.008 TIME LEFT:  2.00D  GRAD.:     1.431 HEAT: 32.00600
 CYCLE:    55 TIME:   0.008 TIME LEFT:  2.00D  GRAD.:     1.652 HEAT: 32.00303
 CYCLE:    56 TIME:   0.008 TIME LEFT:  2.00D  GRAD.:     1.940 HEAT: 31.99501
 CYCLE:    57 TIME:   0.008 TIME LEFT:  2.00D  GRAD.:     1.636 HEAT: 31.98989
 CYCLE:    58 TIME:   0.008 TIME LEFT:  2.00D  GRAD.:     1.852 HEAT: 31.98046
 CYCLE:    59 TIME:   0.008 TIME LEFT:  2.00D  GRAD.:     1.894 HEAT: 31.97566
 CYCLE:    60 TIME:   0.008 TIME LEFT:  2.00D  GRAD.:     1.649 HEAT: 31.96933
 CYCLE:    61 TIME:   0.008 TIME LEFT:  2.00D  GRAD.:     1.722 HEAT: 31.96183
 CYCLE:    62 TIME:   0.008 TIME LEFT:  2.00D  GRAD.:     1.947 HEAT: 31.95629
 CYCLE:    63 TIME:   0.008 TIME LEFT:  2.00D  GRAD.:     2.006 HEAT: 31.94817
 CYCLE:    64 TIME:   0.008 TIME LEFT:  2.00D  GRAD.:     1.666 HEAT: 31.94157
 CYCLE:    65 TIME:   0.008 TIME LEFT:  2.00D  GRAD.:     2.265 HEAT: 31.93650
 CYCLE:    66 TIME:   0.008 TIME LEFT:  2.00D  GRAD.:     2.155 HEAT: 31.93289
 CYCLE:    67 TIME:   0.008 TIME LEFT:  2.00D  GRAD.:     1.303 HEAT: 31.92840
 CYCLE:    68 TIME:   0.008 TIME LEFT:  2.00D  GRAD.:     0.987 HEAT: 31.92529
 CYCLE:    69 TIME:   0.008 TIME LEFT:  2.00D  GRAD.:     0.854 HEAT: 31.92374
 CYCLE:    70 TIME:   0.008 TIME LEFT:  2.00D  GRAD.:     0.808 HEAT: 31.92206
 CYCLE:    71 TIME:   0.008 TIME LEFT:  2.00D  GRAD.:     0.753 HEAT: 31.92060
 CYCLE:    72 TIME:   0.008 TIME LEFT:  2.00D  GRAD.:     0.738 HEAT: 31.91921
 CYCLE:    73 TIME:   0.008 TIME LEFT:  2.00D  GRAD.:     0.740 HEAT: 31.91786
 CYCLE:    74 TIME:   0.008 TIME LEFT:  2.00D  GRAD.:     0.755 HEAT: 31.91680
 CYCLE:    75 TIME:   0.008 TIME LEFT:  2.00D  GRAD.:     0.605 HEAT: 31.91576
 CYCLE:    76 TIME:   0.008 TIME LEFT:  2.00D  GRAD.:     0.557 HEAT: 31.91470
 CYCLE:    77 TIME:   0.008 TIME LEFT:  2.00D  GRAD.:     0.742 HEAT: 31.91330
 CYCLE:    78 TIME:   0.008 TIME LEFT:  2.00D  GRAD.:     1.074 HEAT: 31.91113
 CYCLE:    79 TIME:   0.008 TIME LEFT:  2.00D  GRAD.:     1.344 HEAT: 31.90779
 CYCLE:    80 TIME:   0.008 TIME LEFT:  2.00D  GRAD.:     1.119 HEAT: 31.90392
 CYCLE:    81 TIME:   0.008 TIME LEFT:  2.00D  GRAD.:     0.987 HEAT: 31.90112
 CYCLE:    82 TIME:   0.008 TIME LEFT:  2.00D  GRAD.:     1.174 HEAT: 31.89819
 CYCLE:    83 TIME:   0.008 TIME LEFT:  2.00D  GRAD.:     1.215 HEAT: 31.89472
 CYCLE:    84 TIME:   0.008 TIME LEFT:  2.00D  GRAD.:     0.849 HEAT: 31.89159
 CYCLE:    85 TIME:   0.008 TIME LEFT:  2.00D  GRAD.:     0.594 HEAT: 31.89062
 CYCLE:    86 TIME:   0.008 TIME LEFT:  2.00D  GRAD.:     0.457 HEAT: 31.88977
 CYCLE:    87 TIME:   0.008 TIME LEFT:  2.00D  GRAD.:     0.474 HEAT: 31.88923
 CYCLE:    88 TIME:   0.008 TIME LEFT:  2.00D  GRAD.:     0.520 HEAT: 31.88851
 CYCLE:    89 TIME:   0.008 TIME LEFT:  2.00D  GRAD.:     0.688 HEAT: 31.88703
 CYCLE:    90 TIME:   0.008 TIME LEFT:  2.00D  GRAD.:     0.746 HEAT: 31.88609
 CYCLE:    91 TIME:   0.008 TIME LEFT:  2.00D  GRAD.:     0.663 HEAT: 31.88477
 CYCLE:    92 TIME:   0.008 TIME LEFT:  2.00D  GRAD.:     0.542 HEAT: 31.88394
 CYCLE:    93 TIME:   0.008 TIME LEFT:  2.00D  GRAD.:     0.409 HEAT: 31.88281
 CYCLE:    94 TIME:   0.008 TIME LEFT:  2.00D  GRAD.:     0.352 HEAT: 31.88250
 CYCLE:    95 TIME:   0.008 TIME LEFT:  2.00D  GRAD.:     0.260 HEAT: 31.88229
 CYCLE:    96 TIME:   0.008 TIME LEFT:  2.00D  GRAD.:     0.192 HEAT: 31.88217
 CYCLE:    97 TIME:   0.008 TIME LEFT:  2.00D  GRAD.:     0.182 HEAT: 31.88209
 CYCLE:    98 TIME:   0.008 TIME LEFT:  2.00D  GRAD.:     0.169 HEAT: 31.88202
 CYCLE:    99 TIME:   0.008 TIME LEFT:  2.00D  GRAD.:     0.145 HEAT: 31.88196
 CYCLE:   100 TIME:   0.008 TIME LEFT:  2.00D  GRAD.:     0.143 HEAT: 31.88190
 CYCLE:   101 TIME:   0.008 TIME LEFT:  2.00D  GRAD.:     0.158 HEAT: 31.88184
 CYCLE:   102 TIME:   0.008 TIME LEFT:  2.00D  GRAD.:     0.148 HEAT: 31.88180
 CYCLE:   103 TIME:   0.008 TIME LEFT:  2.00D  GRAD.:     0.192 HEAT: 31.88172
 CYCLE:   104 TIME:   0.008 TIME LEFT:  2.00D  GRAD.:     0.217 HEAT: 31.88164
 CYCLE:   105 TIME:   0.008 TIME LEFT:  2.00D  GRAD.:     0.218 HEAT: 31.88148
 CYCLE:   106 TIME:   0.008 TIME LEFT:  2.00D  GRAD.:     0.229 HEAT: 31.88134
 CYCLE:   107 TIME:   0.008 TIME LEFT:  2.00D  GRAD.:     0.212 HEAT: 31.88111
 CYCLE:   108 TIME:   0.008 TIME LEFT:  2.00D  GRAD.:     0.319 HEAT: 31.88067
 CYCLE:   109 TIME:   0.008 TIME LEFT:  2.00D  GRAD.:     0.313 HEAT: 31.88047
 CYCLE:   110 TIME:   0.008 TIME LEFT:  2.00D  GRAD.:     0.306 HEAT: 31.88005
 CYCLE:   111 TIME:   0.008 TIME LEFT:  2.00D  GRAD.:     0.316 HEAT: 31.87981
 CYCLE:   112 TIME:   0.008 TIME LEFT:  2.00D  GRAD.:     0.373 HEAT: 31.87941
 CYCLE:   113 TIME:   0.008 TIME LEFT:  2.00D  GRAD.:     0.292 HEAT: 31.87930
 CYCLE:   114 TIME:   0.008 TIME LEFT:  2.00D  GRAD.:     0.327 HEAT: 31.87900
 CYCLE:   115 TIME:   0.008 TIME LEFT:  2.00D  GRAD.:     0.229 HEAT: 31.87879
 CYCLE:   116 TIME:   0.008 TIME LEFT:  2.00D  GRAD.:     0.294 HEAT: 31.87819
 CYCLE:   117 TIME:   0.008 TIME LEFT:  2.00D  GRAD.:     0.273 HEAT: 31.87801
 CYCLE:   118 TIME:   0.008 TIME LEFT:  2.00D  GRAD.:     0.175 HEAT: 31.87784
 CYCLE:   119 TIME:   0.008 TIME LEFT:  2.00D  GRAD.:     0.140 HEAT: 31.87779
 CYCLE:   120 TIME:   0.008 TIME LEFT:  2.00D  GRAD.:     0.229 HEAT: 31.87779
 CYCLE:   121 TIME:   0.008 TIME LEFT:  2.00D  GRAD.:     0.069 HEAT: 31.87769
 CYCLE:   122 TIME:   0.008 TIME LEFT:  2.00D  GRAD.:     0.047 HEAT: 31.87768

     RMS GRADIENT =  0.04698  IS LESS THAN CUTOFF =  0.05000



 -------------------------------------------------------------------------------
pm3  precise nosym
 InChI=1S/C10H14/c1-2-3-4-7-10-8-5-6-9-10/h3-6,8-10H,2,7H2,1H3



     GEOMETRY OPTIMISED USING EIGENVECTOR FOLLOWING (EF).     
     SCF FIELD WAS ACHIEVED                                   


                              PM3 CALCULATION
                                                       MOPAC2012 (Version: 13.159M)
                                                       Mon Jun  2 11:13:06 2014
                                                       No. of days left =   6




          FINAL HEAT OF FORMATION =         31.87768 KCAL/MOL =     133.37621 KJ/MOL


          TOTAL ENERGY            =      -1399.67931 EV
          ELECTRONIC ENERGY       =      -7482.09401 EV  POINT GROUP:     C1  
          CORE-CORE REPULSION     =       6082.41470 EV
          COSMO AREA              =        199.45 SQUARE ANGSTROMS
          COSMO VOLUME            =        199.65 CUBIC ANGSTROMS

          GRADIENT NORM           =          0.04698
          IONIZATION POTENTIAL    =          9.228202 EV
          HOMO LUMO ENERGIES (EV) =         -9.228  0.305
          NO. OF FILLED LEVELS    =         27
          MOLECULAR WEIGHT        =        134.221

          MOLECULAR DIMENSIONS (Angstroms)

            Atom       Atom       Distance
            H    16    H    24     9.62958
            H    23    H    13     4.86726
            H    11    H    17     3.39504


          SCF CALCULATIONS        =        132
          COMPUTATION TIME        =          1.036 SECONDS




   ATOM   CHEMICAL          X               Y               Z
  NUMBER   SYMBOL      (ANGSTROMS)     (ANGSTROMS)     (ANGSTROMS)
 
     1       C         -1.48764100  *   0.42579391  *   0.98630669  *
     2       C         -0.67575520  *   1.13390898  *  -0.09040308  *
     3       C          3.02655086  *   0.28090124  *  -0.80198698  *
     4       C          3.44175401  *  -1.06248038  *  -1.36257651  *
     5       C         -1.60462482  *  -1.06337111  *   0.76005152  *
     6       C         -2.93352328  *   0.86547134  *   0.99164860  *
     7       C          0.78249995  *   0.88119617  *   0.06585052  *
     8       C          1.56110323  *   0.49506085  *  -0.94569995  *
     9       C         -2.90767043  *  -1.41038251  *   0.68462487  *
    10       C         -3.73536191  *  -0.20900033  *   0.82929505  *
    11       H         -1.04452036  *   0.61019481  *   1.99426910  *
    12       H         -1.03484786  *   0.83190529  *  -1.09437042  *
    13       H         -0.85066452  *   2.22694698  *  -0.02056177  *
    14       H          3.55246133  *   1.09779176  *  -1.33623877  *
    15       H          3.34248491  *   0.36399638  *   0.25731780  *
    16       H          4.52659754  *  -1.20746780  *  -1.28248512  *
    17       H          3.17392533  *  -1.16087866  *  -2.42297859  *
    18       H          2.95873020  *  -1.88971391  *  -0.82661265  *
    19       H         -0.73139035  *  -1.70681324  *   0.67690215  *
    20       H         -3.22370537  *   1.90663713  *   1.11430538  *
    21       H          1.19571321  *   1.04305698  *   1.07002531  *
    22       H          1.14698198  *   0.32060433  *  -1.94731954  *
    23       H         -3.32125939  *  -2.40632326  *   0.53956247  *
    24       H         -4.82306096  *  -0.22642620  *   0.80322874  *

           Empirical Formula: C10 H14  =    24 atoms



      MOLECULAR POINT GROUP   :   C1  


                  EIGENVALUES  
 -40.63956 -37.11609 -32.63739 -27.81192 -27.20643 -23.93261 -21.43099 -19.86581
 -18.88043 -18.64304 -17.85205 -16.19883 -15.84907 -14.95102 -14.77564 -13.92507
 -13.78973 -13.56129 -13.41727 -12.83578 -12.69969 -12.27972 -12.03988 -11.93423
 -11.04198  -9.80878  -9.22820   0.30477   1.05317   2.02518   3.17742   3.37184
   3.42881   3.64313   3.66779   3.74678   3.87605   3.90018   4.02556   4.08380
   4.16444   4.35248   4.36515   4.47061   4.63885   4.68870   4.75653   4.83251
   4.84156   5.63213   5.74969   5.82172   5.94350   6.16438


              NET ATOMIC CHARGES AND DIPOLE CONTRIBUTIONS

  ATOM NO.   TYPE          CHARGE      No. of ELECS.   s-Pop       p-Pop       
    1          C          -0.033091        4.0331     1.16565     2.86745
    2          C          -0.037575        4.0376     1.14362     2.89396
    3          C          -0.062079        4.0621     1.14584     2.91624
    4          C          -0.105657        4.1057     1.13758     2.96807
    5          C          -0.152130        4.1521     1.20970     2.94243
    6          C          -0.163833        4.1638     1.21023     2.95361
    7          C          -0.156724        4.1567     1.19735     2.95938
    8          C          -0.146553        4.1466     1.19766     2.94889
    9          C          -0.123742        4.1237     1.19268     2.93106
   10          C          -0.115767        4.1158     1.19241     2.92335
   11          H           0.091524        0.9085     0.90848
   12          H           0.061553        0.9384     0.93845
   13          H           0.056487        0.9435     0.94351
   14          H           0.053195        0.9468     0.94681
   15          H           0.051015        0.9490     0.94899
   16          H           0.037040        0.9630     0.96296
   17          H           0.038358        0.9616     0.96164
   18          H           0.039732        0.9603     0.96027
   19          H           0.119668        0.8803     0.88033
   20          H           0.116699        0.8833     0.88330
   21          H           0.101615        0.8984     0.89839
   22          H           0.103027        0.8970     0.89697
   23          H           0.113875        0.8861     0.88613
   24          H           0.113365        0.8866     0.88664
 DIPOLE           X         Y         Z       TOTAL
 POINT-CHG.     0.474     0.236    -0.056     0.533
 HYBRID        -0.026    -0.007     0.059     0.065
 SUM            0.448     0.230     0.003     0.503


          ATOMIC ORBITAL ELECTRON POPULATIONS

    Atom      s        px        py        pz   
    1  C   1.16565   0.94494   0.93667   0.98584
    2  C   1.14362   0.92107   0.99063   0.98226
    3  C   1.14584   0.93787   0.97082   1.00755
    4  C   1.13758   1.00134   0.96453   1.00220
    5  C   1.20970   0.97258   0.96405   1.00579
    6  C   1.21023   0.95491   0.98068   1.01802
    7  C   1.19735   0.95918   1.01405   0.98616
    8  C   1.19766   0.96159   1.00192   0.98538
    9  C   1.19268   0.94631   0.97154   1.01322
   10  C   1.19241   0.97701   0.94077   1.00557
   11  H   0.90848
   12  H   0.93845
   13  H   0.94351
   14  H   0.94681
   15  H   0.94899
   16  H   0.96296
   17  H   0.96164
   18  H   0.96027
   19  H   0.88033
   20  H   0.88330
   21  H   0.89839
   22  H   0.89697
   23  H   0.88613
   24  H   0.88664
 *******************************************************************************
 ** Site#: 14399           For non-commercial use only        Version 13.159M **
 *******************************************************************************
 ** Cite this work as: MOPAC2012, James J. P. Stewart, Stewart Computational  **
 ** Chemistry, Version 13.159M web: HTTP://OpenMOPAC.net  Days remaining:   6 **
 *******************************************************************************
 **                                                                           **
 **                                MOPAC2012                                  **
 **                                                                           **
 *******************************************************************************

                            PM3 CALCULATION RESULTS


 *******************************************************************************
 *  CALCULATION DONE:                                Mon Jun  2 11:13:06 2014  *
 *  PM3      - The PM3 Hamiltonian to be used
 *  OLDGEO   - PREVIOUS GEOMETRY TO BE USED
 *  PRECISE  - CRITERIA TO BE INCREASED BY 100 TIMES
 *  NOSYM    - POINT-GROUP SYMMETRY SET TO C1
 *  T=       - A TIME OF 172800.0 SECONDS REQUESTED
 *  DUMP=N   - RESTART FILE WRITTEN EVERY  7200.000 SECONDS
 *  THERMO   - THERMODYNAMIC QUANTITIES TO BE CALCULATED
 *******************************************************************************
oldgeo thermo nosym precise  pm3

   ATOM   CHEMICAL          X               Y               Z
  NUMBER   SYMBOL      (ANGSTROMS)     (ANGSTROMS)     (ANGSTROMS)
 
     1       C         -1.48764100  *   0.42579391  *   0.98630669  *
     2       C         -0.67575520  *   1.13390898  *  -0.09040308  *
     3       C          3.02655086  *   0.28090124  *  -0.80198698  *
     4       C          3.44175401  *  -1.06248038  *  -1.36257651  *
     5       C         -1.60462482  *  -1.06337111  *   0.76005152  *
     6       C         -2.93352328  *   0.86547134  *   0.99164860  *
     7       C          0.78249995  *   0.88119617  *   0.06585052  *
     8       C          1.56110323  *   0.49506085  *  -0.94569995  *
     9       C         -2.90767043  *  -1.41038251  *   0.68462487  *
    10       C         -3.73536191  *  -0.20900033  *   0.82929505  *
    11       H         -1.04452036  *   0.61019481  *   1.99426910  *
    12       H         -1.03484786  *   0.83190529  *  -1.09437042  *
    13       H         -0.85066452  *   2.22694698  *  -0.02056177  *
    14       H          3.55246133  *   1.09779176  *  -1.33623877  *
    15       H          3.34248491  *   0.36399638  *   0.25731780  *
    16       H          4.52659754  *  -1.20746780  *  -1.28248512  *
    17       H          3.17392533  *  -1.16087866  *  -2.42297859  *
    18       H          2.95873020  *  -1.88971391  *  -0.82661265  *
    19       H         -0.73139035  *  -1.70681324  *   0.67690215  *
    20       H         -3.22370537  *   1.90663713  *   1.11430538  *
    21       H          1.19571321  *   1.04305698  *   1.07002531  *
    22       H          1.14698198  *   0.32060433  *  -1.94731954  *
    23       H         -3.32125939  *  -2.40632326  *   0.53956247  *
    24       H         -4.82306096  *  -0.22642620  *   0.80322874  *
 


          CARTESIAN COORDINATES 

    NO.       ATOM         X         Y         Z

     1         C       -1.4876    0.4258    0.9863
     2         C       -0.6758    1.1339   -0.0904
     3         C        3.0266    0.2809   -0.8020
     4         C        3.4418   -1.0625   -1.3626
     5         C       -1.6046   -1.0634    0.7601
     6         C       -2.9335    0.8655    0.9916
     7         C        0.7825    0.8812    0.0659
     8         C        1.5611    0.4951   -0.9457
     9         C       -2.9077   -1.4104    0.6846
    10         C       -3.7354   -0.2090    0.8293
    11         H       -1.0445    0.6102    1.9943
    12         H       -1.0348    0.8319   -1.0944
    13         H       -0.8507    2.2269   -0.0206
    14         H        3.5525    1.0978   -1.3362
    15         H        3.3425    0.3640    0.2573
    16         H        4.5266   -1.2075   -1.2825
    17         H        3.1739   -1.1609   -2.4230
    18         H        2.9587   -1.8897   -0.8266
    19         H       -0.7314   -1.7068    0.6769
    20         H       -3.2237    1.9066    1.1143
    21         H        1.1957    1.0431    1.0700
    22         H        1.1470    0.3206   -1.9473
    23         H       -3.3213   -2.4063    0.5396
    24         H       -4.8231   -0.2264    0.8032

  H: (PM3): J. J. P. STEWART, J. COMP. CHEM. 10, 209 (1989).
  C: (PM3): J. J. P. STEWART, J. COMP. CHEM. 10, 209 (1989).

           Empirical Formula: C10 H14  =    24 atoms



      MOLECULAR POINT GROUP   :   C1  


      RHF CALCULATION, NO. OF DOUBLY OCCUPIED LEVELS =   27



          HEAT OF FORMATION =      31.877680 KCALS/MOLE


          INTERNAL COORDINATE DERIVATIVES

   NUMBER  ATOM       BOND         ANGLE      DIHEDRAL

     1       C     -0.004869     0.001328     0.007917
     2       C     -0.005067     0.007009     0.007234
     3       C      0.005049    -0.003005    -0.004997
     4       C      0.000362    -0.003988    -0.000390
     5       C     -0.004369    -0.000761    -0.002801
     6       C      0.003374     0.006450    -0.002821
     7       C     -0.000427     0.000203     0.004389
     8       C      0.004378     0.000915    -0.003202
     9       C     -0.012021    -0.016142    -0.000931
    10       C     -0.012187     0.010591     0.009467
    11       H      0.008597     0.001859    -0.006398
    12       H      0.001554    -0.000569     0.002329
    13       H     -0.002165     0.008109     0.000923
    14       H      0.009810     0.008468     0.007063
    15       H      0.008144    -0.005376    -0.014361
    16       H     -0.003067    -0.002881    -0.000783
    17       H     -0.008314     0.004437     0.001120
    18       H     -0.002900    -0.004899    -0.006691
    19       H      0.002730     0.000572     0.006009
    20       H      0.003754     0.006229     0.004293
    21       H     -0.003802     0.002661     0.005444
    22       H      0.012414    -0.003560    -0.010713
    23       H     -0.002724    -0.009531     0.005890
    24       H      0.001748    -0.008120    -0.007992


          GRADIENT NORM =   0.05293


          TIME FOR SCF CALCULATION =    0.01

          TIME FOR DERIVATIVES     =    0.01

          MOLECULAR WEIGHT =  134.22



          ROTATIONAL CONSTANTS IN CM(-1)

          A =    0.11818092   B =    0.01817010   C =    0.01646456



           PRINCIPAL MOMENTS OF INERTIA IN UNITS OF 10**(-40)*GRAM-CM**2

          A =      236.8637   B =     1540.5959   C =     1700.1840


          ORIENTATION OF MOLECULE IN FORCE CALCULATION

    NO.       ATOM         X         Y         Z

     1          C      -1.0513   -0.9015   -0.5565
     2          C       0.4718   -0.9015   -0.5565
     3          C       2.5517    2.3565   -0.5565
     4          C       2.5448    3.3069    0.6216
     5          C      -1.6461   -0.2155    0.6510
     6          C      -1.6214   -2.2969   -0.4477
     7          C       1.0212    0.4369   -0.9053
     8          C       1.9717    1.0368   -0.1876
     9          C      -2.4487   -1.0765    1.3132
    10          C      -2.4336   -2.3728    0.6286
    11          H      -1.4419   -0.4171   -1.4834
    12          H       0.8497   -1.2525    0.4244
    13          H       0.8373   -1.6351   -1.3038
    14          H       3.5895    2.1944   -0.9116
    15          H       2.0099    2.8083   -1.4116
    16          H       2.9990    4.2702    0.3568
    17          H       3.1059    2.9017    1.4742
    18          H       1.5238    3.5093    0.9703
    19          H      -1.4210    0.8197    0.8982
    20          H      -1.3788   -3.0810   -1.1616
    21          H       0.6068    0.9093   -1.8055
    22          H       2.3779    0.5713    0.7199
    23          H      -3.0296   -0.8832    2.2127
    24          H      -3.0031   -3.2350    0.9697


    FIRST DERIVATIVES WILL BE USED IN THE CALCULATION OF SECOND DERIVATIVES

          ESTIMATED TIME TO COMPLETE CALCULATION =        3.25 SECONDS

    FOR POINT-GROUP C1   THERE ARE   1 UNIQUE SYMMETRY FUNCTIONS.

 STEP:   1 TIME =     0.04 SECS, INTEGRAL =      0.04 TIME LEFT: 172799.95
 STEP:   2 TIME =     0.04 SECS, INTEGRAL =      0.07 TIME LEFT: 172799.92
 STEP:   3 TIME =     0.04 SECS, INTEGRAL =      0.11 TIME LEFT: 172799.88
 STEP:   4 TIME =     0.04 SECS, INTEGRAL =      0.14 TIME LEFT: 172799.85
 STEP:   5 TIME =     0.04 SECS, INTEGRAL =      0.18 TIME LEFT: 172799.81
 STEP:   6 TIME =     0.03 SECS, INTEGRAL =      0.21 TIME LEFT: 172799.78
 STEP:   7 TIME =     0.03 SECS, INTEGRAL =      0.25 TIME LEFT: 172799.74
 STEP:   8 TIME =     0.04 SECS, INTEGRAL =      0.28 TIME LEFT: 172799.71
 STEP:   9 TIME =     0.04 SECS, INTEGRAL =      0.32 TIME LEFT: 172799.67
 STEP:  10 TIME =     0.03 SECS, INTEGRAL =      0.35 TIME LEFT: 172799.64
 STEP:  11 TIME =     0.03 SECS, INTEGRAL =      0.39 TIME LEFT: 172799.60
 STEP:  12 TIME =     0.03 SECS, INTEGRAL =      0.42 TIME LEFT: 172799.57
 STEP:  13 TIME =     0.04 SECS, INTEGRAL =      0.46 TIME LEFT: 172799.53
 STEP:  14 TIME =     0.04 SECS, INTEGRAL =      0.49 TIME LEFT: 172799.50
 STEP:  15 TIME =     0.04 SECS, INTEGRAL =      0.53 TIME LEFT: 172799.46
 STEP:  16 TIME =     0.04 SECS, INTEGRAL =      0.57 TIME LEFT: 172799.42
 STEP:  17 TIME =     0.04 SECS, INTEGRAL =      0.60 TIME LEFT: 172799.39
 STEP:  18 TIME =     0.04 SECS, INTEGRAL =      0.64 TIME LEFT: 172799.35
 STEP:  19 TIME =     0.04 SECS, INTEGRAL =      0.67 TIME LEFT: 172799.32
 STEP:  20 TIME =     0.04 SECS, INTEGRAL =      0.71 TIME LEFT: 172799.28
 STEP:  21 TIME =     0.04 SECS, INTEGRAL =      0.74 TIME LEFT: 172799.24
 STEP:  22 TIME =     0.04 SECS, INTEGRAL =      0.78 TIME LEFT: 172799.21
 STEP:  23 TIME =     0.04 SECS, INTEGRAL =      0.82 TIME LEFT: 172799.17
 STEP:  24 TIME =     0.04 SECS, INTEGRAL =      0.85 TIME LEFT: 172799.14
 STEP:  25 TIME =     0.04 SECS, INTEGRAL =      0.89 TIME LEFT: 172799.10
 STEP:  26 TIME =     0.04 SECS, INTEGRAL =      0.92 TIME LEFT: 172799.07
 STEP:  27 TIME =     0.04 SECS, INTEGRAL =      0.96 TIME LEFT: 172799.03
 STEP:  28 TIME =     0.04 SECS, INTEGRAL =      1.00 TIME LEFT: 172798.99
 STEP:  29 TIME =     0.04 SECS, INTEGRAL =      1.03 TIME LEFT: 172798.96
 STEP:  30 TIME =     0.05 SECS, INTEGRAL =      1.08 TIME LEFT: 172798.91
 STEP:  31 TIME =     0.04 SECS, INTEGRAL =      1.11 TIME LEFT: 172798.87
 STEP:  32 TIME =     0.04 SECS, INTEGRAL =      1.15 TIME LEFT: 172798.84
 STEP:  33 TIME =     0.04 SECS, INTEGRAL =      1.19 TIME LEFT: 172798.80
 STEP:  34 TIME =     0.04 SECS, INTEGRAL =      1.22 TIME LEFT: 172798.77
 STEP:  35 TIME =     0.04 SECS, INTEGRAL =      1.26 TIME LEFT: 172798.73
 STEP:  36 TIME =     0.03 SECS, INTEGRAL =      1.29 TIME LEFT: 172798.70
 STEP:  37 TIME =     0.04 SECS, INTEGRAL =      1.33 TIME LEFT: 172798.66
 STEP:  38 TIME =     0.04 SECS, INTEGRAL =      1.36 TIME LEFT: 172798.63
 STEP:  39 TIME =     0.04 SECS, INTEGRAL =      1.40 TIME LEFT: 172798.59
 STEP:  40 TIME =     0.03 SECS, INTEGRAL =      1.43 TIME LEFT: 172798.56
 STEP:  41 TIME =     0.04 SECS, INTEGRAL =      1.47 TIME LEFT: 172798.52
 STEP:  42 TIME =     0.04 SECS, INTEGRAL =      1.50 TIME LEFT: 172798.48
 STEP:  43 TIME =     0.04 SECS, INTEGRAL =      1.54 TIME LEFT: 172798.45
 STEP:  44 TIME =     0.04 SECS, INTEGRAL =      1.58 TIME LEFT: 172798.41
 STEP:  45 TIME =     0.04 SECS, INTEGRAL =      1.61 TIME LEFT: 172798.38
 STEP:  46 TIME =     0.04 SECS, INTEGRAL =      1.65 TIME LEFT: 172798.34
 STEP:  47 TIME =     0.03 SECS, INTEGRAL =      1.68 TIME LEFT: 172798.31
 STEP:  48 TIME =     0.04 SECS, INTEGRAL =      1.72 TIME LEFT: 172798.27
 STEP:  49 TIME =     0.04 SECS, INTEGRAL =      1.75 TIME LEFT: 172798.23
 STEP:  50 TIME =     0.04 SECS, INTEGRAL =      1.79 TIME LEFT: 172798.20
 STEP:  51 TIME =     0.04 SECS, INTEGRAL =      1.83 TIME LEFT: 172798.16
 STEP:  52 TIME =     0.04 SECS, INTEGRAL =      1.86 TIME LEFT: 172798.13
 STEP:  53 TIME =     0.04 SECS, INTEGRAL =      1.90 TIME LEFT: 172798.09
 STEP:  54 TIME =     0.04 SECS, INTEGRAL =      1.94 TIME LEFT: 172798.05
 STEP:  55 TIME =     0.04 SECS, INTEGRAL =      1.97 TIME LEFT: 172798.02
 STEP:  56 TIME =     0.03 SECS, INTEGRAL =      2.01 TIME LEFT: 172797.98
 STEP:  57 TIME =     0.04 SECS, INTEGRAL =      2.04 TIME LEFT: 172797.94
 STEP:  58 TIME =     0.04 SECS, INTEGRAL =      2.08 TIME LEFT: 172797.91
 STEP:  59 TIME =     0.04 SECS, INTEGRAL =      2.12 TIME LEFT: 172797.87
 STEP:  60 TIME =     0.04 SECS, INTEGRAL =      2.15 TIME LEFT: 172797.84
 STEP:  61 TIME =     0.04 SECS, INTEGRAL =      2.19 TIME LEFT: 172797.80
 STEP:  62 TIME =     0.04 SECS, INTEGRAL =      2.23 TIME LEFT: 172797.76
 STEP:  63 TIME =     0.04 SECS, INTEGRAL =      2.26 TIME LEFT: 172797.73
 STEP:  64 TIME =     0.04 SECS, INTEGRAL =      2.30 TIME LEFT: 172797.69
 STEP:  65 TIME =     0.04 SECS, INTEGRAL =      2.34 TIME LEFT: 172797.65
 STEP:  66 TIME =     0.04 SECS, INTEGRAL =      2.37 TIME LEFT: 172797.62
 STEP:  67 TIME =     0.04 SECS, INTEGRAL =      2.41 TIME LEFT: 172797.58
 STEP:  68 TIME =     0.04 SECS, INTEGRAL =      2.45 TIME LEFT: 172797.54
 STEP:  69 TIME =     0.04 SECS, INTEGRAL =      2.48 TIME LEFT: 172797.51
 STEP:  70 TIME =     0.04 SECS, INTEGRAL =      2.52 TIME LEFT: 172797.47
 STEP:  71 TIME =     0.04 SECS, INTEGRAL =      2.56 TIME LEFT: 172797.43
 STEP:  72 TIME =     0.04 SECS, INTEGRAL =      2.60 TIME LEFT: 172797.39

(To convert to Hartree/Bohr^2, multiply by (10^(-21) x N x a0^2)/(4.184 x 627.51) = 0.0642)


           FORCE MATRIX IN MILLIDYNES/ANGSTROM


                  C  1       C  2       C  3       C  4       C  5       C  6
 ------------------------------------------------------------------------------
     C    1  14.843130
     C    2   3.981114  14.651548
     C    3   0.019329   0.141527  14.697079
     C    4   0.004377   0.018814   4.407520  14.349383
     C    5   4.141889   0.596039   0.001632   0.001361  17.920874
     C    6   4.122397   0.605817   0.002937   0.001179   1.094210  17.908667
     C    7   0.684292   4.949081   0.823488   0.041006   0.035646   0.047897
     C    8   0.039635   0.827981   4.967089   0.717570   0.004637   0.009017
     C    9   1.206839   0.052294   0.001200   0.000880   9.787042   1.572944
     C   10   1.207510   0.048599   0.001408   0.000993   1.571721   9.793339
     H   11   4.221919   0.447707   0.000888   0.000524   0.386267   0.386553
     H   12   0.439412   4.462008   0.003213   0.000550   0.020847   0.012402
     H   13   0.445461   4.409959   0.019221   0.002009   0.045144   0.034302
     H   14   0.002171   0.019323   4.423800   0.445736   0.000739   0.000496
     H   15   0.000469   0.002878   4.441129   0.434553   0.000532   0.000348
     H   16   0.000905   0.002849   0.449406   4.751569   0.000588   0.000348
     H   17   0.000249   0.000859   0.463583   4.726913   0.000469   0.000475
     H   18   0.000396   0.000744   0.461003   4.747320   0.000546   0.000320
     H   19   0.406530   0.009618   0.000512   0.000662   5.078798   0.042724
     H   20   0.403182   0.013472   0.000326   0.000243   0.042127   5.076407
     H   21   0.026546   0.430060   0.082332   0.008659   0.003941   0.002508
     H   22   0.008596   0.082356   0.429489   0.025328   0.001814   0.002375
     H   23   0.113080   0.015957   0.000375   0.000288   0.445867   0.049280
     H   24   0.112624   0.016038   0.000346   0.000286   0.049109   0.446782


                  C  7       C  8       C  9       C 10       H 11       H 12
 ------------------------------------------------------------------------------
     C    7  18.181977
     C    8  10.698551  18.195655
     C    9   0.008828   0.001884  18.317921
     C   10   0.009736   0.002338   5.148263  18.329940
     H   11   0.038987   0.002566   0.051496   0.050852   4.707838
     H   12   0.458669   0.049862   0.005619   0.004541   0.042111   5.060606
     H   13   0.409755   0.031341   0.007563   0.006167   0.018930   0.555776
     H   14   0.031600   0.409635   0.000698   0.000485   0.000250   0.000790
     H   15   0.050476   0.460148   0.000503   0.000469   0.000264   0.000467
     H   16   0.006997   0.051937   0.000580   0.000254   0.000147   0.000181
     H   17   0.001994   0.027331   0.000359   0.000357   0.000107   0.000231
     H   18   0.002415   0.016028   0.000533   0.000512   0.000125   0.000195
     H   19   0.008256   0.003671   0.441931   0.100391   0.011065   0.002693
     H   20   0.002733   0.000861   0.099564   0.443563   0.011178   0.001913
     H   21   4.756224   0.469056   0.002018   0.001176   0.027613   0.038127
     H   22   0.468300   4.762592   0.001323   0.001374   0.000703   0.030034
     H   23   0.001084   0.000501   5.071486   0.419702   0.013977   0.000902
     H   24   0.002302   0.000467   0.418240   5.071061   0.014394   0.000561


                  H 13       H 14       H 15       H 16       H 17       H 18
 ------------------------------------------------------------------------------
     H   13   5.000738
     H   14   0.003371   5.022004
     H   15   0.000771   0.565020   5.052617
     H   16   0.000315   0.028695   0.030161   5.488915
     H   17   0.000146   0.023941   0.047018   0.571941   5.471826
     H   18   0.000295   0.048691   0.024573   0.572711   0.576707   5.484637
     H   19   0.001703   0.000452   0.000399   0.000249   0.000261   0.000425
     H   20   0.011244   0.000185   0.000143   0.000072   0.000105   0.000159
     H   21   0.018233   0.009337   0.030136   0.001619   0.000585   0.000468
     H   22   0.009336   0.018503   0.038782   0.002032   0.019609   0.002569
     H   23   0.002621   0.000215   0.000140   0.000104   0.000167   0.000123
     H   24   0.000637   0.000172   0.000104   0.000071   0.000114   0.000156


                  H 19       H 20       H 21       H 22       H 23       H 24
 ------------------------------------------------------------------------------
     H   19   5.474434
     H   20   0.010246   5.476908
     H   21   0.001571   0.000942   5.139091
     H   22   0.001360   0.000340   0.102073   5.142280
     H   23   0.041215   0.005336   0.000500   0.000413   5.462424
     H   24   0.005334   0.041288   0.000311   0.000297   0.009490   5.460940


          HEAT OF FORMATION =      31.877680 KCALS/MOLE

          ZERO POINT ENERGY     131.603 KCAL/MOL


           NORMAL COORDINATE ANALYSIS (Total motion = 1 Angstrom)


   Root No.       1         2         3         4         5         6         7         8

                 1 A       2 A       3 A       4 A       5 A       6 A       7 A       8 A   

                  43.0      60.7     105.0     130.0     184.4     203.0     215.8     294.2
  
           1   -0.0051   -0.0017   -0.0155    0.0146    0.0124    0.0044   -0.0031    0.0025
           2    0.0050   -0.0174    0.0036   -0.0030   -0.0138   -0.0225   -0.0001   -0.0253
           3    0.0153   -0.0130   -0.0073    0.0164    0.0161   -0.0053   -0.0161   -0.0118
           4   -0.0051   -0.0019   -0.0158    0.0146    0.0111    0.0035   -0.0019    0.0023
           5    0.0172    0.0016    0.0240   -0.0012    0.0009   -0.0070   -0.0095    0.0106
           6    0.0371   -0.0062   -0.0046    0.0169   -0.0165   -0.0277    0.0221    0.0317
           7    0.0129   -0.0226    0.0388   -0.0125    0.0042    0.0035   -0.0234    0.0258
           8    0.0057    0.0146   -0.0122    0.0180    0.0088   -0.0040    0.0048    0.0067
           9   -0.0189    0.0007    0.0022   -0.0181    0.0004    0.0082   -0.0078   -0.0019
          10    0.0509    0.0450   -0.0178   -0.0202    0.0039    0.0076   -0.0023    0.0004
          11    0.0164   -0.0144   -0.0110   -0.0204    0.0015    0.0257    0.0008   -0.0057
          12   -0.0275    0.0246    0.0011    0.0137    0.0068   -0.0170   -0.0048    0.0097
          13   -0.0282   -0.0152   -0.0286    0.0049    0.0130    0.0224    0.0045    0.0194
          14   -0.0175    0.0077    0.0058   -0.0014   -0.0112   -0.0113    0.0056   -0.0114
          15    0.0167   -0.0339   -0.0150    0.0106    0.0146   -0.0036   -0.0158   -0.0126
          16    0.0049    0.0155    0.0135    0.0042    0.0068   -0.0113   -0.0150   -0.0230
          17   -0.0014   -0.0217   -0.0074    0.0009   -0.0116   -0.0154    0.0054   -0.0156
          18   -0.0129    0.0226    0.0112    0.0066    0.0169    0.0039   -0.0183   -0.0060
          19   -0.0064   -0.0155   -0.0182    0.0042   -0.0059   -0.0200   -0.0067   -0.0203
          20    0.0137    0.0084    0.0289    0.0003    0.0105    0.0203   -0.0059    0.0147
          21    0.0217   -0.0021    0.0108    0.0048   -0.0132    0.0379    0.0329   -0.0085
          22    0.0061   -0.0148    0.0278    0.0382   -0.0044    0.0082    0.0170   -0.0173
          23    0.0151    0.0100   -0.0121   -0.0087    0.0089   -0.0040   -0.0103    0.0220
          24    0.0042   -0.0041   -0.0157   -0.0333   -0.0136    0.0219    0.0044   -0.0182
          25   -0.0300   -0.0067   -0.0058   -0.0202   -0.0192    0.0024    0.0245    0.0244
          26   -0.0341    0.0156   -0.0042    0.0068    0.0029    0.0069    0.0025    0.0002
          27   -0.0069   -0.0135   -0.0004   -0.0089   -0.0056   -0.0045    0.0034    0.0068
          28   -0.0095    0.0124    0.0216   -0.0211   -0.0234   -0.0229    0.0086   -0.0198
          29   -0.0240   -0.0028   -0.0130    0.0083    0.0025    0.0058    0.0042    0.0038
          30   -0.0254    0.0217    0.0167   -0.0118   -0.0045   -0.0028   -0.0006   -0.0013
          31    0.0034   -0.0034   -0.0220    0.0175   -0.0045   -0.0094    0.0165    0.0150
          32    0.0143   -0.0469   -0.0139   -0.0014   -0.0165   -0.0262    0.0026   -0.0351
          33    0.0166   -0.0276   -0.0134    0.0153    0.0207   -0.0022   -0.0223   -0.0218
          34   -0.0161   -0.0024   -0.0152    0.0173    0.0358    0.0254   -0.0251   -0.0220
          35    0.0352    0.0054    0.0162    0.0097   -0.0077   -0.0589   -0.0058    0.0684
          36    0.0477   -0.0046   -0.0074    0.0196   -0.0292   -0.0552    0.0321    0.0625
          37    0.0106    0.0102   -0.0073    0.0162    0.0010    0.0002    0.0171    0.0500
          38    0.0081    0.0064    0.0351   -0.0065    0.0131    0.0423   -0.0101   -0.0150
          39    0.0535   -0.0049   -0.0117    0.0230   -0.0334   -0.0778    0.0324    0.0813
          40    0.0031   -0.0414    0.0545   -0.0159    0.0064    0.0028   -0.0321    0.0364
          41   -0.0101    0.0141   -0.0080    0.0669    0.0009   -0.0089    0.0272   -0.0167
          42   -0.0406   -0.0544    0.0467   -0.0494    0.0099    0.0080   -0.0436    0.0397
          43   -0.0004   -0.0608    0.0730   -0.0513    0.0169    0.0013   -0.0605    0.0697
          44    0.0049    0.0403   -0.0166    0.0238    0.0189   -0.0203   -0.0010    0.0209
          45   -0.0109    0.0386   -0.0218    0.0096   -0.0019    0.0004    0.0125   -0.0212
          46    0.0608    0.0442   -0.0094   -0.0820    0.1388   -0.0432    0.0897   -0.0239
          47    0.0069   -0.0134   -0.0095    0.0128   -0.0485    0.0375   -0.0355    0.0095
          48   -0.0449    0.0268    0.0212    0.0294    0.0560   -0.0616    0.0205    0.0241
          49    0.0609    0.0801   -0.0550    0.0329   -0.1215    0.0573   -0.0765    0.0084
          50    0.0154   -0.0419   -0.0088   -0.0188   -0.0684    0.0726   -0.0481   -0.0025
          51   -0.0345   -0.0116    0.0266   -0.0204    0.0563   -0.0278    0.0209    0.0061
          52    0.0607    0.0637   -0.0343   -0.0185   -0.0050    0.0124   -0.0022   -0.0060
          53    0.0354   -0.0105   -0.0147   -0.0877    0.1167   -0.0075    0.0843   -0.0375
          54   -0.0097    0.0774   -0.0453    0.0581   -0.0864    0.0164   -0.0530    0.0096
          55   -0.0410   -0.0287   -0.0527    0.0147    0.0310    0.0487    0.0035    0.0422
          56   -0.0191    0.0171    0.0145   -0.0058   -0.0175   -0.0172    0.0081   -0.0147
          57    0.0350   -0.0610   -0.0297    0.0199    0.0248   -0.0027   -0.0251   -0.0193
          58    0.0215    0.0276    0.0270    0.0132    0.0189   -0.0196   -0.0371   -0.0517
          59    0.0110   -0.0377   -0.0104   -0.0012   -0.0186   -0.0240    0.0092   -0.0200
          60   -0.0209    0.0444    0.0190    0.0120    0.0288    0.0107   -0.0299   -0.0107
          61   -0.0146   -0.0249   -0.0530   -0.0421   -0.0156   -0.0560   -0.0399   -0.0256
          62    0.0082    0.0108    0.0629    0.0157    0.0134    0.0632    0.0117   -0.0073
          63    0.0226    0.0037    0.0449    0.0340   -0.0068    0.0762    0.0567   -0.0166
          64    0.0143   -0.0065    0.0589    0.0932   -0.0023    0.0457    0.0626   -0.0332
          65    0.0217    0.0056   -0.0475   -0.0273   -0.0011   -0.0252   -0.0183    0.0212
          66    0.0038   -0.0100   -0.0477   -0.0676   -0.0191   -0.0067   -0.0205   -0.0103
          67   -0.0440   -0.0122   -0.0068   -0.0362   -0.0363    0.0058    0.0455    0.0543
          68   -0.0522    0.0326   -0.0059    0.0112    0.0125    0.0204    0.0001    0.0074
          69   -0.0120   -0.0207   -0.0006   -0.0202   -0.0187   -0.0052    0.0175    0.0245
          70   -0.0072    0.0216    0.0434   -0.0382   -0.0442   -0.0446    0.0125   -0.0460
          71   -0.0337   -0.0006   -0.0218    0.0140    0.0112    0.0193    0.0050    0.0205
          72   -0.0461    0.0427    0.0307   -0.0260   -0.0172   -0.0048    0.0081   -0.0026


   Root No.       9        10        11        12        13        14        15        16

                 9 A      10 A      11 A      12 A      13 A      14 A      15 A      16 A   

                 346.1     452.5     480.0     519.0     560.9     744.9     799.6     812.2
  
           1   -0.0201    0.0026   -0.0144   -0.0198    0.0307   -0.0084    0.0015   -0.0002
           2   -0.0148    0.0039    0.0030   -0.0023   -0.0134   -0.0168   -0.0044    0.0007
           3   -0.0099    0.0034   -0.0132   -0.0207    0.0167    0.0356    0.0241    0.0071
           4   -0.0081   -0.0011   -0.0195   -0.0228    0.0347   -0.0309   -0.0001   -0.0008
           5   -0.0035   -0.0106    0.0368    0.0226    0.0313    0.0111    0.0073   -0.0009
           6   -0.0161    0.0122   -0.0013    0.0027   -0.0033    0.0104    0.0190    0.0018
           7    0.0139   -0.0113   -0.0167   -0.0029   -0.0171    0.0046    0.0069    0.0087
           8    0.0333   -0.0111   -0.0142   -0.0013   -0.0220    0.0011   -0.0047   -0.0018
           9    0.0127    0.0437    0.0065   -0.0014    0.0086    0.0002    0.0042    0.0017
          10    0.0096    0.0118   -0.0032   -0.0018   -0.0044    0.0006    0.0008    0.0019
          11    0.0382    0.0401   -0.0028   -0.0021   -0.0100    0.0034    0.0004    0.0006
          12    0.0143    0.0074   -0.0062   -0.0018   -0.0095    0.0025    0.0017    0.0009
          13   -0.0246    0.0061    0.0038    0.0439   -0.0126    0.0148   -0.0096    0.0247
          14   -0.0129    0.0044   -0.0015   -0.0190   -0.0060    0.0267    0.0234   -0.0004
          15   -0.0123    0.0055   -0.0027    0.0172   -0.0079    0.0104   -0.0095    0.0114
          16   -0.0403    0.0080    0.0273   -0.0149   -0.0285    0.0103   -0.0111   -0.0283
          17   -0.0133    0.0049   -0.0143   -0.0082    0.0058   -0.0323   -0.0104    0.0022
          18    0.0040   -0.0032    0.0198   -0.0077   -0.0079   -0.0109   -0.0063   -0.0143
          19    0.0505   -0.0240    0.0160    0.0106    0.0068   -0.0033   -0.0065   -0.0046
          20   -0.0175   -0.0109    0.0120    0.0076    0.0340   -0.0032    0.0052    0.0043
          21   -0.0151   -0.0315   -0.0149   -0.0020   -0.0261    0.0028   -0.0027   -0.0009
          22    0.0430   -0.0041    0.0142    0.0113    0.0039    0.0059    0.0031    0.0009
          23    0.0042   -0.0342   -0.0212   -0.0049   -0.0170   -0.0052   -0.0047   -0.0015
          24   -0.0151   -0.0349    0.0163    0.0098    0.0187   -0.0054   -0.0074   -0.0008
          25   -0.0034   -0.0018    0.0197   -0.0269   -0.0056    0.0238   -0.0004    0.0231
          26   -0.0117    0.0040   -0.0062    0.0145   -0.0033    0.0073    0.0048   -0.0068
          27    0.0162   -0.0052    0.0101   -0.0276    0.0056   -0.0131   -0.0249   -0.0013
          28   -0.0201    0.0089   -0.0261    0.0205    0.0021    0.0187   -0.0082   -0.0227
          29   -0.0130    0.0026    0.0085   -0.0102   -0.0071   -0.0047   -0.0091   -0.0037
          30    0.0207   -0.0036   -0.0189    0.0198    0.0165   -0.0077   -0.0065   -0.0104
          31   -0.0181    0.0059   -0.0375   -0.0408    0.0457   -0.0529    0.0287   -0.0006
          32   -0.0209    0.0088   -0.0295    0.0189   -0.0092   -0.0296   -0.0147    0.0485
          33   -0.0133    0.0045   -0.0192    0.0007    0.0110    0.0466    0.0067    0.0321
          34   -0.0147   -0.0115   -0.0450   -0.0618    0.0621   -0.0026    0.0638    0.0038
          35   -0.0083    0.0388    0.0711    0.0578    0.0699   -0.0211   -0.0468    0.0040
          36   -0.0158    0.0349    0.0224    0.0318    0.0007   -0.0123   -0.0267    0.0019
          37   -0.0236    0.0091    0.0022    0.0112    0.0518   -0.0679   -0.0465    0.0020
          38   -0.0127   -0.0484    0.0109   -0.0010    0.0255    0.0285    0.0501    0.0000
          39   -0.0147    0.0552    0.0350    0.0440    0.0118   -0.0260   -0.0481    0.0026
          40    0.0161   -0.0060   -0.0265   -0.0077   -0.0278    0.0015   -0.0049   -0.0039
          41    0.0663   -0.0141    0.0103    0.0155   -0.0112    0.0229    0.0227    0.0188
          42    0.0038    0.0575   -0.0321   -0.0220   -0.0265   -0.0170   -0.0392   -0.0414
          43   -0.0027    0.0018   -0.0586   -0.0260   -0.0525   -0.0154   -0.0363   -0.0310
          44    0.0327   -0.0065   -0.0277   -0.0078   -0.0357    0.0025    0.0007    0.0041
          45    0.0229    0.0374    0.0243    0.0091    0.0218    0.0131    0.0328    0.0285
          46    0.0125    0.0149    0.0055    0.0006    0.0022   -0.0020   -0.0077   -0.0100
          47    0.0363    0.0201   -0.0119   -0.0029   -0.0198    0.0046    0.0012    0.0060
          48    0.0103   -0.0665   -0.0250   -0.0006   -0.0342    0.0017   -0.0113    0.0003
          49    0.0065    0.0311   -0.0024   -0.0041   -0.0017   -0.0032   -0.0091   -0.0115
          50    0.0429    0.0893    0.0045   -0.0039    0.0017    0.0098    0.0251    0.0192
          51    0.0182    0.0168   -0.0036   -0.0011   -0.0061    0.0077    0.0189    0.0176
          52    0.0097    0.0243    0.0010   -0.0020   -0.0004   -0.0021   -0.0077   -0.0099
          53    0.0439    0.0761    0.0143   -0.0002    0.0062    0.0020   -0.0030   -0.0119
          54    0.0104    0.0209   -0.0037   -0.0035   -0.0072   -0.0040   -0.0196   -0.0241
          55   -0.0385    0.0120    0.0244    0.1407   -0.0647   -0.0522    0.0915   -0.1448
          56   -0.0062    0.0017   -0.0086   -0.0527    0.0134    0.0588   -0.0155    0.0639
          57   -0.0278    0.0115    0.0081    0.0714   -0.0419   -0.0617    0.0635   -0.1033
          58   -0.0705    0.0158    0.0798   -0.0215   -0.1129   -0.0850    0.0258    0.1617
          59   -0.0148    0.0068   -0.0346   -0.0135    0.0277    0.0176   -0.0088   -0.0588
          60   -0.0045   -0.0029    0.0599   -0.0039   -0.0604   -0.0983    0.0044    0.1172
          61    0.0726   -0.0764    0.0519    0.0409    0.0195    0.0340    0.0218    0.0041
          62   -0.0243    0.0044    0.0199    0.0076    0.0520   -0.0282   -0.0296   -0.0023
          63   -0.0292    0.0016   -0.0269   -0.0158   -0.0214   -0.0276   -0.0341   -0.0084
          64    0.0448    0.0320   -0.0008   -0.0007   -0.0106   -0.0191   -0.0339   -0.0208
          65    0.0124   -0.0963   -0.0232    0.0037   -0.0373    0.0096    0.0014    0.0025
          66   -0.0119   -0.0826    0.0210    0.0191    0.0140    0.0132    0.0121    0.0108
          67    0.0185   -0.0132    0.0737   -0.0887   -0.0320   -0.0735    0.1217   -0.0541
          68   -0.0061    0.0026   -0.0236    0.0490    0.0150    0.0227   -0.0464    0.0299
          69    0.0293   -0.0123    0.0486   -0.0750   -0.0152   -0.0797    0.0646   -0.0594
          70   -0.0190    0.0169   -0.0798    0.0928    0.0017   -0.0894    0.0722    0.0820
          71   -0.0100   -0.0016    0.0297   -0.0322   -0.0068    0.0494   -0.0296   -0.0356
          72    0.0310   -0.0011   -0.0548    0.0849    0.0173   -0.0518    0.0763    0.0842


   Root No.      17        18        19        20        21        22        23        24

                17 A      18 A      19 A      20 A      21 A      22 A      23 A      24 A   

                 818.5     829.4     867.8     924.2     948.7     961.1     967.8     980.0
  
           1    0.0002    0.0029    0.0048   -0.0008    0.0062   -0.0040    0.0027    0.0004
           2   -0.0207    0.0238    0.0064    0.0006   -0.0030    0.0005   -0.0026    0.0038
           3   -0.0098   -0.0125   -0.0158   -0.0001    0.0007   -0.0059    0.0096    0.0056
           4   -0.0003    0.0030   -0.0041   -0.0010    0.0010    0.0149   -0.0087    0.0004
           5   -0.0073   -0.0088    0.0157    0.0033   -0.0130   -0.0108    0.0002   -0.0022
           6   -0.0015   -0.0015    0.0283    0.0039   -0.0213   -0.0082    0.0088   -0.0004
           7    0.0256    0.0228   -0.0095    0.0005    0.0061    0.0035    0.0076   -0.0001
           8   -0.0046   -0.0045   -0.0041    0.0006    0.0019   -0.0001    0.0045   -0.0002
           9    0.0043    0.0041    0.0025    0.0034   -0.0047   -0.0008   -0.0057    0.0005
          10    0.0059    0.0062   -0.0057    0.0097   -0.0034   -0.0030    0.0066   -0.0020
          11    0.0028    0.0015   -0.0012   -0.0029    0.0101    0.0033    0.0300   -0.0046
          12    0.0035    0.0026    0.0031   -0.0041   -0.0001   -0.0012   -0.0090    0.0010
          13   -0.0142    0.0092    0.0065   -0.0005    0.0080   -0.0232   -0.0016    0.0108
          14   -0.0209   -0.0004   -0.0275   -0.0021    0.0044    0.0298   -0.0112   -0.0176
          15    0.0083   -0.0113   -0.0120   -0.0017    0.0103    0.0051   -0.0139   -0.0049
          16    0.0139    0.0017    0.0022   -0.0004    0.0080   -0.0224   -0.0015   -0.0151
          17   -0.0058    0.0224    0.0172   -0.0023    0.0049   -0.0090    0.0087   -0.0077
          18   -0.0229    0.0317    0.0057   -0.0014    0.0103   -0.0159   -0.0027   -0.0155
          19   -0.0132   -0.0108   -0.0140   -0.0012   -0.0284   -0.0121   -0.0035   -0.0019
          20    0.0029   -0.0004    0.0039    0.0029    0.0120    0.0109    0.0001    0.0040
          21    0.0012    0.0013    0.0105    0.0039    0.0178    0.0044   -0.0136    0.0018
          22    0.0006   -0.0046    0.0096   -0.0298    0.0069    0.0038   -0.0054    0.0018
          23   -0.0041   -0.0004   -0.0085    0.0221   -0.0134   -0.0051   -0.0186    0.0021
          24   -0.0052   -0.0036   -0.0199    0.0220   -0.0010    0.0004    0.0163   -0.0014
          25   -0.0234    0.0113   -0.0001    0.0008   -0.0093    0.0171    0.0011   -0.0280
          26    0.0136   -0.0146   -0.0045    0.0001    0.0020   -0.0069    0.0009    0.0131
          27    0.0383   -0.0191    0.0123    0.0019   -0.0111    0.0052    0.0059   -0.0213
          28    0.0227   -0.0114   -0.0005    0.0010   -0.0076    0.0170    0.0026    0.0312
          29    0.0399   -0.0299    0.0022    0.0007   -0.0009   -0.0049   -0.0023   -0.0127
          30   -0.0109    0.0184    0.0066    0.0003   -0.0034    0.0106    0.0019    0.0256
          31    0.0015    0.0125    0.0448    0.0093   -0.0221    0.0353    0.0250   -0.0088
          32   -0.0108    0.0108    0.0147    0.0103   -0.0058   -0.0068    0.0124    0.1928
          33   -0.0051   -0.0234   -0.0291    0.0009    0.0115   -0.0248    0.0067    0.1078
          34   -0.0059   -0.0152    0.0332    0.0068   -0.0526    0.0070    0.0330    0.0037
          35   -0.0099   -0.0095   -0.0903   -0.0097    0.0320    0.0080    0.0003    0.0127
          36   -0.0003    0.0055   -0.0267   -0.0043    0.0172    0.0019   -0.0071    0.0039
          37    0.0254    0.0069   -0.0240   -0.0177    0.0805    0.0655   -0.0708   -0.0105
          38    0.0063   -0.0165    0.1075    0.0079   -0.0262   -0.0040   -0.0223   -0.0174
          39   -0.0028    0.0082   -0.0748   -0.0092    0.0320    0.0103   -0.0005    0.0101
          40   -0.0104   -0.0118    0.0080   -0.0266    0.0219    0.0120    0.0095    0.0016
          41    0.0512    0.0338    0.0149   -0.0841    0.0691    0.0406    0.0318    0.0058
          42   -0.1171   -0.1061    0.0424   -0.0349    0.0102    0.0051   -0.0105    0.0024
          43   -0.0851   -0.0731    0.0128    0.0013   -0.0059   -0.0074   -0.0127    0.0010
          44    0.0154    0.0183   -0.0137    0.0402   -0.0352   -0.0240   -0.0567    0.0053
          45    0.0811    0.0734   -0.0157    0.0233   -0.0162   -0.0065   -0.0242    0.0024
          46   -0.0299   -0.0296    0.0185   -0.0282    0.0130    0.0086   -0.0046    0.0029
          47    0.0193    0.0183   -0.0217    0.0198    0.0120    0.0012    0.0801   -0.0139
          48    0.0022    0.0026   -0.0345    0.0186    0.0352    0.0108    0.1663   -0.0265
          49   -0.0337   -0.0327    0.0199   -0.0274    0.0115    0.0077   -0.0091    0.0035
          50    0.0584    0.0551   -0.0026    0.0230   -0.0392   -0.0221   -0.1011    0.0117
          51    0.0532    0.0510   -0.0138    0.0305   -0.0314   -0.0194   -0.0573    0.0048
          52   -0.0292   -0.0287    0.0180   -0.0264    0.0126    0.0078   -0.0033    0.0024
          53   -0.0350   -0.0374    0.0425   -0.0593    0.0176    0.0125   -0.0506    0.0117
          54   -0.0710   -0.0706    0.0429   -0.0709    0.0398    0.0233    0.0107    0.0038
          55    0.0121   -0.0012    0.0037    0.0065   -0.0577    0.0559    0.0473   -0.0265
          56   -0.0194   -0.0074   -0.0226   -0.0030    0.0250   -0.0156   -0.0178    0.0050
          57   -0.0242    0.0278   -0.0316   -0.0041   -0.0164    0.1240   -0.0307   -0.0645
          58   -0.0070   -0.0347    0.0104    0.0021   -0.0399    0.0660    0.0378    0.0630
          59   -0.0325    0.0579    0.0090   -0.0065    0.0289   -0.0677    0.0163   -0.0412
          60   -0.0014   -0.0188    0.0180    0.0041   -0.0321    0.0784    0.0022    0.0482
          61    0.0054   -0.0219    0.0708    0.1354    0.1045    0.0448   -0.0182    0.0113
          62   -0.0229   -0.0098   -0.0844   -0.0848   -0.0651   -0.0245    0.0222    0.0074
          63   -0.0210    0.0013   -0.0755   -0.1048   -0.0837   -0.0403    0.0049   -0.0026
          64   -0.0588   -0.0443   -0.0295    0.2353   -0.0109   -0.0116   -0.0248    0.0007
          65    0.0101    0.0043    0.0065   -0.1390   -0.0173   -0.0119   -0.0637    0.0105
          66    0.0283    0.0162    0.0051   -0.1791    0.0046    0.0037    0.0016    0.0034
          67   -0.0276   -0.0107   -0.0417   -0.0067    0.0574   -0.0938   -0.0020    0.1374
          68   -0.0095    0.0271    0.0488    0.0063   -0.0352   -0.0328    0.0427    0.0029
          69    0.0414   -0.0428   -0.0262   -0.0044    0.0400   -0.0601   -0.0055    0.0872
          70    0.0319   -0.0791   -0.0158   -0.0053    0.0376   -0.0974   -0.0043   -0.1506
          71    0.0285   -0.0108   -0.0029    0.0042   -0.0218    0.0540   -0.0092    0.0681
          72   -0.0266   -0.0449   -0.0324   -0.0013    0.0192   -0.0299   -0.0282   -0.0727


   Root No.      25        26        27        28        29        30        31        32

                25 A      26 A      27 A      28 A      29 A      30 A      31 A      32 A   

                 999.3    1023.1    1032.7    1046.1    1082.4    1090.1    1111.1    1117.2
  
           1    0.0015    0.0019   -0.0032   -0.0104    0.0032   -0.0060    0.0007    0.0017
           2   -0.0141    0.0136   -0.0005   -0.0027    0.0012    0.0038   -0.0055    0.0019
           3    0.0256   -0.0027   -0.0054    0.0024    0.0054   -0.0035    0.0026    0.0000
           4   -0.0075    0.0008   -0.0037    0.0163   -0.0020    0.0025   -0.0143    0.0071
           5   -0.0074   -0.0071   -0.0026    0.0048    0.0014   -0.0025   -0.0072    0.0010
           6   -0.0152   -0.0002    0.0078    0.0055   -0.0038    0.0002   -0.0021    0.0032
           7    0.0023    0.0113    0.0210    0.0090    0.0006   -0.0004   -0.0066   -0.0291
           8    0.0014    0.0004    0.0007   -0.0029   -0.0004    0.0002    0.0135    0.0198
           9   -0.0014    0.0019    0.0060    0.0071   -0.0012   -0.0001    0.0113    0.0214
          10   -0.0050   -0.0080   -0.0133   -0.0044    0.0001    0.0000    0.0062    0.0318
          11   -0.0112   -0.0070   -0.0118   -0.0009    0.0004    0.0000   -0.0108   -0.0212
          12    0.0038   -0.0022   -0.0066   -0.0060    0.0012   -0.0001   -0.0162   -0.0233
          13   -0.0105   -0.0130    0.0125   -0.0079   -0.0034    0.0023   -0.0014    0.0005
          14   -0.0022   -0.0078   -0.0010    0.0049   -0.0183   -0.0140    0.0099   -0.0068
          15   -0.0199   -0.0159    0.0118   -0.0053   -0.0017   -0.0012    0.0110   -0.0083
          16   -0.0048    0.0180   -0.0052    0.0004    0.0010    0.0038    0.0021   -0.0012
          17    0.0198   -0.0233    0.0065   -0.0014   -0.0109    0.0026   -0.0124    0.0096
          18   -0.0038    0.0073   -0.0019   -0.0005   -0.0185    0.0008    0.0016   -0.0008
          19   -0.0067   -0.0039    0.0077    0.0135   -0.0011   -0.0011    0.0040   -0.0044
          20    0.0049    0.0062    0.0010   -0.0096   -0.0027    0.0019    0.0026    0.0027
          21    0.0087   -0.0008   -0.0106   -0.0077    0.0022   -0.0003   -0.0071    0.0036
          22    0.0035   -0.0052   -0.0152   -0.0106   -0.0009    0.0009   -0.0015    0.0044
          23    0.0045    0.0065    0.0165    0.0104   -0.0005   -0.0007   -0.0026   -0.0046
          24    0.0004    0.0056    0.0140    0.0030    0.0000    0.0001    0.0013    0.0007
          25    0.0064    0.0151   -0.0095    0.0033   -0.0015   -0.0047   -0.0026    0.0022
          26    0.0024   -0.0072    0.0028    0.0024    0.0040   -0.0060    0.0081   -0.0058
          27    0.0132    0.0079   -0.0058    0.0054    0.0017    0.0002    0.0084   -0.0059
          28   -0.0009   -0.0149    0.0077   -0.0053    0.0043   -0.0026   -0.0048    0.0033
          29   -0.0095    0.0109   -0.0007   -0.0063    0.0017    0.0042   -0.0117    0.0085
          30   -0.0012   -0.0106    0.0038   -0.0016    0.0000    0.0054   -0.0020    0.0014
          31   -0.0318    0.0280    0.0273   -0.1349   -0.0107    0.0302    0.1651   -0.1046
          32   -0.0297    0.1630   -0.0920    0.0329   -0.0831   -0.0159    0.0506   -0.0322
          33    0.0299    0.0643   -0.0661    0.0740   -0.0327   -0.0297   -0.0368    0.0267
          34    0.0052    0.0195    0.0210   -0.0580   -0.0068    0.0149   -0.0917    0.0349
          35    0.0576    0.0098   -0.0160   -0.0559    0.0081    0.0026   -0.0480    0.0091
          36    0.0046   -0.0011   -0.0070    0.0121    0.0005   -0.0028    0.0126   -0.0039
          37   -0.0281   -0.0637   -0.0663    0.1428    0.0059   -0.0032    0.0601   -0.0348
          38   -0.0667   -0.0578   -0.0262    0.1036   -0.0004   -0.0082    0.0380   -0.0243
          39    0.0336    0.0179   -0.0011   -0.0278    0.0013    0.0023   -0.0097    0.0072
          40    0.0093    0.0229    0.0393    0.0125    0.0016   -0.0006    0.0112    0.0355
          41    0.0284    0.0814    0.1406    0.0481    0.0044   -0.0020    0.0505    0.1518
          42    0.0049   -0.0028   -0.0071   -0.0058   -0.0005    0.0002    0.0455    0.1480
          43    0.0051   -0.0173   -0.0358   -0.0285    0.0000    0.0013    0.0193    0.0143
          44    0.0150   -0.0224   -0.0467   -0.0422   -0.0025    0.0026    0.0633   -0.0066
          45    0.0035    0.0069    0.0153    0.0097   -0.0019    0.0000    0.0207   -0.0194
          46    0.0079    0.0144    0.0235    0.0079    0.0000   -0.0001   -0.0034   -0.0230
          47   -0.0346   -0.0269   -0.0429   -0.0055    0.0002    0.0000   -0.0064    0.0080
          48   -0.0654   -0.0402   -0.0613   -0.0004   -0.0001   -0.0002   -0.0167   -0.0074
          49    0.0093    0.0142    0.0229    0.0066    0.0000   -0.0001   -0.0025   -0.0221
          50    0.0310   -0.0073   -0.0220   -0.0283    0.0031    0.0003   -0.0120    0.0149
          51    0.0136   -0.0166   -0.0345   -0.0256    0.0026    0.0002   -0.0120    0.0275
          52    0.0068    0.0119    0.0188    0.0056    0.0004   -0.0002   -0.0074   -0.0267
          53    0.0314    0.0325    0.0480    0.0072    0.0019   -0.0002   -0.0331   -0.1101
          54    0.0114    0.0295    0.0466    0.0167    0.0012   -0.0005   -0.0431   -0.1407
          55    0.1120    0.0151   -0.0375    0.0446   -0.1514    0.0580    0.0197   -0.0146
          56   -0.0198   -0.0269    0.0157   -0.0010   -0.0353   -0.0017    0.0146   -0.0113
          57   -0.0552    0.0386   -0.0140   -0.0259    0.1961   -0.1056   -0.0234    0.0208
          58    0.0894   -0.0763    0.0065    0.0316    0.1093    0.1334    0.0293   -0.0176
          59    0.0646   -0.0294   -0.0055    0.0377    0.0826    0.1537    0.0325   -0.0192
          60   -0.0218   -0.0176    0.0151   -0.0331   -0.0869   -0.1218   -0.0400    0.0264
          61    0.0424    0.0062   -0.0349   -0.0728   -0.0010    0.0071    0.0345   -0.0090
          62    0.0046    0.0091    0.0050   -0.0480   -0.0098    0.0063    0.0695   -0.0342
          63   -0.0136   -0.0042    0.0109    0.0114   -0.0014   -0.0016    0.0137   -0.0131
          64    0.0235    0.0063    0.0234   -0.0065    0.0051   -0.0003   -0.0300   -0.0198
          65    0.0308   -0.0166   -0.0517   -0.0523    0.0036    0.0024   -0.0357   -0.0020
          66    0.0053   -0.0116   -0.0386   -0.0314   -0.0006    0.0023   -0.0037    0.0132
          67   -0.0157   -0.0332    0.0161   -0.0021    0.0887   -0.0650    0.0063   -0.0036
          68    0.0676    0.0439   -0.0333    0.0309    0.2438   -0.1821    0.0370   -0.0242
          69   -0.0157   -0.0346    0.0186   -0.0042    0.0083    0.0002    0.0088   -0.0064
          70    0.0217    0.0257   -0.0101    0.0050   -0.0458   -0.1124    0.0074   -0.0043
          71   -0.0458    0.0233   -0.0030   -0.0119    0.0709    0.1672   -0.0281    0.0193
          72   -0.0571    0.0895   -0.0325    0.0020    0.0898    0.2368   -0.0209    0.0145


   Root No.      33        34        35        36        37        38        39        40

                33 A      34 A      35 A      36 A      37 A      38 A      39 A      40 A   

                1122.7    1128.1    1166.7    1171.3    1203.4    1213.5    1239.5    1282.1
  
           1   -0.0475    0.0047    0.0050   -0.0101   -0.0051   -0.0010   -0.0098    0.0354
           2    0.0163   -0.0007   -0.0019   -0.0050   -0.0232    0.0145   -0.0035    0.0296
           3   -0.0284    0.0035    0.0032   -0.0062   -0.0080    0.0076    0.0052   -0.0123
           4    0.0369    0.0029   -0.0156   -0.0025   -0.0052    0.0035   -0.0113    0.0255
           5   -0.0157   -0.0066    0.0217    0.0004   -0.0132   -0.0121   -0.0058    0.0287
           6    0.0120    0.0031   -0.0205    0.0116    0.0133    0.0085   -0.0004   -0.0049
           7   -0.0048    0.0098    0.0064    0.0089   -0.0006    0.0009   -0.0001   -0.0021
           8   -0.0005    0.0088   -0.0119    0.0032   -0.0087   -0.0132    0.0078   -0.0225
           9    0.0111    0.0344    0.0305   -0.0184    0.0127    0.0085    0.0096   -0.0033
          10    0.0006   -0.0184   -0.0020   -0.0043    0.0011    0.0007    0.0016    0.0022
          11   -0.0010   -0.0042    0.0018    0.0023    0.0013    0.0034   -0.0019    0.0055
          12   -0.0078   -0.0348   -0.0191   -0.0001   -0.0027   -0.0032    0.0024   -0.0015
          13    0.0041   -0.0001   -0.0004    0.0025    0.0076   -0.0062   -0.0005    0.0010
          14    0.0142   -0.0055    0.0010   -0.0016   -0.0001   -0.0018   -0.0031    0.0037
          15    0.0243   -0.0074    0.0015   -0.0037   -0.0133    0.0090    0.0000   -0.0027
          16    0.0052   -0.0011    0.0001    0.0018   -0.0039    0.0061    0.0046   -0.0138
          17   -0.0292    0.0083   -0.0009    0.0067    0.0001    0.0087    0.0115   -0.0329
          18    0.0006   -0.0009    0.0003    0.0038    0.0098   -0.0064    0.0006   -0.0066
          19   -0.0051    0.0010   -0.0020   -0.0086   -0.0004   -0.0063    0.0076   -0.0041
          20    0.0176    0.0110   -0.0320   -0.0246    0.0104    0.0049   -0.0195   -0.0260
          21    0.0003    0.0060    0.0168   -0.0059   -0.0124   -0.0125    0.0219    0.0238
          22    0.0115    0.0113   -0.0068   -0.0190    0.0002   -0.0067   -0.0017   -0.0177
          23    0.0019    0.0043    0.0097   -0.0306    0.0105    0.0010    0.0247    0.0029
          24   -0.0029   -0.0084   -0.0150    0.0153   -0.0086   -0.0076   -0.0253   -0.0222
          25   -0.0087    0.0020    0.0000    0.0026    0.0058   -0.0031    0.0016   -0.0063
          26    0.0158   -0.0046    0.0004   -0.0011    0.0096   -0.0122   -0.0074    0.0195
          27    0.0143   -0.0046    0.0005   -0.0042   -0.0018   -0.0028   -0.0062    0.0186
          28   -0.0075    0.0029   -0.0008    0.0002   -0.0027    0.0040    0.0029   -0.0073
          29   -0.0206    0.0071   -0.0020    0.0055    0.0133   -0.0065    0.0037   -0.0139
          30   -0.0058    0.0011    0.0001    0.0014    0.0089   -0.0081   -0.0024    0.0046
          31   -0.0250   -0.0727    0.0892   -0.0468   -0.0191   -0.0293   -0.0012   -0.0652
          32    0.0098   -0.0302    0.0285    0.0123    0.0488   -0.0517   -0.0080   -0.0277
          33   -0.0395    0.0208   -0.0180    0.0181    0.0359   -0.0141   -0.0007    0.0002
          34    0.1744   -0.0259    0.0685    0.1276   -0.0002   -0.0401    0.0909   -0.0778
          35    0.0211   -0.0323    0.1411    0.0611   -0.0441   -0.0618    0.0723    0.0034
          36   -0.0274    0.0060   -0.0127   -0.0160    0.0006    0.0081   -0.0101    0.0243
          37   -0.0128   -0.0396    0.0378    0.0714   -0.0046    0.0263    0.0537   -0.0969
          38   -0.0493   -0.0384    0.0506    0.0694    0.0015    0.0071    0.0295   -0.0184
          39    0.0187    0.0131   -0.0208   -0.0190   -0.0016    0.0006   -0.0020   -0.0156
          40   -0.0103   -0.0256    0.0069    0.0257   -0.0038    0.0056   -0.0146    0.0158
          41   -0.0324   -0.0931    0.0160    0.0848   -0.0108    0.0208   -0.0427    0.0516
          42    0.0107   -0.0191    0.0221   -0.0103    0.0058    0.0074   -0.0069    0.0180
          43   -0.0086    0.0028   -0.0476    0.0674   -0.0382   -0.0230   -0.0461   -0.0086
          44   -0.0031    0.1561   -0.0238    0.1668   -0.0758   -0.0329   -0.1126    0.0203
          45    0.0128    0.1177    0.0616    0.0299    0.0016    0.0139   -0.0264    0.0239
          46    0.0001    0.0184    0.0077    0.0033    0.0019    0.0023   -0.0018   -0.0053
          47    0.0028   -0.0149    0.0086    0.0021    0.0037    0.0094   -0.0098    0.0214
          48    0.0088   -0.0058    0.0289    0.0012    0.0122    0.0230   -0.0241    0.0384
          49   -0.0013    0.0162    0.0027    0.0064   -0.0015   -0.0008   -0.0020   -0.0058
          50   -0.0224   -0.1078   -0.0639    0.0159   -0.0173   -0.0133   -0.0117    0.0082
          51   -0.0164   -0.1062   -0.0517   -0.0005   -0.0090   -0.0087   -0.0015    0.0065
          52   -0.0035    0.0033   -0.0020    0.0087   -0.0023    0.0005   -0.0064    0.0064
          53   -0.0172   -0.0031   -0.0262    0.0303   -0.0139   -0.0070   -0.0149    0.0080
          54   -0.0103    0.0250   -0.0047    0.0226   -0.0046    0.0023   -0.0156    0.0133
          55    0.0196   -0.0120    0.0057   -0.0228   -0.0674    0.0472    0.0022    0.0071
          56    0.0348   -0.0104    0.0016   -0.0038   -0.0102    0.0049   -0.0027    0.0039
          57   -0.0671    0.0205   -0.0058    0.0258    0.0921   -0.0659   -0.0068   -0.0008
          58    0.0251   -0.0088   -0.0027   -0.0038    0.0524   -0.0512   -0.0226    0.0393
          59    0.0382   -0.0117   -0.0026    0.0088    0.0672   -0.0556   -0.0138    0.0070
          60   -0.0699    0.0193    0.0013    0.0004   -0.0448    0.0456    0.0205   -0.0360
          61    0.0119    0.0247   -0.0591    0.0656    0.0529    0.0699    0.1203    0.0851
          62   -0.0168    0.0052   -0.0896    0.0982    0.0846    0.1037    0.1238    0.0751
          63   -0.0247   -0.0064    0.0116    0.0263    0.0011    0.0034    0.0481    0.0382
          64   -0.0062   -0.0552    0.0860    0.0375    0.0631    0.0876   -0.1180   -0.0272
          65    0.0213   -0.0321    0.1273    0.0090    0.0916    0.1211   -0.1227   -0.0103
          66    0.0160    0.0035    0.0059    0.0112    0.0043    0.0113   -0.0517   -0.0271
          67    0.0104   -0.0013    0.0001   -0.0041   -0.0296    0.0284    0.0112   -0.0275
          68    0.0725   -0.0156    0.0010   -0.0185   -0.0857    0.0723    0.0185   -0.0391
          69    0.0160   -0.0049    0.0006   -0.0053   -0.0044   -0.0011   -0.0065    0.0205
          70    0.0077   -0.0018   -0.0016    0.0046    0.0337   -0.0280   -0.0062    0.0070
          71   -0.0459    0.0145   -0.0009   -0.0002   -0.0389    0.0410    0.0185   -0.0386
          72   -0.0405    0.0103    0.0021   -0.0071   -0.0652    0.0591    0.0175   -0.0265


   Root No.      41        42        43        44        45        46        47        48

                41 A      42 A      43 A      44 A      45 A      46 A      47 A      48 A   

                1337.1    1349.2    1385.9    1394.1    1406.7    1411.0    1412.4    1419.9
  
           1   -0.0323    0.0270   -0.0368    0.0104   -0.0008   -0.0035    0.0056   -0.0258
           2    0.0863    0.0106   -0.0108    0.0122   -0.0009    0.0010    0.0003   -0.0098
           3    0.0671   -0.0122    0.0095   -0.0009   -0.0005    0.0058   -0.0062    0.0141
           4   -0.0006   -0.0064    0.0473   -0.0049    0.0020   -0.0059    0.0035    0.0144
           5   -0.0128   -0.0019   -0.0099   -0.0335    0.0030   -0.0141    0.0108    0.0048
           6   -0.0098    0.0052    0.0002    0.0093   -0.0006    0.0020   -0.0011   -0.0031
           7    0.0021    0.0113   -0.0045    0.0117    0.0021   -0.0101    0.0111    0.0000
           8    0.0091    0.0441   -0.0074    0.0237    0.0009   -0.0127    0.0153   -0.0197
           9    0.0030    0.0187    0.0074   -0.0143   -0.0096    0.0153   -0.0160   -0.0243
          10   -0.0009   -0.0044   -0.0005    0.0007   -0.0300   -0.0109   -0.0090    0.0020
          11   -0.0002    0.0043    0.0059   -0.0123    0.0195   -0.0175   -0.0110    0.0261
          12    0.0021    0.0159    0.0066   -0.0119   -0.0059   -0.0035    0.0184    0.0325
          13    0.0219   -0.0013   -0.0020    0.0031   -0.0009    0.0068   -0.0066    0.0105
          14   -0.0444    0.0046   -0.0026   -0.0016    0.0004   -0.0036    0.0035   -0.0062
          15   -0.0474    0.0015    0.0054   -0.0060    0.0016   -0.0113    0.0108   -0.0159
          16   -0.0154   -0.0023   -0.0010    0.0014   -0.0008    0.0063   -0.0062    0.0106
          17   -0.0482   -0.0072    0.0009   -0.0021   -0.0009    0.0089   -0.0091    0.0182
          18   -0.0027   -0.0035    0.0057   -0.0028    0.0006   -0.0035    0.0032   -0.0037
          19   -0.0033   -0.0143   -0.0022   -0.0043   -0.0006    0.0057   -0.0052    0.0028
          20    0.0034   -0.0102   -0.0014    0.0077   -0.0016    0.0087   -0.0073    0.0008
          21   -0.0041   -0.0087    0.0037   -0.0115    0.0004    0.0000   -0.0006    0.0027
          22    0.0017   -0.0031   -0.0027    0.0057   -0.0012    0.0050   -0.0043   -0.0020
          23   -0.0043   -0.0228   -0.0019   -0.0051   -0.0016    0.0107   -0.0095    0.0021
          24    0.0036    0.0089   -0.0037    0.0108    0.0008   -0.0029    0.0033   -0.0007
          25    0.0045   -0.0039    0.0047   -0.0023    0.0003   -0.0012    0.0009    0.0005
          26    0.0064    0.0106   -0.0243    0.0137   -0.0035    0.0233   -0.0216    0.0292
          27   -0.0045    0.0112   -0.0195    0.0103   -0.0022    0.0135   -0.0123    0.0139
          28    0.0040   -0.0036    0.0041   -0.0013    0.0002   -0.0003    0.0001    0.0011
          29    0.0327   -0.0144    0.0290   -0.0142    0.0037   -0.0237    0.0219   -0.0283
          30    0.0118   -0.0020    0.0086   -0.0055    0.0017   -0.0118    0.0111   -0.0163
          31    0.0501   -0.0422    0.0399   -0.0254    0.0018   -0.0012   -0.0022    0.0265
          32   -0.0903   -0.0084    0.0083   -0.0144    0.0014   -0.0055    0.0040    0.0030
          33   -0.0587    0.0062   -0.0106   -0.0002   -0.0003    0.0010   -0.0007   -0.0010
          34    0.0114   -0.0020   -0.1241   -0.0302   -0.0010   -0.0001    0.0023   -0.0236
          35   -0.0204    0.0250    0.1286    0.1238   -0.0066    0.0354   -0.0276   -0.0062
          36   -0.0134    0.0112    0.0985    0.0638   -0.0023    0.0146   -0.0121    0.0066
          37    0.1400   -0.0142   -0.1163   -0.0364   -0.0012    0.0015   -0.0005   -0.0087
          38    0.0100    0.0295    0.0722    0.0877   -0.0047    0.0215   -0.0159   -0.0076
          39    0.0353   -0.0269   -0.1375   -0.1086    0.0047   -0.0250    0.0196   -0.0007
          40   -0.0065   -0.0368   -0.0153    0.0272    0.0126   -0.0247    0.0274    0.0317
          41   -0.0103   -0.0311    0.0349   -0.0749   -0.0109    0.0361   -0.0529    0.0013
          42   -0.0166   -0.1089   -0.0603    0.1083    0.0397   -0.0707    0.0911    0.0788
          43    0.0078    0.0589    0.0612   -0.1162   -0.0402    0.0749   -0.0992   -0.0585
          44   -0.0133   -0.0708    0.0068   -0.0207    0.0040    0.0032   -0.0133    0.0380
          45   -0.0137   -0.0812   -0.0337    0.0561    0.0226   -0.0387    0.0501    0.0516
          46    0.0045    0.0268    0.0072   -0.0137    0.3255    0.0185   -0.0165    0.0003
          47   -0.0099   -0.0548   -0.0057    0.0057   -0.1332    0.0216    0.0108   -0.0183
          48   -0.0199   -0.1188   -0.0162    0.0186    0.0646    0.1308    0.0392   -0.0994
[...]
 RED. MASS   0.4022        C  3 --  C  4           +5.4% ( 20.3%)    15.5%
 EFF. MASS   1.6277

 VIBRATION   46   46A       ATOM PAIR        ENERGY CONTRIBUTION    RADIAL
 FREQ.      1411.00        C  4 --  H 17          +13.6% ( 43.3%)     0.0%
 T-DIPOLE    0.0729        C  9 --  C 10          +10.8% ( 38.4%)   100.0%
 TRAVEL      0.1053        C  4 --  H 16           +8.5% ( 34.2%)    12.2%
 RED. MASS   0.2842        C  4 --  H 18           +7.6% ( 32.3%)     1.3%
 EFF. MASS   4.3117

 VIBRATION   47   47A       ATOM PAIR        ENERGY CONTRIBUTION    RADIAL
 FREQ.      1412.42        C  4 --  H 18          +15.5% ( 44.4%)     2.2%
 T-DIPOLE    0.1426        C  4 --  H 17          +14.6% ( 43.2%)     3.0%
 TRAVEL      0.1111        C  9 --  C 10           +9.0% ( 33.8%)   100.0%
 RED. MASS   0.2779        C  3 --  H 15           +8.0% ( 31.9%)     4.9%
 EFF. MASS   3.8703

 VIBRATION   48   48A       ATOM PAIR        ENERGY CONTRIBUTION    RADIAL
 FREQ.      1419.91        C  3 --  C  4           +9.6% ( 43.9%)    99.9%
 T-DIPOLE    0.0899        C  9 --  C 10           +9.0% ( 42.6%)   100.0%
 TRAVEL      0.0820        C  4 --  H 17           +8.7% ( 41.8%)     4.0%
 RED. MASS   0.6498        C  4 --  H 18           +7.8% ( 39.6%)     2.8%
 EFF. MASS   7.0551

 VIBRATION   49   49A       ATOM PAIR        ENERGY CONTRIBUTION    RADIAL
 FREQ.      1435.31        C  1 --  C  2          +11.3% ( 52.0%)    59.8%
 T-DIPOLE    0.1655        C  2 --  C  7          +10.4% ( 50.0%)    91.1%
 TRAVEL      0.0713        C  3 --  C  8           +8.6% ( 45.5%)    85.5%
 RED. MASS   1.2620        C  3 --  C  4           +7.9% ( 43.4%)    76.6%
 EFF. MASS   9.2312

 VIBRATION   50   50A       ATOM PAIR        ENERGY CONTRIBUTION    RADIAL
 FREQ.      1731.84        C  5 --  C  9          +18.4% ( 73.1%)    99.9%
 T-DIPOLE    0.4281        C  6 --  C 10          +18.0% ( 72.2%)    99.9%
 TRAVEL      0.0569        C  5 --  C 10          +10.7% ( 55.7%)    26.1%
 RED. MASS   2.7211        C  6 --  C  9          +10.7% ( 55.7%)    25.7%
 EFF. MASS  12.0249

 VIBRATION   51   51A       ATOM PAIR        ENERGY CONTRIBUTION    RADIAL
 FREQ.      1789.16        C  6 --  C 10          +18.1% ( 70.6%)    99.8%
 T-DIPOLE    0.3183        C  5 --  C  9          +17.7% ( 69.7%)    99.8%
 TRAVEL      0.0565        C  9 --  C 10          +12.1% ( 57.8%)     0.0%
 RED. MASS   2.6856        C  5 --  C 10          +10.9% ( 54.7%)    64.2%
 EFF. MASS  11.7990        C  6 --  C  9          +10.9% ( 54.7%)    67.9%

 VIBRATION   52   52A       ATOM PAIR        ENERGY CONTRIBUTION    RADIAL
 FREQ.      1889.14        C  7 --  C  8          +43.9% ( 97.7%)    96.6%
 T-DIPOLE    0.1426        C  3 --  C  8          +14.2% ( 55.6%)    54.9%
 TRAVEL      0.0550        C  2 --  C  7          +14.2% ( 55.5%)    54.4%
 RED. MASS   5.3812        C  8 --  H 22          +13.3% ( 53.8%)     3.6%
 EFF. MASS  11.7963        C  7 --  H 21          +13.3% ( 53.7%)     3.6%

 VIBRATION   53   53A       ATOM PAIR        ENERGY CONTRIBUTION    RADIAL
 FREQ.      2889.24        C  1 --  H 11          +96.4% ( 99.7%)   100.0%
 T-DIPOLE    0.2008        C  1 --  C  2           +1.0% ( 10.3%)     9.4%
 TRAVEL      0.1275        C  1 --  C  6           +1.0% ( 10.1%)    10.6%
 RED. MASS   0.9201        C  1 --  C  5           +1.0% ( 10.1%)    10.6%
 EFF. MASS   1.4359

 VIBRATION   54   54A       ATOM PAIR        ENERGY CONTRIBUTION    RADIAL
 FREQ.      2945.41        C  3 --  H 14          +51.8% ( 74.8%)    96.8%
 T-DIPOLE    0.0201        C  3 --  H 15          +45.4% ( 70.0%)    96.1%
 TRAVEL      0.1218        C  3 --  C  4           +1.2% ( 11.2%)     0.0%
 RED. MASS   0.5157        C  3 --  C  8           +1.2% ( 11.2%)     0.2%
 EFF. MASS   1.5441

 VIBRATION   55   55A       ATOM PAIR        ENERGY CONTRIBUTION    RADIAL
 FREQ.      2946.06        C  2 --  H 13          +57.6% ( 78.7%)    97.4%
 T-DIPOLE    0.0555        C  2 --  H 12          +39.5% ( 65.2%)    95.3%
 TRAVEL      0.1218        C  2 --  C  7           +1.2% ( 11.2%)     0.0%
 RED. MASS   0.5283        C  1 --  C  2           +1.1% ( 11.1%)     0.3%
 EFF. MASS   1.5427

 VIBRATION   56   56A       ATOM PAIR        ENERGY CONTRIBUTION    RADIAL
 FREQ.      3022.38        C  2 --  H 12          +56.9% ( 74.4%)    98.5%
 T-DIPOLE    0.0576        C  2 --  H 13          +38.8% ( 61.5%)    96.3%
 TRAVEL      0.1317        C  7 --  H 21           +2.0% ( 13.9%)    99.8%
 RED. MASS   0.4705        C  2 --  C  7           +0.7% (  8.1%)    29.8%
 EFF. MASS   1.2858

 VIBRATION   57   57A       ATOM PAIR        ENERGY CONTRIBUTION    RADIAL
 FREQ.      3024.68        C  3 --  H 15          +50.5% ( 70.1%)    98.0%
 T-DIPOLE    0.0475        C  3 --  H 14          +44.9% ( 66.1%)    97.4%
 TRAVEL      0.1318        C  8 --  H 22           +1.3% ( 11.4%)    99.7%
 RED. MASS   0.4562        C  3 --  C  8           +0.7% (  8.0%)    29.8%
 EFF. MASS   1.2838

 VIBRATION   58   58A       ATOM PAIR        ENERGY CONTRIBUTION    RADIAL
 FREQ.      3034.62        C  7 --  H 21          +72.7% ( 86.2%)   100.0%
 T-DIPOLE    0.3381        C  8 --  H 22          +24.3% ( 49.8%)   100.0%
 TRAVEL      0.1241        C  2 --  C  7           +0.9% (  9.7%)    17.4%
 RED. MASS   0.5703        C  7 --  C  8           +0.9% (  9.4%)    39.5%
 EFF. MASS   1.4417

 VIBRATION   59   59A       ATOM PAIR        ENERGY CONTRIBUTION    RADIAL
 FREQ.      3037.10        C  8 --  H 22          +70.8% ( 85.5%)   100.0%
 T-DIPOLE    0.0953        C  7 --  H 21          +22.3% ( 47.9%)    99.9%
 TRAVEL      0.1190        C  7 --  C  8           +2.1% ( 14.6%)    39.8%
 RED. MASS   0.5488        C  3 --  H 15           +1.7% ( 13.3%)    99.5%
 EFF. MASS   1.5680

 VIBRATION   60   60A       ATOM PAIR        ENERGY CONTRIBUTION    RADIAL
 FREQ.      3081.49        C  4 --  H 17          +63.0% ( 81.9%)    98.6%
 T-DIPOLE    0.0084        C  4 --  H 18          +30.5% ( 57.0%)    92.9%
 TRAVEL      0.1207        C  4 --  H 16           +5.3% ( 23.7%)    56.4%
 RED. MASS   0.5200        C  3 --  C  4           +1.0% ( 10.2%)     0.0%
 EFF. MASS   1.5014

 VIBRATION   61   61A       ATOM PAIR        ENERGY CONTRIBUTION    RADIAL
 FREQ.      3086.17        C  4 --  H 16          +59.3% ( 79.4%)    98.4%
 T-DIPOLE    0.0054        C  4 --  H 18          +34.5% ( 60.6%)    94.0%
 TRAVEL      0.1205        C  4 --  H 17           +4.8% ( 22.6%)    52.6%
 RED. MASS   0.5013        C  3 --  C  4           +1.0% ( 10.3%)     0.1%
 EFF. MASS   1.5043

 VIBRATION   62   62A       ATOM PAIR        ENERGY CONTRIBUTION    RADIAL
 FREQ.      3131.85        C 10 --  H 24          +37.8% ( 63.0%)   100.0%
 T-DIPOLE    0.1210        C  9 --  H 23          +29.3% ( 55.5%)   100.0%
 TRAVEL      0.1204        C  6 --  H 20          +16.4% ( 41.5%)   100.0%
 RED. MASS   0.2748        C  5 --  H 19          +12.2% ( 35.8%)   100.0%
 EFF. MASS   1.4849

 VIBRATION   63   63A       ATOM PAIR        ENERGY CONTRIBUTION    RADIAL
 FREQ.      3133.89        C  9 --  H 23          +29.2% ( 55.3%)   100.0%
 T-DIPOLE    0.5099        C  5 --  H 19          +25.1% ( 51.3%)   100.0%
 TRAVEL      0.1209        C 10 --  H 24          +22.3% ( 48.3%)   100.0%
 RED. MASS   0.2380        C  6 --  H 20          +19.3% ( 44.9%)   100.0%
 EFF. MASS   1.4713

 VIBRATION   64   64A       ATOM PAIR        ENERGY CONTRIBUTION    RADIAL
 FREQ.      3145.85        C  6 --  H 20          +33.8% ( 59.8%)   100.0%
 T-DIPOLE    0.5609        C  5 --  H 19          +32.3% ( 58.5%)   100.0%
 TRAVEL      0.1159        C  9 --  H 23          +14.4% ( 39.0%)    99.8%
 RED. MASS   0.2709        C 10 --  H 24          +13.8% ( 38.1%)    99.7%
 EFF. MASS   1.5966

 VIBRATION   65   65A       ATOM PAIR        ENERGY CONTRIBUTION    RADIAL
 FREQ.      3155.73        C  6 --  H 20          +25.2% ( 51.7%)    99.9%
 T-DIPOLE    0.1942        C  5 --  H 19          +25.1% ( 51.5%)    99.9%
 TRAVEL      0.1121        C  9 --  H 23          +22.0% ( 48.3%)   100.0%
 RED. MASS   0.2360        C 10 --  H 24          +21.1% ( 47.3%)    99.9%
 EFF. MASS   1.7011

 VIBRATION   66   66A       ATOM PAIR        ENERGY CONTRIBUTION    RADIAL
 FREQ.      3183.09        C  4 --  H 16          +34.5% ( 56.5%)    97.3%
 T-DIPOLE    0.0191        C  4 --  H 18          +34.2% ( 56.3%)    97.3%
 TRAVEL      0.1366        C  4 --  H 17          +31.0% ( 53.6%)    96.7%
 RED. MASS   0.3276        C  3 --  C  4           +0.3% (  5.1%)    99.8%
 EFF. MASS   1.1360

 SYMMETRY NUMBER FOR POINT-GROUP C1  =  1


          SYSTEM IS A GROUND STATE


    NULL



          MOLECULE IS NOT LINEAR

          THERE ARE 66 GENUINE VIBRATIONS IN THIS SYSTEM
          THIS THERMODYNAMICS CALCULATION IS LIMITED TO
          MOLECULES WHICH HAVE NO INTERNAL ROTATIONS




                    CALCULATED THERMODYNAMIC PROPERTIES
                                          *
   TEMP. (K)   PARTITION FUNCTION   H.O.F.    ENTHALPY  HEAT CAPACITY ENTROPY
                                   KCAL/MOL   CAL/MOLE    CAL/K/MOL  CAL/K/MOL


 298.00  VIB.     0.1458D+04                  4734.4111    32.7778    30.3637
         ROT.     0.8886D+06                   888.2813     2.9808    30.2003
         INT.     0.1295D+10                  5622.6924    35.7586    60.5639
         TRA.     0.1503D+28                  1480.4688     4.9680    40.5931
         TOT.                       31.878    7103.1612    40.7267   101.1570

 200.00  VIB.     0.1062D+03                  2135.5099    20.7179    19.9480
         ROT.     0.4885D+06                   596.1620     2.9808    29.0116
         INT.     0.5187D+08                  2731.6719    23.6987    48.9596
         TRA.     0.8266D+27                   993.6033     4.9680    38.6119
         TOT.                       28.500    3725.2751    28.6668    87.5715

 210.00  VIB.     0.1388D+03                  2348.0886    21.8044    20.9849
         ROT.     0.5256D+06                   625.9700     2.9808    29.1570
         INT.     0.7298D+08                  2974.0586    24.7852    50.1420
         TRA.     0.8893D+27                  1043.2834     4.9680    38.8543
         TOT.                       28.792    4017.3420    29.7533    88.9963

 220.00  VIB.     0.1815D+03                  2571.7308    22.9305    22.0251
         ROT.     0.5636D+06                   655.7781     2.9808    29.2957
         INT.     0.1023D+09                  3227.5090    25.9113    51.3208
         TRA.     0.9536D+27                  1092.9636     4.9680    39.0854
         TOT.                       29.095    4320.4726    30.8794    90.4063

 230.00  VIB.     0.2370D+03                  2806.8268    24.0949    23.0700
         ROT.     0.6025D+06                   685.5862     2.9808    29.4282
         INT.     0.1428D+09                  3492.4131    27.0757    52.4982
         TRA.     0.1019D+28                  1142.6437     4.9680    39.3063
         TOT.                       29.410    4635.0568    32.0437    91.8044

 240.00  VIB.     0.3095D+03                  3053.7476    25.2950    24.1207
         ROT.     0.6422D+06                   715.3943     2.9808    29.5551
         INT.     0.1988D+09                  3769.1420    28.2758    53.6757
         TRA.     0.1087D+28                  1192.3239     4.9680    39.5177
         TOT.                       29.736    4961.4659    33.2439    93.1935

 250.00  VIB.     0.4042D+03                  3312.8366    26.5279    25.1782
         ROT.     0.6828D+06                   745.2024     2.9808    29.6767
         INT.     0.2759D+09                  4058.0391    29.5087    54.8549
         TRA.     0.1155D+28                  1242.0041     4.9680    39.7205
         TOT.                       30.075    5300.0431    34.4768    94.5754

 260.00  VIB.     0.5277D+03                  3584.4031    27.7899    26.2431
         ROT.     0.7241D+06                   775.0105     2.9808    29.7936
         INT.     0.3821D+09                  4359.4137    30.7707    56.0368
         TRA.     0.1225D+28                  1291.6842     4.9680    39.9154
         TOT.                       30.426    5651.0979    35.7387    95.9521

 270.00  VIB.     0.6892D+03                  3868.7179    29.0769    27.3160
         ROT.     0.7663D+06                   804.8186     2.9808    29.9061
         INT.     0.5281D+09                  4673.5365    32.0577    57.2221
         TRA.     0.1297D+28                  1341.3644     4.9680    40.1029
         TOT.                       30.789    6014.9009    37.0257    97.3250

 280.00  VIB.     0.9003D+03                  4166.0103    30.3847    28.3970
         ROT.     0.8093D+06                   834.6267     2.9808    30.0145
         INT.     0.7286D+09                  5000.6371    33.3655    58.4116
         TRA.     0.1369D+28                  1391.0445     4.9680    40.2835
         TOT.                       31.166    6391.6816    38.3336    98.6951

 290.00  VIB.     0.1177D+04                  4476.4677    31.7092    29.4863
         ROT.     0.8530D+06                   864.4348     2.9808    30.1192
         INT.     0.1004D+10                  5340.9025    34.6900    59.6055
         TRA.     0.1443D+28                  1440.7247     4.9680    40.4579
         TOT.                       31.556    6781.6272    39.6580   100.0633

 300.00  VIB.     0.1538D+04                  4800.2348    33.0460    30.5838
         ROT.     0.8975D+06                   894.2429     2.9808    30.2202
         INT.     0.1381D+10                  5694.4778    36.0268    60.8040
         TRA.     0.1518D+28                  1490.4049     4.9680    40.6263
         TOT.                       31.959    7184.8826    40.9948   101.4303

 310.00  VIB.     0.2013D+04                  5137.4156    34.3912    31.6893
         ROT.     0.9428D+06                   924.0510     2.9808    30.3179
         INT.     0.1897D+10                  6061.4666    37.3720    62.0072
         TRA.     0.1595D+28                  1540.0850     4.9680    40.7892
         TOT.                       32.376    7601.5517    42.3400   102.7964

 320.00  VIB.     0.2635D+04                  5488.0744    35.7410    32.8025
         ROT.     0.9887D+06                   953.8591     2.9808    30.4126
         INT.     0.2605D+10                  6441.9335    38.7218    63.2151
         TRA.     0.1673D+28                  1589.7652     4.9680    40.9469
         TOT.                       32.806    8031.6987    43.6898   104.1620

 330.00  VIB.     0.3451D+04                  5852.2387    37.0917    33.9230
         ROT.     0.1035D+07                   983.6672     2.9808    30.5043
         INT.     0.3574D+10                  6835.9059    40.0726    64.4273
         TRA.     0.1752D+28                  1639.4454     4.9680    41.0998
         TOT.                       33.250    8475.3513    45.0406   105.5271

 340.00  VIB.     0.4525D+04                  6229.9015    38.4402    35.0503
         ROT.     0.1083D+07                  1013.4753     2.9808    30.5933
         INT.     0.4900D+10                  7243.3769    41.4210    65.6436
         TRA.     0.1832D+28                  1689.1255     4.9680    41.2481
         TOT.                       33.707    8932.5024    46.3890   106.8917

 350.00  VIB.     0.5937D+04                  6621.0248    39.7833    36.1840
         ROT.     0.1131D+07                  1043.2834     2.9808    30.6797
         INT.     0.6715D+10                  7664.3082    42.7642    66.8637
         TRA.     0.1914D+28                  1738.8057     4.9680    41.3921
         TOT.                       34.178    9403.1139    47.7322   108.2558

 360.00  VIB.     0.7796D+04                  7025.5419    41.1185    37.3234
         ROT.     0.1180D+07                  1073.0915     2.9808    30.7637
         INT.     0.9198D+10                  8098.6334    44.0994    68.0871
         TRA.     0.1996D+28                  1788.4859     4.9680    41.5321
         TOT.                       34.662    9887.1193    49.0674   109.6192

 370.00  VIB.     0.1024D+05                  7443.3612    42.4434    38.4681
         ROT.     0.1229D+07                  1102.8996     2.9808    30.8453
         INT.     0.1259D+11                  8546.2608    45.4242    69.3135
         TRA.     0.2080D+28                  1838.1660     4.9680    41.6682
         TOT.                       35.159   10384.4268    50.3922   110.9817

 380.00  VIB.     0.1347D+05                  7874.3686    43.7558    39.6175
         ROT.     0.1279D+07                  1132.7077     2.9808    30.9248
         INT.     0.1724D+11                  9007.0763    46.7367    70.5423
         TRA.     0.2165D+28                  1887.8462     4.9680    41.8007
         TOT.                       35.669   10894.9225    51.7047   112.3430

 390.00  VIB.     0.1774D+05                  8318.4308    45.0541    40.7709
         ROT.     0.1330D+07                  1162.5158     2.9808    31.0023
         INT.     0.2359D+11                  9480.9466    48.0349    71.7731
         TRA.     0.2251D+28                  1937.5263     4.9680    41.9297
         TOT.                       36.193   11418.4729    53.0029   113.7029

 400.00  VIB.     0.2336D+05                  8775.3978    46.3366    41.9278
         ROT.     0.1382D+07                  1192.3239     2.9808    31.0777
         INT.     0.3229D+11                  9967.7217    49.3174    73.0055
         TRA.     0.2338D+28                  1987.2065     4.9680    42.0555
         TOT.                       36.729   11954.9282    54.2854   115.0610

   *: NOTE: HEATS OF FORMATION ARE RELATIVE TO THE
            ELEMENTS IN THEIR STANDARD STATE AT 298K
              (=  Standard Enthalpy of Formation).

            Hvib:  Zero-point energy is not included.
                   frequencies of less than zero cm-1 are not included.
            Hrot = (3/2)RT
            Htra = (3/2)RT + pV = (5/2)RT

            Heat capacity is Cp, not Cv

           For more information, see: HTTP://OpenMOPAC.net/Manual/thermochemistry.html


           FORCE CONSTANT IN CARTESIAN COORDINATES (Millidynes/A)

    ATOM   CHEMICAL       X               Y               Z
   NUMBER   SYMBOL  FORCE CONSTANT  FORCE CONSTANT  FORCE CONSTANT

      1       C        8.730967        8.106753        8.695800
      2       C        8.186984        8.828818        8.322287
      3       C        8.185796        8.810854        8.431298
      4       C        8.227240        8.420242        8.203948
      5       C        6.671705       12.852520        7.282732
      6       C        6.742489        9.019691       11.013392
      7       C        9.181252        9.301021        8.720113
      8       C        8.944045        9.389461        8.888271
      9       C        7.391212        9.868187       10.186928
     10       C        7.389584       10.376729        9.703850
     11       H        1.171811        1.356486        3.375388
     12       H        1.186413        1.099519        4.109875
     13       H        1.129711        2.432804        2.695684
     14       H        4.444001        0.771413        1.068652
     15       H        1.801023        1.462425        3.137559
     16       H        1.494187        4.261215        1.039792
     17       H        1.928466        1.413019        3.446347
     18       H        4.834081        0.821887        1.128669
     19       H        0.670572        4.942637        0.835590
     20       H        0.710418        3.142195        2.607965
     21       H        1.186592        1.504835        3.530313
     22       H        1.154486        1.484111        3.581162
     23       H        1.831480        0.822185        3.807415
     24       H        1.779330        3.634118        1.048581



 TOTAL CPU TIME:             3.67 SECONDS

 == MOPAC DONE ==
