 *******************************************************************************
 ** Site#: 14399           For non-commercial use only        Version 13.159M **
 *******************************************************************************
 ** Cite this work as: MOPAC2012, James J. P. Stewart, Stewart Computational  **
 ** Chemistry, Version 13.159M web: HTTP://OpenMOPAC.net  Days remaining:   6 **
 *******************************************************************************
 **                                                                           **
 **                                MOPAC2012                                  **
 **                                                                           **
 *******************************************************************************

                            PM3 CALCULATION RESULTS


 *******************************************************************************
 *  CALCULATION DONE:                                Mon Jun  2 11:12:05 2014  *
 *  PM3      - The PM3 Hamiltonian to be used
 *  PRECISE  - CRITERIA TO BE INCREASED BY 100 TIMES
 *  NOSYM    - POINT-GROUP SYMMETRY SET TO C1
 *  T=       - A TIME OF 172800.0 SECONDS REQUESTED
 *  DUMP=N   - RESTART FILE WRITTEN EVERY  7200.000 SECONDS
 *******************************************************************************
pm3  precise nosym
 InChI=1S/C5H6/c1-2-5-3-4(1)5/h1-2,4-5H,3H2

   ATOM   CHEMICAL          X               Y               Z
  NUMBER   SYMBOL      (ANGSTROMS)     (ANGSTROMS)     (ANGSTROMS)
 
     1       C          0.00390000  *  -0.84450000  *  -0.21330000  *
     2       C         -0.48140000  *   0.30760000  *   0.59050000  *
     3       C         -1.24010000  *   0.07820000  *  -0.64210000  *
     4       C          1.39510000  *  -0.18510000  *  -0.26910000  *
     5       C          0.87060000  *   0.78590000  *   0.44970000  *
     6       H         -0.14790000  *  -1.80470000  *   0.33550000  *
     7       H         -0.86750000  *  -0.01750000  *   1.58510000  *
     8       H         -2.22900000  *  -0.41110000  *  -0.49600000  *
     9       H         -1.04030000  *   0.77530000  *  -1.48840000  *
    10       H          2.38570000  *  -0.37060000  *  -0.67820000  *
    11       H          1.35100000  *   1.68660000  *   0.82620000  *
 


          CARTESIAN COORDINATES 

    NO.       ATOM         X         Y         Z

     1         C        0.0039   -0.8445   -0.2133
     2         C       -0.4814    0.3076    0.5905
     3         C       -1.2401    0.0782   -0.6421
     4         C        1.3951   -0.1851   -0.2691
     5         C        0.8706    0.7859    0.4497
     6         H       -0.1479   -1.8047    0.3355
     7         H       -0.8675   -0.0175    1.5851
     8         H       -2.2290   -0.4111   -0.4960
     9         H       -1.0403    0.7753   -1.4884
    10         H        2.3857   -0.3706   -0.6782
    11         H        1.3510    1.6866    0.8262

  H: (PM3): J. J. P. STEWART, J. COMP. CHEM. 10, 209 (1989).
  C: (PM3): J. J. P. STEWART, J. COMP. CHEM. 10, 209 (1989).

           Empirical Formula: C5 H6  =    11 atoms



      MOLECULAR POINT GROUP   :   C1  


      RHF CALCULATION, NO. OF DOUBLY OCCUPIED LEVELS =   13

      Geometry optimization using EF

          DIAGONAL MATRIX USED AS START HESSIAN

 CYCLE:     1 TIME:   0.003 TIME LEFT:  2.00D  GRAD.:   208.836 HEAT: 115.3745
 CYCLE:     2 TIME:   0.004 TIME LEFT:  2.00D  GRAD.:   151.018 HEAT: 107.8543
 CYCLE:     3 TIME:   0.002 TIME LEFT:  2.00D  GRAD.:    91.150 HEAT: 100.9319
 CYCLE:     4 TIME:   0.002 TIME LEFT:  2.00D  GRAD.:   144.840 HEAT: 98.60284
 CYCLE:     5 TIME:   0.003 TIME LEFT:  2.00D  GRAD.:   125.149 HEAT: 95.74134
 CYCLE:     6 TIME:   0.003 TIME LEFT:  2.00D  GRAD.:    99.229 HEAT: 91.45204
 CYCLE:     7 TIME:   0.002 TIME LEFT:  2.00D  GRAD.:    87.660 HEAT: 89.23248
 CYCLE:     8 TIME:   0.003 TIME LEFT:  2.00D  GRAD.:    61.550 HEAT: 87.74673
 CYCLE:     9 TIME:   0.002 TIME LEFT:  2.00D  GRAD.:    65.807 HEAT: 87.49327
 CYCLE:    10 TIME:   0.002 TIME LEFT:  2.00D  GRAD.:    53.991 HEAT: 86.86690
 CYCLE:    11 TIME:   0.002 TIME LEFT:  2.00D  GRAD.:    25.744 HEAT: 86.22321
 CYCLE:    12 TIME:   0.002 TIME LEFT:  2.00D  GRAD.:    18.845 HEAT: 86.04048
 CYCLE:    13 TIME:   0.002 TIME LEFT:  2.00D  GRAD.:    10.554 HEAT: 85.89916
 CYCLE:    14 TIME:   0.003 TIME LEFT:  2.00D  GRAD.:    10.286 HEAT: 85.81556
 CYCLE:    15 TIME:   0.002 TIME LEFT:  2.00D  GRAD.:     5.752 HEAT: 85.73947
 CYCLE:    16 TIME:   0.002 TIME LEFT:  2.00D  GRAD.:     4.247 HEAT: 85.69721
 CYCLE:    17 TIME:   0.002 TIME LEFT:  2.00D  GRAD.:     3.934 HEAT: 85.67655
 CYCLE:    18 TIME:   0.003 TIME LEFT:  2.00D  GRAD.:     3.415 HEAT: 85.65237
 CYCLE:    19 TIME:   0.003 TIME LEFT:  2.00D  GRAD.:     2.339 HEAT: 85.63858
 CYCLE:    20 TIME:   0.002 TIME LEFT:  2.00D  GRAD.:     1.658 HEAT: 85.62971
 CYCLE:    21 TIME:   0.002 TIME LEFT:  2.00D  GRAD.:     1.302 HEAT: 85.62422
 CYCLE:    22 TIME:   0.002 TIME LEFT:  2.00D  GRAD.:     1.016 HEAT: 85.62207
 CYCLE:    23 TIME:   0.002 TIME LEFT:  2.00D  GRAD.:     0.541 HEAT: 85.62087
 CYCLE:    24 TIME:   0.002 TIME LEFT:  2.00D  GRAD.:     0.420 HEAT: 85.62042
 CYCLE:    25 TIME:   0.002 TIME LEFT:  2.00D  GRAD.:     0.301 HEAT: 85.62021
 CYCLE:    26 TIME:   0.002 TIME LEFT:  2.00D  GRAD.:     0.201 HEAT: 85.62009
 CYCLE:    27 TIME:   0.003 TIME LEFT:  2.00D  GRAD.:     0.155 HEAT: 85.62002
 CYCLE:    28 TIME:   0.002 TIME LEFT:  2.00D  GRAD.:     0.143 HEAT: 85.61998
 CYCLE:    29 TIME:   0.002 TIME LEFT:  2.00D  GRAD.:     0.111 HEAT: 85.61994
 CYCLE:    30 TIME:   0.002 TIME LEFT:  2.00D  GRAD.:     0.076 HEAT: 85.61992
 CYCLE:    31 TIME:   0.002 TIME LEFT:  2.00D  GRAD.:     0.057 HEAT: 85.61991
 CYCLE:    32 TIME:   0.002 TIME LEFT:  2.00D  GRAD.:     0.047 HEAT: 85.61991

     RMS GRADIENT =  0.04691  IS LESS THAN CUTOFF =  0.05000



 -------------------------------------------------------------------------------
pm3  precise nosym
 InChI=1S/C5H6/c1-2-5-3-4(1)5/h1-2,4-5H,3H2



     GEOMETRY OPTIMISED USING EIGENVECTOR FOLLOWING (EF).     
     SCF FIELD WAS ACHIEVED                                   


                              PM3 CALCULATION
                                                       MOPAC2012 (Version: 13.159M)
                                                       Mon Jun  2 11:12:05 2014
                                                       No. of days left =   6




          FINAL HEAT OF FORMATION =         85.61991 KCAL/MOL =     358.23369 KJ/MOL


          TOTAL ENERGY            =       -681.48532 EV
          ELECTRONIC ENERGY       =      -2563.90559 EV  POINT GROUP:     C1  
          CORE-CORE REPULSION     =       1882.42027 EV
          COSMO AREA              =        109.06 SQUARE ANGSTROMS
          COSMO VOLUME            =         96.10 CUBIC ANGSTROMS

          GRADIENT NORM           =          0.04691
          IONIZATION POTENTIAL    =          9.471194 EV
          HOMO LUMO ENERGIES (EV) =         -9.471  0.768
          NO. OF FILLED LEVELS    =         13
          MOLECULAR WEIGHT        =         66.102

          MOLECULAR DIMENSIONS (Angstroms)

            Atom       Atom       Distance
            H    11    H     8     4.36505
            H    10    H     7     3.90497
            H     6    H     9     3.13953


          SCF CALCULATIONS        =         35
          COMPUTATION TIME        =          0.078 SECONDS




   ATOM   CHEMICAL          X               Y               Z
  NUMBER   SYMBOL      (ANGSTROMS)     (ANGSTROMS)     (ANGSTROMS)
 
     1       C         -0.02390948  *  -0.89856250  *  -0.17327586  *
     2       C         -0.47955578  *   0.28109021  *   0.70438046  *
     3       C         -1.12908424  *   0.02061179  *  -0.63267605  *
     4       C          1.31215640  *  -0.17238028  *  -0.29292171  *
     5       C          0.91150057  *   0.86494698  *   0.47902249  *
     6       H         -0.11209478  *  -1.97532878  *  -0.03807481  *
     7       H         -0.99517685  *   0.31096521  *   1.66287181  *
     8       H         -2.15397425  *  -0.36737738  *  -0.64355618  *
     9       H         -0.98264424  *   0.70470185  *  -1.47617620  *
    10       H          2.20591010  *  -0.44632913  *  -0.83468072  *
    11       H          1.34151481  *   1.79152333  *   0.83100372  *

           Empirical Formula: C5 H6  =    11 atoms



      MOLECULAR POINT GROUP   :   C1  


                  EIGENVALUES  
 -41.13677 -28.24322 -23.36505 -21.24223 -18.12962 -17.56719 -15.93665 -15.04887
 -12.71419 -12.20153 -11.96139 -11.52662  -9.47119   0.76755   2.81782   2.86068
   3.13620   3.44903   3.56440   3.88990   4.27107   4.76814   4.77691   5.00977
   5.02816   6.10855


              NET ATOMIC CHARGES AND DIPOLE CONTRIBUTIONS

  ATOM NO.   TYPE          CHARGE      No. of ELECS.   s-Pop       p-Pop       
    1          C          -0.143913        4.1439     1.19488     2.94903
    2          C          -0.143912        4.1439     1.19488     2.94904
    3          C          -0.097581        4.0976     1.17098     2.92660
    4          C          -0.130883        4.1309     1.21523     2.91565
    5          C          -0.130882        4.1309     1.21523     2.91565
    6          H           0.121457        0.8785     0.87854
    7          H           0.121448        0.8786     0.87855
    8          H           0.072696        0.9273     0.92730
    9          H           0.076335        0.9237     0.92367
   10          H           0.127617        0.8724     0.87238
   11          H           0.127618        0.8724     0.87238
 DIPOLE           X         Y         Z       TOTAL
 POINT-CHG.    -0.105    -0.035    -0.008     0.110
 HYBRID        -0.087    -0.028    -0.007     0.091
 SUM           -0.191    -0.063    -0.015     0.202


          ATOMIC ORBITAL ELECTRON POPULATIONS

    Atom      s        px        py        pz   
    1  C   1.19488   0.92891   0.95730   1.06282
    2  C   1.19488   0.97962   1.00519   0.96422
    3  C   1.17098   0.96812   0.99536   0.96312
    4  C   1.21523   0.96011   0.96538   0.99016
    5  C   1.21523   0.94500   0.97654   0.99411
    6  H   0.87854
    7  H   0.87855
    8  H   0.92730
    9  H   0.92367
   10  H   0.87238
   11  H   0.87238
 *******************************************************************************
 ** Site#: 14399           For non-commercial use only        Version 13.159M **
 *******************************************************************************
 ** Cite this work as: MOPAC2012, James J. P. Stewart, Stewart Computational  **
 ** Chemistry, Version 13.159M web: HTTP://OpenMOPAC.net  Days remaining:   6 **
 *******************************************************************************
 **                                                                           **
 **                                MOPAC2012                                  **
 **                                                                           **
 *******************************************************************************

                            PM3 CALCULATION RESULTS


 *******************************************************************************
 *  CALCULATION DONE:                                Mon Jun  2 11:12:05 2014  *
 *  PM3      - The PM3 Hamiltonian to be used
 *  OLDGEO   - PREVIOUS GEOMETRY TO BE USED
 *  PRECISE  - CRITERIA TO BE INCREASED BY 100 TIMES
 *  NOSYM    - POINT-GROUP SYMMETRY SET TO C1
 *  T=       - A TIME OF 172800.0 SECONDS REQUESTED
 *  DUMP=N   - RESTART FILE WRITTEN EVERY  7200.000 SECONDS
 *  THERMO   - THERMODYNAMIC QUANTITIES TO BE CALCULATED
 *******************************************************************************
oldgeo thermo nosym precise  pm3

   ATOM   CHEMICAL          X               Y               Z
  NUMBER   SYMBOL      (ANGSTROMS)     (ANGSTROMS)     (ANGSTROMS)
 
     1       C         -0.02390948  *  -0.89856250  *  -0.17327586  *
     2       C         -0.47955578  *   0.28109021  *   0.70438046  *
     3       C         -1.12908424  *   0.02061179  *  -0.63267605  *
     4       C          1.31215640  *  -0.17238028  *  -0.29292171  *
     5       C          0.91150057  *   0.86494698  *   0.47902249  *
     6       H         -0.11209478  *  -1.97532878  *  -0.03807481  *
     7       H         -0.99517685  *   0.31096521  *   1.66287181  *
     8       H         -2.15397425  *  -0.36737738  *  -0.64355618  *
     9       H         -0.98264424  *   0.70470185  *  -1.47617620  *
    10       H          2.20591010  *  -0.44632913  *  -0.83468072  *
    11       H          1.34151481  *   1.79152333  *   0.83100372  *
 


          CARTESIAN COORDINATES 

    NO.       ATOM         X         Y         Z

     1         C       -0.0239   -0.8986   -0.1733
     2         C       -0.4796    0.2811    0.7044
     3         C       -1.1291    0.0206   -0.6327
     4         C        1.3122   -0.1724   -0.2929
     5         C        0.9115    0.8649    0.4790
     6         H       -0.1121   -1.9753   -0.0381
     7         H       -0.9952    0.3110    1.6629
     8         H       -2.1540   -0.3674   -0.6436
     9         H       -0.9826    0.7047   -1.4762
    10         H        2.2059   -0.4463   -0.8347
    11         H        1.3415    1.7915    0.8310

  H: (PM3): J. J. P. STEWART, J. COMP. CHEM. 10, 209 (1989).
  C: (PM3): J. J. P. STEWART, J. COMP. CHEM. 10, 209 (1989).

           Empirical Formula: C5 H6  =    11 atoms



      MOLECULAR POINT GROUP   :   C1  


      RHF CALCULATION, NO. OF DOUBLY OCCUPIED LEVELS =   13



          HEAT OF FORMATION =      85.619907 KCALS/MOLE


          INTERNAL COORDINATE DERIVATIVES

   NUMBER  ATOM       BOND         ANGLE      DIHEDRAL

     1       C      0.014697     0.009401     0.008978
     2       C      0.002151     0.007184    -0.007414
     3       C      0.002166     0.014913    -0.008214
     4       C      0.000514     0.003545     0.016506
     5       C     -0.009749    -0.015114     0.008100
     6       H     -0.002441    -0.008770    -0.001090
     7       H      0.001227    -0.011556    -0.010614
     8       H     -0.013133    -0.000425    -0.004913
     9       H     -0.003191     0.004159     0.008670
    10       H      0.013026     0.002537    -0.011232
    11       H     -0.005270    -0.005873     0.001223


          GRADIENT NORM =   0.04962


          TIME FOR SCF CALCULATION =    0.00

          TIME FOR DERIVATIVES     =    0.00

          MOLECULAR WEIGHT =   66.10



          ROTATIONAL CONSTANTS IN CM(-1)

          A =    0.35762546   B =    0.21816976   C =    0.17172250



           PRINCIPAL MOMENTS OF INERTIA IN UNITS OF 10**(-40)*GRAM-CM**2

          A =       78.2740   B =      128.3073   C =      163.0117


          ORIENTATION OF MOLECULE IN FORCE CALCULATION

    NO.       ATOM         X         Y         Z

     1          C      -0.7696   -0.0256    0.5420
     2          C       0.7697   -0.0256    0.5420
     3          C       0.0000    1.2724    0.5420
     4          C      -0.6768   -0.6616   -0.8413
     5          C       0.6769   -0.6618   -0.8412
     6          H      -1.4916   -0.3328    1.2969
     7          H       1.4917   -0.3328    1.2969
     8          H      -0.0002    1.8742    1.4580
     9          H      -0.0001    1.9307   -0.3341
    10          H      -1.4602   -0.9603   -1.5228
    11          H       1.4603   -0.9608   -1.5225


    FIRST DERIVATIVES WILL BE USED IN THE CALCULATION OF SECOND DERIVATIVES

          ESTIMATED TIME TO COMPLETE CALCULATION =        0.55 SECONDS

    FOR POINT-GROUP C1   THERE ARE   1 UNIQUE SYMMETRY FUNCTIONS.

 STEP:   1 TIME =     0.01 SECS, INTEGRAL =      0.01 TIME LEFT: 172799.98
 STEP:   2 TIME =     0.01 SECS, INTEGRAL =      0.02 TIME LEFT: 172799.98
 STEP:   3 TIME =     0.01 SECS, INTEGRAL =      0.03 TIME LEFT: 172799.97
 STEP:   4 TIME =     0.01 SECS, INTEGRAL =      0.04 TIME LEFT: 172799.96
 STEP:   5 TIME =     0.01 SECS, INTEGRAL =      0.05 TIME LEFT: 172799.94
 STEP:   6 TIME =     0.01 SECS, INTEGRAL =      0.06 TIME LEFT: 172799.94
 STEP:   7 TIME =     0.01 SECS, INTEGRAL =      0.07 TIME LEFT: 172799.93
 STEP:   8 TIME =     0.01 SECS, INTEGRAL =      0.08 TIME LEFT: 172799.92
 STEP:   9 TIME =     0.01 SECS, INTEGRAL =      0.09 TIME LEFT: 172799.91
 STEP:  10 TIME =     0.01 SECS, INTEGRAL =      0.09 TIME LEFT: 172799.90
 STEP:  11 TIME =     0.01 SECS, INTEGRAL =      0.10 TIME LEFT: 172799.89
 STEP:  12 TIME =     0.01 SECS, INTEGRAL =      0.11 TIME LEFT: 172799.88
 STEP:  13 TIME =     0.01 SECS, INTEGRAL =      0.12 TIME LEFT: 172799.87
 STEP:  14 TIME =     0.01 SECS, INTEGRAL =      0.13 TIME LEFT: 172799.87
 STEP:  15 TIME =     0.01 SECS, INTEGRAL =      0.14 TIME LEFT: 172799.86
 STEP:  16 TIME =     0.01 SECS, INTEGRAL =      0.15 TIME LEFT: 172799.85
 STEP:  17 TIME =     0.01 SECS, INTEGRAL =      0.16 TIME LEFT: 172799.84
 STEP:  18 TIME =     0.01 SECS, INTEGRAL =      0.16 TIME LEFT: 172799.83
 STEP:  19 TIME =     0.01 SECS, INTEGRAL =      0.17 TIME LEFT: 172799.82
 STEP:  20 TIME =     0.01 SECS, INTEGRAL =      0.18 TIME LEFT: 172799.81
 STEP:  21 TIME =     0.01 SECS, INTEGRAL =      0.19 TIME LEFT: 172799.81
 STEP:  22 TIME =     0.01 SECS, INTEGRAL =      0.20 TIME LEFT: 172799.80
 STEP:  23 TIME =     0.01 SECS, INTEGRAL =      0.21 TIME LEFT: 172799.79
 STEP:  24 TIME =     0.01 SECS, INTEGRAL =      0.21 TIME LEFT: 172799.78
 STEP:  25 TIME =     0.01 SECS, INTEGRAL =      0.22 TIME LEFT: 172799.77
 STEP:  26 TIME =     0.01 SECS, INTEGRAL =      0.23 TIME LEFT: 172799.76
 STEP:  27 TIME =     0.01 SECS, INTEGRAL =      0.24 TIME LEFT: 172799.76
 STEP:  28 TIME =     0.01 SECS, INTEGRAL =      0.25 TIME LEFT: 172799.75
 STEP:  29 TIME =     0.01 SECS, INTEGRAL =      0.26 TIME LEFT: 172799.74
 STEP:  30 TIME =     0.01 SECS, INTEGRAL =      0.27 TIME LEFT: 172799.73
 STEP:  31 TIME =     0.01 SECS, INTEGRAL =      0.28 TIME LEFT: 172799.72
 STEP:  32 TIME =     0.01 SECS, INTEGRAL =      0.28 TIME LEFT: 172799.71
 STEP:  33 TIME =     0.01 SECS, INTEGRAL =      0.29 TIME LEFT: 172799.70

(To convert to Hartree/Bohr^2, multiply by (10^(-21) x N x a0^2)/(4.184 x 627.51) = 0.0642)


           FORCE MATRIX IN MILLIDYNES/ANGSTROM


                  C  1       C  2       C  3       C  4       C  5       H  6
 ------------------------------------------------------------------------------
     C    1  15.117440
     C    2   3.861998  15.117795
     C    3   4.612457   4.610914  15.204991
     C    4   3.818747   2.279546   0.731784  18.189495
     C    5   2.280040   3.818714   0.731992  10.025395  18.187811
     H    6   5.052494   0.370848   0.408544   0.384139   0.049753   5.574226
     H    7   0.370879   5.052773   0.408563   0.049764   0.384154   0.012455
     H    8   0.441570   0.441585   4.827421   0.047831   0.047799   0.014731
     H    9   0.453900   0.453862   4.817692   0.031000   0.031044   0.029561
     H   10   0.339566   0.110254   0.021263   5.312297   0.417739   0.007456
     H   11   0.110255   0.339582   0.021284   0.417724   5.312279   0.011303


                  H  7       H  8       H  9       H 10       H 11
 ------------------------------------------------------------------
     H    7   5.574424
     H    8   0.014748   5.415370
     H    9   0.029548   0.489367   5.435630
     H   10   0.011282   0.002264   0.004314   5.693062
     H   11   0.007474   0.002266   0.004318   0.027698   5.693073


          HEAT OF FORMATION =      85.619907 KCALS/MOLE

          ZERO POINT ENERGY      58.386 KCAL/MOL


           NORMAL COORDINATE ANALYSIS (Total motion = 1 Angstrom)


   Root No.       1         2         3         4         5         6         7         8

                 1 A       2 A       3 A       4 A       5 A       6 A       7 A       8 A   

                 438.6     450.9     789.2     813.4     849.3     859.5     937.3     977.4
  
           1   -0.0210   -0.0039   -0.0055   -0.0359   -0.0343   -0.0109   -0.0192    0.0345
           2    0.0176    0.0341    0.0067    0.0210   -0.0003   -0.0264   -0.0048   -0.0100
           3   -0.0173   -0.0393   -0.0086    0.0383    0.0000   -0.0028    0.0189    0.0243
           4   -0.0211    0.0037    0.0053   -0.0359    0.0342   -0.0111   -0.0191   -0.0346
           5   -0.0180    0.0339    0.0066   -0.0210    0.0000    0.0264    0.0048   -0.0101
           6    0.0177   -0.0391   -0.0088   -0.0383    0.0001    0.0028   -0.0189    0.0242
           7    0.0409    0.0002    0.0000   -0.0031    0.0002    0.0409    0.0033    0.0000
           8   -0.0001    0.0276    0.0048    0.0000   -0.0497    0.0002    0.0000    0.0428
           9   -0.0004    0.0650   -0.0027    0.0000   -0.0111    0.0000    0.0000    0.0523
          10   -0.0008    0.0013   -0.0001    0.0340    0.0011   -0.0286    0.0119    0.0053
          11   -0.0599   -0.0400   -0.0371    0.0079    0.0188   -0.0257   -0.0433   -0.0242
          12    0.0223   -0.0054    0.0175    0.0098    0.0106   -0.0428    0.0295   -0.0353
          13   -0.0008   -0.0013    0.0003    0.0340   -0.0014   -0.0286    0.0119   -0.0053
          14    0.0603   -0.0393   -0.0372   -0.0076    0.0190    0.0256    0.0434   -0.0242
          15   -0.0222   -0.0056    0.0175   -0.0099    0.0109    0.0427   -0.0295   -0.0353
          16   -0.0583    0.0015   -0.0270   -0.0503   -0.2163    0.0745   -0.0041   -0.1224
          17    0.0919    0.0101    0.0655    0.0268    0.1753   -0.1197    0.0624    0.0944
          18   -0.0226   -0.0415   -0.0048    0.0256   -0.1057    0.0395    0.0619   -0.0857
          19   -0.0583   -0.0022    0.0267   -0.0502    0.2169    0.0727   -0.0042    0.1227
          20   -0.0919    0.0090    0.0654   -0.0270    0.1765    0.1183   -0.0625    0.0944
          21    0.0231   -0.0413   -0.0049   -0.0256   -0.1060   -0.0386   -0.0618   -0.0862
          22    0.0215    0.0001    0.0007    0.3148    0.0007    0.1837   -0.0424    0.0000
          23    0.0005   -0.0958   -0.0591    0.0001   -0.0961    0.0004    0.0000    0.2128
          24   -0.0008    0.1507    0.0430    0.0000    0.0217   -0.0001    0.0000   -0.0644
          25    0.1134    0.0007   -0.0007   -0.2478    0.0003    0.0312    0.1145    0.0002
          26   -0.0008    0.1439    0.0679   -0.0001   -0.0075    0.0000    0.0000   -0.1005
          27   -0.0009    0.1569    0.0483   -0.0001    0.0220   -0.0001    0.0000   -0.0613
          28    0.0078    0.0019    0.0115    0.0579    0.0194    0.0472    0.0343   -0.0090
          29   -0.1909   -0.1312    0.2647   -0.0224   -0.0519   -0.0310    0.2219    0.0019
          30    0.0694    0.0333   -0.1292   -0.0025    0.0207   -0.1288   -0.1122   -0.0315
          31    0.0079   -0.0019   -0.0111    0.0580   -0.0191    0.0473    0.0340    0.0093
          32    0.1924   -0.1291    0.2649    0.0208   -0.0517    0.0315   -0.2216    0.0021
          33   -0.0698    0.0326   -0.1292    0.0033    0.0219    0.1286    0.1120   -0.0313


   Root No.       9        10        11        12        13        14        15        16

                 9 A      10 A      11 A      12 A      13 A      14 A      15 A      16 A   

                 991.9     996.4    1009.5    1034.3    1089.4    1111.0    1162.2    1191.1
  
           1   -0.0334    0.0385   -0.0182    0.0115   -0.0042   -0.0183   -0.0269    0.0233
           2    0.0154   -0.0224   -0.0235   -0.0099   -0.0738    0.0132   -0.0037    0.0268
           3    0.0257    0.0134   -0.0117    0.0198    0.0393   -0.0084    0.0030    0.0226
           4   -0.0326   -0.0390   -0.0182   -0.0116   -0.0043    0.0183   -0.0269    0.0233
           5   -0.0149   -0.0227    0.0235   -0.0100    0.0738    0.0132    0.0037   -0.0268
           6   -0.0260    0.0129    0.0118    0.0199   -0.0392   -0.0084   -0.0030   -0.0226
           7   -0.0079   -0.0001    0.0155    0.0000    0.0254    0.0000    0.0892   -0.0178
           8   -0.0002    0.0186    0.0000    0.0106    0.0000   -0.0380    0.0000    0.0000
           9    0.0003   -0.0347    0.0000   -0.0155    0.0000    0.0311    0.0000    0.0000
          10    0.0185   -0.0029    0.0124    0.0037   -0.0027   -0.0042    0.0015   -0.0199
          11    0.0270    0.0028    0.0049    0.0039    0.0315   -0.0067    0.0074    0.0019
          12    0.0037   -0.0131    0.0246   -0.0100   -0.0066   -0.0227    0.0172    0.0267
          13    0.0185    0.0032    0.0124   -0.0037   -0.0027    0.0042    0.0015   -0.0199
          14   -0.0270    0.0023   -0.0049    0.0039   -0.0315   -0.0067   -0.0074   -0.0019
          15   -0.0034   -0.0132   -0.0246   -0.0100    0.0066   -0.0227   -0.0172   -0.0267
          16    0.0953   -0.0002   -0.0530    0.0379   -0.1602    0.0986    0.0030   -0.0870
          17   -0.0800    0.0917   -0.1544    0.0937    0.1455    0.1734   -0.0880   -0.1060
          18    0.1139    0.0230   -0.0986    0.0884   -0.0238    0.1708   -0.0027   -0.1382
          19    0.0951    0.0021   -0.0530   -0.0378   -0.1601   -0.0987    0.0031   -0.0871
          20    0.0781    0.0930    0.1546    0.0938   -0.1456    0.1732    0.0879    0.1059
          21   -0.1142    0.0206    0.0986    0.0884    0.0237    0.1708    0.0025    0.1383
          22   -0.0759   -0.0008    0.1103    0.0000   -0.0250   -0.0002   -0.2890   -0.0129
          23    0.0011   -0.1286    0.0000   -0.0587    0.0000    0.0352   -0.0001    0.0000
          24   -0.0007    0.0679    0.0000    0.0340    0.0000   -0.0192    0.0000    0.0000
          25    0.2316    0.0022    0.0968    0.0001    0.1099   -0.0002   -0.2575    0.0601
          26   -0.0014    0.1479    0.0000    0.0782    0.0000   -0.1190    0.0001    0.0000
          27   -0.0007    0.0719    0.0000    0.0406    0.0000   -0.0319    0.0000    0.0000
          28    0.0480   -0.1222   -0.0735    0.1639    0.0491   -0.0707    0.0417    0.1291
          29   -0.0820    0.0244    0.0660   -0.0951   -0.0672    0.0174   -0.0047   -0.0475
          30    0.0196    0.1150    0.0965   -0.1503   -0.0230    0.0401   -0.0236   -0.1229
          31    0.0457    0.1232   -0.0732   -0.1639    0.0489    0.0707    0.0416    0.1291
          32    0.0815    0.0259   -0.0659   -0.0951    0.0671    0.0174    0.0046    0.0475
          33   -0.0217    0.1148   -0.0964   -0.1503    0.0228    0.0401    0.0235    0.1229


   Root No.      17        18        19        20        21        22        23        24

                17 A      18 A      19 A      20 A      21 A      22 A      23 A      24 A   

                1275.3    1286.6    1368.6    1493.3    1749.9    3086.9    3128.5    3160.1
  
           1   -0.0043   -0.0391   -0.0454   -0.0807   -0.0020   -0.0020   -0.0006    0.0252
           2   -0.0270    0.0585   -0.0267   -0.0520   -0.0155   -0.0008    0.0001    0.0101
           3   -0.0632    0.0838    0.0013    0.0015   -0.0199    0.0013   -0.0002   -0.0256
           4   -0.0043    0.0392    0.0454    0.0807    0.0019    0.0020    0.0006    0.0248
           5    0.0271    0.0584   -0.0266   -0.0519   -0.0155   -0.0008    0.0001   -0.0100
           6    0.0633    0.0837    0.0013    0.0015   -0.0199    0.0013   -0.0002    0.0252
           7   -0.0103    0.0000    0.0000    0.0000    0.0000    0.0000    0.0000    0.0004
           8    0.0000   -0.0255    0.0042    0.1290    0.0060   -0.0002    0.0435    0.0000
           9    0.0000   -0.0334   -0.0042    0.0007    0.0020   -0.0580   -0.0013    0.0000
          10   -0.0128    0.0201   -0.0024   -0.0058    0.2059   -0.0001    0.0002    0.0007
          11    0.0327   -0.0322   -0.0006   -0.0019    0.0038    0.0004    0.0000    0.0002
          12    0.0629   -0.0693   -0.0058   -0.0092    0.0043    0.0000    0.0000    0.0003
          13   -0.0129   -0.0201    0.0024    0.0058   -0.2059    0.0001   -0.0002    0.0007
          14   -0.0327   -0.0322   -0.0006   -0.0019    0.0038    0.0004    0.0000   -0.0002
          15   -0.0630   -0.0693   -0.0058   -0.0092    0.0043    0.0000    0.0000   -0.0004
          16    0.0936   -0.0456   -0.0145   -0.0383    0.0347    0.0199   -0.0040   -0.2983
          17    0.0593   -0.1353    0.0006   -0.0018    0.0307    0.0060   -0.0022   -0.1254
          18    0.0683    0.0034    0.0466    0.0729    0.0235   -0.0217    0.0033    0.3066
          19    0.0936    0.0456    0.0145    0.0383   -0.0348   -0.0200    0.0039   -0.2943
          20   -0.0593   -0.1352    0.0006   -0.0018    0.0307    0.0060   -0.0021    0.1237
          21   -0.0683    0.0035    0.0466    0.0728    0.0235   -0.0217    0.0032   -0.3026
          22    0.1123    0.0000    0.0000    0.0000    0.0000   -0.0001    0.0001    0.0019
          23    0.0000   -0.1201    0.2954   -0.1329    0.0092    0.2594   -0.2323    0.0002
          24    0.0000    0.0345   -0.1796    0.1639   -0.0023    0.3755   -0.3829    0.0002
          25   -0.0286    0.0001    0.0000    0.0000    0.0000    0.0000    0.0000   -0.0026
          26    0.0000    0.0492    0.3072   -0.1111   -0.0052   -0.2602   -0.2837   -0.0001
          27    0.0000    0.0262    0.2092   -0.1708   -0.0074    0.3239    0.4004    0.0000
          28    0.1302   -0.0561   -0.0250   -0.0343    0.1130    0.0013   -0.0019   -0.0119
          29   -0.0344    0.0104   -0.0017   -0.0036    0.0705    0.0005   -0.0006   -0.0046
          30   -0.0730   -0.0070    0.0176    0.0177    0.1549    0.0015   -0.0016   -0.0106
          31    0.1302    0.0559    0.0250    0.0343   -0.1130   -0.0014    0.0019   -0.0123
          32    0.0343    0.0104   -0.0017   -0.0037    0.0705    0.0005   -0.0006    0.0047
          33    0.0730   -0.0071    0.0176    0.0177    0.1549    0.0015   -0.0016    0.0109


   Root No.      25        26        27

                25 A      26 A      27 A   

                3164.8    3203.2    3223.3
  
           1    0.0236    0.0012    0.0031
           2    0.0097    0.0001    0.0002
           3   -0.0235   -0.0013   -0.0031
           4   -0.0239    0.0012   -0.0031
           5    0.0098   -0.0001    0.0002
           6   -0.0238    0.0013   -0.0032
           7    0.0000    0.0002    0.0000
           8   -0.0017    0.0000   -0.0008
           9   -0.0036    0.0000   -0.0007
          10   -0.0014   -0.0274    0.0331
          11   -0.0003   -0.0106    0.0105
          12   -0.0012   -0.0236    0.0235
          13    0.0014   -0.0274   -0.0331
          14   -0.0003    0.0106    0.0106
          15   -0.0012    0.0236    0.0234
          16   -0.2669   -0.0110   -0.0212
          17   -0.1119   -0.0044   -0.0088
          18    0.2739    0.0108    0.0224
          19    0.2705   -0.0110    0.0213
          20   -0.1134    0.0044   -0.0088
          21    0.2777   -0.0108    0.0223
          22    0.0000    0.0001    0.0000
          23    0.0189    0.0000    0.0036
          24    0.0251    0.0000    0.0052
          25    0.0000   -0.0002    0.0000
          26   -0.0160    0.0000   -0.0012
          27    0.0156    0.0000    0.0006
          28    0.0243    0.3222   -0.3027
          29    0.0094    0.1230   -0.1157
          30    0.0207    0.2801   -0.2627
          31   -0.0242    0.3221    0.3028
          32    0.0094   -0.1231   -0.1158
          33    0.0207   -0.2800   -0.2628


           MASS-WEIGHTED COORDINATE ANALYSIS (NORMAL COORDINATES)


   Root No.       1         2         3         4         5         6         7         8

                 1 A       2 A       3 A       4 A       5 A       6 A       7 A       8 A   

                 438.6     450.9     789.2     813.4     849.3     859.5     937.3     977.4
  
           1   -0.1412   -0.0257   -0.0386   -0.2325   -0.2297   -0.0773   -0.1342    0.2285
           2    0.1184    0.2226    0.0472    0.1359   -0.0018   -0.1878   -0.0333   -0.0663
           3   -0.1160   -0.2568   -0.0607    0.2484   -0.0001   -0.0200    0.1324    0.1610
           4   -0.1415    0.0242    0.0376   -0.2325    0.2292   -0.0790   -0.1339   -0.2289
           5   -0.1207    0.2213    0.0465   -0.1362   -0.0001    0.1880    0.0334   -0.0668
           6    0.1188   -0.2555   -0.0620   -0.2481    0.0004    0.0200   -0.1326    0.1604
           7    0.2743    0.0015   -0.0002   -0.0202    0.0013    0.2915    0.0234   -0.0002
           8   -0.0009    0.1803    0.0339   -0.0002   -0.3327    0.0012   -0.0002    0.2835
           9   -0.0025    0.4250   -0.0188   -0.0001   -0.0741    0.0002    0.0002    0.3465
          10   -0.0054    0.0087   -0.0010    0.2202    0.0073   -0.2040    0.0835    0.0353
          11   -0.4020   -0.2615   -0.2612    0.0510    0.1257   -0.1831   -0.3035   -0.1600
          12    0.1498   -0.0352    0.1231    0.0638    0.0708   -0.3049    0.2066   -0.2339
          13   -0.0052   -0.0088    0.0021    0.2202   -0.0091   -0.2040    0.0836   -0.0352
          14    0.4045   -0.2569   -0.2619   -0.0495    0.1275    0.1821    0.3036   -0.1600
          15   -0.1493   -0.0368    0.1230   -0.0644    0.0734    0.3044   -0.2066   -0.2337
          16   -0.1134    0.0028   -0.0550   -0.0944   -0.4197    0.1538   -0.0083   -0.2348
          17    0.1786    0.0191    0.1337    0.0504    0.3403   -0.2470    0.1265    0.1810
          18   -0.0439   -0.0786   -0.0098    0.0481   -0.2051    0.0815    0.1256   -0.1645
          19   -0.1133   -0.0041    0.0546   -0.0943    0.4210    0.1500   -0.0086    0.2354
          20   -0.1787    0.0171    0.1335   -0.0507    0.3425    0.2440   -0.1269    0.1812
          21    0.0448   -0.0781   -0.0101   -0.0481   -0.2057   -0.0796   -0.1254   -0.1653
          22    0.0419    0.0002    0.0015    0.5914    0.0013    0.3790   -0.0860   -0.0001
          23    0.0010   -0.1814   -0.1206    0.0001   -0.1864    0.0008    0.0000    0.4084
          24   -0.0016    0.2851    0.0876   -0.0001    0.0422   -0.0002    0.0000   -0.1235
          25    0.2205    0.0012   -0.0014   -0.4654    0.0006    0.0643    0.2322    0.0005
          26   -0.0015    0.2724    0.1385   -0.0003   -0.0145    0.0000    0.0000   -0.1928
          27   -0.0017    0.2970    0.0985   -0.0002    0.0427   -0.0002    0.0001   -0.1175
          28    0.0151    0.0037    0.0234    0.1088    0.0377    0.0974    0.0695   -0.0173
          29   -0.3712   -0.2484    0.5400   -0.0420   -0.1007   -0.0640    0.4500    0.0037
          30    0.1349    0.0630   -0.2635   -0.0048    0.0403   -0.2658   -0.2276   -0.0604
          31    0.0153   -0.0036   -0.0226    0.1090   -0.0371    0.0976    0.0690    0.0178
          32    0.3741   -0.2443    0.5404    0.0390   -0.1004    0.0649   -0.4494    0.0040
          33   -0.1357    0.0617   -0.2636    0.0062    0.0426    0.2654    0.2272   -0.0600


   Root No.       9        10        11        12        13        14        15        16

                 9 A      10 A      11 A      12 A      13 A      14 A      15 A      16 A   

                 991.9     996.4    1009.5    1034.3    1089.4    1111.0    1162.2    1191.1
  
           1   -0.2525    0.2976   -0.1484    0.0920   -0.0256   -0.1334   -0.1721    0.1714
           2    0.1165   -0.1732   -0.1923   -0.0791   -0.4490    0.0960   -0.0237    0.1971
           3    0.1940    0.1038   -0.0960    0.1580    0.2389   -0.0610    0.0195    0.1660
           4   -0.2461   -0.3022   -0.1491   -0.0922   -0.0259    0.1335   -0.1724    0.1716
           5   -0.1129   -0.1754    0.1921   -0.0794    0.4490    0.0964    0.0237   -0.1971
           6   -0.1965    0.0997    0.0962    0.1583   -0.2386   -0.0613   -0.0192   -0.1661
           7   -0.0597   -0.0006    0.1263   -0.0001    0.1543    0.0003    0.5709   -0.1309
           8   -0.0017    0.1438    0.0002    0.0846    0.0001   -0.2767    0.0002    0.0000
           9    0.0023   -0.2686    0.0001   -0.1236   -0.0001    0.2266   -0.0001   -0.0001
          10    0.1399   -0.0226    0.1012    0.0298   -0.0162   -0.0307    0.0096   -0.1466
          11    0.2041    0.0216    0.0401    0.0314    0.1916   -0.0486    0.0471    0.0143
          12    0.0281   -0.1014    0.2009   -0.0800   -0.0402   -0.1653    0.1099    0.1963
          13    0.1395    0.0249    0.1013   -0.0296   -0.0164    0.0305    0.0095   -0.1466
          14   -0.2042    0.0181   -0.0403    0.0313   -0.1917   -0.0489   -0.0471   -0.0143
          15   -0.0256   -0.1018   -0.2013   -0.0798    0.0402   -0.1654   -0.1099   -0.1962
          16    0.2087   -0.0005   -0.1256    0.0874   -0.2825    0.2079    0.0055   -0.1855
          17   -0.1752    0.2056   -0.3657    0.2163    0.2565    0.3656   -0.1632   -0.2258
          18    0.2495    0.0514   -0.2336    0.2040   -0.0420    0.3601   -0.0051   -0.2946
          19    0.2082    0.0048   -0.1255   -0.0873   -0.2823   -0.2082    0.0058   -0.1856
          20    0.1709    0.2085    0.3662    0.2165   -0.2567    0.3653    0.1629    0.2257
          21   -0.2501    0.0462    0.2336    0.2041    0.0417    0.3601    0.0047    0.2947
          22   -0.1662   -0.0018    0.2613    0.0000   -0.0442   -0.0003   -0.5358   -0.0274
          23    0.0025   -0.2884    0.0001   -0.1356    0.0000    0.0742   -0.0001    0.0000
          24   -0.0014    0.1522    0.0001    0.0785    0.0000   -0.0405    0.0000    0.0000
          25    0.5071    0.0049    0.2293    0.0002    0.1938   -0.0003   -0.4773    0.1282
          26   -0.0030    0.3316    0.0001    0.1805    0.0001   -0.2509    0.0001    0.0000
          27   -0.0015    0.1612    0.0001    0.0938    0.0000   -0.0672    0.0000    0.0000
          28    0.1051   -0.2739   -0.1740    0.3784    0.0865   -0.1490    0.0773    0.2752
          29   -0.1796    0.0548    0.1564   -0.2195   -0.1184    0.0366   -0.0087   -0.1012
          30    0.0429    0.2577    0.2285   -0.3469   -0.0405    0.0845   -0.0438   -0.2619
          31    0.1001    0.2761   -0.1735   -0.3784    0.0862    0.1492    0.0770    0.2751
          32    0.1785    0.0581   -0.1561   -0.2194    0.1182    0.0367    0.0086    0.1012
          33   -0.0475    0.2574   -0.2282   -0.3470    0.0402    0.0846    0.0436    0.2620


   Root No.      17        18        19        20        21        22        23        24

                17 A      18 A      19 A      20 A      21 A      22 A      23 A      24 A   

                1275.3    1286.6    1368.6    1493.3    1749.9    3086.9    3128.5    3160.1
  
           1   -0.0259   -0.1871   -0.2719   -0.3852   -0.0064   -0.0107   -0.0030    0.1332
           2   -0.1619    0.2796   -0.1599   -0.2479   -0.0506   -0.0041    0.0007    0.0537
           3   -0.3785    0.4008    0.0078    0.0073   -0.0650    0.0071   -0.0013   -0.1352
           4   -0.0257    0.1872    0.2719    0.3851    0.0063    0.0107    0.0031    0.1314
           5    0.1622    0.2793   -0.1597   -0.2477   -0.0506   -0.0041    0.0007   -0.0529
           6    0.3789    0.4004    0.0077    0.0073   -0.0650    0.0071   -0.0012    0.1334
           7   -0.0614   -0.0001    0.0001    0.0001    0.0000    0.0000    0.0000    0.0019
           8   -0.0001   -0.1221    0.0249    0.6155    0.0197   -0.0011    0.2206   -0.0001
           9   -0.0001   -0.1597   -0.0252    0.0033    0.0065   -0.3078   -0.0068   -0.0001
          10   -0.0769    0.0960   -0.0142   -0.0277    0.6729   -0.0005    0.0009    0.0039
          11    0.1955   -0.1542   -0.0036   -0.0089    0.0124    0.0019   -0.0001    0.0010
          12    0.3765   -0.3316   -0.0349   -0.0438    0.0142    0.0001    0.0002    0.0018
          13   -0.0771   -0.0960    0.0142    0.0276   -0.6728    0.0005   -0.0009    0.0039
          14   -0.1957   -0.1540   -0.0036   -0.0089    0.0125    0.0019   -0.0001   -0.0010
          15   -0.3769   -0.3313   -0.0348   -0.0439    0.0142    0.0001    0.0002   -0.0019
          16    0.1623   -0.0632   -0.0252   -0.0529    0.0329    0.0307   -0.0058   -0.4573
          17    0.1027   -0.1875    0.0011   -0.0025    0.0290    0.0092   -0.0032   -0.1922
          18    0.1184    0.0047    0.0810    0.1007    0.0222   -0.0334    0.0049    0.4701
          19    0.1624    0.0631    0.0252    0.0529   -0.0329   -0.0307    0.0057   -0.4513
          20   -0.1029   -0.1873    0.0010   -0.0025    0.0290    0.0092   -0.0031    0.1896
          21   -0.1185    0.0048    0.0809    0.1007    0.0223   -0.0334    0.0047   -0.4639
          22    0.1948    0.0000    0.0000    0.0000    0.0000   -0.0001    0.0001    0.0029
          23    0.0000   -0.1664    0.5129   -0.1837    0.0088    0.3989   -0.3410    0.0003
          24    0.0000    0.0478   -0.3119    0.2265   -0.0022    0.5774   -0.5620    0.0004
          25   -0.0496    0.0001   -0.0001    0.0000    0.0000    0.0000    0.0000   -0.0040
          26    0.0001    0.0682    0.5334   -0.1536   -0.0049   -0.4001   -0.4164   -0.0001
          27    0.0000    0.0363    0.3632   -0.2361   -0.0070    0.4980    0.5878    0.0000
          28    0.2258   -0.0777   -0.0434   -0.0475    0.1070    0.0020   -0.0029   -0.0183
          29   -0.0596    0.0144   -0.0030   -0.0050    0.0668    0.0008   -0.0010   -0.0071
          30   -0.1265   -0.0097    0.0306    0.0245    0.1467    0.0023   -0.0023   -0.0163
          31    0.2258    0.0774    0.0434    0.0474   -0.1070   -0.0021    0.0028   -0.0188
          32    0.0595    0.0143   -0.0030   -0.0050    0.0668    0.0008   -0.0009    0.0073
          33    0.1265   -0.0099    0.0306    0.0245    0.1466    0.0023   -0.0023    0.0167


   Root No.      25        26        27

                25 A      26 A      27 A   

                3164.8    3203.2    3223.3
  
           1    0.1368    0.0064    0.0171
           2    0.0561    0.0005    0.0010
           3   -0.1360   -0.0069   -0.0173
           4   -0.1386    0.0064   -0.0169
           5    0.0568   -0.0005    0.0011
           6   -0.1377    0.0069   -0.0176
           7    0.0000    0.0010    0.0000
           8   -0.0101    0.0000   -0.0042
           9   -0.0206    0.0001   -0.0039
          10   -0.0081   -0.1445    0.1823
          11   -0.0019   -0.0557    0.0580
          12   -0.0069   -0.1246    0.1293
          13    0.0081   -0.1444   -0.1826
          14   -0.0019    0.0558    0.0581
          15   -0.0069    0.1244    0.1290
          16   -0.4480   -0.0168   -0.0338
          17   -0.1878   -0.0067   -0.0141
          18    0.4598    0.0165    0.0358
          19    0.4541   -0.0167    0.0340
          20   -0.1903    0.0067   -0.0140
          21    0.4661   -0.0164    0.0356
          22    0.0000    0.0001    0.0000
          23    0.0317    0.0000    0.0057
          24    0.0421    0.0000    0.0083
          25    0.0000   -0.0003   -0.0001
          26   -0.0269    0.0000   -0.0019
          27    0.0261    0.0001    0.0010
          28    0.0408    0.4918   -0.4831
          29    0.0158    0.1878   -0.1846
          30    0.0348    0.4276   -0.4192
          31   -0.0406    0.4917    0.4832
          32    0.0158   -0.1879   -0.1849
          33    0.0347   -0.4274   -0.4194


          DESCRIPTION OF VIBRATIONS


 VIBRATION    1    1A       ATOM PAIR        ENERGY CONTRIBUTION    RADIAL
 FREQ.       438.59        C  4 --  C  5          +17.4% ( 96.1%)     0.0%
 T-DIPOLE    0.0808        C  2 --  C  5          +10.2% ( 73.5%)     0.1%
 TRAVEL      0.1060        C  1 --  C  4          +10.0% ( 72.9%)     0.1%
 RED. MASS   1.0023        C  2 --  C  4           +9.1% ( 69.6%)     0.9%
 EFF. MASS  13.6939

 VIBRATION    2    2A       ATOM PAIR        ENERGY CONTRIBUTION    RADIAL
 FREQ.       450.90        C  1 --  C  3          +16.0% (137.3%)     0.1%
 T-DIPOLE    0.1976        C  2 --  C  3          +16.0% (137.2%)     0.1%
 TRAVEL      0.0869        C  3 --  H  9          +14.7% (131.3%)   100.0%
 RED. MASS   1.0271        C  3 --  H  8          +10.6% (111.5%)    66.2%
 EFF. MASS  19.7828

 VIBRATION    3    3A       ATOM PAIR        ENERGY CONTRIBUTION    RADIAL
 FREQ.       789.17        C  5 --  H 11          +35.0% ( 72.9%)     0.0%
 T-DIPOLE    0.6996        C  4 --  H 10          +35.0% ( 72.8%)     0.0%
 TRAVEL      0.1918        C  3 --  H  9           +4.1% ( 24.8%)     3.9%
 RED. MASS   0.4351        C  2 --  C  5           +3.9% ( 24.2%)     1.1%
 EFF. MASS   2.3229

 VIBRATION    4    4A       ATOM PAIR        ENERGY CONTRIBUTION    RADIAL
 FREQ.       813.39        C  1 --  C  5          +11.6% ( 74.9%)    97.7%
 T-DIPOLE    0.1149        C  2 --  C  4          +11.6% ( 74.9%)    97.7%
 TRAVEL      0.1037        C  1 --  C  2          +10.7% ( 72.0%)     0.0%
 RED. MASS   0.6770        C  3 --  H  8          +10.0% ( 69.6%)     0.0%
 EFF. MASS   7.7066

 VIBRATION    5    5A       ATOM PAIR        ENERGY CONTRIBUTION    RADIAL
 FREQ.       849.33        C  2 --  H  7          +13.8% ( 61.2%)     6.4%
 T-DIPOLE    0.0500        C  1 --  H  6          +13.7% ( 61.0%)     6.5%
 TRAVEL      0.1256        C  1 --  C  3          +10.8% ( 54.2%)    16.5%
 RED. MASS   0.4681        C  2 --  C  3          +10.8% ( 54.2%)    17.2%
 EFF. MASS   5.0299        C  1 --  C  2          +10.0% ( 52.2%)   100.0%

 VIBRATION    6    6A       ATOM PAIR        ENERGY CONTRIBUTION    RADIAL
 FREQ.       859.52        C  4 --  C  5          +17.1% ( 85.3%)     0.0%
 T-DIPOLE    0.2009        C  2 --  C  4          +11.7% ( 70.6%)    65.7%
 TRAVEL      0.0926        C  1 --  C  5          +11.7% ( 70.5%)    66.1%
 RED. MASS   0.8564        C  1 --  C  4          +10.4% ( 66.6%)    63.6%
 EFF. MASS   9.1451        C  2 --  C  5          +10.4% ( 66.5%)    63.7%

 VIBRATION    7    7A       ATOM PAIR        ENERGY CONTRIBUTION    RADIAL
 FREQ.       937.30        C  4 --  H 10          +18.2% ( 59.4%)     0.8%
 T-DIPOLE    0.1096        C  5 --  H 11          +18.2% ( 59.3%)     0.8%
 TRAVEL      0.1262        C  4 --  C  5           +8.8% ( 41.3%)     0.0%
 RED. MASS   0.6554        C  1 --  C  5           +8.1% ( 39.5%)    26.7%
 EFF. MASS   4.5141

 VIBRATION    8    8A       ATOM PAIR        ENERGY CONTRIBUTION    RADIAL
 FREQ.       977.42        C  3 --  H  9          +13.7% ( 65.3%)     1.6%
 T-DIPOLE    0.2542        C  3 --  H  8          +13.1% ( 63.9%)    44.5%
 TRAVEL      0.0953        C  2 --  C  3          +10.6% ( 57.4%)    16.3%
 RED. MASS   0.8687        C  1 --  C  3          +10.6% ( 57.4%)    16.2%
 EFF. MASS   7.6026

 VIBRATION    9    9A       ATOM PAIR        ENERGY CONTRIBUTION    RADIAL
 FREQ.       991.95        C  1 --  C  5          +10.5% ( 53.8%)    85.9%
 T-DIPOLE    0.1717        C  2 --  C  4          +10.4% ( 53.6%)    86.7%
 TRAVEL      0.1128        C  1 --  C  2          +10.1% ( 52.8%)     0.0%
 RED. MASS   0.5101        C  3 --  H  9           +9.2% ( 50.4%)     0.0%
 EFF. MASS   5.3437

 VIBRATION   10   10A       ATOM PAIR        ENERGY CONTRIBUTION    RADIAL
 FREQ.       996.36        C  3 --  H  8          +12.7% ( 55.0%)     3.6%
 T-DIPOLE    0.0546        C  3 --  H  9          +11.1% ( 51.5%)    24.2%
 TRAVEL      0.1124        C  1 --  C  2          +11.1% ( 51.5%)   100.0%
 RED. MASS   0.5935        C  2 --  C  3           +9.4% ( 47.3%)     4.4%
 EFF. MASS   5.3568

 VIBRATION   11   11A       ATOM PAIR        ENERGY CONTRIBUTION    RADIAL
 FREQ.      1009.51        C  2 --  H  7          +11.4% ( 48.8%)     7.7%
 T-DIPOLE    0.0902        C  1 --  H  6          +11.4% ( 48.8%)     7.7%
 TRAVEL      0.1204        C  2 --  C  5           +9.6% ( 44.9%)    60.2%
 RED. MASS   0.2954        C  1 --  C  4           +9.6% ( 44.8%)    60.2%
 EFF. MASS   4.6076

 VIBRATION   12   12A       ATOM PAIR        ENERGY CONTRIBUTION    RADIAL
 FREQ.      1034.26        C  5 --  H 11          +23.1% ( 53.9%)     0.1%
 T-DIPOLE    0.0552        C  4 --  H 10          +23.1% ( 53.9%)     0.1%
 TRAVEL      0.1679        C  2 --  H  7           +8.7% ( 33.0%)     2.6%
 RED. MASS   0.2625        C  1 --  H  6           +8.6% ( 33.0%)     2.6%
 EFF. MASS   2.3119

 VIBRATION   13   13A       ATOM PAIR        ENERGY CONTRIBUTION    RADIAL
 FREQ.      1089.36        C  1 --  C  2          +16.8% ( 66.9%)     0.0%
 T-DIPOLE    0.0993        C  1 --  H  6          +12.1% ( 57.0%)     7.8%
 TRAVEL      0.0897        C  2 --  H  7          +12.1% ( 57.0%)     7.8%
 RED. MASS   1.7040        C  1 --  C  3           +9.1% ( 49.4%)    78.5%
 EFF. MASS   7.7005

 VIBRATION   14   14A       ATOM PAIR        ENERGY CONTRIBUTION    RADIAL
 FREQ.      1110.96        C  1 --  H  6          +17.7% ( 55.4%)     0.0%
 T-DIPOLE    0.0201        C  2 --  H  7          +17.7% ( 55.4%)     0.0%
 TRAVEL      0.1246        C  3 --  H  8          +10.0% ( 41.5%)     0.5%
 RED. MASS   0.4378        C  2 --  C  3          +10.0% ( 41.5%)    26.7%
 EFF. MASS   3.9109

 VIBRATION   15   15A       ATOM PAIR        ENERGY CONTRIBUTION    RADIAL
 FREQ.      1162.20        C  3 --  H  8          +27.7% ( 69.1%)     0.0%
 T-DIPOLE    0.0265        C  3 --  H  9          +24.4% ( 64.9%)     0.0%
 TRAVEL      0.1101        C  2 --  C  3          +12.2% ( 45.9%)    28.8%
 RED. MASS   1.4407        C  1 --  C  3          +12.2% ( 45.9%)    28.8%
 EFF. MASS   4.7876

 VIBRATION   16   16A       ATOM PAIR        ENERGY CONTRIBUTION    RADIAL
 FREQ.      1191.10        C  2 --  H  7          +14.8% ( 51.1%)     0.3%
 T-DIPOLE    0.0063        C  1 --  H  6          +14.8% ( 51.1%)     0.3%
 TRAVEL      0.1242        C  4 --  H 10          +11.5% ( 45.1%)     0.1%
 RED. MASS   0.4195        C  5 --  H 11          +11.5% ( 45.1%)     0.1%
 EFF. MASS   3.6691

 VIBRATION   17   17A       ATOM PAIR        ENERGY CONTRIBUTION    RADIAL
 FREQ.      1275.30        C  2 --  C  5          +13.4% ( 59.8%)   100.0%
 T-DIPOLE    0.3645        C  1 --  C  4          +13.4% ( 59.8%)   100.0%
 TRAVEL      0.0776        C  4 --  C  5          +10.6% ( 53.2%)     0.0%
 RED. MASS   1.5456        C  1 --  C  2           +9.2% ( 49.6%)     0.0%
 EFF. MASS   8.7727

 VIBRATION   18   18A       ATOM PAIR        ENERGY CONTRIBUTION    RADIAL
 FREQ.      1286.62        C  1 --  C  2          +12.9% ( 65.8%)   100.0%
 T-DIPOLE    0.2899        C  1 --  C  4          +12.4% ( 64.7%)    92.4%
 TRAVEL      0.0684        C  2 --  C  5          +12.4% ( 64.6%)    92.4%
 RED. MASS   2.3115        C  1 --  C  5          +10.1% ( 58.3%)    62.5%
 EFF. MASS  11.1933        C  2 --  C  4          +10.1% ( 58.3%)    62.5%

 VIBRATION   19   19A       ATOM PAIR        ENERGY CONTRIBUTION    RADIAL
 FREQ.      1368.64        C  3 --  H  9          +21.1% ( 54.0%)     0.0%
 T-DIPOLE    0.0698        C  3 --  H  8          +17.2% ( 48.8%)     0.3%
 TRAVEL      0.1211        C  1 --  C  2          +15.0% ( 45.6%)   100.0%
 RED. MASS   0.5438        C  1 --  C  3           +6.3% ( 29.4%)    81.1%
 EFF. MASS   3.3577

 VIBRATION   20   20A       ATOM PAIR        ENERGY CONTRIBUTION    RADIAL
 FREQ.      1493.30        C  1 --  C  3          +18.9% ( 74.4%)    98.7%
 T-DIPOLE    0.1136        C  2 --  C  3          +18.9% ( 74.4%)    98.7%
 TRAVEL      0.0655        C  1 --  C  2          +12.4% ( 60.2%)   100.0%
 RED. MASS   2.7954        C  3 --  H  8          +11.1% ( 57.0%)     9.2%
 EFF. MASS  10.5328        C  3 --  H  9          +10.7% ( 55.9%)    11.3%

 VIBRATION   21   21A       ATOM PAIR        ENERGY CONTRIBUTION    RADIAL
 FREQ.      1749.89        C  4 --  C  5          +36.1% (102.2%)   100.0%
 T-DIPOLE    0.1600        C  2 --  C  4          +11.2% ( 56.9%)    61.9%
 TRAVEL      0.0566        C  1 --  C  5          +11.2% ( 56.9%)    61.9%
 RED. MASS   4.9348        C  1 --  C  4          +11.0% ( 56.5%)     0.7%
 EFF. MASS  12.0146        C  2 --  C  5          +11.0% ( 56.5%)     0.7%

 VIBRATION   22   22A       ATOM PAIR        ENERGY CONTRIBUTION    RADIAL
 FREQ.      3086.91        C  3 --  H  8          +52.8% ( 75.2%)    97.6%
 T-DIPOLE    0.1394        C  3 --  H  9          +44.4% ( 68.9%)    96.6%
 TRAVEL      0.1185        C  2 --  C  3           +1.2% ( 11.2%)     0.1%
 RED. MASS   0.5201        C  1 --  C  3           +1.2% ( 11.2%)     0.1%
 EFF. MASS   1.5552

 VIBRATION   23   23A       ATOM PAIR        ENERGY CONTRIBUTION    RADIAL
 FREQ.      3128.50        C  3 --  H  9          +53.8% ( 72.9%)    97.0%
 T-DIPOLE    0.1644        C  3 --  H  8          +44.5% ( 66.3%)    95.7%
 TRAVEL      0.1288        C  2 --  C  3           +0.8% (  9.0%)    75.2%
 RED. MASS   0.4882        C  1 --  C  3           +0.8% (  9.0%)    75.1%
 EFF. MASS   1.2985

 VIBRATION   24   24A       ATOM PAIR        ENERGY CONTRIBUTION    RADIAL
 FREQ.      3160.09        C  1 --  H  6          +48.1% ( 71.2%)   100.0%
 T-DIPOLE    0.4342        C  2 --  H  7          +46.8% ( 70.2%)   100.0%
 TRAVEL      0.1210        C  1 --  C  2           +1.1% ( 10.8%)     0.0%
 RED. MASS   0.4637        C  1 --  C  4           +0.6% (  8.3%)    31.7%
 EFF. MASS   1.4578

 VIBRATION   25   25A       ATOM PAIR        ENERGY CONTRIBUTION    RADIAL
 FREQ.      3164.83        C  2 --  H  7          +47.3% ( 70.7%)   100.0%
 T-DIPOLE    0.3904        C  1 --  H  6          +46.1% ( 69.8%)   100.0%
 TRAVEL      0.1187        C  1 --  C  2           +1.5% ( 12.7%)   100.0%
 RED. MASS   0.4549        C  2 --  C  3           +0.7% (  8.6%)    43.9%
 EFF. MASS   1.5129

 VIBRATION   26   26A       ATOM PAIR        ENERGY CONTRIBUTION    RADIAL
 FREQ.      3203.15        C  4 --  H 10          +47.8% ( 70.8%)   100.0%
 T-DIPOLE    0.4821        C  5 --  H 11          +47.8% ( 70.8%)   100.0%
 TRAVEL      0.1197        C  4 --  C  5           +1.1% ( 10.6%)     0.0%
 RED. MASS   0.4637        C  2 --  C  4           +0.8% (  9.2%)    99.7%
 EFF. MASS   1.4681

 VIBRATION   27   27A       ATOM PAIR        ENERGY CONTRIBUTION    RADIAL
 FREQ.      3223.27        C  5 --  H 11          +46.0% ( 70.2%)    99.9%
 T-DIPOLE    0.3489        C  4 --  H 10          +46.0% ( 70.2%)    99.9%
 TRAVEL      0.1096        C  4 --  C  5           +3.0% ( 17.8%)   100.0%
 RED. MASS   0.4646        C  1 --  C  5           +1.1% ( 10.9%)    97.8%
 EFF. MASS   1.7418

 SYMMETRY NUMBER FOR POINT-GROUP C1  =  1


          SYSTEM IS A GROUND STATE


    NULL



          MOLECULE IS NOT LINEAR

          THERE ARE 27 GENUINE VIBRATIONS IN THIS SYSTEM
          THIS THERMODYNAMICS CALCULATION IS LIMITED TO
          MOLECULES WHICH HAVE NO INTERNAL ROTATIONS




                    CALCULATED THERMODYNAMIC PROPERTIES
                                          *
   TEMP. (K)   PARTITION FUNCTION   H.O.F.    ENTHALPY  HEAT CAPACITY ENTROPY
                                   KCAL/MOL   CAL/MOLE    CAL/K/MOL  CAL/K/MOL


 298.00  VIB.     0.1488D+01                   737.5282     9.0347     3.2648
         ROT.     0.4564D+05                   888.2813     2.9808    24.3008
         INT.     0.6792D+05                  1625.8095    12.0155    27.5656
         TRA.     0.5196D+27                  1480.4688     4.9680    38.4818
         TOT.                       85.620    3106.2784    16.9835    66.0474

 200.00  VIB.     0.1106D+01                   151.7613     3.2369     0.9582
         ROT.     0.2510D+05                   596.1620     2.9808    23.1121
         INT.     0.2774D+05                   747.9232     6.2177    24.0703
         TRA.     0.2857D+27                   993.6033     4.9680    36.5007
         TOT.                       84.255    1741.5265    11.1857    60.5710

 210.00  VIB.     0.1128D+01                   186.5362     3.7236     1.1277
         ROT.     0.2700D+05                   625.9700     2.9808    23.2576
         INT.     0.3046D+05                   812.5063     6.7044    24.3853
         TRA.     0.3074D+27                  1043.2834     4.9680    36.7431
         TOT.                       84.369    1855.7897    11.6724    61.1284

 220.00  VIB.     0.1154D+01                   226.3379     4.2418     1.3128
         ROT.     0.2895D+05                   655.7781     2.9808    23.3962
         INT.     0.3340D+05                   882.1160     7.2226    24.7090
         TRA.     0.3296D+27                  1092.9636     4.9680    36.9742
         TOT.                       84.489    1975.0796    12.1907    61.6832

 230.00  VIB.     0.1182D+01                   271.4694     4.7891     1.5133
         ROT.     0.3095D+05                   685.5862     2.9808    23.5287
         INT.     0.3660D+05                   957.0557     7.7699    25.0421
         TRA.     0.3523D+27                  1142.6437     4.9680    37.1950
         TOT.                       84.613    2099.6994    12.7379    62.2371

 240.00  VIB.     0.1215D+01                   322.2059     5.3623     1.7292
         ROT.     0.3299D+05                   715.3943     2.9808    23.6556
         INT.     0.4008D+05                  1037.6002     8.3431    25.3848
         TRA.     0.3755D+27                  1192.3239     4.9680    37.4065
         TOT.                       84.744    2229.9241    13.3111    62.7912

 250.00  VIB.     0.1251D+01                   378.7914     5.9583     1.9601
         ROT.     0.3507D+05                   745.2024     2.9808    23.7773
         INT.     0.4387D+05                  1123.9938     8.9391    25.7374
         TRA.     0.3992D+27                  1242.0041     4.9680    37.6093
         TOT.                       84.880    2365.9979    13.9072    63.3466

 260.00  VIB.     0.1291D+01                   441.4377     6.5739     2.2057
         ROT.     0.3720D+05                   775.0105     2.9808    23.8942
         INT.     0.4803D+05                  1216.4483     9.5547    26.0999
         TRA.     0.4234D+27                  1291.6842     4.9680    37.8041
         TOT.                       85.022    2508.1325    14.5227    63.9040

 270.00  VIB.     0.1336D+01                   510.3238     7.2057     2.4656
         ROT.     0.3936D+05                   804.8186     2.9808    24.0067
         INT.     0.5259D+05                  1315.1424    10.1866    26.4723
         TRA.     0.4481D+27                  1341.3644     4.9680    37.9916
         TOT.                       85.170    2656.5068    15.1546    64.4639

 280.00  VIB.     0.1385D+01                   585.5961     7.8506     2.7393
         ROT.     0.4157D+05                   834.6267     2.9808    24.1151
         INT.     0.5760D+05                  1420.2229    10.8314    26.8544
         TRA.     0.4732D+27                  1391.0445     4.9680    38.1723
         TOT.                       85.325    2811.2674    15.7995    65.0267

 290.00  VIB.     0.1440D+01                   667.3699     8.5055     3.0262
         ROT.     0.4382D+05                   864.4348     2.9808    24.2197
         INT.     0.6311D+05                  1531.8047    11.4863    27.2459
         TRA.     0.4988D+27                  1440.7247     4.9680    38.3466
         TOT.                       85.486    2972.5294    16.4544    65.5925

 300.00  VIB.     0.1501D+01                   755.7304     9.1675     3.3257
         ROT.     0.4610D+05                   894.2429     2.9808    24.3207
         INT.     0.6919D+05                  1649.9734    12.1483    27.6464
         TRA.     0.5248D+27                  1490.4049     4.9680    38.5150
         TOT.                       85.654    3140.3782    17.1164    66.1615

 310.00  VIB.     0.1567D+01                   850.7354     9.8340     3.6371
         ROT.     0.4843D+05                   924.0510     2.9808    24.4185
         INT.     0.7590D+05                  1774.7865    12.8148    28.0556
         TRA.     0.5513D+27                  1540.0850     4.9680    38.6779
         TOT.                       85.829    3314.8715    17.7828    66.7336

 320.00  VIB.     0.1640D+01                   952.4169    10.5024     3.9599
         ROT.     0.5079D+05                   953.8591     2.9808    24.5131
         INT.     0.8332D+05                  1906.2761    13.4833    28.4730
         TRA.     0.5782D+27                  1589.7652     4.9680    38.8357
         TOT.                       86.010    3496.0413    18.4513    67.3087

 330.00  VIB.     0.1721D+01                  1060.7836    11.1707     4.2933
         ROT.     0.5319D+05                   983.6672     2.9808    24.6049
         INT.     0.9154D+05                  2044.4508    14.1515    28.8982
         TRA.     0.6055D+27                  1639.4454     4.9680    38.9885
         TOT.                       86.198    3683.8962    19.1195    67.8867

 340.00  VIB.     0.1809D+01                  1175.8232    11.8367     4.6367
         ROT.     0.5563D+05                  1013.4753     2.9808    24.6938
         INT.     0.1006D+06                  2189.2985    14.8175    29.3305
         TRA.     0.6332D+27                  1689.1255     4.9680    39.1369
         TOT.                       86.392    3878.4241    19.7856    68.4674

 350.00  VIB.     0.1906D+01                  1297.5050    12.4988     4.9894
         ROT.     0.5810D+05                  1043.2834     2.9808    24.7802
         INT.     0.1108D+06                  2340.7884    15.4796    29.7696
         TRA.     0.6613D+27                  1738.8057     4.9680    39.2809
         TOT.                       86.593    4079.5941    20.4477    69.0505

 360.00  VIB.     0.2013D+01                  1425.7816    13.1555     5.3507
         ROT.     0.6061D+05                  1073.0915     2.9808    24.8642
         INT.     0.1220D+06                  2498.8731    16.1363    30.2149
         TRA.     0.6899D+27                  1788.4859     4.9680    39.4208
         TOT.                       86.801    4287.3590    21.1043    69.6357

 370.00  VIB.     0.2130D+01                  1560.5918    13.8053     5.7200
         ROT.     0.6315D+05                  1102.8996     2.9808    24.9459
         INT.     0.1345D+06                  2663.4914    16.7861    30.6659
         TRA.     0.7188D+27                  1838.1660     4.9680    39.5569
         TOT.                       87.015    4501.6574    21.7542    70.2228

 380.00  VIB.     0.2258D+01                  1701.8618    14.4473     6.0967
         ROT.     0.6573D+05                  1132.7077     2.9808    25.0254
         INT.     0.1484D+06                  2834.5695    17.4281    31.1221
         TRA.     0.7482D+27                  1887.8462     4.9680    39.6894
         TOT.                       87.236    4722.4157    22.3961    70.8115

 390.00  VIB.     0.2398D+01                  1849.5078    15.0804     6.4802
         ROT.     0.6834D+05                  1162.5158     2.9808    25.1028
         INT.     0.1639D+06                  3012.0236    18.0612    31.5830
         TRA.     0.7779D+27                  1937.5263     4.9680    39.8185
         TOT.                       87.463    4949.5499    23.0292    71.4015

 400.00  VIB.     0.2551D+01                  2003.4372    15.7038     6.8699
         ROT.     0.7098D+05                  1192.3239     2.9808    25.1783
         INT.     0.1811D+06                  3195.7611    18.6847    32.0482
         TRA.     0.8080D+27                  1987.2065     4.9680    39.9443
         TOT.                       87.697    5182.9676    23.6527    71.9924

   *: NOTE: HEATS OF FORMATION ARE RELATIVE TO THE
            ELEMENTS IN THEIR STANDARD STATE AT 298K
              (=  Standard Enthalpy of Formation).

            Hvib:  Zero-point energy is not included.
                   frequencies of less than zero cm-1 are not included.
            Hrot = (3/2)RT
            Htra = (3/2)RT + pV = (5/2)RT

            Heat capacity is Cp, not Cv

           For more information, see: HTTP://OpenMOPAC.net/Manual/thermochemistry.html


           FORCE CONSTANT IN CARTESIAN COORDINATES (Millidynes/A)

    ATOM   CHEMICAL       X               Y               Z
   NUMBER   SYMBOL  FORCE CONSTANT  FORCE CONSTANT  FORCE CONSTANT

      1       C        9.435319        6.204351        8.343070
      2       C        9.436653        6.202594        8.343535
      3       C        4.220727       11.579378        8.900795
      4       C       14.911192        3.498386        7.768953
      5       C       14.909278        3.499604        7.767199
      6       H        2.763939        0.953847        2.932607
      7       H        2.764231        0.953727        2.932607
      8       H        0.530914        2.130644        3.952530
      9       H        0.528234        2.439548        3.684914
     10       H        3.269227        0.768259        2.566937
     11       H        3.269769        0.768941        2.565501



 TOTAL CPU TIME:             0.38 SECONDS

 == MOPAC DONE ==
