 *******************************************************************************
 ** Site#: 14399           For non-commercial use only        Version 13.159M **
 *******************************************************************************
 ** Cite this work as: MOPAC2012, James J. P. Stewart, Stewart Computational  **
 ** Chemistry, Version 13.159M web: HTTP://OpenMOPAC.net  Days remaining:   6 **
 *******************************************************************************
 **                                                                           **
 **                                MOPAC2012                                  **
 **                                                                           **
 *******************************************************************************

                            PM3 CALCULATION RESULTS


 *******************************************************************************
 *  CALCULATION DONE:                                Mon Jun  2 11:07:58 2014  *
 *  PM3      - The PM3 Hamiltonian to be used
 *  PRECISE  - CRITERIA TO BE INCREASED BY 100 TIMES
 *  NOSYM    - POINT-GROUP SYMMETRY SET TO C1
 *  T=       - A TIME OF 172800.0 SECONDS REQUESTED
 *  DUMP=N   - RESTART FILE WRITTEN EVERY  7200.000 SECONDS
 *******************************************************************************
pm3  precise nosym
 InChI=1S/C10H16/c1-3-5-9-7-10(8-9)6-4-2/h3-6,9-10H,7-8H2,1-2H3

   ATOM   CHEMICAL          X               Y               Z
  NUMBER   SYMBOL      (ANGSTROMS)     (ANGSTROMS)     (ANGSTROMS)
 
     1       C          1.16190000  *  -1.07660000  *   0.30870000  *
     2       C         -0.95550000  *  -0.90950000  *   0.68290000  *
     3       C         -0.11620000  *  -1.61260000  *  -0.33250000  *
     4       C          0.27710000  *  -0.25090000  *   1.29460000  *
     5       C          3.98750000  *   1.23370000  *  -0.98200000  *
     6       C         -4.20290000  *   1.03590000  *  -0.16740000  *
     7       C          2.03910000  *  -0.24090000  *  -0.58550000  *
     8       C         -1.94020000  *   0.07160000  *   0.09950000  *
     9       C          3.10700000  *   0.40430000  *  -0.10060000  *
    10       C         -3.23930000  *   0.05400000  *   0.42210000  *
    11       H          1.73440000  *  -1.88290000  *   0.82640000  *
    12       H         -1.41510000  *  -1.63360000  *   1.39940000  *
    13       H         -0.19120000  *  -2.72270000  *  -0.25500000  *
    14       H         -0.28320000  *  -1.28540000  *  -1.38680000  *
    15       H          0.34140000  *   0.85430000  *   1.14860000  *
    16       H          0.44350000  *  -0.54180000  *   2.35800000  *
    17       H          3.40240000  *   2.06180000  *  -1.44220000  *
    18       H          4.81460000  *   1.67900000  *  -0.38460000  *
    19       H         -4.23210000  *   0.93110000  *  -1.27570000  *
    20       H         -3.90570000  *   2.07590000  *   0.09770000  *
    21       H          4.43310000  *   0.60480000  *  -1.78550000  *
    22       H         -5.22670000  *   0.85200000  *   0.22950000  *
    23       H          1.80950000  *  -0.17050000  *  -1.64890000  *
    24       H         -1.57290000  *   0.81740000  *  -0.60680000  *
    25       H          3.35130000  *   0.33540000  *   0.95940000  *
    26       H         -3.62190000  *  -0.68390000  *   1.12660000  *
 


          CARTESIAN COORDINATES 

    NO.       ATOM         X         Y         Z

     1         C        1.1619   -1.0766    0.3087
     2         C       -0.9555   -0.9095    0.6829
     3         C       -0.1162   -1.6126   -0.3325
     4         C        0.2771   -0.2509    1.2946
     5         C        3.9875    1.2337   -0.9820
     6         C       -4.2029    1.0359   -0.1674
     7         C        2.0391   -0.2409   -0.5855
     8         C       -1.9402    0.0716    0.0995
     9         C        3.1070    0.4043   -0.1006
    10         C       -3.2393    0.0540    0.4221
    11         H        1.7344   -1.8829    0.8264
    12         H       -1.4151   -1.6336    1.3994
    13         H       -0.1912   -2.7227   -0.2550
    14         H       -0.2832   -1.2854   -1.3868
    15         H        0.3414    0.8543    1.1486
    16         H        0.4435   -0.5418    2.3580
    17         H        3.4024    2.0618   -1.4422
    18         H        4.8146    1.6790   -0.3846
    19         H       -4.2321    0.9311   -1.2757
    20         H       -3.9057    2.0759    0.0977
    21         H        4.4331    0.6048   -1.7855
    22         H       -5.2267    0.8520    0.2295
    23         H        1.8095   -0.1705   -1.6489
    24         H       -1.5729    0.8174   -0.6068
    25         H        3.3513    0.3354    0.9594
    26         H       -3.6219   -0.6839    1.1266

  H: (PM3): J. J. P. STEWART, J. COMP. CHEM. 10, 209 (1989).
  C: (PM3): J. J. P. STEWART, J. COMP. CHEM. 10, 209 (1989).

           Empirical Formula: C10 H16  =    26 atoms



      MOLECULAR POINT GROUP   :   C1  


      RHF CALCULATION, NO. OF DOUBLY OCCUPIED LEVELS =   28

      Geometry optimization using EF

          DIAGONAL MATRIX USED AS START HESSIAN

 CYCLE:     1 TIME:   0.012 TIME LEFT:  2.00D  GRAD.:   107.946 HEAT: 20.12447
 CYCLE:     2 TIME:   0.017 TIME LEFT:  2.00D  GRAD.:   102.897 HEAT: 18.97168
 CYCLE:     3 TIME:   0.009 TIME LEFT:  2.00D  GRAD.:    96.678 HEAT: 17.89028
 CYCLE:     4 TIME:   0.017 TIME LEFT:  2.00D  GRAD.:    53.975 HEAT: 16.19258
 CYCLE:     5 TIME:   0.017 TIME LEFT:  2.00D  GRAD.:    31.210 HEAT: 15.58637
 CYCLE:     6 TIME:   0.009 TIME LEFT:  2.00D  GRAD.:    33.100 HEAT: 15.46720
 CYCLE:     7 TIME:   0.009 TIME LEFT:  2.00D  GRAD.:    33.594 HEAT: 15.32318
 CYCLE:     8 TIME:   0.009 TIME LEFT:  2.00D  GRAD.:    39.497 HEAT: 15.30667
 CYCLE:     9 TIME:   0.009 TIME LEFT:  2.00D  GRAD.:    35.987 HEAT: 15.26035
 CYCLE:    10 TIME:   0.017 TIME LEFT:  2.00D  GRAD.:    14.977 HEAT: 14.97577
 CYCLE:    11 TIME:   0.016 TIME LEFT:  2.00D  GRAD.:    11.009 HEAT: 14.93033
 CYCLE:    12 TIME:   0.009 TIME LEFT:  2.00D  GRAD.:    11.569 HEAT: 14.91282
 CYCLE:    13 TIME:   0.009 TIME LEFT:  2.00D  GRAD.:     8.404 HEAT: 14.87582
 CYCLE:    14 TIME:   0.016 TIME LEFT:  2.00D  GRAD.:     7.721 HEAT: 14.86181
 CYCLE:    15 TIME:   0.009 TIME LEFT:  2.00D  GRAD.:     7.566 HEAT: 14.85266
 CYCLE:    16 TIME:   0.009 TIME LEFT:  2.00D  GRAD.:     6.440 HEAT: 14.84217
 CYCLE:    17 TIME:   0.009 TIME LEFT:  2.00D  GRAD.:     5.972 HEAT: 14.83489
 CYCLE:    18 TIME:   0.015 TIME LEFT:  2.00D  GRAD.:     3.669 HEAT: 14.82715
 CYCLE:    19 TIME:   0.009 TIME LEFT:  2.00D  GRAD.:     6.691 HEAT: 14.83347
 CYCLE:    20 TIME:   0.008 TIME LEFT:  2.00D  GRAD.:     3.576 HEAT: 14.82409
 CYCLE:    21 TIME:   0.022 TIME LEFT:  2.00D  GRAD.:     2.000 HEAT: 14.82144
 CYCLE:    22 TIME:   0.009 TIME LEFT:  2.00D  GRAD.:     2.232 HEAT: 14.82118
 CYCLE:    23 TIME:   0.008 TIME LEFT:  2.00D  GRAD.:     2.119 HEAT: 14.81952
 CYCLE:    24 TIME:   0.009 TIME LEFT:  2.00D  GRAD.:     2.231 HEAT: 14.81924
 CYCLE:    25 TIME:   0.008 TIME LEFT:  2.00D  GRAD.:     2.071 HEAT: 14.81805
 CYCLE:    26 TIME:   0.008 TIME LEFT:  2.00D  GRAD.:     1.477 HEAT: 14.81677
 CYCLE:    27 TIME:   0.008 TIME LEFT:  2.00D  GRAD.:     1.988 HEAT: 14.81631
 CYCLE:    28 TIME:   0.008 TIME LEFT:  2.00D  GRAD.:     1.008 HEAT: 14.81493
 CYCLE:    29 TIME:   0.009 TIME LEFT:  2.00D  GRAD.:     1.231 HEAT: 14.81432
 CYCLE:    30 TIME:   0.009 TIME LEFT:  2.00D  GRAD.:     1.117 HEAT: 14.81357
 CYCLE:    31 TIME:   0.009 TIME LEFT:  2.00D  GRAD.:     0.912 HEAT: 14.81284
 CYCLE:    32 TIME:   0.009 TIME LEFT:  2.00D  GRAD.:     0.925 HEAT: 14.81225
 CYCLE:    33 TIME:   0.009 TIME LEFT:  2.00D  GRAD.:     1.048 HEAT: 14.81163
 CYCLE:    34 TIME:   0.009 TIME LEFT:  2.00D  GRAD.:     0.896 HEAT: 14.81109
 CYCLE:    35 TIME:   0.009 TIME LEFT:  2.00D  GRAD.:     0.668 HEAT: 14.81059
 CYCLE:    36 TIME:   0.009 TIME LEFT:  2.00D  GRAD.:     0.684 HEAT: 14.80988
 CYCLE:    37 TIME:   0.009 TIME LEFT:  2.00D  GRAD.:     1.181 HEAT: 14.80863
 CYCLE:    38 TIME:   0.009 TIME LEFT:  2.00D  GRAD.:     0.773 HEAT: 14.80783
 CYCLE:    39 TIME:   0.009 TIME LEFT:  2.00D  GRAD.:     0.567 HEAT: 14.80734
 CYCLE:    40 TIME:   0.009 TIME LEFT:  2.00D  GRAD.:     0.702 HEAT: 14.80694
 CYCLE:    41 TIME:   0.009 TIME LEFT:  2.00D  GRAD.:     0.490 HEAT: 14.80662
 CYCLE:    42 TIME:   0.009 TIME LEFT:  2.00D  GRAD.:     0.508 HEAT: 14.80620
 CYCLE:    43 TIME:   0.009 TIME LEFT:  2.00D  GRAD.:     0.664 HEAT: 14.80571
 CYCLE:    44 TIME:   0.009 TIME LEFT:  2.00D  GRAD.:     0.767 HEAT: 14.80494
 CYCLE:    45 TIME:   0.009 TIME LEFT:  2.00D  GRAD.:     0.696 HEAT: 14.80406
 CYCLE:    46 TIME:   0.009 TIME LEFT:  2.00D  GRAD.:     0.533 HEAT: 14.80346
 CYCLE:    47 TIME:   0.009 TIME LEFT:  2.00D  GRAD.:     0.494 HEAT: 14.80292
 CYCLE:    48 TIME:   0.009 TIME LEFT:  2.00D  GRAD.:     0.616 HEAT: 14.80225
 CYCLE:    49 TIME:   0.009 TIME LEFT:  2.00D  GRAD.:     0.715 HEAT: 14.80135
 CYCLE:    50 TIME:   0.009 TIME LEFT:  2.00D  GRAD.:     0.812 HEAT: 14.80030
 CYCLE:    51 TIME:   0.009 TIME LEFT:  2.00D  GRAD.:     0.772 HEAT: 14.79897
 CYCLE:    52 TIME:   0.009 TIME LEFT:  2.00D  GRAD.:     0.864 HEAT: 14.79731
 CYCLE:    53 TIME:   0.009 TIME LEFT:  2.00D  GRAD.:     0.906 HEAT: 14.79569
 CYCLE:    54 TIME:   0.009 TIME LEFT:  2.00D  GRAD.:     0.883 HEAT: 14.79401
 CYCLE:    55 TIME:   0.009 TIME LEFT:  2.00D  GRAD.:     0.814 HEAT: 14.79242
 CYCLE:    56 TIME:   0.009 TIME LEFT:  2.00D  GRAD.:     0.896 HEAT: 14.79049
 CYCLE:    57 TIME:   0.009 TIME LEFT:  2.00D  GRAD.:     0.978 HEAT: 14.78855
 CYCLE:    58 TIME:   0.009 TIME LEFT:  2.00D  GRAD.:     1.027 HEAT: 14.78634
 CYCLE:    59 TIME:   0.009 TIME LEFT:  2.00D  GRAD.:     1.107 HEAT: 14.78401
 CYCLE:    60 TIME:   0.009 TIME LEFT:  2.00D  GRAD.:     1.292 HEAT: 14.78107
 CYCLE:    61 TIME:   0.009 TIME LEFT:  2.00D  GRAD.:     1.635 HEAT: 14.77753
 CYCLE:    62 TIME:   0.009 TIME LEFT:  2.00D  GRAD.:     1.952 HEAT: 14.77085
 CYCLE:    63 TIME:   0.009 TIME LEFT:  2.00D  GRAD.:     2.283 HEAT: 14.76270
 CYCLE:    64 TIME:   0.009 TIME LEFT:  2.00D  GRAD.:     2.851 HEAT: 14.74684
 CYCLE:    65 TIME:   0.017 TIME LEFT:  2.00D  GRAD.:     3.882 HEAT: 14.73862
 CYCLE:    66 TIME:   0.009 TIME LEFT:  2.00D  GRAD.:     3.036 HEAT: 14.72105
 CYCLE:    67 TIME:   0.009 TIME LEFT:  2.00D  GRAD.:     3.002 HEAT: 14.70674
 CYCLE:    68 TIME:   0.009 TIME LEFT:  2.00D  GRAD.:     3.721 HEAT: 14.67469
 CYCLE:    69 TIME:   0.009 TIME LEFT:  2.00D  GRAD.:     4.655 HEAT: 14.65856
 CYCLE:    70 TIME:   0.009 TIME LEFT:  2.00D  GRAD.:     5.671 HEAT: 14.65100
 CYCLE:    71 TIME:   0.009 TIME LEFT:  2.00D  GRAD.:     7.485 HEAT: 14.62430
 CYCLE:    72 TIME:   0.009 TIME LEFT:  2.00D  GRAD.:     3.012 HEAT: 14.59904
 CYCLE:    73 TIME:   0.009 TIME LEFT:  2.00D  GRAD.:     2.668 HEAT: 14.57799
 CYCLE:    74 TIME:   0.009 TIME LEFT:  2.00D  GRAD.:     5.387 HEAT: 14.52854
 CYCLE:    75 TIME:   0.009 TIME LEFT:  2.00D  GRAD.:     7.237 HEAT: 14.48846
 CYCLE:    76 TIME:   0.009 TIME LEFT:  2.00D  GRAD.:     7.067 HEAT: 14.45718
 CYCLE:    77 TIME:   0.009 TIME LEFT:  2.00D  GRAD.:     8.880 HEAT: 14.39842
 CYCLE:    78 TIME:   0.009 TIME LEFT:  2.00D  GRAD.:    10.030 HEAT: 14.37405
 CYCLE:    79 TIME:   0.009 TIME LEFT:  2.00D  GRAD.:     4.329 HEAT: 14.29553
 CYCLE:    80 TIME:   0.009 TIME LEFT:  2.00D  GRAD.:    15.485 HEAT: 14.23826
 CYCLE:    81 TIME:   0.009 TIME LEFT:  2.00D  GRAD.:     6.253 HEAT: 14.13314
 CYCLE:    82 TIME:   0.009 TIME LEFT:  2.00D  GRAD.:     6.055 HEAT: 14.04839
 CYCLE:    83 TIME:   0.017 TIME LEFT:  2.00D  GRAD.:     9.514 HEAT: 13.97535
 CYCLE:    84 TIME:   0.009 TIME LEFT:  2.00D  GRAD.:     6.951 HEAT: 13.91232
 CYCLE:    85 TIME:   0.009 TIME LEFT:  2.00D  GRAD.:     6.141 HEAT: 13.85851
 CYCLE:    86 TIME:   0.009 TIME LEFT:  2.00D  GRAD.:    11.890 HEAT: 13.83306
 CYCLE:    87 TIME:   0.009 TIME LEFT:  2.00D  GRAD.:     5.149 HEAT: 13.78398
 CYCLE:    88 TIME:   0.009 TIME LEFT:  2.00D  GRAD.:     3.477 HEAT: 13.75532
 CYCLE:    89 TIME:   0.009 TIME LEFT:  2.00D  GRAD.:     5.534 HEAT: 13.71158
 CYCLE:    90 TIME:   0.009 TIME LEFT:  2.00D  GRAD.:     3.949 HEAT: 13.68089
 CYCLE:    91 TIME:   0.009 TIME LEFT:  2.00D  GRAD.:     3.238 HEAT: 13.64733
 CYCLE:    92 TIME:   0.009 TIME LEFT:  2.00D  GRAD.:     3.317 HEAT: 13.61937
 CYCLE:    93 TIME:   0.009 TIME LEFT:  2.00D  GRAD.:     4.116 HEAT: 13.58591
 CYCLE:    94 TIME:   0.009 TIME LEFT:  2.00D  GRAD.:     5.131 HEAT: 13.56128
 CYCLE:    95 TIME:   0.009 TIME LEFT:  2.00D  GRAD.:     6.640 HEAT: 13.54546
 CYCLE:    96 TIME:   0.009 TIME LEFT:  2.00D  GRAD.:     8.723 HEAT: 13.51397
 CYCLE:    97 TIME:   0.009 TIME LEFT:  2.00D  GRAD.:     4.690 HEAT: 13.47598
 CYCLE:    98 TIME:   0.009 TIME LEFT:  2.00D  GRAD.:     2.628 HEAT: 13.45275
 CYCLE:    99 TIME:   0.009 TIME LEFT:  2.00D  GRAD.:     2.647 HEAT: 13.43522
 CYCLE:   100 TIME:   0.009 TIME LEFT:  2.00D  GRAD.:     3.812 HEAT: 13.42254
 CYCLE:   101 TIME:   0.009 TIME LEFT:  2.00D  GRAD.:     2.748 HEAT: 13.41442
 CYCLE:   102 TIME:   0.008 TIME LEFT:  2.00D  GRAD.:     2.430 HEAT: 13.40589
 CYCLE:   103 TIME:   0.009 TIME LEFT:  2.00D  GRAD.:     2.599 HEAT: 13.39494
 CYCLE:   104 TIME:   0.009 TIME LEFT:  2.00D  GRAD.:     2.427 HEAT: 13.38618
 CYCLE:   105 TIME:   0.009 TIME LEFT:  2.00D  GRAD.:     2.517 HEAT: 13.37552
 CYCLE:   106 TIME:   0.009 TIME LEFT:  2.00D  GRAD.:     2.536 HEAT: 13.36614
 CYCLE:   107 TIME:   0.009 TIME LEFT:  2.00D  GRAD.:     2.794 HEAT: 13.35672
 CYCLE:   108 TIME:   0.009 TIME LEFT:  2.00D  GRAD.:     2.719 HEAT: 13.34627
 CYCLE:   109 TIME:   0.009 TIME LEFT:  2.00D  GRAD.:     2.638 HEAT: 13.33483
 CYCLE:   110 TIME:   0.009 TIME LEFT:  2.00D  GRAD.:     2.748 HEAT: 13.32321
 CYCLE:   111 TIME:   0.009 TIME LEFT:  2.00D  GRAD.:     2.786 HEAT: 13.31118
 CYCLE:   112 TIME:   0.009 TIME LEFT:  2.00D  GRAD.:     3.150 HEAT: 13.29615
 CYCLE:   113 TIME:   0.009 TIME LEFT:  2.00D  GRAD.:     3.339 HEAT: 13.27917
 CYCLE:   114 TIME:   0.009 TIME LEFT:  2.00D  GRAD.:     3.703 HEAT: 13.25961
 CYCLE:   115 TIME:   0.009 TIME LEFT:  2.00D  GRAD.:     4.138 HEAT: 13.23775
 CYCLE:   116 TIME:   0.009 TIME LEFT:  2.00D  GRAD.:     3.988 HEAT: 13.21434
 CYCLE:   117 TIME:   0.009 TIME LEFT:  2.00D  GRAD.:     3.687 HEAT: 13.19011
 CYCLE:   118 TIME:   0.009 TIME LEFT:  2.00D  GRAD.:     4.739 HEAT: 13.17068
 CYCLE:   119 TIME:   0.009 TIME LEFT:  2.00D  GRAD.:     3.243 HEAT: 13.15192
 CYCLE:   120 TIME:   0.009 TIME LEFT:  2.00D  GRAD.:     2.530 HEAT: 13.13749
 CYCLE:   121 TIME:   0.009 TIME LEFT:  2.00D  GRAD.:     1.943 HEAT: 13.12482
 CYCLE:   122 TIME:   0.009 TIME LEFT:  2.00D  GRAD.:     1.631 HEAT: 13.12046
 CYCLE:   123 TIME:   0.009 TIME LEFT:  2.00D  GRAD.:     1.552 HEAT: 13.11523
 CYCLE:   124 TIME:   0.009 TIME LEFT:  2.00D  GRAD.:     1.516 HEAT: 13.10971
 CYCLE:   125 TIME:   0.009 TIME LEFT:  2.00D  GRAD.:     1.340 HEAT: 13.10645
 CYCLE:   126 TIME:   0.009 TIME LEFT:  2.00D  GRAD.:     1.094 HEAT: 13.10293
 CYCLE:   127 TIME:   0.009 TIME LEFT:  2.00D  GRAD.:     1.191 HEAT: 13.10031
 CYCLE:   128 TIME:   0.009 TIME LEFT:  2.00D  GRAD.:     1.302 HEAT: 13.09773
 CYCLE:   129 TIME:   0.009 TIME LEFT:  2.00D  GRAD.:     1.448 HEAT: 13.09533
 CYCLE:   130 TIME:   0.009 TIME LEFT:  2.00D  GRAD.:     1.612 HEAT: 13.09214
 CYCLE:   131 TIME:   0.009 TIME LEFT:  2.00D  GRAD.:     1.325 HEAT: 13.08977
 CYCLE:   132 TIME:   0.009 TIME LEFT:  2.00D  GRAD.:     1.361 HEAT: 13.08484
 CYCLE:   133 TIME:   0.009 TIME LEFT:  2.00D  GRAD.:     1.027 HEAT: 13.08282
 CYCLE:   134 TIME:   0.009 TIME LEFT:  2.00D  GRAD.:     1.271 HEAT: 13.07899
 CYCLE:   135 TIME:   0.009 TIME LEFT:  2.00D  GRAD.:     0.883 HEAT: 13.07752
 CYCLE:   136 TIME:   0.009 TIME LEFT:  2.00D  GRAD.:     0.900 HEAT: 13.07455
 CYCLE:   137 TIME:   0.009 TIME LEFT:  2.00D  GRAD.:     0.723 HEAT: 13.07324
 CYCLE:   138 TIME:   0.009 TIME LEFT:  2.00D  GRAD.:     0.588 HEAT: 13.07192
 CYCLE:   139 TIME:   0.009 TIME LEFT:  2.00D  GRAD.:     0.573 HEAT: 13.07139
 CYCLE:   140 TIME:   0.009 TIME LEFT:  2.00D  GRAD.:     0.682 HEAT: 13.07017
 CYCLE:   141 TIME:   0.009 TIME LEFT:  2.00D  GRAD.:     0.765 HEAT: 13.06921
 CYCLE:   142 TIME:   0.009 TIME LEFT:  2.00D  GRAD.:     0.846 HEAT: 13.06807
 CYCLE:   143 TIME:   0.009 TIME LEFT:  2.00D  GRAD.:     0.985 HEAT: 13.06646
 CYCLE:   144 TIME:   0.009 TIME LEFT:  2.00D  GRAD.:     1.113 HEAT: 13.06449
 CYCLE:   145 TIME:   0.009 TIME LEFT:  2.00D  GRAD.:     1.176 HEAT: 13.06230
 CYCLE:   146 TIME:   0.009 TIME LEFT:  2.00D  GRAD.:     1.102 HEAT: 13.06027
 CYCLE:   147 TIME:   0.009 TIME LEFT:  2.00D  GRAD.:     1.126 HEAT: 13.05838
 CYCLE:   148 TIME:   0.009 TIME LEFT:  2.00D  GRAD.:     1.193 HEAT: 13.05644
 CYCLE:   149 TIME:   0.009 TIME LEFT:  2.00D  GRAD.:     1.402 HEAT: 13.05407
 CYCLE:   150 TIME:   0.009 TIME LEFT:  2.00D  GRAD.:     1.389 HEAT: 13.05091
 CYCLE:   151 TIME:   0.009 TIME LEFT:  2.00D  GRAD.:     1.115 HEAT: 13.04943
 CYCLE:   152 TIME:   0.009 TIME LEFT:  2.00D  GRAD.:     0.609 HEAT: 13.04817
 CYCLE:   153 TIME:   0.009 TIME LEFT:  2.00D  GRAD.:     0.384 HEAT: 13.04784
 CYCLE:   154 TIME:   0.009 TIME LEFT:  2.00D  GRAD.:     0.340 HEAT: 13.04757
 CYCLE:   155 TIME:   0.009 TIME LEFT:  2.00D  GRAD.:     0.256 HEAT: 13.04748
 CYCLE:   156 TIME:   0.009 TIME LEFT:  2.00D  GRAD.:     0.204 HEAT: 13.04739
 CYCLE:   157 TIME:   0.009 TIME LEFT:  2.00D  GRAD.:     0.237 HEAT: 13.04725
 CYCLE:   158 TIME:   0.008 TIME LEFT:  2.00D  GRAD.:     0.207 HEAT: 13.04718
 CYCLE:   159 TIME:   0.013 TIME LEFT:  2.00D  GRAD.:     0.236 HEAT: 13.04708
 CYCLE:   160 TIME:   0.009 TIME LEFT:  2.00D  GRAD.:     0.291 HEAT: 13.04693
 CYCLE:   161 TIME:   0.009 TIME LEFT:  2.00D  GRAD.:     0.442 HEAT: 13.04665
 CYCLE:   162 TIME:   0.009 TIME LEFT:  2.00D  GRAD.:     0.668 HEAT: 13.04602
 CYCLE:   163 TIME:   0.009 TIME LEFT:  2.00D  GRAD.:     0.914 HEAT: 13.04426
 CYCLE:   164 TIME:   0.009 TIME LEFT:  2.00D  GRAD.:     0.900 HEAT: 13.04264
 CYCLE:   165 TIME:   0.009 TIME LEFT:  2.00D  GRAD.:     1.039 HEAT: 13.04063
 CYCLE:   166 TIME:   0.009 TIME LEFT:  2.00D  GRAD.:     0.795 HEAT: 13.03983
 CYCLE:   167 TIME:   0.009 TIME LEFT:  2.00D  GRAD.:     0.645 HEAT: 13.03808
 CYCLE:   168 TIME:   0.009 TIME LEFT:  2.00D  GRAD.:     0.584 HEAT: 13.03728
 CYCLE:   169 TIME:   0.009 TIME LEFT:  2.00D  GRAD.:     0.454 HEAT: 13.03679
 CYCLE:   170 TIME:   0.009 TIME LEFT:  2.00D  GRAD.:     0.354 HEAT: 13.03643
 CYCLE:   171 TIME:   0.009 TIME LEFT:  2.00D  GRAD.:     0.257 HEAT: 13.03624
 CYCLE:   172 TIME:   0.009 TIME LEFT:  2.00D  GRAD.:     0.306 HEAT: 13.03617
 CYCLE:   173 TIME:   0.009 TIME LEFT:  2.00D  GRAD.:     0.151 HEAT: 13.03613
 CYCLE:   174 TIME:   0.009 TIME LEFT:  2.00D  GRAD.:     0.127 HEAT: 13.03610
 CYCLE:   175 TIME:   0.009 TIME LEFT:  2.00D  GRAD.:     0.073 HEAT: 13.03609
 CYCLE:   176 TIME:   0.008 TIME LEFT:  2.00D  GRAD.:     0.053 HEAT: 13.03608
 CYCLE:   177 TIME:   0.008 TIME LEFT:  2.00D  GRAD.:     0.031 HEAT: 13.03608

     RMS GRADIENT =  0.03051  IS LESS THAN CUTOFF =  0.05000



 -------------------------------------------------------------------------------
pm3  precise nosym
 InChI=1S/C10H16/c1-3-5-9-7-10(8-9)6-4-2/h3-6,9-10H,7-8H2,1-2H3



     GEOMETRY OPTIMISED USING EIGENVECTOR FOLLOWING (EF).     
     SCF FIELD WAS ACHIEVED                                   


                              PM3 CALCULATION
                                                       MOPAC2012 (Version: 13.159M)
                                                       Mon Jun  2 11:07:59 2014
                                                       No. of days left =   6




          FINAL HEAT OF FORMATION =         13.03608 KCAL/MOL =      54.54296 KJ/MOL


          TOTAL ENERGY            =      -1431.16172 EV
          ELECTRONIC ENERGY       =      -7865.95745 EV  POINT GROUP:     C1  
          CORE-CORE REPULSION     =       6434.79573 EV
          COSMO AREA              =        209.44 SQUARE ANGSTROMS
          COSMO VOLUME            =        206.15 CUBIC ANGSTROMS

          GRADIENT NORM           =          0.03051
          IONIZATION POTENTIAL    =          9.704327 EV
          HOMO LUMO ENERGIES (EV) =         -9.704  0.980
          NO. OF FILLED LEVELS    =         28
          MOLECULAR WEIGHT        =        136.236

          MOLECULAR DIMENSIONS (Angstroms)

            Atom       Atom       Distance
            H    19    H    18     9.82336
            H    17    H    16     4.75622
            H    22    H    13     4.57757


          SCF CALCULATIONS        =        189
          COMPUTATION TIME        =          1.665 SECONDS




   ATOM   CHEMICAL          X               Y               Z
  NUMBER   SYMBOL      (ANGSTROMS)     (ANGSTROMS)     (ANGSTROMS)
 
     1       C          1.17292070  *  -0.88526764  *   0.45355082  *
     2       C         -1.01324599  *  -0.93590684  *   0.67650072  *
     3       C         -0.00207261  *  -1.47615689  *  -0.36662717  *
     4       C          0.15889287  *  -0.31216299  *   1.47612949  *
     5       C          4.06870299  *   1.13681427  *  -1.08785619  *
     6       C         -4.25001166  *   0.94401900  *  -0.23993999  *
     7       C          1.95391517  *   0.14883310  *  -0.26841529  *
     8       C         -1.97038364  *   0.05794112  *   0.13177017  *
     9       C          3.28362911  *   0.10936746  *  -0.36885767  *
    10       C         -3.28981819  *  -0.04297312  *   0.30120673  *
    11       H          1.83715737  *  -1.66288454  *   0.88674984  *
    12       H         -1.54004840  *  -1.74111941  *   1.23116945  *
    13       H          0.01311701  *  -2.57097059  *  -0.46655939  *
    14       H         -0.11496642  *  -1.05482766  *  -1.37772269  *
    15       H          0.13975853  *   0.78709850  *   1.53841012  *
    16       H          0.27220945  *  -0.69734502  *   2.49967419  *
    17       H          3.44335595  *   1.92745912  *  -1.52358161  *
    18       H          4.78597539  *   1.61782689  *  -0.40920483  *
    19       H         -4.95484963  *   0.45781036  *  -0.92788318  *
    20       H         -3.76217634  *   1.76101781  *  -0.78815802  *
    21       H          4.64279574  *   0.68004055  *  -1.90529286  *
    22       H         -4.83788776  *   1.39398334  *   0.57146894  *
    23       H          1.37088933  *   0.96087252  *  -0.72325395  *
    24       H         -1.52888346  *   0.89382326  *  -0.42733138  *
    25       H          3.86173119  *  -0.70426175  *   0.08737171  *
    26       H         -3.72616468  *  -0.88019800  *   0.86067031  *

           Empirical Formula: C10 H16  =    26 atoms



      MOLECULAR POINT GROUP   :   C1  


                  EIGENVALUES  
 -41.07392 -35.82818 -33.93967 -28.57724 -25.92491 -25.47436 -21.99531 -20.22596
 -19.21016 -18.58009 -16.86765 -16.74600 -15.37423 -15.06106 -14.49574 -14.36286
 -14.26619 -13.81716 -13.41549 -13.23456 -12.80129 -12.49032 -12.22610 -12.05339
 -11.48948 -11.40365  -9.75217  -9.70433   0.98003   1.10428   3.24421   3.32719
   3.58848   3.64192   3.68887   3.80592   3.90755   3.92155   3.98428   4.02571
   4.26026   4.30641   4.38020   4.40011   4.48305   4.51205   4.53464   4.54541
   4.57653   4.61775   5.10336   5.31268   5.70728   5.89814   5.98650   6.06458


              NET ATOMIC CHARGES AND DIPOLE CONTRIBUTIONS

  ATOM NO.   TYPE          CHARGE      No. of ELECS.   s-Pop       p-Pop       
    1          C          -0.059735        4.0597     1.17811     2.88162
    2          C          -0.059730        4.0597     1.17811     2.88162
    3          C          -0.102419        4.1024     1.17716     2.92526
    4          C          -0.102472        4.1025     1.17718     2.92530
    5          C          -0.074776        4.0748     1.12526     2.94952
    6          C          -0.074775        4.0748     1.12526     2.94951
    7          C          -0.145491        4.1455     1.19522     2.95028
    8          C          -0.145488        4.1455     1.19522     2.95027
    9          C          -0.142064        4.1421     1.19388     2.94818
   10          C          -0.142058        4.1421     1.19388     2.94817
   11          H           0.072492        0.9275     0.92751
   12          H           0.072491        0.9275     0.92751
   13          H           0.055922        0.9441     0.94408
   14          H           0.065020        0.9350     0.93498
   15          H           0.064979        0.9350     0.93502
   16          H           0.055935        0.9441     0.94406
   17          H           0.040962        0.9590     0.95904
   18          H           0.043967        0.9560     0.95603
   19          H           0.043983        0.9560     0.95602
   20          H           0.040960        0.9590     0.95904
   21          H           0.043981        0.9560     0.95602
   22          H           0.043963        0.9560     0.95604
   23          H           0.103802        0.8962     0.89620
   24          H           0.103799        0.8962     0.89620
   25          H           0.098378        0.9016     0.90162
   26          H           0.098375        0.9016     0.90163
 DIPOLE           X         Y         Z       TOTAL
 POINT-CHG.    -0.009     0.096    -0.063     0.115
 HYBRID        -0.003     0.031    -0.021     0.037
 SUM           -0.011     0.127    -0.084     0.153


          ATOMIC ORBITAL ELECTRON POPULATIONS

    Atom      s        px        py        pz   
    1  C   1.17811   0.95109   0.96685   0.96368
    2  C   1.17811   0.94213   0.96924   0.97026
    3  C   1.17716   0.95007   0.99845   0.97674
    4  C   1.17718   0.95004   1.00664   0.96862
    5  C   1.12526   0.99070   0.97103   0.98779
    6  C   1.12526   0.98036   0.97379   0.99536
    7  C   1.19522   0.95465   0.99116   1.00446
    8  C   1.19522   0.94937   0.99253   1.00836
    9  C   1.19388   0.95725   0.99175   0.99918
   10  C   1.19388   0.95335   0.99276   1.00207
   11  H   0.92751
   12  H   0.92751
   13  H   0.94408
   14  H   0.93498
   15  H   0.93502
   16  H   0.94406
   17  H   0.95904
   18  H   0.95603
   19  H   0.95602
   20  H   0.95904
   21  H   0.95602
   22  H   0.95604
   23  H   0.89620
   24  H   0.89620
   25  H   0.90162
   26  H   0.90163
 *******************************************************************************
 ** Site#: 14399           For non-commercial use only        Version 13.159M **
 *******************************************************************************
 ** Cite this work as: MOPAC2012, James J. P. Stewart, Stewart Computational  **
 ** Chemistry, Version 13.159M web: HTTP://OpenMOPAC.net  Days remaining:   6 **
 *******************************************************************************
 **                                                                           **
 **                                MOPAC2012                                  **
 **                                                                           **
 *******************************************************************************

                            PM3 CALCULATION RESULTS


 *******************************************************************************
 *  CALCULATION DONE:                                Mon Jun  2 11:07:59 2014  *
 *  PM3      - The PM3 Hamiltonian to be used
 *  OLDGEO   - PREVIOUS GEOMETRY TO BE USED
 *  PRECISE  - CRITERIA TO BE INCREASED BY 100 TIMES
 *  NOSYM    - POINT-GROUP SYMMETRY SET TO C1
 *  T=       - A TIME OF 172800.0 SECONDS REQUESTED
 *  DUMP=N   - RESTART FILE WRITTEN EVERY  7200.000 SECONDS
 *  THERMO   - THERMODYNAMIC QUANTITIES TO BE CALCULATED
 *******************************************************************************
oldgeo thermo nosym precise  pm3

   ATOM   CHEMICAL          X               Y               Z
  NUMBER   SYMBOL      (ANGSTROMS)     (ANGSTROMS)     (ANGSTROMS)
 
     1       C          1.17292070  *  -0.88526764  *   0.45355082  *
     2       C         -1.01324599  *  -0.93590684  *   0.67650072  *
     3       C         -0.00207261  *  -1.47615689  *  -0.36662717  *
     4       C          0.15889287  *  -0.31216299  *   1.47612949  *
     5       C          4.06870299  *   1.13681427  *  -1.08785619  *
     6       C         -4.25001166  *   0.94401900  *  -0.23993999  *
     7       C          1.95391517  *   0.14883310  *  -0.26841529  *
     8       C         -1.97038364  *   0.05794112  *   0.13177017  *
     9       C          3.28362911  *   0.10936746  *  -0.36885767  *
    10       C         -3.28981819  *  -0.04297312  *   0.30120673  *
    11       H          1.83715737  *  -1.66288454  *   0.88674984  *
    12       H         -1.54004840  *  -1.74111941  *   1.23116945  *
    13       H          0.01311701  *  -2.57097059  *  -0.46655939  *
    14       H         -0.11496642  *  -1.05482766  *  -1.37772269  *
    15       H          0.13975853  *   0.78709850  *   1.53841012  *
    16       H          0.27220945  *  -0.69734502  *   2.49967419  *
    17       H          3.44335595  *   1.92745912  *  -1.52358161  *
    18       H          4.78597539  *   1.61782689  *  -0.40920483  *
    19       H         -4.95484963  *   0.45781036  *  -0.92788318  *
    20       H         -3.76217634  *   1.76101781  *  -0.78815802  *
    21       H          4.64279574  *   0.68004055  *  -1.90529286  *
    22       H         -4.83788776  *   1.39398334  *   0.57146894  *
    23       H          1.37088933  *   0.96087252  *  -0.72325395  *
    24       H         -1.52888346  *   0.89382326  *  -0.42733138  *
    25       H          3.86173119  *  -0.70426175  *   0.08737171  *
    26       H         -3.72616468  *  -0.88019800  *   0.86067031  *
 


          CARTESIAN COORDINATES 

    NO.       ATOM         X         Y         Z

     1         C        1.1729   -0.8853    0.4536
     2         C       -1.0132   -0.9359    0.6765
     3         C       -0.0021   -1.4762   -0.3666
     4         C        0.1589   -0.3122    1.4761
     5         C        4.0687    1.1368   -1.0879
     6         C       -4.2500    0.9440   -0.2399
     7         C        1.9539    0.1488   -0.2684
     8         C       -1.9704    0.0579    0.1318
     9         C        3.2836    0.1094   -0.3689
    10         C       -3.2898   -0.0430    0.3012
    11         H        1.8372   -1.6629    0.8867
    12         H       -1.5400   -1.7411    1.2312
    13         H        0.0131   -2.5710   -0.4666
    14         H       -0.1150   -1.0548   -1.3777
    15         H        0.1398    0.7871    1.5384
    16         H        0.2722   -0.6973    2.4997
    17         H        3.4434    1.9275   -1.5236
    18         H        4.7860    1.6178   -0.4092
    19         H       -4.9548    0.4578   -0.9279
    20         H       -3.7622    1.7610   -0.7882
    21         H        4.6428    0.6800   -1.9053
    22         H       -4.8379    1.3940    0.5715
    23         H        1.3709    0.9609   -0.7233
    24         H       -1.5289    0.8938   -0.4273
    25         H        3.8617   -0.7043    0.0874
    26         H       -3.7262   -0.8802    0.8607

  H: (PM3): J. J. P. STEWART, J. COMP. CHEM. 10, 209 (1989).
  C: (PM3): J. J. P. STEWART, J. COMP. CHEM. 10, 209 (1989).

           Empirical Formula: C10 H16  =    26 atoms



      MOLECULAR POINT GROUP   :   C1  


      RHF CALCULATION, NO. OF DOUBLY OCCUPIED LEVELS =   28



          HEAT OF FORMATION =      13.036079 KCALS/MOLE


          INTERNAL COORDINATE DERIVATIVES

   NUMBER  ATOM       BOND         ANGLE      DIHEDRAL

     1       C     -0.002980     0.001821     0.001670
     2       C     -0.000892     0.001825     0.003453
     3       C      0.000210    -0.003168     0.000191
     4       C     -0.001469     0.005016     0.003802
     5       C      0.001580     0.001334    -0.001099
     6       C     -0.011209    -0.000504    -0.004751
     7       C      0.000803    -0.005524    -0.001285
     8       C     -0.004849    -0.002291    -0.001355
     9       C     -0.004067     0.004073     0.003983
    10       C      0.006181    -0.000958    -0.000955
    11       H     -0.003204     0.000889     0.001054
    12       H     -0.002742     0.001112     0.000293
    13       H     -0.001777    -0.000986    -0.001459
    14       H      0.001701     0.004431     0.000463
    15       H      0.002393    -0.002362    -0.002370
    16       H     -0.000829    -0.004087    -0.003372
    17       H      0.001240    -0.002414    -0.002905
    18       H     -0.001000     0.000108    -0.000146
    19       H      0.004069     0.005983    -0.001427
    20       H     -0.000937     0.001651     0.004997
    21       H      0.003230     0.000958     0.004481
    22       H      0.014186    -0.005380    -0.000173
    23       H      0.000654    -0.002204    -0.000630
    24       H     -0.003308    -0.003041    -0.002170
    25       H      0.001161     0.001768    -0.000239
    26       H      0.001856     0.001951    -0.000051


          GRADIENT NORM =   0.02981


          TIME FOR SCF CALCULATION =    0.01

          TIME FOR DERIVATIVES     =    0.01

          MOLECULAR WEIGHT =  136.24



          ROTATIONAL CONSTANTS IN CM(-1)

          A =    0.09941424   B =    0.01670593   C =    0.01545974



           PRINCIPAL MOMENTS OF INERTIA IN UNITS OF 10**(-40)*GRAM-CM**2

          A =      281.5771   B =     1675.6194   C =     1810.6891


          ORIENTATION OF MOLECULE IN FORCE CALCULATION

    NO.       ATOM         X         Y         Z

     1          C      -1.0990   -0.0209    0.9579
     2          C       1.0991   -0.0209    0.9579
     3          C       0.0000    1.0721    0.9579
     4          C       0.0000   -1.1131    0.9190
     5          C      -4.1820    0.0297   -1.3536
     6          C       4.1820    0.0301   -1.3537
     7          C      -1.9728    0.0009   -0.2407
     8          C       1.9729    0.0009   -0.2407
     9          C      -3.3046    0.0073   -0.1626
    10          C       3.3046    0.0076   -0.1626
    11          H      -1.6978   -0.0375    1.8931
    12          H       1.6978   -0.0375    1.8931
    13          H       0.0000    1.7227    1.8442
    14          H       0.0000    1.7244    0.0707
    15          H       0.0000   -1.7336    0.0093
    16          H       0.0000   -1.7948    1.7817
    17          H      -3.6225    0.0388   -2.2985
    18          H      -4.8377   -0.8515   -1.3652
    19          H       4.8244    0.9209   -1.3415
    20          H       3.6224    0.0381   -2.2986
    21          H      -4.8254    0.9198   -1.3408
    22          H       4.8386   -0.8504   -1.3648
    23          H      -1.4578    0.0121   -1.2107
    24          H       1.4578    0.0119   -1.2107
    25          H      -3.8146   -0.0039    0.8091
    26          H       3.8147   -0.0034    0.8090


    FIRST DERIVATIVES WILL BE USED IN THE CALCULATION OF SECOND DERIVATIVES

          ESTIMATED TIME TO COMPLETE CALCULATION =        3.80 SECONDS

    FOR POINT-GROUP C1   THERE ARE   1 UNIQUE SYMMETRY FUNCTIONS.

 STEP:   1 TIME =     0.04 SECS, INTEGRAL =      0.04 TIME LEFT: 172799.95
 STEP:   2 TIME =     0.04 SECS, INTEGRAL =      0.08 TIME LEFT: 172799.91
 STEP:   3 TIME =     0.04 SECS, INTEGRAL =      0.12 TIME LEFT: 172799.87
 STEP:   4 TIME =     0.04 SECS, INTEGRAL =      0.15 TIME LEFT: 172799.83
 STEP:   5 TIME =     0.04 SECS, INTEGRAL =      0.19 TIME LEFT: 172799.79
 STEP:   6 TIME =     0.04 SECS, INTEGRAL =      0.23 TIME LEFT: 172799.76
 STEP:   7 TIME =     0.04 SECS, INTEGRAL =      0.27 TIME LEFT: 172799.72
 STEP:   8 TIME =     0.04 SECS, INTEGRAL =      0.31 TIME LEFT: 172799.68
 STEP:   9 TIME =     0.04 SECS, INTEGRAL =      0.35 TIME LEFT: 172799.64
 STEP:  10 TIME =     0.04 SECS, INTEGRAL =      0.39 TIME LEFT: 172799.60
 STEP:  11 TIME =     0.04 SECS, INTEGRAL =      0.42 TIME LEFT: 172799.56
 STEP:  12 TIME =     0.04 SECS, INTEGRAL =      0.47 TIME LEFT: 172799.52
 STEP:  13 TIME =     0.04 SECS, INTEGRAL =      0.50 TIME LEFT: 172799.48
 STEP:  14 TIME =     0.04 SECS, INTEGRAL =      0.54 TIME LEFT: 172799.45
 STEP:  15 TIME =     0.04 SECS, INTEGRAL =      0.58 TIME LEFT: 172799.41
 STEP:  16 TIME =     0.04 SECS, INTEGRAL =      0.62 TIME LEFT: 172799.37
 STEP:  17 TIME =     0.04 SECS, INTEGRAL =      0.66 TIME LEFT: 172799.33
 STEP:  18 TIME =     0.04 SECS, INTEGRAL =      0.69 TIME LEFT: 172799.29
 STEP:  19 TIME =     0.04 SECS, INTEGRAL =      0.73 TIME LEFT: 172799.26
 STEP:  20 TIME =     0.04 SECS, INTEGRAL =      0.77 TIME LEFT: 172799.21
 STEP:  21 TIME =     0.04 SECS, INTEGRAL =      0.81 TIME LEFT: 172799.18
 STEP:  22 TIME =     0.04 SECS, INTEGRAL =      0.85 TIME LEFT: 172799.14
 STEP:  23 TIME =     0.04 SECS, INTEGRAL =      0.89 TIME LEFT: 172799.10
 STEP:  24 TIME =     0.04 SECS, INTEGRAL =      0.93 TIME LEFT: 172799.06
 STEP:  25 TIME =     0.04 SECS, INTEGRAL =      0.97 TIME LEFT: 172799.02
 STEP:  26 TIME =     0.04 SECS, INTEGRAL =      1.01 TIME LEFT: 172798.98
 STEP:  27 TIME =     0.04 SECS, INTEGRAL =      1.05 TIME LEFT: 172798.94
 STEP:  28 TIME =     0.04 SECS, INTEGRAL =      1.09 TIME LEFT: 172798.90
 STEP:  29 TIME =     0.04 SECS, INTEGRAL =      1.13 TIME LEFT: 172798.86
 STEP:  30 TIME =     0.04 SECS, INTEGRAL =      1.17 TIME LEFT: 172798.82
 STEP:  31 TIME =     0.04 SECS, INTEGRAL =      1.20 TIME LEFT: 172798.78
 STEP:  32 TIME =     0.04 SECS, INTEGRAL =      1.24 TIME LEFT: 172798.74
 STEP:  33 TIME =     0.04 SECS, INTEGRAL =      1.28 TIME LEFT: 172798.71
 STEP:  34 TIME =     0.05 SECS, INTEGRAL =      1.33 TIME LEFT: 172798.66
 STEP:  35 TIME =     0.04 SECS, INTEGRAL =      1.37 TIME LEFT: 172798.62
 STEP:  36 TIME =     0.04 SECS, INTEGRAL =      1.41 TIME LEFT: 172798.58
 STEP:  37 TIME =     0.04 SECS, INTEGRAL =      1.45 TIME LEFT: 172798.54
 STEP:  38 TIME =     0.04 SECS, INTEGRAL =      1.49 TIME LEFT: 172798.50
 STEP:  39 TIME =     0.04 SECS, INTEGRAL =      1.52 TIME LEFT: 172798.47
 STEP:  40 TIME =     0.04 SECS, INTEGRAL =      1.56 TIME LEFT: 172798.43
 STEP:  41 TIME =     0.04 SECS, INTEGRAL =      1.60 TIME LEFT: 172798.39
 STEP:  42 TIME =     0.04 SECS, INTEGRAL =      1.64 TIME LEFT: 172798.35
 STEP:  43 TIME =     0.04 SECS, INTEGRAL =      1.68 TIME LEFT: 172798.31
 STEP:  44 TIME =     0.04 SECS, INTEGRAL =      1.72 TIME LEFT: 172798.27
 STEP:  45 TIME =     0.04 SECS, INTEGRAL =      1.76 TIME LEFT: 172798.23
 STEP:  46 TIME =     0.04 SECS, INTEGRAL =      1.80 TIME LEFT: 172798.19
 STEP:  47 TIME =     0.04 SECS, INTEGRAL =      1.83 TIME LEFT: 172798.15
 STEP:  48 TIME =     0.04 SECS, INTEGRAL =      1.87 TIME LEFT: 172798.12
 STEP:  49 TIME =     0.04 SECS, INTEGRAL =      1.91 TIME LEFT: 172798.08
 STEP:  50 TIME =     0.04 SECS, INTEGRAL =      1.95 TIME LEFT: 172798.04
 STEP:  51 TIME =     0.04 SECS, INTEGRAL =      1.99 TIME LEFT: 172798.00
 STEP:  52 TIME =     0.04 SECS, INTEGRAL =      2.03 TIME LEFT: 172797.96
 STEP:  53 TIME =     0.04 SECS, INTEGRAL =      2.07 TIME LEFT: 172797.92
 STEP:  54 TIME =     0.04 SECS, INTEGRAL =      2.11 TIME LEFT: 172797.88
 STEP:  55 TIME =     0.04 SECS, INTEGRAL =      2.14 TIME LEFT: 172797.84
 STEP:  56 TIME =     0.04 SECS, INTEGRAL =      2.18 TIME LEFT: 172797.81
 STEP:  57 TIME =     0.04 SECS, INTEGRAL =      2.22 TIME LEFT: 172797.77
 STEP:  58 TIME =     0.04 SECS, INTEGRAL =      2.26 TIME LEFT: 172797.73
 STEP:  59 TIME =     0.04 SECS, INTEGRAL =      2.30 TIME LEFT: 172797.69
 STEP:  60 TIME =     0.04 SECS, INTEGRAL =      2.34 TIME LEFT: 172797.65
 STEP:  61 TIME =     0.04 SECS, INTEGRAL =      2.38 TIME LEFT: 172797.61
 STEP:  62 TIME =     0.04 SECS, INTEGRAL =      2.42 TIME LEFT: 172797.57
 STEP:  63 TIME =     0.04 SECS, INTEGRAL =      2.46 TIME LEFT: 172797.53
 STEP:  64 TIME =     0.04 SECS, INTEGRAL =      2.50 TIME LEFT: 172797.49
 STEP:  65 TIME =     0.04 SECS, INTEGRAL =      2.53 TIME LEFT: 172797.45
 STEP:  66 TIME =     0.04 SECS, INTEGRAL =      2.57 TIME LEFT: 172797.41
 STEP:  67 TIME =     0.04 SECS, INTEGRAL =      2.61 TIME LEFT: 172797.38
 STEP:  68 TIME =     0.04 SECS, INTEGRAL =      2.66 TIME LEFT: 172797.33
 STEP:  69 TIME =     0.04 SECS, INTEGRAL =      2.69 TIME LEFT: 172797.29
 STEP:  70 TIME =     0.04 SECS, INTEGRAL =      2.73 TIME LEFT: 172797.26
 STEP:  71 TIME =     0.04 SECS, INTEGRAL =      2.77 TIME LEFT: 172797.21
 STEP:  72 TIME =     0.04 SECS, INTEGRAL =      2.81 TIME LEFT: 172797.18
 STEP:  73 TIME =     0.04 SECS, INTEGRAL =      2.85 TIME LEFT: 172797.14
 STEP:  74 TIME =     0.04 SECS, INTEGRAL =      2.89 TIME LEFT: 172797.10
 STEP:  75 TIME =     0.04 SECS, INTEGRAL =      2.93 TIME LEFT: 172797.06
 STEP:  76 TIME =     0.04 SECS, INTEGRAL =      2.97 TIME LEFT: 172797.02
 STEP:  77 TIME =     0.04 SECS, INTEGRAL =      3.01 TIME LEFT: 172796.98
 STEP:  78 TIME =     0.04 SECS, INTEGRAL =      3.05 TIME LEFT: 172796.94

(To convert to Hartree/Bohr^2, multiply by (10^(-21) x N x a0^2)/(4.184 x 627.51) = 0.0642)


           FORCE MATRIX IN MILLIDYNES/ANGSTROM


                  C  1       C  2       C  3       C  4       C  5       C  6
 ------------------------------------------------------------------------------
     C    1  14.910915
     C    2   1.787601  14.909695
     C    3   3.387748   3.387683  14.259932
     C    4   3.388755   3.388760   1.828574  14.255741
     C    5   0.144430   0.002119   0.018766   0.019128  14.715138
     C    6   0.002108   0.145022   0.018770   0.019057   0.000259  14.714661
     C    7   5.066380   0.042810   0.595596   0.595293   0.848171   0.000541
     C    8   0.042824   5.065985   0.595584   0.595226   0.000476   0.848154
     C    9   0.847403   0.003509   0.032284   0.032822   5.267047   0.000332
     C   10   0.003452   0.847391   0.032196   0.032875   0.000496   5.266788
     H   11   4.418245   0.027431   0.425960   0.425939   0.001967   0.000364
     H   12   0.027365   4.418341   0.425989   0.425966   0.000344   0.001929
     H   13   0.444187   0.444158   4.724244   0.031084   0.002250   0.002245
     H   14   0.453152   0.453140   4.672324   0.027661   0.001092   0.001091
     H   15   0.453268   0.453236   0.027524   4.671378   0.001042   0.001043
     H   16   0.443978   0.443975   0.030931   4.723984   0.002234   0.002226
     H   17   0.002139   0.000208   0.000535   0.000509   4.724035   0.000099
     H   18   0.019642   0.000329   0.002233   0.003199   4.705450   0.000137
     H   19   0.000362   0.019777   0.002996   0.002257   0.000133   4.704822
     H   20   0.000244   0.002150   0.000557   0.000519   0.000128   4.724280
     H   21   0.019625   0.000373   0.002980   0.002258   4.705281   0.000138
     H   22   0.000323   0.019753   0.002217   0.003207   0.000138   4.705062
     H   23   0.434446   0.002094   0.018135   0.018584   0.082383   0.000271
     H   24   0.002064   0.434534   0.018150   0.018600   0.000302   0.082420
     H   25   0.085358   0.000738   0.007988   0.007998   0.424037   0.000227
     H   26   0.000721   0.085788   0.007999   0.008004   0.000243   0.424037


                  C  7       C  8       C  9       C 10       H 11       H 12
 ------------------------------------------------------------------------------
     C    7  18.326846
     C    8   0.010019  18.327266
     C    9  10.664440   0.000771  18.183424
     C   10   0.000778  10.664412   0.001238  18.182821
     H   11   0.445349   0.003762   0.055580   0.000571   4.912961
     H   12   0.003731   0.445332   0.000576   0.055511   0.002472   4.913144
     H   13   0.031825   0.031888   0.003152   0.003202   0.027059   0.027054
     H   14   0.031151   0.031121   0.003052   0.003087   0.030371   0.030363
     H   15   0.031098   0.031100   0.003070   0.003131   0.030375   0.030381
     H   16   0.031815   0.031879   0.003178   0.003237   0.027084   0.027094
     H   17   0.041721   0.000268   0.478999   0.000165   0.000572   0.000040
     H   18   0.035604   0.000178   0.438560   0.000144   0.000453   0.000061
     H   19   0.000157   0.035439   0.000095   0.438844   0.000040   0.000475
     H   20   0.000257   0.041749   0.000143   0.479016   0.000030   0.000586
     H   21   0.035423   0.000163   0.438743   0.000067   0.000484   0.000043
     H   22   0.000163   0.035627   0.000137   0.438641   0.000068   0.000447
     H   23   4.744978   0.003748   0.467626   0.001557   0.036554   0.000906
     H   24   0.003760   4.744859   0.001576   0.467597   0.000904   0.036530
     H   25   0.470542   0.000391   4.771066   0.000256   0.029855   0.000176
     H   26   0.000392   0.470507   0.000246   4.770998   0.000183   0.029855


                  H 13       H 14       H 15       H 16       H 17       H 18
 ------------------------------------------------------------------------------
     H   13   5.339572
     H   14   0.548740   5.301819
     H   15   0.001059   0.002792   5.301294
     H   16   0.003365   0.001049   0.548849   5.339469
     H   17   0.000110   0.000246   0.000246   0.000135   5.450824
     H   18   0.000213   0.000119   0.000268   0.000617   0.565307   5.425444
     H   19   0.000620   0.000295   0.000130   0.000190   0.000045   0.000041
     H   20   0.000108   0.000240   0.000244   0.000137   0.000042   0.000030
     H   21   0.000626   0.000296   0.000130   0.000183   0.565331   0.574916
     H   22   0.000217   0.000117   0.000264   0.000607   0.000025   0.000044
     H   23   0.001362   0.017175   0.017788   0.001412   0.029546   0.009307
     H   24   0.001380   0.017159   0.017800   0.001440   0.000198   0.000124
     H   25   0.001338   0.000724   0.000708   0.001328   0.041062   0.023993
     H   26   0.001314   0.000731   0.000717   0.001305   0.000061   0.000059


                  H 19       H 20       H 21       H 22       H 23       H 24
 ------------------------------------------------------------------------------
     H   19   5.424816
     H   20   0.565406   5.451030
     H   21   0.000045   0.000042   5.425213
     H   22   0.575000   0.565248   0.000045   5.425064
     H   23   0.000120   0.000191   0.009344   0.000139   5.123891
     H   24   0.009357   0.029552   0.000120   0.009314   0.006937   5.123759
     H   25   0.000077   0.000064   0.023886   0.000053   0.104906   0.000347
     H   26   0.023844   0.041068   0.000066   0.024022   0.000345   0.105011


                  H 25       H 26
 ------------------------------
     H   25   5.149359
     H   26   0.000120   5.149288


          HEAT OF FORMATION =      13.036079 KCALS/MOLE

          ZERO POINT ENERGY     145.351 KCAL/MOL


           NORMAL COORDINATE ANALYSIS (Total motion = 1 Angstrom)


   Root No.       1         2         3         4         5         6         7         8

                 1 A       2 A       3 A       4 A       5 A       6 A       7 A       8 A   

                  35.7      59.9      65.7     131.7     139.4     164.7     185.2     199.9
  
           1   -0.0002    0.0000   -0.0001    0.0000    0.0000   -0.0001    0.0000   -0.0063
           2   -0.0008   -0.0122   -0.0247    0.0112   -0.0017   -0.0078   -0.0041   -0.0005
           3    0.0195   -0.0007   -0.0003    0.0003    0.0000   -0.0001   -0.0001    0.0331
           4    0.0002    0.0000   -0.0001    0.0000    0.0000   -0.0001    0.0000   -0.0063
           5   -0.0009   -0.0110    0.0252   -0.0114   -0.0007    0.0078   -0.0042    0.0005
           6    0.0195   -0.0006    0.0004   -0.0003    0.0000    0.0001   -0.0001   -0.0331
           7    0.0000   -0.0006   -0.0244    0.0106   -0.0005   -0.0070    0.0000   -0.0057
           8   -0.0009   -0.0114    0.0003   -0.0001   -0.0011    0.0000   -0.0048    0.0000
           9    0.0309   -0.0209    0.0005   -0.0008   -0.0138    0.0005    0.0262    0.0000
          10    0.0000    0.0006    0.0242   -0.0107    0.0005    0.0069   -0.0001   -0.0059
          11   -0.0012   -0.0121    0.0003   -0.0002   -0.0016    0.0000   -0.0038    0.0000
          12    0.0319    0.0188   -0.0003    0.0008    0.0138   -0.0005   -0.0263    0.0000
          13    0.0398   -0.0009    0.0002    0.0001   -0.0001    0.0003   -0.0003    0.0315
          14    0.0013    0.0202    0.0141   -0.0182    0.0068    0.0271   -0.0258    0.0002
          15   -0.0346    0.0012    0.0002   -0.0004    0.0002    0.0004   -0.0004   -0.0185
          16   -0.0398    0.0008    0.0001    0.0001    0.0002    0.0003    0.0003    0.0315
          17    0.0013    0.0193   -0.0150    0.0189    0.0048   -0.0279   -0.0253   -0.0002
          18   -0.0346    0.0012   -0.0003    0.0004    0.0001   -0.0005   -0.0004    0.0185
          19    0.0190   -0.0006   -0.0001   -0.0001    0.0000    0.0000   -0.0001   -0.0128
          20   -0.0009   -0.0286   -0.0361    0.0087   -0.0103    0.0006    0.0084   -0.0007
          21    0.0053   -0.0005   -0.0005    0.0003   -0.0002    0.0000    0.0002    0.0400
          22   -0.0190    0.0006   -0.0002   -0.0001    0.0000    0.0000    0.0001   -0.0128
          23   -0.0011   -0.0268    0.0373   -0.0099   -0.0098   -0.0001    0.0084    0.0006
          24    0.0053   -0.0005    0.0005   -0.0003   -0.0002    0.0000    0.0002   -0.0400
          25    0.0177   -0.0002    0.0002   -0.0001    0.0000   -0.0002    0.0000   -0.0135
          26    0.0014    0.0287    0.0141    0.0076    0.0053   -0.0414    0.0355   -0.0002
          27   -0.0182    0.0009    0.0002    0.0002    0.0000   -0.0005    0.0005    0.0161
          28   -0.0177    0.0002    0.0001   -0.0001   -0.0001   -0.0002    0.0000   -0.0135
          29    0.0015    0.0282   -0.0153   -0.0066    0.0069    0.0420    0.0348    0.0001
          30   -0.0182    0.0009   -0.0003   -0.0002    0.0000    0.0005    0.0005   -0.0161
          31   -0.0137    0.0004    0.0000    0.0001    0.0000   -0.0001    0.0000    0.0086
          32   -0.0002    0.0039   -0.0393    0.0192    0.0092   -0.0142   -0.0251   -0.0006
          33    0.0106   -0.0001   -0.0006    0.0005    0.0002   -0.0002   -0.0004    0.0416
          34    0.0137   -0.0004    0.0000    0.0000    0.0000   -0.0001    0.0000    0.0086
          35   -0.0003    0.0059    0.0391   -0.0182    0.0109    0.0134   -0.0253    0.0006
          36    0.0106   -0.0001    0.0006   -0.0005    0.0002    0.0002   -0.0005   -0.0416
          37    0.0001   -0.0010   -0.0394    0.0175   -0.0007   -0.0115    0.0001    0.0222
          38   -0.0116    0.0053   -0.0001    0.0005    0.0106   -0.0005   -0.0273    0.0000
          39    0.0388   -0.0332    0.0007   -0.0012   -0.0225    0.0009    0.0428    0.0000
          40    0.0001   -0.0010   -0.0394    0.0170   -0.0007   -0.0107    0.0001   -0.0330
          41    0.0098   -0.0285    0.0006   -0.0008   -0.0127    0.0004    0.0168    0.0000
          42    0.0389   -0.0334    0.0007   -0.0012   -0.0225    0.0009    0.0424    0.0000
          43   -0.0001    0.0010    0.0392   -0.0172    0.0007    0.0104   -0.0001   -0.0332
          44   -0.0130   -0.0289    0.0006   -0.0008   -0.0135    0.0004    0.0181    0.0000
          45    0.0400    0.0302   -0.0006    0.0012    0.0220   -0.0008   -0.0416    0.0000
          46   -0.0001    0.0010    0.0394   -0.0174    0.0007    0.0115   -0.0001    0.0219
          47    0.0099    0.0035    0.0000    0.0005    0.0098   -0.0004   -0.0256    0.0000
          48    0.0408    0.0312   -0.0006    0.0012    0.0229   -0.0008   -0.0436    0.0000
          49    0.0574   -0.0016    0.0000   -0.0003    0.0004    0.0002   -0.0002    0.0690
          50   -0.0001   -0.0271   -0.0236   -0.1381    0.1295   -0.0056   -0.0316    0.0006
          51   -0.0242    0.0003   -0.0003   -0.0018    0.0017    0.0000   -0.0004    0.0033
          52    0.0392   -0.0289   -0.0260   -0.0701    0.0871   -0.0675    0.0364    0.0324
          53    0.0019    0.0406    0.0333    0.0332   -0.0574    0.0780   -0.0537    0.0001
          54   -0.0461    0.0295    0.0201    0.0704   -0.0634   -0.0084    0.0259   -0.0460
          55   -0.0406   -0.0269    0.0286    0.0793    0.0829    0.0675    0.0359    0.0310
          56    0.0020    0.0397   -0.0358   -0.0394   -0.0558   -0.0765   -0.0509    0.0000
          57   -0.0475   -0.0258    0.0208    0.0757    0.0555   -0.0126   -0.0275    0.0447
          58   -0.0574    0.0016   -0.0002   -0.0005   -0.0004    0.0001    0.0003    0.0690
          59   -0.0002   -0.0276    0.0258    0.1498    0.1166    0.0016   -0.0321   -0.0009
          60   -0.0242    0.0004    0.0002    0.0018    0.0014   -0.0001   -0.0004   -0.0033
          61    0.0404    0.0274    0.0267    0.0710   -0.0882    0.0688   -0.0373    0.0313
          62    0.0019    0.0410    0.0335    0.0342   -0.0579    0.0768   -0.0525    0.0003
          63   -0.0474   -0.0259   -0.0193   -0.0703    0.0622    0.0105   -0.0276   -0.0448
          64   -0.0391    0.0283   -0.0281   -0.0782   -0.0815   -0.0661   -0.0348    0.0327
          65    0.0020    0.0394   -0.0357   -0.0386   -0.0556   -0.0779   -0.0522    0.0002
          66   -0.0460    0.0293   -0.0220   -0.0759   -0.0564    0.0105    0.0260    0.0461
          67    0.0358   -0.0013   -0.0004   -0.0001   -0.0001    0.0003   -0.0004   -0.0065
          68   -0.0030   -0.0863   -0.0820   -0.0019   -0.0244    0.0593   -0.0264   -0.0008
          69    0.0141   -0.0016   -0.0011    0.0002   -0.0003    0.0009   -0.0003    0.0422
          70   -0.0358    0.0013   -0.0005   -0.0001    0.0001    0.0003    0.0003   -0.0065
          71   -0.0033   -0.0826    0.0856   -0.0015   -0.0262   -0.0591   -0.0253    0.0008
          72    0.0141   -0.0015    0.0012   -0.0002   -0.0004   -0.0009   -0.0004   -0.0422
          73    0.0002    0.0005    0.0004   -0.0001    0.0001   -0.0006    0.0002   -0.0406
          74    0.0036    0.0859    0.0593    0.0242    0.0152   -0.1099    0.0841    0.0002
          75   -0.0274    0.0020    0.0008    0.0004    0.0002   -0.0015    0.0012    0.0010
          76   -0.0002   -0.0005    0.0004   -0.0001   -0.0002   -0.0006   -0.0003   -0.0405
          77    0.0037    0.0836   -0.0630   -0.0214    0.0198    0.1113    0.0821   -0.0004
          78   -0.0274    0.0019   -0.0010   -0.0003    0.0002    0.0014    0.0011   -0.0010


   Root No.       9        10        11        12        13        14        15        16

                 9 A      10 A      11 A      12 A      13 A      14 A      15 A      16 A   

                 257.6     348.8     412.1     415.2     451.5     495.5     507.1     797.4
  
           1    0.0027    0.0121   -0.0001   -0.0003    0.0296   -0.0113   -0.0006    0.0413
           2    0.0002    0.0001   -0.0201   -0.0288    0.0003    0.0006   -0.0005    0.0003
           3   -0.0091   -0.0040   -0.0003   -0.0003   -0.0326   -0.0303    0.0306   -0.0132
           4   -0.0027   -0.0121    0.0001   -0.0002    0.0296   -0.0113    0.0006   -0.0413
           5    0.0002    0.0001   -0.0212    0.0281   -0.0003   -0.0006   -0.0005    0.0003
           6   -0.0091   -0.0040   -0.0003    0.0003    0.0326    0.0302    0.0306   -0.0132
           7    0.0000    0.0000    0.0006   -0.0312    0.0380   -0.0191    0.0000    0.0000
           8    0.0009    0.0067   -0.0279   -0.0005    0.0000    0.0000    0.0005    0.0449
           9    0.0193   -0.0328   -0.0308   -0.0005    0.0000    0.0000   -0.0097   -0.0097
          10    0.0000    0.0000   -0.0006    0.0306    0.0386   -0.0194    0.0000    0.0000
          11   -0.0015   -0.0056   -0.0289   -0.0005    0.0000    0.0000   -0.0002   -0.0449
          12    0.0195   -0.0330    0.0300    0.0005    0.0000    0.0000   -0.0098   -0.0112
          13   -0.0133    0.0370   -0.0001    0.0001   -0.0087    0.0339   -0.0186   -0.0064
          14   -0.0004   -0.0006   -0.0065   -0.0068    0.0003   -0.0004    0.0002    0.0001
          15    0.0208    0.0199   -0.0002    0.0000   -0.0164    0.0156   -0.0057   -0.0075
          16    0.0133   -0.0369    0.0001    0.0001   -0.0087    0.0339    0.0187    0.0064
          17   -0.0003   -0.0006   -0.0068    0.0066   -0.0003    0.0004    0.0002    0.0001
          18    0.0208    0.0199   -0.0002    0.0000    0.0164   -0.0156   -0.0057   -0.0075
          19    0.0279    0.0229    0.0000    0.0003   -0.0288   -0.0060    0.0128    0.0047
          20    0.0005    0.0002    0.0402    0.0380    0.0002    0.0002   -0.0002   -0.0003
          21   -0.0289   -0.0016    0.0007    0.0005    0.0060   -0.0226    0.0151    0.0288
          22   -0.0279   -0.0229    0.0000    0.0003   -0.0288   -0.0060   -0.0128   -0.0046
          23    0.0005    0.0002    0.0417   -0.0366   -0.0002   -0.0002   -0.0002   -0.0003
          24   -0.0289   -0.0016    0.0007   -0.0005   -0.0060    0.0226    0.0152    0.0288
          25    0.0289    0.0271   -0.0002    0.0002   -0.0326   -0.0014    0.0114    0.0030
          26    0.0002   -0.0002    0.0176    0.0187    0.0001   -0.0005    0.0003    0.0000
          27   -0.0132    0.0217    0.0003    0.0004    0.0091    0.0341   -0.0256   -0.0063
          28   -0.0289   -0.0271    0.0002    0.0002   -0.0326   -0.0014   -0.0114   -0.0030
          29    0.0002   -0.0002    0.0184   -0.0182   -0.0001    0.0005    0.0003    0.0000
          30   -0.0132    0.0217    0.0003   -0.0004   -0.0091   -0.0340   -0.0256   -0.0063
          31   -0.0202    0.0243   -0.0001   -0.0004    0.0448   -0.0264    0.0127    0.0865
          32    0.0005   -0.0001   -0.0082   -0.0679   -0.0003    0.0010   -0.0007   -0.0001
          33   -0.0231    0.0033   -0.0001   -0.0012   -0.0219   -0.0381    0.0373    0.0163
          34    0.0201   -0.0243    0.0002   -0.0004    0.0448   -0.0264   -0.0127   -0.0865
          35    0.0005   -0.0001   -0.0108    0.0676    0.0003   -0.0010   -0.0007   -0.0001
          36   -0.0231    0.0033   -0.0002    0.0012    0.0218    0.0381    0.0374    0.0163
          37    0.0000    0.0000    0.0010   -0.0503    0.0077   -0.0552    0.0000    0.0000
          38   -0.0279    0.0410    0.0128    0.0002    0.0000    0.0000    0.0612   -0.0138
          39    0.0409   -0.0587   -0.0616   -0.0011    0.0000    0.0000   -0.0559    0.0376
          40    0.0000    0.0000    0.0010   -0.0527    0.0756    0.0079    0.0000    0.0000
          41    0.0293   -0.0248   -0.0636   -0.0011    0.0000    0.0000   -0.0573    0.1170
          42    0.0408   -0.0575   -0.0594   -0.0010    0.0000    0.0000   -0.0545    0.0455
          43    0.0000    0.0000   -0.0010    0.0515    0.0767    0.0073    0.0000    0.0000
          44   -0.0308    0.0266   -0.0655   -0.0011    0.0000    0.0000    0.0592   -0.1188
          45    0.0400   -0.0564    0.0573    0.0010    0.0000    0.0000   -0.0525    0.0414
          46    0.0000    0.0000   -0.0010    0.0499    0.0088   -0.0557    0.0000    0.0000
          47    0.0266   -0.0388    0.0107    0.0002    0.0000    0.0000   -0.0592    0.0123
          48    0.0421   -0.0600    0.0623    0.0011    0.0000    0.0000   -0.0582    0.0382
          49   -0.0499    0.0453    0.0000    0.0002    0.0177    0.0721   -0.0526   -0.0298
          50   -0.0003   -0.0005   -0.0246   -0.0258   -0.0001   -0.0006    0.0004    0.0005
          51   -0.0003    0.0245   -0.0004   -0.0002   -0.0015    0.0367   -0.0246   -0.0205
          52   -0.0138    0.0385    0.0105    0.0120   -0.0089    0.0367   -0.0204   -0.0088
          53   -0.0006   -0.0014   -0.0151   -0.0164    0.0008   -0.0013    0.0006    0.0012
          54    0.0481    0.0148    0.0217    0.0235   -0.0381   -0.0117    0.0197    0.0079
          55    0.0135   -0.0377    0.0114   -0.0115   -0.0089    0.0364    0.0203    0.0085
          56   -0.0007   -0.0003   -0.0150    0.0151   -0.0003   -0.0010   -0.0008   -0.0011
          57    0.0473    0.0149   -0.0237    0.0232    0.0381    0.0112    0.0193    0.0082
          58    0.0500   -0.0453    0.0000    0.0002    0.0177    0.0720    0.0527    0.0298
          59   -0.0003   -0.0005   -0.0257    0.0250    0.0001    0.0006    0.0004    0.0005
          60   -0.0003    0.0245   -0.0003    0.0001    0.0015   -0.0367   -0.0247   -0.0205
          61   -0.0135    0.0377   -0.0109   -0.0119   -0.0089    0.0364   -0.0202   -0.0085
          62   -0.0007   -0.0003   -0.0143   -0.0156    0.0004    0.0010   -0.0008   -0.0011
          63    0.0474    0.0149   -0.0227   -0.0239   -0.0381   -0.0112    0.0193    0.0082
          64    0.0138   -0.0385   -0.0110    0.0117   -0.0089    0.0367    0.0204    0.0089
          65   -0.0005   -0.0014   -0.0158    0.0159   -0.0008    0.0014    0.0006    0.0012
          66    0.0482    0.0149    0.0227   -0.0227    0.0381    0.0118    0.0197    0.0079
          67    0.0331    0.0174    0.0003    0.0006   -0.0574   -0.0311    0.0394    0.0040
          68    0.0005    0.0005    0.1020    0.1018    0.0008    0.0001   -0.0002   -0.0008
          69   -0.0249   -0.0047    0.0016    0.0015   -0.0098   -0.0355    0.0288    0.0280
          70   -0.0331   -0.0174   -0.0003    0.0006   -0.0574   -0.0310   -0.0394   -0.0040
          71    0.0005    0.0005    0.1060   -0.0983   -0.0008   -0.0001   -0.0002   -0.0008
          72   -0.0249   -0.0047    0.0016   -0.0014    0.0098    0.0355    0.0288    0.0280
          73    0.0531    0.0359   -0.0005    0.0000   -0.0473    0.0092    0.0084   -0.0158
          74   -0.0001   -0.0003   -0.0241   -0.0223    0.0000   -0.0002    0.0002    0.0005
          75    0.0005    0.0258   -0.0004   -0.0001    0.0004    0.0385   -0.0262   -0.0161
          76   -0.0531   -0.0359    0.0005    0.0000   -0.0473    0.0092   -0.0084    0.0158
          77   -0.0002   -0.0003   -0.0249    0.0215    0.0000    0.0002    0.0002    0.0005
          78    0.0005    0.0258   -0.0004    0.0001   -0.0004   -0.0385   -0.0262   -0.0161


   Root No.      17        18        19        20        21        22        23        24

                17 A      18 A      19 A      20 A      21 A      22 A      23 A      24 A   

                 855.4     860.2     896.4     922.7     926.3     937.8     939.6     988.1
  
           1   -0.0001    0.0000    0.0000    0.0000   -0.0001   -0.0115    0.0128   -0.0044
           2    0.0021    0.0040   -0.0044    0.0074   -0.0068   -0.0002   -0.0001    0.0000
           3    0.0001    0.0001   -0.0001    0.0001   -0.0002    0.0119    0.0017    0.0053
           4    0.0001    0.0000    0.0000    0.0000    0.0001   -0.0114   -0.0128    0.0046
           5    0.0022   -0.0040   -0.0044   -0.0074   -0.0068    0.0002   -0.0001    0.0000
           6    0.0001   -0.0001   -0.0001   -0.0001   -0.0002   -0.0119    0.0017    0.0053
           7    0.0001   -0.0097    0.0000   -0.0097    0.0000    0.0146    0.0000   -0.0001
           8   -0.0067   -0.0001    0.0132    0.0000    0.0138   -0.0001    0.0263   -0.0111
           9    0.0070    0.0001    0.0245    0.0000    0.0061   -0.0001    0.0222   -0.0156
          10   -0.0001    0.0096    0.0000    0.0095    0.0000    0.0146    0.0000   -0.0001
          11   -0.0063   -0.0001    0.0140    0.0000    0.0145    0.0001   -0.0269    0.0115
          12   -0.0071   -0.0001   -0.0240    0.0000   -0.0061   -0.0001    0.0211   -0.0152
          13    0.0000   -0.0001    0.0000    0.0000    0.0001   -0.0120   -0.0155   -0.0167
          14   -0.0112   -0.0134    0.0044    0.0007    0.0005    0.0000    0.0001    0.0000
          15   -0.0002   -0.0002    0.0001    0.0000    0.0000    0.0036    0.0000    0.0048
          16    0.0000   -0.0001    0.0000    0.0000   -0.0001   -0.0120    0.0154    0.0164
          17   -0.0115    0.0131    0.0044   -0.0007    0.0005    0.0000    0.0001    0.0000
          18   -0.0002    0.0002    0.0001    0.0000    0.0000   -0.0036    0.0000    0.0048
          19    0.0001    0.0001    0.0000    0.0002   -0.0002    0.0009    0.0027    0.0073
          20    0.0221    0.0259   -0.0030    0.0285   -0.0267    0.0004    0.0000    0.0000
          21    0.0003    0.0004    0.0000    0.0005   -0.0002   -0.0225   -0.0172    0.0040
          22   -0.0001    0.0001    0.0000    0.0002    0.0002    0.0009   -0.0027   -0.0072
          23    0.0228   -0.0252   -0.0029   -0.0286   -0.0266   -0.0004    0.0000    0.0000
          24    0.0003   -0.0004    0.0000   -0.0005   -0.0002    0.0226   -0.0170    0.0039
          25   -0.0001   -0.0001    0.0000    0.0001    0.0000   -0.0037   -0.0037    0.0042
          26   -0.0139   -0.0158    0.0043    0.0097   -0.0085   -0.0001   -0.0002    0.0000
          27   -0.0002   -0.0002    0.0000    0.0001   -0.0002    0.0054    0.0069   -0.0013
          28    0.0001   -0.0001    0.0000    0.0001    0.0000   -0.0037    0.0036   -0.0041
          29   -0.0144    0.0153    0.0043   -0.0097   -0.0085    0.0001   -0.0002    0.0000
          30   -0.0002    0.0002    0.0000   -0.0001   -0.0002   -0.0055    0.0069   -0.0013
          31   -0.0003   -0.0001    0.0001   -0.0001    0.0003   -0.0255   -0.0006    0.0180
          32   -0.0194   -0.0188   -0.0819   -0.0056   -0.0413    0.0000   -0.0002   -0.0001
          33   -0.0005   -0.0004   -0.0014   -0.0002   -0.0005    0.0006   -0.0082    0.0204
          34    0.0003   -0.0001   -0.0001   -0.0001   -0.0003   -0.0255    0.0005   -0.0175
          35   -0.0198    0.0181   -0.0819    0.0056   -0.0413    0.0000   -0.0002   -0.0001
          36   -0.0005    0.0004   -0.0014    0.0002   -0.0005   -0.0006   -0.0082    0.0203
          37    0.0002   -0.0090    0.0000   -0.0032    0.0000    0.1188    0.0003   -0.0007
          38    0.0276    0.0005    0.1076    0.0000    0.0396   -0.0002    0.0996   -0.0581
          39   -0.0195   -0.0003   -0.0497    0.0000   -0.0146    0.0001   -0.0330    0.0203
          40    0.0003   -0.0219    0.0000   -0.0317    0.0000   -0.0307   -0.0001    0.0001
          41   -0.0404   -0.0007   -0.0832    0.0000   -0.0109    0.0001   -0.0330    0.0311
          42   -0.0198   -0.0003   -0.0504    0.0000   -0.0132    0.0001   -0.0248    0.0175
          43   -0.0003    0.0217    0.0000    0.0316   -0.0001   -0.0305   -0.0001    0.0000
          44   -0.0404   -0.0007   -0.0852    0.0000   -0.0126   -0.0001    0.0336   -0.0319
          45    0.0181    0.0003    0.0476    0.0000    0.0135    0.0001   -0.0234    0.0164
          46   -0.0002    0.0089    0.0000    0.0028    0.0001    0.1185    0.0003   -0.0007
          47    0.0266    0.0005    0.1060    0.0001    0.0415    0.0002   -0.0976    0.0572
          48    0.0202    0.0003    0.0536    0.0000    0.0171    0.0001   -0.0362    0.0222
          49    0.0000    0.0000    0.0000   -0.0002   -0.0004    0.0600    0.0545    0.0643
          50    0.0299    0.0347   -0.0102   -0.0043    0.0017   -0.0009   -0.0008   -0.0010
          51    0.0003    0.0003   -0.0001   -0.0001   -0.0003    0.0436    0.0388    0.0503
          52   -0.0425   -0.0500    0.0153    0.0041   -0.0001   -0.0116   -0.0165   -0.0175
          53    0.0230    0.0268   -0.0078   -0.0026    0.0007    0.0011    0.0021    0.0020
          54   -0.0580   -0.0681    0.0208    0.0067   -0.0008   -0.0571   -0.0631   -0.0629
          55   -0.0443    0.0491    0.0154   -0.0040   -0.0003   -0.0115    0.0165    0.0171
          56    0.0214   -0.0235   -0.0070    0.0023    0.0006   -0.0006   -0.0002    0.0000
          57    0.0608   -0.0674   -0.0210    0.0063    0.0017    0.0569   -0.0627   -0.0617
          58    0.0000   -0.0001    0.0000   -0.0001    0.0005    0.0602   -0.0542   -0.0635
          59    0.0308   -0.0338   -0.0102    0.0042    0.0016    0.0009   -0.0008   -0.0010
          60    0.0002   -0.0002   -0.0001    0.0001   -0.0004   -0.0438    0.0386    0.0497
          61    0.0429    0.0505   -0.0154   -0.0040    0.0003   -0.0115   -0.0167   -0.0175
          62    0.0208    0.0242   -0.0071   -0.0024    0.0006    0.0006   -0.0002    0.0000
          63    0.0589    0.0692   -0.0210   -0.0064    0.0017   -0.0568   -0.0630   -0.0627
          64    0.0438   -0.0486   -0.0152    0.0040    0.0000   -0.0117    0.0165    0.0173
          65    0.0237   -0.0260   -0.0078    0.0025    0.0006   -0.0011    0.0021    0.0019
          66   -0.0597    0.0661    0.0207   -0.0065   -0.0006    0.0574   -0.0628   -0.0621
          67   -0.0002   -0.0002   -0.0001   -0.0012    0.0013    0.0053   -0.0111    0.0564
          68   -0.0553   -0.0550   -0.0344   -0.2205    0.1958   -0.0002    0.0016   -0.0010
          69   -0.0008   -0.0007   -0.0004   -0.0031    0.0031   -0.0202   -0.0248    0.0295
          70    0.0002   -0.0002    0.0001   -0.0012   -0.0013    0.0053    0.0112   -0.0558
          71   -0.0566    0.0530   -0.0346    0.2207    0.1956    0.0000    0.0016   -0.0009
          72   -0.0008    0.0006   -0.0004    0.0031    0.0031    0.0203   -0.0247    0.0291
          73    0.0004    0.0005   -0.0002   -0.0010    0.0006    0.0329    0.0264    0.0425
          74    0.1009    0.1208   -0.0595   -0.1629    0.1393   -0.0005    0.0006   -0.0004
          75    0.0014    0.0016   -0.0008   -0.0024    0.0019    0.0240    0.0220    0.0183
          76   -0.0004    0.0005    0.0002   -0.0010   -0.0006    0.0329   -0.0263   -0.0420
          77    0.1042   -0.1177   -0.0594    0.1629    0.1392    0.0004    0.0007   -0.0004
          78    0.0014   -0.0015   -0.0008    0.0024    0.0018   -0.0241    0.0219    0.0180


   Root No.      25        26        27        28        29        30        31        32

                25 A      26 A      27 A      28 A      29 A      30 A      31 A      32 A   

                 989.7    1010.0    1021.0    1022.6    1039.2    1042.6    1048.1    1143.4
  
           1   -0.0136   -0.0001    0.0000    0.0000   -0.0002   -0.0388    0.0000    0.0000
           2   -0.0002    0.0247   -0.0160   -0.0128    0.0186   -0.0002    0.0185    0.0531
           3    0.0014    0.0005   -0.0003   -0.0002    0.0003    0.0065    0.0003    0.0008
           4   -0.0135   -0.0001    0.0000    0.0000   -0.0002   -0.0388    0.0000    0.0001
           5    0.0002   -0.0247    0.0161   -0.0126   -0.0186    0.0002    0.0185   -0.0532
           6   -0.0013   -0.0005    0.0003   -0.0002   -0.0003   -0.0065    0.0003   -0.0008
           7    0.0119   -0.0281    0.0156    0.0001   -0.0203    0.0163    0.0000   -0.0267
           8   -0.0001    0.0000   -0.0001    0.0163    0.0000    0.0000   -0.0226    0.0000
           9   -0.0001    0.0000    0.0000   -0.0091    0.0000    0.0000    0.0221    0.0000
          10    0.0116    0.0281   -0.0157   -0.0001    0.0205    0.0161    0.0000    0.0266
          11    0.0001    0.0000   -0.0001    0.0159    0.0000    0.0000   -0.0218    0.0000
          12   -0.0001    0.0000    0.0000    0.0096    0.0000    0.0000   -0.0228    0.0000
          13    0.0192    0.0001   -0.0002   -0.0002    0.0000    0.0019    0.0000    0.0001
          14   -0.0002    0.0044   -0.0182   -0.0217   -0.0117    0.0000   -0.0094   -0.0012
          15   -0.0020    0.0001   -0.0003   -0.0003   -0.0001    0.0084   -0.0001    0.0001
          16    0.0194    0.0001   -0.0002    0.0002    0.0000    0.0019    0.0000    0.0001
          17    0.0001   -0.0043    0.0185   -0.0214    0.0117    0.0000   -0.0094    0.0012
          18    0.0021   -0.0001    0.0003   -0.0003    0.0001   -0.0084   -0.0001   -0.0001
          19   -0.0093    0.0000    0.0000    0.0000   -0.0001   -0.0025   -0.0001   -0.0002
          20    0.0001    0.0010   -0.0070   -0.0091   -0.0124    0.0001   -0.0147   -0.0134
          21   -0.0078    0.0000   -0.0001   -0.0001   -0.0002    0.0046   -0.0003   -0.0002
          22   -0.0094    0.0000    0.0000    0.0000   -0.0001   -0.0025    0.0001   -0.0002
          23   -0.0001   -0.0010    0.0071   -0.0090    0.0124   -0.0001   -0.0147    0.0134
          24    0.0078    0.0000    0.0001   -0.0001    0.0002   -0.0046   -0.0003    0.0002
          25   -0.0049    0.0000    0.0002    0.0002    0.0001   -0.0008    0.0001    0.0000
          26    0.0001   -0.0044    0.0234    0.0281    0.0183   -0.0001    0.0162    0.0062
          27   -0.0003   -0.0001    0.0003    0.0004    0.0002   -0.0067    0.0002    0.0000
          28   -0.0049    0.0000    0.0002   -0.0002    0.0001   -0.0008   -0.0001    0.0000
          29   -0.0001    0.0043   -0.0237    0.0279   -0.0183    0.0000    0.0163   -0.0062
          30    0.0002    0.0001   -0.0003    0.0004   -0.0002    0.0067    0.0002    0.0000
          31   -0.0314   -0.0001    0.0002    0.0001    0.0000   -0.0306    0.0000    0.0001
          32   -0.0001    0.1017   -0.0225   -0.0624    0.0820   -0.0010    0.1362   -0.2316
          33   -0.0117    0.0018   -0.0003   -0.0010    0.0016    0.0116    0.0025   -0.0042
          34   -0.0316   -0.0001    0.0002   -0.0001    0.0000   -0.0306   -0.0001    0.0002
          35    0.0001   -0.1017    0.0231   -0.0622   -0.0818    0.0008    0.1363    0.2319
          36    0.0120   -0.0018    0.0003   -0.0010   -0.0016   -0.0116    0.0025    0.0042
          37    0.0923   -0.1836   -0.0543   -0.0005    0.0434   -0.0256   -0.0001    0.0386
          38   -0.0004    0.0000    0.0000   -0.0060    0.0000    0.0000    0.0298    0.0001
          39    0.0002    0.0000    0.0000    0.0066    0.0000    0.0000   -0.0153    0.0000
          40   -0.0041    0.0934    0.0900    0.0006   -0.0929    0.2224    0.0003    0.0728
          41    0.0002    0.0000   -0.0002    0.0348    0.0000    0.0001   -0.0655    0.0000
          42    0.0001    0.0000    0.0000    0.0060    0.0000    0.0000   -0.0123    0.0000
          43   -0.0049   -0.0934   -0.0895   -0.0006    0.0944    0.2214    0.0000   -0.0737
          44   -0.0002    0.0000   -0.0002    0.0347   -0.0001    0.0001   -0.0657    0.0000
          45    0.0001    0.0000    0.0000   -0.0047    0.0000    0.0000    0.0098    0.0000
          46    0.0922    0.1844    0.0534    0.0005   -0.0432   -0.0252    0.0001   -0.0377
          47    0.0004    0.0000    0.0000   -0.0057    0.0000    0.0000    0.0290    0.0000
          48    0.0002    0.0000    0.0000   -0.0067    0.0000    0.0000    0.0163    0.0000
          49   -0.0595   -0.0001    0.0004    0.0002    0.0001    0.0245    0.0001    0.0003
          50    0.0011   -0.0055    0.0229    0.0271    0.0141   -0.0006    0.0110    0.0012
          51   -0.0460   -0.0001    0.0005    0.0004    0.0002    0.0221    0.0002    0.0003
          52    0.0213    0.0115   -0.0473   -0.0561   -0.0297    0.0058   -0.0236   -0.0026
          53   -0.0028   -0.0046    0.0191    0.0227    0.0118   -0.0022    0.0093    0.0009
          54    0.0676    0.0150   -0.0614   -0.0727   -0.0383    0.0036   -0.0303   -0.0032
          55    0.0218   -0.0113    0.0481   -0.0558    0.0300    0.0053   -0.0239    0.0030
          56   -0.0007    0.0040   -0.0170    0.0197   -0.0104   -0.0019    0.0082   -0.0009
          57   -0.0688    0.0147   -0.0622    0.0724   -0.0389   -0.0030    0.0309   -0.0037
          58   -0.0605   -0.0001    0.0004   -0.0002    0.0001    0.0245    0.0000    0.0003
          59   -0.0011    0.0055   -0.0233    0.0269   -0.0141    0.0006    0.0110   -0.0012
          60    0.0468    0.0001   -0.0004    0.0003   -0.0002   -0.0221    0.0001   -0.0002
          61    0.0216   -0.0114    0.0474    0.0563    0.0300    0.0052    0.0239    0.0030
          62    0.0008   -0.0040    0.0168    0.0199    0.0104    0.0018    0.0082    0.0009
          63    0.0679   -0.0148    0.0613    0.0730    0.0389    0.0029    0.0309    0.0037
          64    0.0216    0.0114   -0.0479    0.0555   -0.0296    0.0057    0.0236   -0.0026
          65    0.0028    0.0046   -0.0194    0.0225   -0.0118    0.0022    0.0093   -0.0009
          66   -0.0687   -0.0149    0.0623   -0.0719    0.0382   -0.0035   -0.0303    0.0032
          67   -0.0400    0.0000    0.0001    0.0000    0.0006    0.0770    0.0004    0.0010
          68    0.0006    0.0043    0.0112    0.0220    0.0450   -0.0015    0.0457    0.0263
          69   -0.0234    0.0000    0.0002    0.0002    0.0009    0.0473    0.0007    0.0009
          70   -0.0409    0.0000    0.0000    0.0000    0.0006    0.0770   -0.0003    0.0009
          71   -0.0006   -0.0045   -0.0115    0.0219   -0.0449    0.0014    0.0458   -0.0264
          72    0.0239    0.0000   -0.0002    0.0002   -0.0008   -0.0473    0.0006   -0.0008
          73   -0.0378   -0.0001    0.0000   -0.0002   -0.0002    0.0068   -0.0002    0.0000
          74    0.0002    0.0101   -0.0578   -0.0671   -0.0407    0.0004   -0.0371   -0.0194
          75   -0.0169    0.0001   -0.0007   -0.0009   -0.0006   -0.0022   -0.0006   -0.0003
          76   -0.0385   -0.0001   -0.0001    0.0002   -0.0002    0.0068    0.0003    0.0002
          77   -0.0001   -0.0100    0.0585   -0.0663    0.0407   -0.0003   -0.0372    0.0195
          78    0.0172   -0.0001    0.0007   -0.0009    0.0006    0.0022   -0.0005    0.0002


   Root No.      33        34        35        36        37        38        39        40

                33 A      34 A      35 A      36 A      37 A      38 A      39 A      40 A   

                1152.8    1160.2    1172.6    1185.4    1202.9    1214.1    1215.0    1234.0
  
           1    0.0133   -0.0054    0.0230    0.0004   -0.0106    0.0026   -0.0122   -0.0002
           2    0.0000   -0.0001    0.0002    0.0000   -0.0002    0.0003   -0.0013    0.0722
           3    0.0002    0.0077   -0.0157   -0.0105    0.0089   -0.0175    0.0284    0.0020
           4   -0.0133   -0.0054   -0.0230    0.0003    0.0106    0.0020    0.0123    0.0002
           5   -0.0001    0.0001    0.0002    0.0000   -0.0002   -0.0002   -0.0013    0.0723
           6    0.0002   -0.0077   -0.0158    0.0105    0.0089    0.0162    0.0294    0.0020
           7    0.0000   -0.0042    0.0000   -0.0039    0.0000    0.0019    0.0001   -0.0002
           8   -0.0188    0.0000   -0.0198    0.0000    0.0156   -0.0003    0.0115   -0.0370
           9    0.0036    0.0000    0.0048    0.0000   -0.0130    0.0003   -0.0151   -0.0121
          10    0.0000   -0.0041    0.0000   -0.0043    0.0000    0.0014    0.0000    0.0002
          11    0.0186    0.0000    0.0197    0.0000   -0.0151    0.0002   -0.0102   -0.0380
          12    0.0042    0.0000    0.0054    0.0000   -0.0136    0.0003   -0.0158    0.0100
          13   -0.0034    0.0031   -0.0093    0.0063   -0.0033    0.0016   -0.0019    0.0000
          14    0.0003    0.0002    0.0000   -0.0002    0.0002    0.0001   -0.0001   -0.0001
          15   -0.0176   -0.0179    0.0044    0.0140   -0.0166   -0.0115    0.0078    0.0002
          16    0.0034    0.0031    0.0093    0.0063    0.0033    0.0015    0.0020    0.0000
          17    0.0003   -0.0002    0.0000    0.0002    0.0002   -0.0001   -0.0001   -0.0001
          18   -0.0176    0.0179    0.0044   -0.0140   -0.0166    0.0111    0.0084    0.0002
          19    0.0048   -0.0064    0.0170   -0.0140    0.0084   -0.0059    0.0080    0.0001
          20    0.0000    0.0002   -0.0004    0.0002   -0.0002   -0.0001    0.0003   -0.0134
          21    0.0010   -0.0105    0.0209   -0.0079    0.0078    0.0089   -0.0097   -0.0003
          22   -0.0048   -0.0064   -0.0170   -0.0141   -0.0084   -0.0056   -0.0083   -0.0001
          23    0.0000   -0.0002   -0.0004   -0.0002   -0.0002    0.0001    0.0003   -0.0135
          24    0.0010    0.0105    0.0209    0.0080    0.0078   -0.0084   -0.0102   -0.0003
          25    0.0061   -0.0023    0.0134   -0.0103    0.0047   -0.0074    0.0085    0.0003
          26   -0.0003   -0.0002   -0.0001    0.0003   -0.0003   -0.0001   -0.0001    0.0047
          27    0.0144    0.0111    0.0021   -0.0205    0.0228    0.0100   -0.0045   -0.0002
          28   -0.0061   -0.0023   -0.0134   -0.0103   -0.0048   -0.0070   -0.0089   -0.0003
          29   -0.0003    0.0002   -0.0001   -0.0003   -0.0003    0.0001   -0.0001    0.0047
[...]
 RED. MASS   0.2651        C  3 --  H 13          +18.6% ( 43.2%)     4.0%
 EFF. MASS   1.9679

 VIBRATION   52   52A       ATOM PAIR        ENERGY CONTRIBUTION    RADIAL
 FREQ.      1426.87        C  4 --  H 16          +11.3% ( 38.8%)     3.9%
 T-DIPOLE    0.0159        C  3 --  H 13          +11.1% ( 38.5%)     3.9%
 TRAVEL      0.1154        C  4 --  H 15          +11.0% ( 38.3%)     4.7%
 RED. MASS   0.2334        C  3 --  H 14          +10.8% ( 38.0%)     4.7%
 EFF. MASS   3.5465

 VIBRATION   53   53A       ATOM PAIR        ENERGY CONTRIBUTION    RADIAL
 FREQ.      1434.87        C  6 --  C 10           +8.8% ( 43.1%)    99.9%
 T-DIPOLE    0.0768        C  5 --  C  9           +8.8% ( 43.1%)    99.9%
 TRAVEL      0.0800        C  6 --  H 20           +7.9% ( 41.0%)     5.0%
 RED. MASS   0.7281        C  5 --  H 17           +7.9% ( 41.0%)     5.0%
 EFF. MASS   7.3494

 VIBRATION   54   54A       ATOM PAIR        ENERGY CONTRIBUTION    RADIAL
 FREQ.      1469.16        C  1 --  C  2          +11.8% ( 57.4%)   100.0%
 T-DIPOLE    0.0049        C  1 --  C  7           +8.2% ( 47.8%)    92.7%
 TRAVEL      0.0687        C  2 --  C  8           +8.2% ( 47.8%)    92.7%
 RED. MASS   1.3681        C  1 --  C  4           +6.8% ( 43.5%)    60.5%
 EFF. MASS   9.7229

 VIBRATION   55   55A       ATOM PAIR        ENERGY CONTRIBUTION    RADIAL
 FREQ.      1890.73        C  8 --  C 10          +22.0% ( 69.2%)    96.3%
 T-DIPOLE    0.4036        C  7 --  C  9          +21.7% ( 68.7%)    96.3%
 TRAVEL      0.0550        C  2 --  C  8           +7.2% ( 39.7%)    55.9%
 RED. MASS   2.6822        C  1 --  C  7           +7.1% ( 39.4%)    55.9%
 EFF. MASS  11.7895

 VIBRATION   56   56A       ATOM PAIR        ENERGY CONTRIBUTION    RADIAL
 FREQ.      1891.53        C  7 --  C  9          +21.8% ( 69.0%)    96.2%
 T-DIPOLE    0.1541        C  8 --  C 10          +21.5% ( 68.5%)    96.2%
 TRAVEL      0.0550        C  1 --  C  7           +7.3% ( 40.0%)    56.1%
 RED. MASS   2.6643        C  2 --  C  8           +7.2% ( 39.7%)    56.1%
 EFF. MASS  11.7892

 VIBRATION   57   57A       ATOM PAIR        ENERGY CONTRIBUTION    RADIAL
 FREQ.      2947.09        C  1 --  H 11          +50.3% ( 72.5%)   100.0%
 T-DIPOLE    0.0651        C  2 --  H 12          +45.3% ( 68.8%)   100.0%
 TRAVEL      0.1261        C  1 --  C  2           +1.0% ( 10.2%)     0.0%
 RED. MASS   0.4639        C  1 --  C  7           +0.6% (  7.8%)    14.1%
 EFF. MASS   1.4395

 VIBRATION   58   58A       ATOM PAIR        ENERGY CONTRIBUTION    RADIAL
 FREQ.      2948.09        C  2 --  H 12          +49.3% ( 72.0%)   100.0%
 T-DIPOLE    0.0771        C  1 --  H 11          +44.4% ( 68.3%)   100.0%
 TRAVEL      0.1246        C  1 --  C  2           +1.2% ( 11.1%)    99.8%
 RED. MASS   0.4518        C  2 --  C  4           +0.6% (  7.9%)    12.6%
 EFF. MASS   1.4727

 VIBRATION   59   59A       ATOM PAIR        ENERGY CONTRIBUTION    RADIAL
 FREQ.      3029.98        C  8 --  H 24          +49.2% ( 71.1%)   100.0%
 T-DIPOLE    0.2315        C  7 --  H 23          +47.2% ( 69.7%)   100.0%
 TRAVEL      0.1216        C  8 --  C 10           +0.7% (  8.6%)    40.1%
 RED. MASS   0.4573        C  7 --  C  9           +0.7% (  8.5%)    40.1%
 EFF. MASS   1.5051

 VIBRATION   60   60A       ATOM PAIR        ENERGY CONTRIBUTION    RADIAL
 FREQ.      3032.07        C  7 --  H 23          +49.1% ( 71.0%)   100.0%
 T-DIPOLE    0.2997        C  8 --  H 24          +47.1% ( 69.5%)   100.0%
 TRAVEL      0.1218        C  7 --  C  9           +0.7% (  8.5%)    40.2%
 RED. MASS   0.4549        C  1 --  C  7           +0.7% (  8.4%)    14.9%
 EFF. MASS   1.4999

 VIBRATION   61   61A       ATOM PAIR        ENERGY CONTRIBUTION    RADIAL
 FREQ.      3037.84        C 10 --  H 26          +64.1% ( 81.4%)   100.0%
 T-DIPOLE    0.2199        C  9 --  H 25          +27.8% ( 53.6%)   100.0%
 TRAVEL      0.1207        C  4 --  H 15           +1.1% ( 10.5%)    97.9%
 RED. MASS   0.4852        C  8 --  C 10           +1.0% ( 10.4%)    38.9%
 EFF. MASS   1.5244

 VIBRATION   62   62A       ATOM PAIR        ENERGY CONTRIBUTION    RADIAL
 FREQ.      3037.88        C  9 --  H 25          +65.0% ( 81.9%)   100.0%
 T-DIPOLE    0.2564        C 10 --  H 26          +28.8% ( 54.5%)   100.0%
 TRAVEL      0.1205        C  7 --  C  9           +1.1% ( 10.6%)    39.1%
 RED. MASS   0.5016        C  5 --  H 17           +1.0% ( 10.1%)    98.0%
 EFF. MASS   1.5294

 VIBRATION   63   63A       ATOM PAIR        ENERGY CONTRIBUTION    RADIAL
 FREQ.      3038.22        C  4 --  H 15          +30.4% ( 57.5%)    97.9%
 T-DIPOLE    0.0384        C  3 --  H 14          +27.3% ( 54.4%)    97.8%
 TRAVEL      0.1201        C  4 --  H 16          +20.4% ( 47.1%)    95.5%
 RED. MASS   0.2684        C  3 --  H 13          +18.4% ( 44.7%)    95.6%
 EFF. MASS   1.5382

 VIBRATION   64   64A       ATOM PAIR        ENERGY CONTRIBUTION    RADIAL
 FREQ.      3040.94        C  3 --  H 14          +29.8% ( 56.8%)    97.9%
 T-DIPOLE    0.0970        C  4 --  H 15          +26.1% ( 53.2%)    97.9%
 TRAVEL      0.1198        C  3 --  H 13          +19.8% ( 46.3%)    95.4%
 RED. MASS   0.2503        C  4 --  H 16          +17.3% ( 43.2%)    95.4%
 EFF. MASS   1.5454

 VIBRATION   65   65A       ATOM PAIR        ENERGY CONTRIBUTION    RADIAL
 FREQ.      3069.71        C  6 --  H 19          +49.1% ( 72.3%)    97.1%
 T-DIPOLE    0.0234        C  6 --  H 22          +48.8% ( 72.1%)    97.0%
 TRAVEL      0.1210        C  6 --  C 10           +1.0% ( 10.2%)     0.0%
 RED. MASS   0.5077        C  6 --  H 20           +0.9% (  9.9%)     0.0%
 EFF. MASS   1.5010

 VIBRATION   66   66A       ATOM PAIR        ENERGY CONTRIBUTION    RADIAL
 FREQ.      3069.83        C  5 --  H 18          +49.0% ( 72.2%)    97.0%
 T-DIPOLE    0.0216        C  5 --  H 21          +49.0% ( 72.2%)    97.0%
 TRAVEL      0.1210        C  5 --  C  9           +1.0% ( 10.2%)     0.0%
 RED. MASS   0.5077        C  5 --  H 17           +0.9% (  9.9%)     0.0%
 EFF. MASS   1.5010

 VIBRATION   67   67A       ATOM PAIR        ENERGY CONTRIBUTION    RADIAL
 FREQ.      3075.64        C  5 --  H 17          +62.1% ( 81.3%)    98.9%
 T-DIPOLE    0.0633        C  5 --  H 21          +17.1% ( 42.6%)    85.0%
 TRAVEL      0.1206        C  5 --  H 18          +17.0% ( 42.5%)    84.9%
 RED. MASS   0.4717        C  9 --  H 25           +2.0% ( 14.4%)   100.0%
 EFF. MASS   1.5083

 VIBRATION   68   68A       ATOM PAIR        ENERGY CONTRIBUTION    RADIAL
 FREQ.      3075.65        C  6 --  H 20          +62.1% ( 81.2%)    98.9%
 T-DIPOLE    0.0548        C  6 --  H 22          +17.2% ( 42.8%)    85.1%
 TRAVEL      0.1206        C  6 --  H 19          +16.9% ( 42.4%)    84.8%
 RED. MASS   0.4711        C 10 --  H 26           +1.9% ( 14.4%)   100.0%
 EFF. MASS   1.5083

 VIBRATION   69   69A       ATOM PAIR        ENERGY CONTRIBUTION    RADIAL
 FREQ.      3103.17        C  4 --  H 16          +30.6% ( 54.9%)    98.4%
 T-DIPOLE    0.1137        C  3 --  H 13          +28.9% ( 53.3%)    98.4%
 TRAVEL      0.1312        C  4 --  H 15          +19.8% ( 44.1%)    95.5%
 RED. MASS   0.2515        C  3 --  H 14          +18.8% ( 43.0%)    95.5%
 EFF. MASS   1.2627

 VIBRATION   70   70A       ATOM PAIR        ENERGY CONTRIBUTION    RADIAL
 FREQ.      3105.95        C  3 --  H 13          +30.5% ( 54.8%)    98.2%
 T-DIPOLE    0.0060        C  4 --  H 16          +28.9% ( 53.4%)    98.2%
 TRAVEL      0.1290        C  3 --  H 14          +19.7% ( 44.1%)    95.1%
 RED. MASS   0.2520        C  4 --  H 15          +18.6% ( 42.8%)    95.1%
 EFF. MASS   1.3052

 VIBRATION   71   71A       ATOM PAIR        ENERGY CONTRIBUTION    RADIAL
 FREQ.      3169.50        C  6 --  H 20          +34.3% ( 56.4%)    97.3%
 T-DIPOLE    0.0756        C  6 --  H 22          +32.2% ( 54.6%)    97.0%
 TRAVEL      0.1366        C  6 --  H 19          +32.1% ( 54.6%)    97.0%
 RED. MASS   0.3207        C  5 --  H 17           +0.3% (  5.7%)    97.2%
 EFF. MASS   1.1394

 VIBRATION   72   72A       ATOM PAIR        ENERGY CONTRIBUTION    RADIAL
 FREQ.      3169.55        C  5 --  H 17          +34.3% ( 56.3%)    97.2%
 T-DIPOLE    0.0648        C  5 --  H 18          +32.2% ( 54.7%)    97.0%
 TRAVEL      0.1366        C  5 --  H 21          +32.2% ( 54.6%)    97.0%
 RED. MASS   0.3207        C  6 --  H 20           +0.3% (  5.7%)    97.3%
 EFF. MASS   1.1394

 SYMMETRY NUMBER FOR POINT-GROUP C1  =  1


          SYSTEM IS A GROUND STATE


    NULL



          MOLECULE IS NOT LINEAR

          THERE ARE 72 GENUINE VIBRATIONS IN THIS SYSTEM
          THIS THERMODYNAMICS CALCULATION IS LIMITED TO
          MOLECULES WHICH HAVE NO INTERNAL ROTATIONS




                    CALCULATED THERMODYNAMIC PROPERTIES
                                          *
   TEMP. (K)   PARTITION FUNCTION   H.O.F.    ENTHALPY  HEAT CAPACITY ENTROPY
                                   KCAL/MOL   CAL/MOLE    CAL/K/MOL  CAL/K/MOL


 298.00  VIB.     0.7832D+04                  5477.4355    36.0484    36.1978
         ROT.     0.1043D+07                   888.2813     2.9808    30.5181
         INT.     0.8166D+10                  6365.7168    39.0292    66.7159
         TRA.     0.1537D+28                  1480.4688     4.9680    40.6375
         TOT.                       13.036    7846.1857    43.9972   107.3534

 200.00  VIB.     0.3572D+03                  2566.1469    23.8740    24.5122
         ROT.     0.5733D+06                   596.1620     2.9808    29.3294
         INT.     0.2048D+09                  3162.3089    26.8548    53.8417
         TRA.     0.8452D+27                   993.6033     4.9680    38.6564
         TOT.                        9.346    4155.9121    31.8228    92.4981

 210.00  VIB.     0.4928D+03                  2810.3083    24.9644    25.7033
         ROT.     0.6168D+06                   625.9700     2.9808    29.4749
         INT.     0.3040D+09                  3436.2784    27.9453    55.1782
         TRA.     0.9094D+27                  1043.2834     4.9680    38.8988
         TOT.                        9.669    4479.5618    32.9133    94.0769

 220.00  VIB.     0.6784D+03                  3065.5611    26.0925    26.8905
         ROT.     0.6614D+06                   655.7781     2.9808    29.6136
         INT.     0.4487D+09                  3721.3393    29.0733    56.5041
         TRA.     0.9752D+27                  1092.9636     4.9680    39.1299
         TOT.                       10.004    4814.3028    34.0413    95.6339

 230.00  VIB.     0.9323D+03                  3332.2854    27.2587    28.0760
         ROT.     0.7070D+06                   685.5862     2.9808    29.7461
         INT.     0.6591D+09                  4017.8717    30.2396    57.8220
         TRA.     0.1042D+28                  1142.6437     4.9680    39.3507
         TOT.                       10.350    5160.5154    35.2076    97.1727

 240.00  VIB.     0.1279D+04                  3610.8613    28.4626    29.2614
         ROT.     0.7536D+06                   715.3943     2.9808    29.8729
         INT.     0.9639D+09                  4326.2556    31.4434    59.1343
         TRA.     0.1111D+28                  1192.3239     4.9680    39.5621
         TOT.                       10.708    5518.5795    36.4114    98.6965

 250.00  VIB.     0.1752D+04                  3901.6559    29.7021    30.4483
         ROT.     0.8012D+06                   745.2024     2.9808    29.9946
         INT.     0.1404D+10                  4646.8583    32.6829    60.4429
         TRA.     0.1181D+28                  1242.0041     4.9680    39.7650
         TOT.                       11.079    5888.8624    37.6509   100.2079

 260.00  VIB.     0.2397D+04                  4205.0139    30.9747    31.6379
         ROT.     0.8497D+06                   775.0105     2.9808    30.1115
         INT.     0.2037D+10                  4980.0244    33.9555    61.7494
         TRA.     0.1253D+28                  1291.6842     4.9680    39.9598
         TOT.                       11.462    6271.7086    38.9236   101.7092

 270.00  VIB.     0.3277D+04                  4521.2494    32.2770    32.8313
         ROT.     0.8992D+06                   804.8186     2.9808    30.2240
         INT.     0.2947D+10                  5326.0681    35.2578    63.0553
         TRA.     0.1326D+28                  1341.3644     4.9680    40.1473
         TOT.                       11.857    6667.4325    40.2259   103.2026

 280.00  VIB.     0.4476D+04                  4850.6410    33.6053    34.0290
         ROT.     0.9496D+06                   834.6267     2.9808    30.3324
         INT.     0.4250D+10                  5685.2677    36.5861    64.3614
         TRA.     0.1400D+28                  1391.0445     4.9680    40.3280
         TOT.                       12.266    7076.3122    41.5541   104.6894

 290.00  VIB.     0.6109D+04                  5193.4275    34.9553    35.2318
         ROT.     0.1001D+07                   864.4348     2.9808    30.4370
         INT.     0.6115D+10                  6057.8623    37.9362    65.6688
         TRA.     0.1476D+28                  1440.7247     4.9680    40.5023
         TOT.                       12.688    7498.5870    42.9042   106.1711

 300.00  VIB.     0.8333D+04                  5549.8069    36.3231    36.4398
         ROT.     0.1053D+07                   894.2429     2.9808    30.5381
         INT.     0.8776D+10                  6444.0498    39.3039    66.9779
         TRA.     0.1553D+28                  1490.4049     4.9680    40.6707
         TOT.                       13.124    7934.4547    44.2720   107.6486

 310.00  VIB.     0.1136D+05                  5919.9354    37.7045    37.6533
         ROT.     0.1106D+07                   924.0510     2.9808    30.6358
         INT.     0.1257D+11                  6843.9865    40.6853    68.2892
         TRA.     0.1631D+28                  1540.0850     4.9680    40.8336
         TOT.                       13.574    8384.0715    45.6533   109.1228

 320.00  VIB.     0.1549D+05                  6303.9282    39.0953    38.8724
         ROT.     0.1160D+07                   953.8591     2.9808    30.7304
         INT.     0.1797D+11                  7257.7873    42.0761    69.6028
         TRA.     0.1711D+28                  1589.7652     4.9680    40.9914
         TOT.                       14.037    8847.5525    47.0442   110.5942

 330.00  VIB.     0.2112D+05                  6701.8608    40.4918    40.0968
         ROT.     0.1215D+07                   983.6672     2.9808    30.8222
         INT.     0.2566D+11                  7685.5280    43.4726    70.9189
         TRA.     0.1791D+28                  1639.4454     4.9680    41.1442
         TOT.                       14.515    9324.9734    48.4406   112.0632

 340.00  VIB.     0.2878D+05                  7113.7713    41.8903    41.3263
         ROT.     0.1271D+07                  1013.4753     2.9808    30.9112
         INT.     0.3657D+11                  8127.2466    44.8711    72.2375
         TRA.     0.1874D+28                  1689.1255     4.9680    41.2926
         TOT.                       15.006    9816.3721    49.8392   113.5300

 350.00  VIB.     0.3923D+05                  7539.6629    43.2875    42.5608
         ROT.     0.1327D+07                  1043.2834     2.9808    30.9976
         INT.     0.5206D+11                  8582.9463    46.2683    73.5583
         TRA.     0.1957D+28                  1738.8057     4.9680    41.4366
         TOT.                       15.512   10321.7520    51.2363   114.9949

 360.00  VIB.     0.5347D+05                  7979.5065    44.6803    43.7998
         ROT.     0.1384D+07                  1073.0915     2.9808    31.0815
         INT.     0.7403D+11                  9052.5980    47.6611    74.8813
         TRA.     0.2041D+28                  1788.4859     4.9680    41.5765
         TOT.                       16.031   10841.0839    52.6291   116.4578

 370.00  VIB.     0.7290D+05                  8433.2441    46.0659    45.0429
         ROT.     0.1443D+07                  1102.8996     2.9808    31.1632
         INT.     0.1052D+12                  9536.1437    49.0467    76.2061
         TRA.     0.2127D+28                  1838.1660     4.9680    41.7126
         TOT.                       16.564   11374.3097    54.0147   117.9187

 380.00  VIB.     0.9940D+05                  8900.7914    47.4418    46.2897
         ROT.     0.1501D+07                  1132.7077     2.9808    31.2427
         INT.     0.1492D+12                 10033.4991    50.4226    77.5324
         TRA.     0.2214D+28                  1887.8462     4.9680    41.8451
         TOT.                       17.111   11921.3453    55.3906   119.3775

 390.00  VIB.     0.1356D+06                  9382.0412    48.8060    47.5397
         ROT.     0.1561D+07                  1162.5158     2.9808    31.3201
         INT.     0.2116D+12                 10544.5570    51.7868    78.8598
         TRA.     0.2302D+28                  1937.5263     4.9680    41.9742
         TOT.                       17.672   12482.0833    56.7548   120.8339

 400.00  VIB.     0.1849D+06                  9876.8659    50.1565    48.7924
         ROT.     0.1621D+07                  1192.3239     2.9808    31.3956
         INT.     0.2998D+12                 11069.1898    53.1373    80.1880
         TRA.     0.2391D+28                  1987.2065     4.9680    42.1000
         TOT.                       18.246   13056.3963    58.1053   122.2879

   *: NOTE: HEATS OF FORMATION ARE RELATIVE TO THE
            ELEMENTS IN THEIR STANDARD STATE AT 298K
              (=  Standard Enthalpy of Formation).

            Hvib:  Zero-point energy is not included.
                   frequencies of less than zero cm-1 are not included.
            Hrot = (3/2)RT
            Htra = (3/2)RT + pV = (5/2)RT

            Heat capacity is Cp, not Cv

           For more information, see: HTTP://OpenMOPAC.net/Manual/thermochemistry.html


           FORCE CONSTANT IN CARTESIAN COORDINATES (Millidynes/A)

    ATOM   CHEMICAL       X               Y               Z
   NUMBER   SYMBOL  FORCE CONSTANT  FORCE CONSTANT  FORCE CONSTANT

      1       C       10.044658        5.935018        9.278182
      2       C       10.044562        5.932176        9.278160
      3       C        5.897651        9.669381        8.663223
      4       C        5.898489        9.667401        8.658530
      5       C        8.620148        7.943299        8.882522
      6       C        8.619897        7.942610        8.882605
      7       C       15.561879        2.481575        9.354912
      8       C       15.562338        2.483329        9.354489
      9       C       15.360066        2.380856        9.434355
     10       C       15.359504        2.380624        9.434139
     11       H        1.986925        0.656458        3.614597
     12       H        1.987001        0.656429        3.614775
     13       H        0.666775        2.258051        3.717369
     14       H        0.682606        2.278520        3.672441
     15       H        0.682970        2.130616        3.820449
     16       H        0.666852        2.411709        3.563710
     17       H        2.032447        0.656482        4.080381
     18       H        2.256981        3.731134        0.676927
     19       H        2.190373        3.792826        0.680826
     20       H        2.032835        0.656364        4.080287
     21       H        2.195331        3.788217        0.681026
     22       H        2.261604        3.725978        0.677098
     23       H        1.703530        0.359924        4.129832
     24       H        1.703770        0.359846        4.129584
     25       H        1.701433        0.358591        4.156521
     26       H        1.701660        0.358296        4.156279



 TOTAL CPU TIME:             4.75 SECONDS

 == MOPAC DONE ==
