 *******************************************************************************
 ** Site#: 14399           For non-commercial use only        Version 13.159M **
 *******************************************************************************
 ** Cite this work as: MOPAC2012, James J. P. Stewart, Stewart Computational  **
 ** Chemistry, Version 13.159M web: HTTP://OpenMOPAC.net  Days remaining:   6 **
 *******************************************************************************
 **                                                                           **
 **                                MOPAC2012                                  **
 **                                                                           **
 *******************************************************************************

                            PM3 CALCULATION RESULTS


 *******************************************************************************
 *  CALCULATION DONE:                                Mon Jun  2 11:10:19 2014  *
 *  PM3      - The PM3 Hamiltonian to be used
 *  PRECISE  - CRITERIA TO BE INCREASED BY 100 TIMES
 *  NOSYM    - POINT-GROUP SYMMETRY SET TO C1
 *  T=       - A TIME OF 172800.0 SECONDS REQUESTED
 *  DUMP=N   - RESTART FILE WRITTEN EVERY  7200.000 SECONDS
 *******************************************************************************
pm3  precise nosym
 InChI=1S/C6H10/c1-6-4-2-3-5-6/h2,4,6H,3,5H2,1H3

   ATOM   CHEMICAL          X               Y               Z
  NUMBER   SYMBOL      (ANGSTROMS)     (ANGSTROMS)     (ANGSTROMS)
 
     1       C          0.57180000  *  -0.22950000  *   0.59540000  *
     2       C         -0.00560000  *   1.14990000  *   0.24490000  *
     3       C         -1.36550000  *   0.90860000  *  -0.41190000  *
     4       C          1.80290000  *  -0.60080000  *  -0.23080000  *
     5       C         -0.55960000  *  -1.15950000  *   0.31830000  *
     6       C         -1.59960000  *  -0.54670000  *  -0.22320000  *
     7       H          0.82960000  *  -0.28370000  *   1.67920000  *
     8       H         -0.14830000  *   1.73960000  *   1.18120000  *
     9       H          0.65410000  *   1.76200000  *  -0.41400000  *
    10       H         -2.17250000  *   1.49920000  *   0.07940000  *
    11       H         -1.34230000  *   1.13850000  *  -1.50190000  *
    12       H          2.63370000  *   0.11070000  *  -0.02080000  *
    13       H          1.58590000  *  -0.57470000  *  -1.32390000  *
    14       H          2.15960000  *  -1.62230000  *   0.03510000  *
    15       H         -0.53370000  *  -2.22990000  *   0.51480000  *
    16       H         -2.51060000  *  -1.06150000  *  -0.52200000  *
 


          CARTESIAN COORDINATES 

    NO.       ATOM         X         Y         Z

     1         C        0.5718   -0.2295    0.5954
     2         C       -0.0056    1.1499    0.2449
     3         C       -1.3655    0.9086   -0.4119
     4         C        1.8029   -0.6008   -0.2308
     5         C       -0.5596   -1.1595    0.3183
     6         C       -1.5996   -0.5467   -0.2232
     7         H        0.8296   -0.2837    1.6792
     8         H       -0.1483    1.7396    1.1812
     9         H        0.6541    1.7620   -0.4140
    10         H       -2.1725    1.4992    0.0794
    11         H       -1.3423    1.1385   -1.5019
    12         H        2.6337    0.1107   -0.0208
    13         H        1.5859   -0.5747   -1.3239
    14         H        2.1596   -1.6223    0.0351
    15         H       -0.5337   -2.2299    0.5148
    16         H       -2.5106   -1.0615   -0.5220

  H: (PM3): J. J. P. STEWART, J. COMP. CHEM. 10, 209 (1989).
  C: (PM3): J. J. P. STEWART, J. COMP. CHEM. 10, 209 (1989).

           Empirical Formula: C6 H10  =    16 atoms



      MOLECULAR POINT GROUP   :   C1  


      RHF CALCULATION, NO. OF DOUBLY OCCUPIED LEVELS =   17

      Geometry optimization using EF

          DIAGONAL MATRIX USED AS START HESSIAN

 CYCLE:     1 TIME:   0.005 TIME LEFT:  2.00D  GRAD.:    54.193 HEAT:-.6161063
 CYCLE:     2 TIME:   0.011 TIME LEFT:  2.00D  GRAD.:    47.203 HEAT:-1.284074
 CYCLE:     3 TIME:   0.003 TIME LEFT:  2.00D  GRAD.:    35.308 HEAT:-1.670536
 CYCLE:     4 TIME:   0.003 TIME LEFT:  2.00D  GRAD.:    34.321 HEAT:-1.784643
 CYCLE:     5 TIME:   0.003 TIME LEFT:  2.00D  GRAD.:    33.880 HEAT:-1.913288
 CYCLE:     6 TIME:   0.003 TIME LEFT:  2.00D  GRAD.:    32.102 HEAT:-1.999144
 CYCLE:     7 TIME:   0.003 TIME LEFT:  2.00D  GRAD.:    17.642 HEAT:-2.253122
 CYCLE:     8 TIME:   0.006 TIME LEFT:  2.00D  GRAD.:    13.045 HEAT:-2.318291
 CYCLE:     9 TIME:   0.003 TIME LEFT:  2.00D  GRAD.:    14.300 HEAT:-2.340795
 CYCLE:    10 TIME:   0.006 TIME LEFT:  2.00D  GRAD.:     6.882 HEAT:-2.396347
 CYCLE:    11 TIME:   0.006 TIME LEFT:  2.00D  GRAD.:     5.053 HEAT:-2.412846
 CYCLE:    12 TIME:   0.003 TIME LEFT:  2.00D  GRAD.:     6.055 HEAT:-2.425572
 CYCLE:    13 TIME:   0.003 TIME LEFT:  2.00D  GRAD.:     4.294 HEAT:-2.450357
 CYCLE:    14 TIME:   0.003 TIME LEFT:  2.00D  GRAD.:     7.433 HEAT:-2.453725
 CYCLE:    15 TIME:   0.003 TIME LEFT:  2.00D  GRAD.:     4.592 HEAT:-2.467974
 CYCLE:    16 TIME:   0.006 TIME LEFT:  2.00D  GRAD.:     3.445 HEAT:-2.474226
 CYCLE:    17 TIME:   0.003 TIME LEFT:  2.00D  GRAD.:     3.166 HEAT:-2.478833
 CYCLE:    18 TIME:   0.005 TIME LEFT:  2.00D  GRAD.:     3.183 HEAT:-2.485783
 CYCLE:    19 TIME:   0.006 TIME LEFT:  2.00D  GRAD.:     2.692 HEAT:-2.493550
 CYCLE:    20 TIME:   0.004 TIME LEFT:  2.00D  GRAD.:     2.483 HEAT:-2.502064
 CYCLE:    21 TIME:   0.005 TIME LEFT:  2.00D  GRAD.:     2.175 HEAT:-2.507613
 CYCLE:    22 TIME:   0.004 TIME LEFT:  2.00D  GRAD.:     1.759 HEAT:-2.513081
 CYCLE:    23 TIME:   0.004 TIME LEFT:  2.00D  GRAD.:     1.812 HEAT:-2.520585
 CYCLE:    24 TIME:   0.003 TIME LEFT:  2.00D  GRAD.:     2.004 HEAT:-2.528581
 CYCLE:    25 TIME:   0.003 TIME LEFT:  2.00D  GRAD.:     2.164 HEAT:-2.538455
 CYCLE:    26 TIME:   0.003 TIME LEFT:  2.00D  GRAD.:     2.502 HEAT:-2.548661
 CYCLE:    27 TIME:   0.003 TIME LEFT:  2.00D  GRAD.:     2.865 HEAT:-2.563146
 CYCLE:    28 TIME:   0.004 TIME LEFT:  2.00D  GRAD.:     3.352 HEAT:-2.585995
 CYCLE:    29 TIME:   0.003 TIME LEFT:  2.00D  GRAD.:     3.944 HEAT:-2.618921
 CYCLE:    30 TIME:   0.003 TIME LEFT:  2.00D  GRAD.:     3.993 HEAT:-2.640756
 CYCLE:    31 TIME:   0.003 TIME LEFT:  2.00D  GRAD.:     2.940 HEAT:-2.655643
 CYCLE:    32 TIME:   0.003 TIME LEFT:  2.00D  GRAD.:     2.220 HEAT:-2.666770
 CYCLE:    33 TIME:   0.003 TIME LEFT:  2.00D  GRAD.:     2.171 HEAT:-2.679115
 CYCLE:    34 TIME:   0.003 TIME LEFT:  2.00D  GRAD.:     1.945 HEAT:-2.686028
 CYCLE:    35 TIME:   0.003 TIME LEFT:  2.00D  GRAD.:     1.266 HEAT:-2.691934
 CYCLE:    36 TIME:   0.003 TIME LEFT:  2.00D  GRAD.:     1.133 HEAT:-2.694983
 CYCLE:    37 TIME:   0.003 TIME LEFT:  2.00D  GRAD.:     0.950 HEAT:-2.697671
 CYCLE:    38 TIME:   0.003 TIME LEFT:  2.00D  GRAD.:     0.811 HEAT:-2.700195
 CYCLE:    39 TIME:   0.003 TIME LEFT:  2.00D  GRAD.:     0.477 HEAT:-2.701201
 CYCLE:    40 TIME:   0.004 TIME LEFT:  2.00D  GRAD.:     0.375 HEAT:-2.701584
 CYCLE:    41 TIME:   0.003 TIME LEFT:  2.00D  GRAD.:     0.273 HEAT:-2.701728
 CYCLE:    42 TIME:   0.003 TIME LEFT:  2.00D  GRAD.:     0.228 HEAT:-2.701850
 CYCLE:    43 TIME:   0.004 TIME LEFT:  2.00D  GRAD.:     0.151 HEAT:-2.701949
 CYCLE:    44 TIME:   0.005 TIME LEFT:  2.00D  GRAD.:     0.131 HEAT:-2.702008
 CYCLE:    45 TIME:   0.004 TIME LEFT:  2.00D  GRAD.:     0.124 HEAT:-2.702048
 CYCLE:    46 TIME:   0.005 TIME LEFT:  2.00D  GRAD.:     0.111 HEAT:-2.702093
 CYCLE:    47 TIME:   0.005 TIME LEFT:  2.00D  GRAD.:     0.107 HEAT:-2.702125
 CYCLE:    48 TIME:   0.003 TIME LEFT:  2.00D  GRAD.:     0.097 HEAT:-2.702150
 CYCLE:    49 TIME:   0.003 TIME LEFT:  2.00D  GRAD.:     0.125 HEAT:-2.702187
 CYCLE:    50 TIME:   0.003 TIME LEFT:  2.00D  GRAD.:     0.127 HEAT:-2.702214
 CYCLE:    51 TIME:   0.003 TIME LEFT:  2.00D  GRAD.:     0.140 HEAT:-2.702319
 CYCLE:    52 TIME:   0.004 TIME LEFT:  2.00D  GRAD.:     0.168 HEAT:-2.702385
 CYCLE:    53 TIME:   0.005 TIME LEFT:  2.00D  GRAD.:     0.115 HEAT:-2.702446
 CYCLE:    54 TIME:   0.004 TIME LEFT:  2.00D  GRAD.:     0.068 HEAT:-2.702475
 CYCLE:    55 TIME:   0.005 TIME LEFT:  2.00D  GRAD.:     0.058 HEAT:-2.702485
 CYCLE:    56 TIME:   0.005 TIME LEFT:  2.00D  GRAD.:     0.066 HEAT:-2.702493
 CYCLE:    57 TIME:   0.004 TIME LEFT:  2.00D  GRAD.:     0.085 HEAT:-2.702505
 CYCLE:    58 TIME:   0.004 TIME LEFT:  2.00D  GRAD.:     0.066 HEAT:-2.702516
 CYCLE:    59 TIME:   0.005 TIME LEFT:  2.00D  GRAD.:     0.080 HEAT:-2.702528
 CYCLE:    60 TIME:   0.005 TIME LEFT:  2.00D  GRAD.:     0.057 HEAT:-2.702540
 CYCLE:    61 TIME:   0.005 TIME LEFT:  2.00D  GRAD.:     0.039 HEAT:-2.702545

     RMS GRADIENT =  0.03923  IS LESS THAN CUTOFF =  0.05000



 -------------------------------------------------------------------------------
pm3  precise nosym
 InChI=1S/C6H10/c1-6-4-2-3-5-6/h2,4,6H,3,5H2,1H3



     GEOMETRY OPTIMISED USING EIGENVECTOR FOLLOWING (EF).     
     SCF FIELD WAS ACHIEVED                                   


                              PM3 CALCULATION
                                                       MOPAC2012 (Version: 13.159M)
                                                       Mon Jun  2 11:10:20 2014
                                                       No. of days left =   6




          FINAL HEAT OF FORMATION =         -2.70255 KCAL/MOL =     -11.30745 KJ/MOL


          TOTAL ENERGY            =       -865.28648 EV
          ELECTRONIC ENERGY       =      -3855.21045 EV  POINT GROUP:     C1  
          CORE-CORE REPULSION     =       2989.92398 EV
          COSMO AREA              =        131.76 SQUARE ANGSTROMS
          COSMO VOLUME            =        123.20 CUBIC ANGSTROMS

          GRADIENT NORM           =          0.03923
          IONIZATION POTENTIAL    =          9.614872 EV
          HOMO LUMO ENERGIES (EV) =         -9.615  1.140
          NO. OF FILLED LEVELS    =         17
          MOLECULAR WEIGHT        =         82.145

          MOLECULAR DIMENSIONS (Angstroms)

            Atom       Atom       Distance
            H    16    H    12     5.37253
            H    15    H    11     4.07387
            H    13    H     8     3.29136


          SCF CALCULATIONS        =         68
          COMPUTATION TIME        =          0.261 SECONDS




   ATOM   CHEMICAL          X               Y               Z
  NUMBER   SYMBOL      (ANGSTROMS)     (ANGSTROMS)     (ANGSTROMS)
 
     1       C          0.55977443  *  -0.23408464  *   0.57442196  *
     2       C          0.01836443  *   1.15061613  *   0.15753004  *
     3       C         -1.41987542  *   0.92162362  *  -0.32971531  *
     4       C          1.84341689  *  -0.60029801  *  -0.14256947  *
     5       C         -0.55346660  *  -1.18711452  *   0.24166385  *
     6       C         -1.62777070  *  -0.55614547  *  -0.24355774  *
     7       H          0.73800144  *  -0.26259197  *   1.67533118  *
     8       H          0.04864094  *   1.86024597  *   1.00306413  *
     9       H          0.64170600  *   1.60278840  *  -0.63587521  *
    10       H         -2.16007025  *   1.45694573  *   0.29317785  *
    11       H         -1.57255370  *   1.28099205  *  -1.36383249  *
    12       H          2.64678027  *   0.10828424  *   0.09674841  *
    13       H          1.71655120  *  -0.59798070  *  -1.23325217  *
    14       H          2.18619676  *  -1.60242379  *   0.14564633  *
    15       H         -0.44011304  *  -2.25942991  *   0.39872333  *
    16       H         -2.56693823  *  -1.01433311  *  -0.55206168  *

           Empirical Formula: C6 H10  =    16 atoms



      MOLECULAR POINT GROUP   :   C1  


                  EIGENVALUES  
 -40.43190 -31.33250 -28.01390 -24.23505 -19.84639 -18.48314 -17.42726 -16.11684
 -14.41447 -14.10772 -13.54453 -13.07312 -12.84127 -12.27820 -12.00819 -11.81830
  -9.61487   1.13999   3.42908   3.53208   3.72013   3.79334   3.87116   4.08906
   4.17562   4.26357   4.32203   4.57883   4.65593   4.74493   5.15963   5.26097
   5.63854   6.01440


              NET ATOMIC CHARGES AND DIPOLE CONTRIBUTIONS

  ATOM NO.   TYPE          CHARGE      No. of ELECS.   s-Pop       p-Pop       
    1          C          -0.045852        4.0459     1.17030     2.87555
    2          C          -0.100975        4.1010     1.16934     2.93163
    3          C          -0.065050        4.0650     1.15384     2.91121
    4          C          -0.103028        4.1030     1.13920     2.96382
    5          C          -0.154972        4.1550     1.20469     2.95028
    6          C          -0.151434        4.1514     1.20200     2.94944
    7          H           0.066282        0.9337     0.93372
    8          H           0.049505        0.9505     0.95050
    9          H           0.054387        0.9456     0.94561
   10          H           0.055007        0.9450     0.94499
   11          H           0.054900        0.9451     0.94510
   12          H           0.037954        0.9620     0.96205
   13          H           0.042468        0.9575     0.95753
   14          H           0.038685        0.9613     0.96132
   15          H           0.112101        0.8879     0.88790
   16          H           0.110021        0.8900     0.88998
 DIPOLE           X         Y         Z       TOTAL
 POINT-CHG.     0.069     0.138     0.008     0.155
 HYBRID        -0.012    -0.015    -0.018     0.027
 SUM            0.057     0.123    -0.010     0.136


          ATOMIC ORBITAL ELECTRON POPULATIONS

    Atom      s        px        py        pz   
    1  C   1.17030   0.94448   0.93781   0.99326
    2  C   1.16934   0.96160   0.96252   1.00751
    3  C   1.15384   0.96079   0.94604   1.00439
    4  C   1.13920   0.96033   1.00375   0.99974
    5  C   1.20469   0.96126   0.98277   1.00625
    6  C   1.20200   0.98169   0.96305   1.00470
    7  H   0.93372
    8  H   0.95050
    9  H   0.94561
   10  H   0.94499
   11  H   0.94510
   12  H   0.96205
   13  H   0.95753
   14  H   0.96132
   15  H   0.88790
   16  H   0.88998
 *******************************************************************************
 ** Site#: 14399           For non-commercial use only        Version 13.159M **
 *******************************************************************************
 ** Cite this work as: MOPAC2012, James J. P. Stewart, Stewart Computational  **
 ** Chemistry, Version 13.159M web: HTTP://OpenMOPAC.net  Days remaining:   6 **
 *******************************************************************************
 **                                                                           **
 **                                MOPAC2012                                  **
 **                                                                           **
 *******************************************************************************

                            PM3 CALCULATION RESULTS


 *******************************************************************************
 *  CALCULATION DONE:                                Mon Jun  2 11:10:20 2014  *
 *  PM3      - The PM3 Hamiltonian to be used
 *  OLDGEO   - PREVIOUS GEOMETRY TO BE USED
 *  PRECISE  - CRITERIA TO BE INCREASED BY 100 TIMES
 *  NOSYM    - POINT-GROUP SYMMETRY SET TO C1
 *  T=       - A TIME OF 172800.0 SECONDS REQUESTED
 *  DUMP=N   - RESTART FILE WRITTEN EVERY  7200.000 SECONDS
 *  THERMO   - THERMODYNAMIC QUANTITIES TO BE CALCULATED
 *******************************************************************************
oldgeo thermo nosym precise  pm3

   ATOM   CHEMICAL          X               Y               Z
  NUMBER   SYMBOL      (ANGSTROMS)     (ANGSTROMS)     (ANGSTROMS)
 
     1       C          0.55977443  *  -0.23408464  *   0.57442196  *
     2       C          0.01836443  *   1.15061613  *   0.15753004  *
     3       C         -1.41987542  *   0.92162362  *  -0.32971531  *
     4       C          1.84341689  *  -0.60029801  *  -0.14256947  *
     5       C         -0.55346660  *  -1.18711452  *   0.24166385  *
     6       C         -1.62777070  *  -0.55614547  *  -0.24355774  *
     7       H          0.73800144  *  -0.26259197  *   1.67533118  *
     8       H          0.04864094  *   1.86024597  *   1.00306413  *
     9       H          0.64170600  *   1.60278840  *  -0.63587521  *
    10       H         -2.16007025  *   1.45694573  *   0.29317785  *
    11       H         -1.57255370  *   1.28099205  *  -1.36383249  *
    12       H          2.64678027  *   0.10828424  *   0.09674841  *
    13       H          1.71655120  *  -0.59798070  *  -1.23325217  *
    14       H          2.18619676  *  -1.60242379  *   0.14564633  *
    15       H         -0.44011304  *  -2.25942991  *   0.39872333  *
    16       H         -2.56693823  *  -1.01433311  *  -0.55206168  *
 


          CARTESIAN COORDINATES 

    NO.       ATOM         X         Y         Z

     1         C        0.5598   -0.2341    0.5744
     2         C        0.0184    1.1506    0.1575
     3         C       -1.4199    0.9216   -0.3297
     4         C        1.8434   -0.6003   -0.1426
     5         C       -0.5535   -1.1871    0.2417
     6         C       -1.6278   -0.5561   -0.2436
     7         H        0.7380   -0.2626    1.6753
     8         H        0.0486    1.8602    1.0031
     9         H        0.6417    1.6028   -0.6359
    10         H       -2.1601    1.4569    0.2932
    11         H       -1.5726    1.2810   -1.3638
    12         H        2.6468    0.1083    0.0967
    13         H        1.7166   -0.5980   -1.2333
    14         H        2.1862   -1.6024    0.1456
    15         H       -0.4401   -2.2594    0.3987
    16         H       -2.5669   -1.0143   -0.5521

  H: (PM3): J. J. P. STEWART, J. COMP. CHEM. 10, 209 (1989).
  C: (PM3): J. J. P. STEWART, J. COMP. CHEM. 10, 209 (1989).

           Empirical Formula: C6 H10  =    16 atoms



      MOLECULAR POINT GROUP   :   C1  


      RHF CALCULATION, NO. OF DOUBLY OCCUPIED LEVELS =   17



          HEAT OF FORMATION =      -2.702545 KCALS/MOLE


          INTERNAL COORDINATE DERIVATIVES

   NUMBER  ATOM       BOND         ANGLE      DIHEDRAL

     1       C     -0.001088     0.000146    -0.003683
     2       C     -0.003482    -0.002583    -0.006744
     3       C     -0.001693     0.000381    -0.000600
     4       C     -0.002499    -0.002797    -0.004887
     5       C     -0.000293     0.004766     0.005770
     6       C     -0.003225     0.003086     0.005823
     7       H      0.012039     0.014555     0.006535
     8       H     -0.004263     0.013948     0.002250
     9       H     -0.008075    -0.009348    -0.003799
    10       H      0.007655    -0.006660     0.003656
    11       H      0.003992     0.002322     0.001068
    12       H      0.002323    -0.000228     0.001672
    13       H      0.005010    -0.011919    -0.007252
    14       H     -0.005527    -0.004585    -0.008803
    15       H     -0.000082    -0.003431     0.004084
    16       H     -0.000792     0.002348     0.004910


          GRADIENT NORM =   0.03961


          TIME FOR SCF CALCULATION =    0.00

          TIME FOR DERIVATIVES     =    0.00

          MOLECULAR WEIGHT =   82.14



          ROTATIONAL CONSTANTS IN CM(-1)

          A =    0.21091210   B =    0.11090771   C =    0.08266417



           PRINCIPAL MOMENTS OF INERTIA IN UNITS OF 10**(-40)*GRAM-CM**2

          A =      132.7225   B =      252.3970   C =      338.6325


          ORIENTATION OF MOLECULE IN FORCE CALCULATION

    NO.       ATOM         X         Y         Z

     1          C      -0.5468   -0.6920    0.2335
     2          C       0.9973   -0.6920    0.2335
     3          C       1.4278    0.7821    0.2335
     4          C      -1.1317   -1.4797   -0.9212
     5          C      -0.9213    0.7615    0.1603
     6          C       0.1522    1.5585    0.1659
     7          H      -0.9321   -1.1129    1.1922
     8          H       1.3947   -1.2274    1.1138
     9          H       1.3984   -1.2253   -0.6481
    10          H       1.9992    1.0484    1.1418
    11          H       2.0828    1.0258   -0.6229
    12          H      -0.8426   -2.5372   -0.8660
    13          H      -0.7907   -1.0954   -1.8916
    14          H      -2.2284   -1.4335   -0.9171
    15          H      -1.9651    1.0704    0.1098
    16          H       0.1539    2.6475    0.1294


    FIRST DERIVATIVES WILL BE USED IN THE CALCULATION OF SECOND DERIVATIVES

          ESTIMATED TIME TO COMPLETE CALCULATION =        1.06 SECONDS

    FOR POINT-GROUP C1   THERE ARE   1 UNIQUE SYMMETRY FUNCTIONS.

 STEP:   1 TIME =     0.02 SECS, INTEGRAL =      0.02 TIME LEFT: 172799.98
 STEP:   2 TIME =     0.02 SECS, INTEGRAL =      0.04 TIME LEFT: 172799.96
 STEP:   3 TIME =     0.02 SECS, INTEGRAL =      0.06 TIME LEFT: 172799.94
 STEP:   4 TIME =     0.02 SECS, INTEGRAL =      0.07 TIME LEFT: 172799.92
 STEP:   5 TIME =     0.02 SECS, INTEGRAL =      0.09 TIME LEFT: 172799.91
 STEP:   6 TIME =     0.02 SECS, INTEGRAL =      0.10 TIME LEFT: 172799.89
 STEP:   7 TIME =     0.02 SECS, INTEGRAL =      0.12 TIME LEFT: 172799.87
 STEP:   8 TIME =     0.01 SECS, INTEGRAL =      0.13 TIME LEFT: 172799.86
 STEP:   9 TIME =     0.02 SECS, INTEGRAL =      0.15 TIME LEFT: 172799.84
 STEP:  10 TIME =     0.02 SECS, INTEGRAL =      0.17 TIME LEFT: 172799.82
 STEP:  11 TIME =     0.02 SECS, INTEGRAL =      0.19 TIME LEFT: 172799.80
 STEP:  12 TIME =     0.02 SECS, INTEGRAL =      0.21 TIME LEFT: 172799.79
 STEP:  13 TIME =     0.02 SECS, INTEGRAL =      0.22 TIME LEFT: 172799.77
 STEP:  14 TIME =     0.02 SECS, INTEGRAL =      0.24 TIME LEFT: 172799.76
 STEP:  15 TIME =     0.02 SECS, INTEGRAL =      0.26 TIME LEFT: 172799.74
 STEP:  16 TIME =     0.02 SECS, INTEGRAL =      0.28 TIME LEFT: 172799.72
 STEP:  17 TIME =     0.01 SECS, INTEGRAL =      0.29 TIME LEFT: 172799.70
 STEP:  18 TIME =     0.02 SECS, INTEGRAL =      0.31 TIME LEFT: 172799.69
 STEP:  19 TIME =     0.02 SECS, INTEGRAL =      0.32 TIME LEFT: 172799.67
 STEP:  20 TIME =     0.02 SECS, INTEGRAL =      0.34 TIME LEFT: 172799.65
 STEP:  21 TIME =     0.02 SECS, INTEGRAL =      0.36 TIME LEFT: 172799.64
 STEP:  22 TIME =     0.02 SECS, INTEGRAL =      0.38 TIME LEFT: 172799.62
 STEP:  23 TIME =     0.02 SECS, INTEGRAL =      0.40 TIME LEFT: 172799.59
 STEP:  24 TIME =     0.02 SECS, INTEGRAL =      0.42 TIME LEFT: 172799.57
 STEP:  25 TIME =     0.02 SECS, INTEGRAL =      0.44 TIME LEFT: 172799.55
 STEP:  26 TIME =     0.02 SECS, INTEGRAL =      0.46 TIME LEFT: 172799.54
 STEP:  27 TIME =     0.02 SECS, INTEGRAL =      0.48 TIME LEFT: 172799.51
 STEP:  28 TIME =     0.02 SECS, INTEGRAL =      0.50 TIME LEFT: 172799.50
 STEP:  29 TIME =     0.02 SECS, INTEGRAL =      0.52 TIME LEFT: 172799.48
 STEP:  30 TIME =     0.02 SECS, INTEGRAL =      0.54 TIME LEFT: 172799.46
 STEP:  31 TIME =     0.02 SECS, INTEGRAL =      0.56 TIME LEFT: 172799.44
 STEP:  32 TIME =     0.02 SECS, INTEGRAL =      0.57 TIME LEFT: 172799.42
 STEP:  33 TIME =     0.01 SECS, INTEGRAL =      0.59 TIME LEFT: 172799.41
 STEP:  34 TIME =     0.02 SECS, INTEGRAL =      0.60 TIME LEFT: 172799.39
 STEP:  35 TIME =     0.01 SECS, INTEGRAL =      0.62 TIME LEFT: 172799.38
 STEP:  36 TIME =     0.02 SECS, INTEGRAL =      0.64 TIME LEFT: 172799.36
 STEP:  37 TIME =     0.02 SECS, INTEGRAL =      0.66 TIME LEFT: 172799.34
 STEP:  38 TIME =     0.02 SECS, INTEGRAL =      0.67 TIME LEFT: 172799.32
 STEP:  39 TIME =     0.02 SECS, INTEGRAL =      0.69 TIME LEFT: 172799.30
 STEP:  40 TIME =     0.01 SECS, INTEGRAL =      0.71 TIME LEFT: 172799.29
 STEP:  41 TIME =     0.01 SECS, INTEGRAL =      0.72 TIME LEFT: 172799.27
 STEP:  42 TIME =     0.01 SECS, INTEGRAL =      0.74 TIME LEFT: 172799.26
 STEP:  43 TIME =     0.02 SECS, INTEGRAL =      0.75 TIME LEFT: 172799.24
 STEP:  44 TIME =     0.02 SECS, INTEGRAL =      0.77 TIME LEFT: 172799.22
 STEP:  45 TIME =     0.02 SECS, INTEGRAL =      0.80 TIME LEFT: 172799.20
 STEP:  46 TIME =     0.02 SECS, INTEGRAL =      0.82 TIME LEFT: 172799.18
 STEP:  47 TIME =     0.02 SECS, INTEGRAL =      0.84 TIME LEFT: 172799.16
 STEP:  48 TIME =     0.02 SECS, INTEGRAL =      0.86 TIME LEFT: 172799.14

(To convert to Hartree/Bohr^2, multiply by (10^(-21) x N x a0^2)/(4.184 x 627.51) = 0.0642)


           FORCE MATRIX IN MILLIDYNES/ANGSTROM


                  C  1       C  2       C  3       C  4       C  5       C  6
 ------------------------------------------------------------------------------
     C    1  14.699039
     C    2   3.503747  14.205598
     C    3   0.724161   3.772170  14.677307
     C    4   4.319616   0.585286   0.035786  14.410266
     C    5   4.473595   0.862760   1.184034   0.666500  18.380128
     C    6   1.142326   0.886560   4.744112   0.043611  10.610001  18.397103
     H    7   4.260537   0.421460   0.024412   0.428535   0.403291   0.037276
     H    8   0.438719   4.582646   0.440388   0.026169   0.030206   0.029708
     H    9   0.452784   4.536946   0.440013   0.062430   0.023658   0.025844
     H   10   0.026369   0.436321   4.516018   0.005288   0.037682   0.429532
     H   11   0.030958   0.435894   4.526289   0.001456   0.038816   0.430532
     H   12   0.453689   0.017709   0.002606   4.744058   0.050510   0.007512
     H   13   0.465906   0.020888   0.001408   4.734120   0.015065   0.002596
     H   14   0.453093   0.047118   0.004963   4.744781   0.021708   0.002716
     H   15   0.415430   0.040824   0.114178   0.011119   5.016533   0.448288
     H   16   0.115268   0.043114   0.412796   0.017083   0.449227   5.019637


                  H  7       H  8       H  9       H 10       H 11       H 12
 ------------------------------------------------------------------------------
     H    7   4.724165
     H    8   0.028863   5.187119
     H    9   0.027797   0.581921   5.157663
     H   10   0.001251   0.029183   0.028326   5.123026
     H   11   0.003707   0.026024   0.029367   0.573736   5.132626
     H   12   0.028640   0.001583   0.015906   0.000482   0.000308   5.477210
     H   13   0.045961   0.001428   0.023959   0.000485   0.000447   0.571464
     H   14   0.030307   0.004229   0.002727   0.001010   0.000422   0.567341
     H   15   0.014118   0.003101   0.002506   0.016067   0.015626   0.001772
     H   16   0.014965   0.003355   0.002761   0.014103   0.015062   0.002847


                  H 13       H 14       H 15       H 16
 ------------------------------------------------------
     H   13   5.472656
     H   14   0.573417   5.477648
     H   15   0.002350   0.007974   5.414057
     H   16   0.000790   0.000643   0.048236   5.416370


          HEAT OF FORMATION =      -2.702545 KCALS/MOLE

          ZERO POINT ENERGY      90.003 KCAL/MOL


           NORMAL COORDINATE ANALYSIS (Total motion = 1 Angstrom)


   Root No.       1         2         3         4         5         6         7         8

                 1 A       2 A       3 A       4 A       5 A       6 A       7 A       8 A   

                  90.4     194.9     276.6     379.2     496.0     657.8     754.7     770.6
  
           1    0.0059   -0.0055   -0.0136   -0.0267   -0.0053    0.0439    0.0192   -0.0048
           2    0.0063    0.0025    0.0171    0.0182   -0.0020    0.0342   -0.0259   -0.0228
           3   -0.0112    0.0042   -0.0267    0.0198   -0.0437   -0.0342    0.0042    0.0201
           4    0.0057   -0.0055   -0.0141   -0.0284   -0.0024    0.0307   -0.0105   -0.0163
           5    0.0059   -0.0040    0.0034   -0.0074    0.0162   -0.0436   -0.0357   -0.0052
           6   -0.0439    0.0119    0.0003   -0.0300    0.0115   -0.0042    0.0082   -0.0026
           7    0.0034    0.0017    0.0044   -0.0070    0.0127   -0.0386   -0.0567   -0.0142
           8    0.0066   -0.0067   -0.0027   -0.0189    0.0154   -0.0357   -0.0021    0.0075
           9    0.0480    0.0035   -0.0214   -0.0027    0.0080   -0.0041    0.0128   -0.0233
          10   -0.0234    0.0018    0.0085    0.0522   -0.0251    0.0150   -0.0024    0.0006
          11   -0.0271    0.0059   -0.0429   -0.0125   -0.0383    0.0179   -0.0175   -0.0043
          12    0.0275   -0.0022    0.0046    0.0015   -0.0213    0.0168   -0.0131    0.0042
          13    0.0061    0.0013    0.0027   -0.0108    0.0120   -0.0265    0.0571    0.0339
          14    0.0053    0.0040    0.0219    0.0253    0.0078    0.0235    0.0084   -0.0106
          15   -0.0315   -0.0053   -0.0193    0.0335    0.0481   -0.0006    0.0190   -0.0241
          16    0.0054    0.0056    0.0098    0.0067    0.0137   -0.0236   -0.0003    0.0048
          17    0.0063   -0.0015    0.0131    0.0039    0.0097    0.0113    0.0844    0.0288
          18    0.0048   -0.0122    0.0598   -0.0168   -0.0225   -0.0062    0.0063   -0.0133
          19    0.0287   -0.0099   -0.0280   -0.0292   -0.0074    0.0564   -0.0051   -0.0222
          20    0.0333    0.0014    0.0452    0.0150   -0.0329    0.0570   -0.0394    0.0092
          21    0.0104    0.0016   -0.0186    0.0162   -0.0558   -0.0168   -0.0117    0.0269
          22    0.0282   -0.0125   -0.0404    0.0000   -0.0504   -0.0194    0.0339    0.0077
          23   -0.0589   -0.0004    0.0205   -0.0539    0.0462   -0.0132   -0.0665    0.0399
          24   -0.0938    0.0172    0.0229   -0.0719    0.0523    0.0406   -0.0311    0.0146
          25   -0.0163   -0.0049   -0.0001   -0.0667    0.0406    0.0773   -0.0122   -0.0222
          26    0.0714   -0.0114   -0.0235    0.0243   -0.0107   -0.0930    0.0149   -0.0361
          27   -0.0939    0.0167    0.0231   -0.0691    0.0496    0.0474   -0.0260    0.0143
          28   -0.0574   -0.0049    0.0864   -0.0350   -0.0383   -0.0909    0.0174   -0.1153
          29   -0.0323   -0.0018   -0.0156   -0.0408    0.0230   -0.0376   -0.0103   -0.0137
          30    0.0979    0.0062   -0.0703    0.0219    0.0395    0.0302   -0.0359    0.0496
          31    0.0597    0.0103   -0.0661    0.0279    0.0644   -0.0060   -0.1250    0.0840
          32    0.0454   -0.0170   -0.0062   -0.0195    0.0035   -0.0183   -0.0417    0.0067
          33    0.1024    0.0071   -0.0775    0.0244    0.0457    0.0284   -0.0515    0.0561
          34   -0.0116    0.2263    0.0507    0.0964   -0.0163    0.0098   -0.0248   -0.0128
          35   -0.0230    0.0586   -0.0299    0.0004   -0.0348    0.0182   -0.0251   -0.0098
          36    0.0450   -0.1554    0.0488    0.0396    0.0200    0.0551   -0.0377   -0.0498
          37   -0.0584   -0.2045   -0.0099    0.0984   -0.0543   -0.0294   -0.0155    0.0279
          38   -0.0485    0.1826   -0.0716   -0.0168   -0.0842   -0.0286   -0.0121    0.0489
          39    0.0068   -0.0043   -0.0127    0.0152   -0.0480   -0.0159   -0.0154    0.0334
          40   -0.0237   -0.0069    0.0069    0.0514   -0.0258    0.0152   -0.0018    0.0015
          41   -0.0373   -0.2212   -0.0875   -0.0612   -0.0502    0.0276    0.0025    0.0118
          42    0.0617    0.1481    0.0073   -0.0706    0.0067    0.0751    0.0065   -0.0211
          43    0.0074    0.0031    0.0077   -0.0065    0.0112   -0.0418    0.0482    0.0262
          44    0.0040    0.0089    0.0354    0.0461    0.0252   -0.0148   -0.0406   -0.0157
          45   -0.0663   -0.0101   -0.0373    0.0778    0.1713    0.0884   -0.0872    0.1098
          46    0.0060    0.0114    0.0198    0.0313    0.0094    0.0189    0.0083   -0.0231
          47    0.0064   -0.0020    0.0161    0.0029    0.0092    0.0128    0.0795    0.0371
          48    0.0066   -0.0256    0.1470   -0.0468   -0.0440    0.0537   -0.1559    0.2310


   Root No.       9        10        11        12        13        14        15        16

                 9 A      10 A      11 A      12 A      13 A      14 A      15 A      16 A   

                 821.6     924.1     936.5     956.2     996.2    1021.2    1044.1    1058.2
  
           1    0.0042   -0.0160   -0.0082   -0.0122    0.0026    0.0082   -0.0142   -0.0058
           2    0.0040   -0.0013   -0.0045    0.0122   -0.0048    0.0144   -0.0030   -0.0077
           3   -0.0046    0.0166    0.0021   -0.0041   -0.0054   -0.0124    0.0041   -0.0193
           4    0.0072    0.0577    0.0122    0.0141   -0.0043   -0.0027    0.0069   -0.0060
           5   -0.0024   -0.0179   -0.0068   -0.0256    0.0106   -0.0157   -0.0299    0.0004
           6    0.0308    0.0175   -0.0188    0.0005   -0.0163    0.0027   -0.0098   -0.0069
           7   -0.0002   -0.0078   -0.0024    0.0069   -0.0072    0.0272    0.0029   -0.0246
           8   -0.0008   -0.0016    0.0039    0.0138   -0.0068    0.0099    0.0221    0.0043
           9    0.0211   -0.0148    0.0186   -0.0001    0.0248   -0.0060    0.0110   -0.0140
          10   -0.0003   -0.0295   -0.0132   -0.0242   -0.0093   -0.0011    0.0193    0.0072
          11   -0.0016   -0.0234   -0.0085    0.0326    0.0005   -0.0213   -0.0026    0.0076
          12   -0.0057   -0.0181    0.0102   -0.0003    0.0110    0.0040    0.0006    0.0198
          13   -0.0047   -0.0215    0.0019    0.0241   -0.0019   -0.0068    0.0034    0.0168
          14    0.0017    0.0326    0.0016   -0.0268    0.0040    0.0008    0.0026   -0.0120
          15   -0.0196    0.0139   -0.0249    0.0054    0.0215    0.0198    0.0144   -0.0016
          16   -0.0018    0.0015    0.0005   -0.0055    0.0036   -0.0124    0.0044    0.0147
          17   -0.0039   -0.0004    0.0012    0.0041    0.0014    0.0104   -0.0101   -0.0227
          18   -0.0209    0.0002    0.0080   -0.0040   -0.0376    0.0011   -0.0241    0.0245
          19   -0.0274   -0.0087    0.0216   -0.0657    0.0999   -0.0103   -0.1040   -0.0327
          20    0.0273    0.0105    0.0582    0.0502   -0.0694    0.1427    0.0181    0.0214
          21   -0.0075    0.0201    0.0406   -0.0079    0.0057    0.0363   -0.0221   -0.0160
          22    0.0642    0.1609   -0.0375   -0.0065   -0.0943   -0.0749   -0.0434   -0.0821
          23   -0.1215   -0.0019    0.0290   -0.0488   -0.0014   -0.0893   -0.0401   -0.0409
          24   -0.0717   -0.0199    0.0272   -0.0055    0.0184   -0.0098    0.0063   -0.0008
          25   -0.0445    0.0228    0.0731    0.0148    0.0914   -0.0086    0.0205    0.0868
          26    0.1187    0.0011   -0.0364   -0.0197    0.0301   -0.0111   -0.0486    0.0774
          27   -0.0708   -0.0107    0.0294   -0.0025    0.0167   -0.0041    0.0095   -0.0108
          28    0.0718   -0.0796    0.0596   -0.0029    0.0562    0.0114    0.0272   -0.1425
          29    0.0830    0.0682   -0.0321    0.0369    0.0198    0.0419    0.0070    0.2138
          30   -0.0524    0.0119   -0.0110   -0.0020   -0.0249   -0.0057   -0.0015   -0.0030
          31   -0.0697    0.0192   -0.0723   -0.0015   -0.0567    0.0771   -0.0846    0.0003
          32   -0.0739    0.0290    0.0642    0.0251   -0.0578   -0.0692    0.1704   -0.0568
          33   -0.0569    0.0153   -0.0190   -0.0024   -0.0302    0.0096   -0.0132   -0.0115
          34   -0.0133   -0.0036    0.0063    0.1204    0.0239   -0.0434   -0.0379    0.0092
          35   -0.0048   -0.0188   -0.0053    0.0775    0.0088   -0.0360   -0.0186    0.0088
          36   -0.0053   -0.0547   -0.0532    0.1717    0.0020   -0.1060   -0.0232    0.0084
          37   -0.0202    0.0317    0.0675    0.0269    0.0475    0.0320   -0.0392    0.0242
          38   -0.0115    0.0212    0.0788   -0.0551    0.0341    0.0732   -0.0118    0.0388
          39   -0.0163    0.0191    0.0702   -0.0160    0.0431    0.0502   -0.0220    0.0381
          40   -0.0003   -0.0308   -0.0125   -0.0282   -0.0091    0.0008    0.0201    0.0085
          41    0.0112   -0.0667   -0.0249   -0.1216   -0.0298    0.0258    0.0594    0.0253
          42    0.0176   -0.1167   -0.0856   -0.1073   -0.0556   -0.0221    0.0881    0.0226
          43   -0.0120    0.0028    0.0008    0.0115    0.0025   -0.0257    0.0405    0.0509
          44    0.0069    0.0982    0.0264   -0.0708   -0.0012   -0.0696    0.1181    0.0960
          45    0.1633   -0.0913    0.1500   -0.0124   -0.0947   -0.0554   -0.0403   -0.0026
          46   -0.0006    0.0718    0.0042   -0.1072    0.0363   -0.1061   -0.0691    0.0490
          47   -0.0003    0.0026   -0.0018    0.0041    0.0076    0.0100   -0.0065   -0.0256
          48    0.0862    0.0448   -0.0915    0.0151    0.1435   -0.0035    0.0625   -0.0537


   Root No.      17        18        19        20        21        22        23        24

                17 A      18 A      19 A      20 A      21 A      22 A      23 A      24 A   

                1082.2    1100.6    1115.6    1129.2    1153.1    1234.9    1260.7    1305.9
  
           1    0.0058    0.0002    0.0010    0.0210   -0.0182    0.0217   -0.0296    0.0829
           2    0.0078    0.0050   -0.0005    0.0086   -0.0167   -0.0276   -0.0201   -0.0124
           3   -0.0061    0.0101    0.0090    0.0053    0.0484   -0.0140   -0.0291    0.0276
           4   -0.0035   -0.0051   -0.0078   -0.0253    0.0160   -0.0058   -0.0344   -0.0527
           5    0.0241   -0.0005   -0.0243   -0.0050   -0.0018   -0.0074   -0.0420   -0.0247
           6    0.0064   -0.0307   -0.0090    0.0240   -0.0156    0.0025    0.0088   -0.0084
           7   -0.0225   -0.0061    0.0190   -0.0052    0.0077    0.0008    0.0098    0.0028
           8   -0.0125    0.0003    0.0242    0.0084    0.0014    0.0359    0.0185    0.0079
           9   -0.0025    0.0328    0.0057   -0.0124   -0.0059    0.0003   -0.0015    0.0001
          10   -0.0019    0.0044    0.0008   -0.0073    0.0056   -0.0039    0.0085   -0.0148
          11   -0.0034   -0.0009   -0.0012   -0.0016    0.0038    0.0093    0.0060    0.0041
          12   -0.0077   -0.0182    0.0009   -0.0219   -0.0340    0.0044    0.0036    0.0003
          13    0.0136    0.0063   -0.0119    0.0058   -0.0090   -0.0118   -0.0068   -0.0197
          14   -0.0175   -0.0058    0.0107   -0.0034    0.0054   -0.0212    0.0105    0.0324
          15    0.0214    0.0050   -0.0077   -0.0015   -0.0094    0.0050    0.0038   -0.0038
          16    0.0109    0.0036    0.0015    0.0084   -0.0090   -0.0278    0.0062    0.0132
          17   -0.0171   -0.0081    0.0052   -0.0148    0.0148    0.0075    0.0023   -0.0172
          18   -0.0126   -0.0031    0.0028    0.0019    0.0063   -0.0027   -0.0013    0.0017
          19   -0.0907    0.0331   -0.0036    0.2569    0.0133   -0.0385    0.1088   -0.1283
          20    0.2146    0.1089   -0.0821    0.0493    0.0640    0.0766    0.0368    0.0084
          21    0.0458    0.0681   -0.0278    0.1180    0.0983    0.0079    0.0525   -0.0485
          22    0.0170    0.0852   -0.0565   -0.0618   -0.1174   -0.0078    0.1700    0.0120
          23    0.0404    0.1439   -0.0442   -0.0841   -0.0526   -0.0314    0.0792    0.0910
          24    0.0054    0.0166    0.0004   -0.0060    0.0150   -0.0104   -0.0089    0.0299
          25    0.0183   -0.0790   -0.0708   -0.0854    0.1726   -0.0569    0.1258    0.0771
          26    0.0711   -0.1355   -0.0949   -0.0034    0.0639   -0.0496    0.0857    0.0979
          27   -0.0102    0.0173    0.0048   -0.0038    0.0184    0.0025    0.0049   -0.0206
          28   -0.0213    0.0072   -0.0151   -0.0512    0.0183    0.0790    0.0518    0.0111
          29   -0.0598    0.1411    0.1485    0.0078   -0.0037   -0.0771    0.0136    0.0329
          30    0.0106   -0.0176   -0.0090    0.0151   -0.0103   -0.0131   -0.0224   -0.0113
          31   -0.0707   -0.0333   -0.0117   -0.0393    0.0538    0.0734    0.0487    0.0121
          32    0.0981   -0.1199    0.0814    0.1246   -0.0613   -0.0708    0.0351    0.0248
          33   -0.0077   -0.0216   -0.0020   -0.0027    0.0088    0.0228    0.0287    0.0106
          34   -0.0090   -0.0087   -0.0032    0.0106   -0.0150    0.0327    0.0286   -0.0065
          35   -0.0043   -0.0035   -0.0035    0.0040    0.0002    0.0218    0.0171   -0.0019
          36   -0.0166    0.0019   -0.0030    0.0068    0.0253    0.0456    0.0496   -0.0410
          37   -0.0074   -0.0321   -0.0017   -0.0081   -0.0760    0.0192    0.0247   -0.0137
          38    0.0056   -0.0365   -0.0053   -0.0351   -0.0967    0.0124    0.0297   -0.0592
          39   -0.0066   -0.0449   -0.0016   -0.0366   -0.0999    0.0142    0.0217   -0.0288
          40   -0.0017    0.0046    0.0002   -0.0066    0.0041   -0.0027    0.0134   -0.0206
          41    0.0060    0.0044   -0.0052   -0.0304    0.0008   -0.0082    0.0470   -0.0841
          42   -0.0024    0.0177   -0.0029   -0.0343    0.0471   -0.0069    0.0711   -0.1025
          43   -0.0175    0.0161   -0.0676    0.0315   -0.0167    0.0428   -0.0263   -0.0210
          44   -0.1331    0.0242   -0.1686    0.0769   -0.0112    0.1592   -0.0518    0.0273
          45   -0.0330   -0.0028    0.0185    0.0008    0.0211   -0.0118   -0.0081    0.0032
          46    0.1537   -0.0315    0.1981   -0.0164    0.0434    0.1769    0.0062   -0.0629
          47   -0.0168   -0.0081    0.0072   -0.0153    0.0155    0.0090    0.0035   -0.0179
          48    0.0288    0.0135    0.0038   -0.0027   -0.0040    0.0045   -0.0018    0.0012


   Root No.      25        26        27        28        29        30        31        32

                25 A      26 A      27 A      28 A      29 A      30 A      31 A      32 A   

                1350.9    1375.8    1403.4    1407.2    1411.7    1421.8    1424.1    1831.4
  
           1   -0.0096   -0.0108    0.0010   -0.0048    0.0017    0.0157    0.0108    0.0074
           2    0.0401    0.0407    0.0041   -0.0079    0.0008    0.0199    0.0513    0.0185
           3    0.0077    0.0009    0.0039   -0.0093    0.0035    0.0134    0.0227    0.0002
           4   -0.0023   -0.0029   -0.0020   -0.0157    0.0082   -0.0295   -0.0087    0.0048
           5   -0.0159   -0.0140    0.0003    0.0092    0.0055    0.0293   -0.0227   -0.0065
           6   -0.0008    0.0001   -0.0005    0.0009   -0.0003   -0.0028   -0.0034    0.0001
           7   -0.0314   -0.0063    0.0050    0.0390   -0.0308   -0.0063    0.0243   -0.0198
           8    0.0670   -0.0166   -0.0007   -0.0112    0.0017   -0.0172    0.0023   -0.0013
           9   -0.0026   -0.0003    0.0003    0.0017   -0.0012   -0.0002    0.0010   -0.0005
          10    0.0055    0.0110   -0.0269    0.0008   -0.0230   -0.0062   -0.0190   -0.0011
          11   -0.0011    0.0062   -0.0229    0.0241    0.0108   -0.0162   -0.0246    0.0025
          12    0.0073    0.0191    0.0204    0.0171   -0.0123   -0.0161   -0.0350    0.0006
          13    0.0092    0.0138    0.0000   -0.0029    0.0027    0.0047    0.0062   -0.1755
          14   -0.0054   -0.0337   -0.0026   -0.0100    0.0079   -0.0104   -0.0281   -0.1622
          15   -0.0014    0.0005   -0.0001    0.0011   -0.0006   -0.0009   -0.0017   -0.0008
          16    0.0257   -0.0219   -0.0029   -0.0175    0.0129   -0.0048   -0.0224    0.2067
          17   -0.0350    0.0084    0.0015    0.0156   -0.0105   -0.0005    0.0055    0.1205
          18    0.0024   -0.0006   -0.0001   -0.0013    0.0009    0.0003   -0.0001    0.0024
          19    0.0208    0.0281   -0.0048    0.0015   -0.0101   -0.0292   -0.0092   -0.0205
          20   -0.0492   -0.0335   -0.0044    0.0175   -0.0011   -0.0178   -0.0491    0.0214
          21   -0.0198   -0.0163   -0.0013    0.0048   -0.0025   -0.0212   -0.0295   -0.0042
          22    0.0451    0.0104    0.0072    0.0666   -0.0223    0.1099   -0.0015    0.0010
          23   -0.0509    0.0506   -0.0040   -0.0328   -0.0197   -0.1339    0.0721   -0.0023
          24   -0.0382    0.0289   -0.0060   -0.0535   -0.0020   -0.1423    0.0447    0.0056
          25    0.0679    0.0157    0.0107    0.0599   -0.0254    0.1398    0.0266    0.0009
          26   -0.0406    0.0534   -0.0054   -0.0331   -0.0210   -0.1285    0.0753   -0.0020
          27    0.0418   -0.0271    0.0076    0.0528   -0.0002    0.1478   -0.0397   -0.0057
          28   -0.0201    0.0913   -0.0132   -0.0967    0.0834    0.0468   -0.0565   -0.0223
          29   -0.1337    0.0573   -0.0020   -0.0071    0.0212    0.0539   -0.0206    0.0259
          30    0.0426   -0.0726    0.0105    0.0745   -0.0683   -0.0475    0.0501   -0.0014
          31   -0.0140    0.0847   -0.0121   -0.0895    0.0765    0.0434   -0.0503   -0.0247
          32   -0.1394    0.0592   -0.0032   -0.0066    0.0219    0.0529   -0.0261    0.0260
          33   -0.0413    0.0795   -0.0117   -0.0831    0.0754    0.0503   -0.0553   -0.0020
          34   -0.0463   -0.0589    0.3412   -0.0302    0.0466    0.0056    0.0277   -0.0012
          35   -0.0236   -0.0256    0.0792   -0.0058    0.0125   -0.0016   -0.0011    0.0041
          36   -0.0801   -0.1096   -0.1449   -0.1233   -0.1001    0.0638    0.0513   -0.0007
          37   -0.0309   -0.0569   -0.0330    0.0700    0.2259   -0.0156    0.0979    0.0018
          38   -0.0398   -0.0634   -0.1429   -0.1240   -0.1164    0.0701    0.0661   -0.0002
          39   -0.0252   -0.0413   -0.0567   -0.0216    0.0304    0.0204    0.0539    0.0000
          40    0.0001    0.0016    0.0039   -0.0028   -0.0091   -0.0038   -0.0064   -0.0018
          41   -0.0255   -0.0387    0.3183   -0.0887   -0.0565    0.0299    0.0303   -0.0006
          42   -0.0385   -0.0778   -0.0833    0.0295    0.1857    0.0013    0.1146   -0.0004
          43   -0.0039    0.0367    0.0017    0.0077   -0.0054    0.0141    0.0270   -0.1447
          44   -0.0526    0.0394    0.0041    0.0274   -0.0215    0.0175    0.0408    0.1001
          45    0.0049    0.0014    0.0003   -0.0019    0.0015    0.0020    0.0036   -0.0075
          46    0.0180    0.0518    0.0055    0.0256   -0.0230    0.0037    0.0493   -0.0562
          47   -0.0371    0.0079    0.0016    0.0168   -0.0116   -0.0015    0.0053    0.1652
          48    0.0034    0.0012    0.0006   -0.0009    0.0000    0.0012    0.0035   -0.0080


   Root No.      33        34        35        36        37        38        39        40

                33 A      34 A      35 A      36 A      37 A      38 A      39 A      40 A   

                2891.7    2972.2    2989.3    3055.2    3067.6    3081.5    3084.8    3115.0
  
           1    0.0230   -0.0005    0.0007    0.0004   -0.0006    0.0005   -0.0003   -0.0001
           2    0.0255   -0.0004    0.0006    0.0002    0.0003    0.0006    0.0002    0.0003
           3   -0.0567    0.0010   -0.0017    0.0000   -0.0003   -0.0013    0.0000    0.0001
           4    0.0009   -0.0006    0.0013    0.0032   -0.0213   -0.0007    0.0000    0.0001
           5   -0.0001    0.0008   -0.0016   -0.0052    0.0285    0.0007    0.0005    0.0001
           6    0.0044    0.0218   -0.0382    0.0007   -0.0038   -0.0004    0.0004    0.0001
           7   -0.0002    0.0014    0.0007   -0.0338   -0.0051   -0.0001    0.0000   -0.0001
           8   -0.0001   -0.0007   -0.0004   -0.0139   -0.0016    0.0000    0.0000   -0.0002
           9   -0.0002   -0.0387   -0.0213   -0.0004   -0.0003    0.0000    0.0000    0.0000
          10   -0.0014    0.0000    0.0000   -0.0001   -0.0004    0.0249   -0.0441    0.0000
          11   -0.0016    0.0000    0.0000    0.0001   -0.0009    0.0282    0.0363    0.0001
          12    0.0010   -0.0001    0.0001   -0.0001    0.0009   -0.0323   -0.0023   -0.0001
          13   -0.0003    0.0000    0.0000   -0.0003   -0.0004    0.0002   -0.0001   -0.0372
          14    0.0009    0.0000    0.0000    0.0003    0.0000   -0.0002   -0.0004    0.0110
          15   -0.0001   -0.0002   -0.0002    0.0000    0.0000   -0.0001   -0.0002   -0.0019
          16   -0.0003    0.0000    0.0000   -0.0005    0.0001    0.0000    0.0000    0.0002
          17   -0.0004    0.0000    0.0000    0.0017    0.0006    0.0001    0.0000   -0.0373
          18   -0.0003    0.0000   -0.0001   -0.0001    0.0000    0.0000    0.0000    0.0011
          19   -0.2775    0.0065   -0.0103    0.0004   -0.0027   -0.0039   -0.0011   -0.0006
          20   -0.3033    0.0053   -0.0085    0.0000   -0.0015   -0.0039    0.0008    0.0016
          21    0.6913   -0.0120    0.0186   -0.0002    0.0041    0.0167    0.0002   -0.0010
          22   -0.0079   -0.0578    0.0986   -0.0232    0.1383    0.0041    0.0008    0.0002
          23    0.0181    0.0741   -0.1346    0.0295   -0.1868   -0.0054   -0.0007    0.0002
          24   -0.0290   -0.1211    0.2090   -0.0567    0.3498    0.0102    0.0016    0.0003
          25    0.0080    0.0666   -0.1162   -0.0197    0.1201    0.0016    0.0033    0.0002
          26   -0.0145   -0.0833    0.1541    0.0240   -0.1573   -0.0032   -0.0021    0.0000
          27   -0.0241   -0.1400    0.2479    0.0482   -0.3042   -0.0076   -0.0046    0.0000
          28    0.0005    0.1586    0.0888    0.1821    0.0289    0.0007   -0.0002    0.0027
          29   -0.0004    0.0723    0.0434    0.0864    0.0150    0.0004   -0.0001   -0.0002
          30    0.0005    0.2448    0.1352    0.3365    0.0533    0.0012   -0.0003    0.0036
          31   -0.0017   -0.1753   -0.0972    0.2222    0.0329    0.0004   -0.0003    0.0035
          32   -0.0004   -0.0641   -0.0386    0.0815    0.0130    0.0002   -0.0001   -0.0004
          33    0.0022    0.2217    0.1213   -0.3314   -0.0498   -0.0008    0.0004   -0.0039
          34   -0.0050   -0.0001    0.0001    0.0003   -0.0026    0.0753    0.1093    0.0001
          35    0.0101    0.0001    0.0003   -0.0008    0.0066   -0.2040   -0.4410   -0.0001
          36   -0.0037    0.0000    0.0000    0.0000   -0.0002   -0.0004    0.0333    0.0002
          37    0.0080   -0.0004    0.0008   -0.0002    0.0041   -0.1410   -0.0259   -0.0011
          38    0.0096   -0.0002    0.0005   -0.0003    0.0048   -0.1608    0.0148   -0.0015
          39   -0.0143    0.0002   -0.0006    0.0007   -0.0120    0.3987    0.0076    0.0032
          40    0.0111   -0.0019    0.0036    0.0009    0.0013   -0.2312    0.4431   -0.0001
          41   -0.0028    0.0001   -0.0001    0.0000   -0.0005    0.0280   -0.0074    0.0005
          42   -0.0034    0.0000    0.0000    0.0000    0.0005   -0.0108   -0.0127    0.0001
          43    0.0056   -0.0001    0.0002    0.0092    0.0097   -0.0023   -0.0008    0.4404
          44   -0.0001    0.0000    0.0000   -0.0024   -0.0032    0.0009   -0.0004   -0.1339
          45   -0.0012   -0.0003   -0.0003    0.0004    0.0005   -0.0002   -0.0003    0.0210
          46   -0.0003    0.0001    0.0000   -0.0017    0.0001    0.0000    0.0000   -0.0025
          47   -0.0040    0.0003    0.0001   -0.0171   -0.0118   -0.0013    0.0005    0.4450
          48   -0.0006   -0.0008   -0.0006    0.0005    0.0004    0.0001    0.0001   -0.0152


   Root No.      41        42

                41 A      42 A   

                3134.1    3180.2
  
           1    0.0006   -0.0003
           2    0.0009   -0.0004
           3   -0.0002   -0.0003
           4   -0.0011   -0.0001
           5    0.0014    0.0002
           6    0.0000    0.0002
           7   -0.0022    0.0000
           8   -0.0007    0.0000
           9   -0.0001    0.0000
          10    0.0000   -0.0098
          11   -0.0002   -0.0129
          12    0.0002   -0.0184
          13    0.0397    0.0002
          14   -0.0063    0.0000
          15    0.0016    0.0000
          16   -0.0052    0.0000
          17   -0.0411    0.0000
          18    0.0011    0.0000
          19   -0.0007    0.0002
          20   -0.0021    0.0002
          21    0.0038   -0.0022
          22    0.0031    0.0003
          23   -0.0041   -0.0004
          24    0.0082    0.0009
          25    0.0027    0.0003
          26   -0.0037   -0.0017
          27   -0.0069   -0.0030
          28    0.0077    0.0000
          29    0.0025    0.0000
          30    0.0130    0.0000
          31    0.0096    0.0000
          32    0.0021    0.0000
          33   -0.0130   -0.0001
          34    0.0000   -0.0935
          35   -0.0002    0.3062
          36    0.0002   -0.0316
          37    0.0009   -0.1088
          38    0.0007   -0.1246
          39   -0.0019    0.2739
          40   -0.0012    0.3222
          41   -0.0005   -0.0237
          42    0.0000   -0.0162
          43   -0.4023   -0.0023
          44    0.1197    0.0004
          45   -0.0194   -0.0002
          46    0.0002    0.0000
          47    0.4346    0.0001
          48   -0.0148    0.0000


           MASS-WEIGHTED COORDINATE ANALYSIS (NORMAL COORDINATES)


   Root No.       1         2         3         4         5         6         7         8

                 1 A       2 A       3 A       4 A       5 A       6 A       7 A       8 A   

                  90.4     194.9     276.6     379.2     496.0     657.8     754.7     770.6
  
           1    0.0490   -0.0394   -0.1120   -0.2223   -0.0430    0.3271    0.1248   -0.0410
           2    0.0526    0.0181    0.1408    0.1519   -0.0166    0.2552   -0.1684   -0.1930
           3   -0.0935    0.0298   -0.2204    0.1649   -0.3567   -0.2547    0.0273    0.1704
           4    0.0479   -0.0395   -0.1159   -0.2366   -0.0196    0.2292   -0.0685   -0.1384
           5    0.0492   -0.0283    0.0277   -0.0617    0.1327   -0.3253   -0.2319   -0.0439
           6   -0.3674    0.0847    0.0022   -0.2499    0.0937   -0.0312    0.0533   -0.0224
           7    0.0287    0.0121    0.0361   -0.0584    0.1036   -0.2881   -0.3684   -0.1199
           8    0.0551   -0.0477   -0.0224   -0.1570    0.1260   -0.2660   -0.0135    0.0637
           9    0.4010    0.0247   -0.1764   -0.0228    0.0656   -0.0305    0.0833   -0.1969
          10   -0.1957    0.0131    0.0698    0.4343   -0.2054    0.1122   -0.0156    0.0051
          11   -0.2268    0.0418   -0.3535   -0.1037   -0.3127    0.1334   -0.1137   -0.0363
          12    0.2298   -0.0154    0.0382    0.0126   -0.1742    0.1252   -0.0852    0.0352
          13    0.0514    0.0091    0.0221   -0.0901    0.0981   -0.1979    0.3714    0.2874
          14    0.0446    0.0284    0.1805    0.2103    0.0639    0.1749    0.0547   -0.0898
          15   -0.2636   -0.0378   -0.1592    0.2787    0.3928   -0.0045    0.1235   -0.2040
          16    0.0449    0.0401    0.0812    0.0558    0.1121   -0.1762   -0.0019    0.0410
          17    0.0530   -0.0109    0.1077    0.0325    0.0792    0.0839    0.5486    0.2437
          18    0.0399   -0.0869    0.4930   -0.1395   -0.1838   -0.0461    0.0411   -0.1125
          19    0.0695   -0.0204   -0.0668   -0.0704   -0.0175    0.1219   -0.0097   -0.0545
          20    0.0807    0.0028    0.1080    0.0363   -0.0780    0.1232   -0.0742    0.0226
          21    0.0252    0.0034   -0.0443    0.0392   -0.1321   -0.0363   -0.0220    0.0659
          22    0.0682   -0.0259   -0.0964   -0.0001   -0.1192   -0.0420    0.0639    0.0190
          23   -0.1428   -0.0008    0.0490   -0.1300    0.1093   -0.0286   -0.1253    0.0980
          24   -0.2272    0.0356    0.0547   -0.1733    0.1238    0.0877   -0.0585    0.0359
          25   -0.0396   -0.0101   -0.0003   -0.1609    0.0960    0.1669   -0.0230   -0.0545
          26    0.1730   -0.0236   -0.0560    0.0587   -0.0253   -0.2009    0.0281   -0.0886
          27   -0.2275    0.0344    0.0550   -0.1666    0.1174    0.1023   -0.0489    0.0350
          28   -0.1390   -0.0101    0.2064   -0.0845   -0.0905   -0.1964    0.0327   -0.2827
          29   -0.0783   -0.0037   -0.0373   -0.0983    0.0545   -0.0811   -0.0195   -0.0336
          30    0.2372    0.0129   -0.1678    0.0529    0.0936    0.0652   -0.0676    0.1215
          31    0.1447    0.0213   -0.1578    0.0673    0.1525   -0.0131   -0.2355    0.2061
          32    0.1100   -0.0351   -0.0147   -0.0471    0.0083   -0.0395   -0.0786    0.0164
          33    0.2480    0.0148   -0.1849    0.0588    0.1081    0.0614   -0.0970    0.1374
          34   -0.0281    0.4676    0.1211    0.2323   -0.0385    0.0212   -0.0467   -0.0315
          35   -0.0557    0.1211   -0.0713    0.0009   -0.0824    0.0393   -0.0473   -0.0240
          36    0.1090   -0.3212    0.1165    0.0954    0.0473    0.1191   -0.0710   -0.1221
          37   -0.1415   -0.4226   -0.0237    0.2373   -0.1285   -0.0634   -0.0292    0.0683
          38   -0.1174    0.3773   -0.1710   -0.0404   -0.1994   -0.0617   -0.0229    0.1198
          39    0.0164   -0.0090   -0.0303    0.0366   -0.1136   -0.0343   -0.0290    0.0820
          40   -0.0575   -0.0142    0.0165    0.1239   -0.0612    0.0329   -0.0034    0.0037
          41   -0.0904   -0.4571   -0.2089   -0.1476   -0.1188    0.0595    0.0047    0.0289
          42    0.1494    0.3060    0.0174   -0.1701    0.0159    0.1624    0.0122   -0.0516
          43    0.0180    0.0065    0.0183   -0.0156    0.0266   -0.0904    0.0907    0.0643
          44    0.0097    0.0184    0.0845    0.1112    0.0597   -0.0319   -0.0765   -0.0385
          45   -0.1605   -0.0209   -0.0891    0.1875    0.4053    0.1909   -0.1643    0.2692
          46    0.0145    0.0235    0.0474    0.0755    0.0223    0.0408    0.0156   -0.0567
          47    0.0154   -0.0041    0.0384    0.0071    0.0219    0.0276    0.1497    0.0910
          48    0.0160   -0.0530    0.3510   -0.1128   -0.1040    0.1160   -0.2937    0.5664


   Root No.       9        10        11        12        13        14        15        16

                 9 A      10 A      11 A      12 A      13 A      14 A      15 A      16 A   

                 821.6     924.1     936.5     956.2     996.2    1021.2    1044.1    1058.2
  
           1    0.0384   -0.1274   -0.0846   -0.1044    0.0250    0.0794   -0.1336   -0.0506
           2    0.0374   -0.0106   -0.0465    0.1041   -0.0470    0.1406   -0.0279   -0.0669
           3   -0.0427    0.1326    0.0219   -0.0353   -0.0530   -0.1210    0.0386   -0.1666
           4    0.0668    0.4597    0.1249    0.1208   -0.0415   -0.0263    0.0646   -0.0515
           5   -0.0224   -0.1428   -0.0696   -0.2188    0.1035   -0.1531   -0.2803    0.0037
           6    0.2848    0.1392   -0.1929    0.0043   -0.1589    0.0262   -0.0916   -0.0596
           7   -0.0015   -0.0625   -0.0245    0.0586   -0.0701    0.2652    0.0274   -0.2128
           8   -0.0075   -0.0124    0.0401    0.1181   -0.0663    0.0965    0.2079    0.0376
           9    0.1950   -0.1181    0.1913   -0.0010    0.2415   -0.0587    0.1031   -0.1209
          10   -0.0028   -0.2351   -0.1356   -0.2072   -0.0910   -0.0104    0.1809    0.0625
          11   -0.0152   -0.1868   -0.0873    0.2789    0.0051   -0.2078   -0.0247    0.0657
          12   -0.0523   -0.1442    0.1042   -0.0025    0.1075    0.0395    0.0058    0.1709
          13   -0.0435   -0.1714    0.0193    0.2063   -0.0190   -0.0664    0.0318    0.1454
          14    0.0160    0.2600    0.0164   -0.2293    0.0391    0.0074    0.0249   -0.1037
          15   -0.1810    0.1108   -0.2559    0.0464    0.2097    0.1934    0.1354   -0.0143
          16   -0.0170    0.0119    0.0050   -0.0466    0.0350   -0.1209    0.0415    0.1276
          17   -0.0356   -0.0033    0.0124    0.0347    0.0141    0.1014   -0.0948   -0.1965
          18   -0.1932    0.0015    0.0821   -0.0341   -0.3662    0.0110   -0.2260    0.2117
          19   -0.0732   -0.0200    0.0641   -0.1627    0.2823   -0.0290   -0.2828   -0.0820
          20    0.0731    0.0241    0.1730    0.1243   -0.1960    0.4027    0.0493    0.0536
          21   -0.0200    0.0464    0.1207   -0.0196    0.0162    0.1025   -0.0602   -0.0401
          22    0.1719    0.3715   -0.1115   -0.0161   -0.2665   -0.2115   -0.1179   -0.2058
          23   -0.3254   -0.0044    0.0862   -0.1209   -0.0041   -0.2521   -0.1089   -0.1026
          24   -0.1920   -0.0459    0.0808   -0.0136    0.0519   -0.0278    0.0171   -0.0021
          25   -0.1192    0.0525    0.2173    0.0366    0.2583   -0.0242    0.0557    0.2176
          26    0.3179    0.0026   -0.1081   -0.0488    0.0850   -0.0312   -0.1321    0.1939
          27   -0.1896   -0.0248    0.0874   -0.0061    0.0471   -0.0115    0.0257   -0.0270
          28    0.1922   -0.1839    0.1770   -0.0071    0.1588    0.0322    0.0739   -0.3571
          29    0.2223    0.1575   -0.0953    0.0914    0.0559    0.1182    0.0191    0.5359
          30   -0.1404    0.0276   -0.0327   -0.0050   -0.0705   -0.0162   -0.0041   -0.0074
          31   -0.1867    0.0444   -0.2150   -0.0037   -0.1602    0.2176   -0.2300    0.0007
          32   -0.1980    0.0670    0.1907    0.0622   -0.1633   -0.1953    0.4632   -0.1423
          33   -0.1524    0.0353   -0.0564   -0.0059   -0.0854    0.0272   -0.0360   -0.0288
          34   -0.0357   -0.0082    0.0187    0.2980    0.0675   -0.1224   -0.1031    0.0231
          35   -0.0128   -0.0433   -0.0158    0.1917    0.0248   -0.1015   -0.0505    0.0221
          36   -0.0142   -0.1262   -0.1582    0.4250    0.0055   -0.2991   -0.0631    0.0210
          37   -0.0540    0.0732    0.2007    0.0666    0.1341    0.0902   -0.1065    0.0607
          38   -0.0308    0.0489    0.2343   -0.1364    0.0964    0.2066   -0.0321    0.0971
          39   -0.0437    0.0440    0.2088   -0.0397    0.1218    0.1417   -0.0599    0.0955
          40   -0.0009   -0.0712   -0.0371   -0.0697   -0.0258    0.0023    0.0547    0.0214
          41    0.0299   -0.1541   -0.0740   -0.3009   -0.0843    0.0729    0.1614    0.0635
          42    0.0472   -0.2694   -0.2545   -0.2657   -0.1571   -0.0623    0.2395    0.0566
          43   -0.0322    0.0065    0.0025    0.0284    0.0072   -0.0725    0.1100    0.1276
          44    0.0186    0.2267    0.0784   -0.1752   -0.0034   -0.1965    0.3210    0.2405
          45    0.4372   -0.2107    0.4458   -0.0306   -0.2675   -0.1565   -0.1095   -0.0064
          46   -0.0017    0.1657    0.0125   -0.2653    0.1025   -0.2996   -0.1879    0.1227
          47   -0.0008    0.0059   -0.0053    0.0101    0.0216    0.0282   -0.0177   -0.0642
          48    0.2309    0.1033   -0.2718    0.0373    0.4052   -0.0099    0.1698   -0.1346


   Root No.      17        18        19        20        21        22        23        24

                17 A      18 A      19 A      20 A      21 A      22 A      23 A      24 A   

                1082.2    1100.6    1115.6    1129.2    1153.1    1234.9    1260.7    1305.9
  
           1    0.0493    0.0015    0.0087    0.1773   -0.1537    0.1919   -0.2484    0.5885
           2    0.0670    0.0447   -0.0046    0.0724   -0.1411   -0.2432   -0.1687   -0.0879
           3   -0.0521    0.0912    0.0787    0.0450    0.4101   -0.1238   -0.2441    0.1958
           4   -0.0297   -0.0458   -0.0684   -0.2134    0.1353   -0.0509   -0.2883   -0.3737
           5    0.2061   -0.0043   -0.2137   -0.0423   -0.0153   -0.0656   -0.3524   -0.1755
           6    0.0544   -0.2771   -0.0793    0.2023   -0.1319    0.0221    0.0742   -0.0596
           7   -0.1923   -0.0554    0.1673   -0.0436    0.0650    0.0074    0.0823    0.0200
           8   -0.1073    0.0030    0.2125    0.0709    0.0115    0.3165    0.1553    0.0560
           9   -0.0216    0.2959    0.0498   -0.1045   -0.0499    0.0023   -0.0128    0.0007
          10   -0.0158    0.0393    0.0070   -0.0615    0.0478   -0.0340    0.0715   -0.1048
          11   -0.0293   -0.0080   -0.0108   -0.0137    0.0318    0.0823    0.0505    0.0288
          12   -0.0656   -0.1640    0.0079   -0.1850   -0.2876    0.0388    0.0299    0.0022
          13    0.1162    0.0568   -0.1045    0.0492   -0.0758   -0.1046   -0.0573   -0.1398
          14   -0.1497   -0.0525    0.0940   -0.0288    0.0457   -0.1871    0.0879    0.2296
          15    0.1826    0.0454   -0.0675   -0.0127   -0.0792    0.0438    0.0319   -0.0270
          16    0.0933    0.0326    0.0134    0.0705   -0.0758   -0.2454    0.0517    0.0937
          17   -0.1458   -0.0730    0.0456   -0.1251    0.1250    0.0662    0.0192   -0.1220
          18   -0.1078   -0.0277    0.0244    0.0163    0.0535   -0.0241   -0.0109    0.0117
          19   -0.2245    0.0864   -0.0093    0.6272    0.0325   -0.0985    0.2643   -0.2638
          20    0.5313    0.2844   -0.2092    0.1203    0.1570    0.1960    0.0894    0.0172
          21    0.1135    0.1778   -0.0708    0.2881    0.2411    0.0203    0.1276   -0.0998
          22    0.0420    0.2225   -0.1439   -0.1508   -0.2878   -0.0199    0.4133    0.0247
          23    0.1000    0.3758   -0.1127   -0.2054   -0.1290   -0.0804    0.1925    0.1871
          24    0.0133    0.0432    0.0010   -0.0146    0.0368   -0.0265   -0.0216    0.0614
          25    0.0452   -0.2062   -0.1804   -0.2085    0.4233   -0.1455    0.3057    0.1585
          26    0.1761   -0.3539   -0.2416   -0.0084    0.1566   -0.1268    0.2082    0.2012
          27   -0.0253    0.0452    0.0123   -0.0094    0.0452    0.0063    0.0119   -0.0423
          28   -0.0527    0.0189   -0.0384   -0.1251    0.0449    0.2020    0.1258    0.0227
          29   -0.1480    0.3685    0.3781    0.0191   -0.0090   -0.1971    0.0329    0.0677
          30    0.0262   -0.0459   -0.0230    0.0369   -0.0254   -0.0334   -0.0543   -0.0233
          31   -0.1751   -0.0869   -0.0298   -0.0959    0.1319    0.1876    0.1183    0.0248
          32    0.2428   -0.3130    0.2074    0.3044   -0.1503   -0.1809    0.0854    0.0510
          33   -0.0191   -0.0565   -0.0051   -0.0067    0.0216    0.0583    0.0698    0.0217
          34   -0.0224   -0.0228   -0.0083    0.0260   -0.0368    0.0835    0.0696   -0.0134
          35   -0.0106   -0.0091   -0.0090    0.0098    0.0006    0.0556    0.0416   -0.0039
          36   -0.0411    0.0048   -0.0076    0.0166    0.0619    0.1165    0.1204   -0.0843
          37   -0.0183   -0.0838   -0.0043   -0.0197   -0.1863    0.0491    0.0599   -0.0281
          38    0.0137   -0.0953   -0.0135   -0.0857   -0.2372    0.0317    0.0723   -0.1217
          39   -0.0164   -0.1173   -0.0041   -0.0894   -0.2451    0.0364    0.0527   -0.0591
          40   -0.0043    0.0119    0.0005   -0.0162    0.0101   -0.0070    0.0327   -0.0424
          41    0.0148    0.0115   -0.0134   -0.0743    0.0021   -0.0211    0.1142   -0.1729
          42   -0.0060    0.0461   -0.0075   -0.0838    0.1154   -0.0176    0.1729   -0.2107
          43   -0.0432    0.0421   -0.1721    0.0770   -0.0409    0.1094   -0.0638   -0.0432
          44   -0.3297    0.0632   -0.4293    0.1877   -0.0274    0.4070   -0.1259    0.0561
          45   -0.0816   -0.0072    0.0471    0.0020    0.0518   -0.0302   -0.0197    0.0066
          46    0.3807   -0.0822    0.5046   -0.0402    0.1063    0.4524    0.0150   -0.1294
          47   -0.0415   -0.0213    0.0184   -0.0374    0.0380    0.0231    0.0084   -0.0368
          48    0.0712    0.0352    0.0097   -0.0065   -0.0099    0.0115   -0.0044    0.0024


   Root No.      25        26        27        28        29        30        31        32

                25 A      26 A      27 A      28 A      29 A      30 A      31 A      32 A   

                1350.9    1375.8    1403.4    1407.2    1411.7    1421.8    1424.1    1831.4
  
           1   -0.0757   -0.1007    0.0062   -0.0443    0.0141    0.1286    0.0919    0.0213
           2    0.3158    0.3788    0.0261   -0.0737    0.0070    0.1625    0.4351    0.0534
           3    0.0610    0.0081    0.0245   -0.0867    0.0293    0.1093    0.1923    0.0006
           4   -0.0184   -0.0267   -0.0125   -0.1464    0.0684   -0.2413   -0.0738    0.0140
           5   -0.1251   -0.1300    0.0021    0.0860    0.0463    0.2396   -0.1926   -0.0187
           6   -0.0061    0.0008   -0.0029    0.0086   -0.0027   -0.0229   -0.0290    0.0004
           7   -0.2476   -0.0588    0.0315    0.3631   -0.2587   -0.0516    0.2059   -0.0570
           8    0.5277   -0.1544   -0.0044   -0.1039    0.0139   -0.1403    0.0197   -0.0036
           9   -0.0206   -0.0028    0.0019    0.0163   -0.0105   -0.0017    0.0087   -0.0014
          10    0.0431    0.1019   -0.1701    0.0076   -0.1926   -0.0509   -0.1609   -0.0033
          11   -0.0086    0.0578   -0.1444    0.2247    0.0904   -0.1326   -0.2085    0.0073
          12    0.0576    0.1778    0.1286    0.1596   -0.1028   -0.1319   -0.2968    0.0017
          13    0.0721    0.1284    0.0002   -0.0268    0.0228    0.0387    0.0529   -0.5053
          14   -0.0422   -0.3138   -0.0167   -0.0933    0.0661   -0.0850   -0.2380   -0.4669
          15   -0.0114    0.0044   -0.0007    0.0105   -0.0052   -0.0072   -0.0145   -0.0022
          16    0.2022   -0.2039   -0.0182   -0.1626    0.1085   -0.0392   -0.1904    0.5950
          17   -0.2757    0.0783    0.0094    0.1449   -0.0884   -0.0038    0.0470    0.3469
          18    0.0189   -0.0059   -0.0004   -0.0124    0.0075    0.0024   -0.0010    0.0068
          19    0.0475    0.0757   -0.0088    0.0040   -0.0246   -0.0692   -0.0226   -0.0171
          20   -0.1124   -0.0902   -0.0080    0.0472   -0.0028   -0.0421   -0.1206    0.0178
          21   -0.0453   -0.0440   -0.0023    0.0130   -0.0060   -0.0501   -0.0726   -0.0035
          22    0.1031    0.0281    0.0132    0.1797   -0.0541    0.2600   -0.0038    0.0008
          23   -0.1163    0.1363   -0.0073   -0.0884   -0.0478   -0.3169    0.1771   -0.0019
          24   -0.0872    0.0779   -0.0110   -0.1443   -0.0049   -0.3368    0.1098    0.0047
          25    0.1551    0.0424    0.0197    0.1616   -0.0616    0.3308    0.0653    0.0007
          26   -0.0928    0.1439   -0.0099   -0.0893   -0.0509   -0.3040    0.1851   -0.0017
          27    0.0955   -0.0730    0.0139    0.1423   -0.0005    0.3499   -0.0976   -0.0048
          28   -0.0458    0.2459   -0.0241   -0.2608    0.2028    0.1109   -0.1389   -0.0186
          29   -0.3052    0.1543   -0.0037   -0.0192    0.0516    0.1276   -0.0507    0.0216
          30    0.0972   -0.1957    0.0192    0.2008   -0.1659   -0.1123    0.1231   -0.0012
          31   -0.0320    0.2283   -0.0221   -0.2414    0.1859    0.1028   -0.1235   -0.0206
          32   -0.3182    0.1596   -0.0059   -0.0178    0.0531    0.1251   -0.0640    0.0217
          33   -0.0942    0.2142   -0.0214   -0.2241    0.1833    0.1190   -0.1358   -0.0017
          34   -0.1057   -0.1587    0.6246   -0.0814    0.1132    0.0133    0.0679   -0.0010
          35   -0.0540   -0.0691    0.1450   -0.0156    0.0303   -0.0038   -0.0028    0.0034
          36   -0.1829   -0.2952   -0.2653   -0.3326   -0.2433    0.1511    0.1260   -0.0006
          37   -0.0705   -0.1533   -0.0605    0.1889    0.5491   -0.0368    0.2405    0.0015
          38   -0.0909   -0.1710   -0.2616   -0.3346   -0.2829    0.1660    0.1623   -0.0001
          39   -0.0576   -0.1113   -0.1037   -0.0583    0.0739    0.0483    0.1325    0.0000
          40    0.0001    0.0044    0.0071   -0.0076   -0.0220   -0.0089   -0.0157   -0.0015
          41   -0.0583   -0.1043    0.5827   -0.2393   -0.1372    0.0707    0.0743   -0.0005
          42   -0.0878   -0.2097   -0.1525    0.0796    0.4513    0.0030    0.2816   -0.0003
          43   -0.0089    0.0990    0.0030    0.0207   -0.0131    0.0333    0.0664   -0.1207
          44   -0.1201    0.1062    0.0075    0.0740   -0.0521    0.0414    0.1003    0.0835
          45    0.0113    0.0037    0.0006   -0.0051    0.0037    0.0046    0.0088   -0.0063
          46    0.0410    0.1397    0.0100    0.0692   -0.0559    0.0089    0.1212   -0.0469
          47   -0.0846    0.0213    0.0029    0.0454   -0.0282   -0.0035    0.0130    0.1377
          48    0.0077    0.0032    0.0011   -0.0024    0.0000    0.0029    0.0087   -0.0067


   Root No.      33        34        35        36        37        38        39        40

                33 A      34 A      35 A      36 A      37 A      38 A      39 A      40 A   

                2891.7    2972.2    2989.3    3055.2    3067.6    3081.5    3084.8    3115.0
  
           1    0.0948   -0.0032    0.0050    0.0021   -0.0034    0.0032   -0.0013   -0.0004
           2    0.1050   -0.0030    0.0045    0.0014    0.0017    0.0036    0.0011    0.0015
           3   -0.2336    0.0072   -0.0115    0.0001   -0.0018   -0.0077   -0.0002    0.0006
           4    0.0039   -0.0044    0.0092    0.0188   -0.1278   -0.0040    0.0001    0.0003
           5   -0.0006    0.0053   -0.0113   -0.0304    0.1710    0.0041    0.0023    0.0004
           6    0.0183    0.1495   -0.2652    0.0042   -0.0230   -0.0022    0.0022    0.0005
           7   -0.0009    0.0098    0.0048   -0.1990   -0.0305   -0.0007    0.0003   -0.0007
           8   -0.0006   -0.0045   -0.0030   -0.0818   -0.0094   -0.0002    0.0000   -0.0010
           9   -0.0009   -0.2659   -0.1481   -0.0024   -0.0019   -0.0003   -0.0001    0.0000
          10   -0.0057    0.0001   -0.0003   -0.0003   -0.0021    0.1483   -0.2285    0.0002
          11   -0.0066   -0.0002    0.0002    0.0005   -0.0054    0.1678    0.1880    0.0005
          12    0.0041   -0.0004    0.0010   -0.0004    0.0056   -0.1925   -0.0120   -0.0007
          13   -0.0011    0.0001   -0.0001   -0.0015   -0.0024    0.0012   -0.0004   -0.1926
          14    0.0037    0.0000    0.0002    0.0015    0.0001   -0.0013   -0.0019    0.0567
          15   -0.0002   -0.0011   -0.0011   -0.0001   -0.0001   -0.0006   -0.0009   -0.0097
          16   -0.0014   -0.0002   -0.0001   -0.0028    0.0004    0.0000    0.0002    0.0009
          17   -0.0015   -0.0001   -0.0001    0.0097    0.0037    0.0004   -0.0002   -0.1932
          18   -0.0011   -0.0002   -0.0006   -0.0004   -0.0001   -0.0001    0.0000    0.0057
          19   -0.3311    0.0129   -0.0207    0.0006   -0.0047   -0.0067   -0.0017   -0.0009
          20   -0.3619    0.0106   -0.0171   -0.0001   -0.0025   -0.0067    0.0013    0.0023
          21    0.8248   -0.0238    0.0373   -0.0003    0.0072    0.0288    0.0003   -0.0014
          22   -0.0094   -0.1150    0.1982   -0.0396    0.2400    0.0071    0.0012    0.0003
          23    0.0216    0.1474   -0.2707    0.0503   -0.3242   -0.0093   -0.0010    0.0003
          24   -0.0346   -0.2410    0.4202   -0.0967    0.6072    0.0175    0.0024    0.0004
          25    0.0096    0.1326   -0.2337   -0.0336    0.2084    0.0028    0.0050    0.0004
          26   -0.0173   -0.1658    0.3099    0.0410   -0.2731   -0.0055   -0.0031   -0.0001
          27   -0.0288   -0.2785    0.4984    0.0821   -0.5280   -0.0131   -0.0069    0.0000
          28    0.0006    0.3156    0.1785    0.3102    0.0502    0.0012   -0.0003    0.0040
          29   -0.0005    0.1439    0.0872    0.1473    0.0260    0.0007   -0.0002   -0.0003
          30    0.0006    0.4871    0.2718    0.5734    0.0926    0.0021   -0.0005    0.0055
          31   -0.0021   -0.3489   -0.1955    0.3786    0.0571    0.0008   -0.0004    0.0053
          32   -0.0005   -0.1276   -0.0775    0.1388    0.0226    0.0003   -0.0001   -0.0006
          33    0.0027    0.4412    0.2438   -0.5647   -0.0864   -0.0013    0.0006   -0.0059
          34   -0.0059   -0.0003    0.0003    0.0005   -0.0046    0.1298    0.1640    0.0002
          35    0.0121    0.0002    0.0006   -0.0014    0.0114   -0.3518   -0.6618   -0.0002
          36   -0.0044    0.0001   -0.0001    0.0000   -0.0003   -0.0007    0.0500    0.0003
          37    0.0095   -0.0008    0.0017   -0.0004    0.0071   -0.2431   -0.0388   -0.0017
          38    0.0115   -0.0004    0.0011   -0.0004    0.0083   -0.2774    0.0221   -0.0022
          39   -0.0171    0.0003   -0.0011    0.0012   -0.0209    0.6876    0.0114    0.0048
          40    0.0132   -0.0038    0.0073    0.0016    0.0023   -0.3988    0.6650   -0.0002
          41   -0.0033    0.0001   -0.0003    0.0000   -0.0009    0.0483   -0.0111    0.0007
          42   -0.0040    0.0000    0.0001   -0.0001    0.0008   -0.0186   -0.0190    0.0002
          43    0.0066   -0.0001    0.0003    0.0157    0.0169   -0.0039   -0.0012    0.6599
          44   -0.0001   -0.0001    0.0000   -0.0041   -0.0055    0.0016   -0.0006   -0.2006
          45   -0.0014   -0.0007   -0.0006    0.0007    0.0008   -0.0003   -0.0004    0.0314
          46   -0.0003    0.0002    0.0001   -0.0029    0.0001    0.0000    0.0000   -0.0038
          47   -0.0047    0.0007    0.0003   -0.0292   -0.0205   -0.0022    0.0008    0.6669
          48   -0.0007   -0.0016   -0.0012    0.0009    0.0007    0.0001    0.0001   -0.0228


   Root No.      41        42

                41 A      42 A   

                3134.1    3180.2
  
           1    0.0031   -0.0018
           2    0.0048   -0.0024
           3   -0.0012   -0.0020
           4   -0.0058   -0.0003
           5    0.0076    0.0010
           6    0.0000    0.0010
           7   -0.0119    0.0000
           8   -0.0038    0.0000
           9   -0.0003    0.0001
          10    0.0002   -0.0599
          11   -0.0012   -0.0791
          12    0.0012   -0.1129
          13    0.2151    0.0012
          14   -0.0342    0.0002
          15    0.0086    0.0001
          16   -0.0280   -0.0001
          17   -0.2226   -0.0001
          18    0.0058    0.0000
          19   -0.0011    0.0004
          20   -0.0034    0.0003
          21    0.0059   -0.0039
          22    0.0048    0.0005
          23   -0.0065   -0.0007
          24    0.0128    0.0016
          25    0.0043    0.0006
          26   -0.0058   -0.0030
          27   -0.0108   -0.0053
          28    0.0120    0.0000
          29    0.0039    0.0000
          30    0.0205   -0.0001
          31    0.0151    0.0001
          32    0.0032    0.0001
          33   -0.0205   -0.0001
          34   -0.0001   -0.1658
          35   -0.0003    0.5432
          36    0.0003   -0.0560
          37    0.0014   -0.1931
          38    0.0011   -0.2210
          39   -0.0030    0.4860
          40   -0.0018    0.5716
          41   -0.0008   -0.0421
          42   -0.0001   -0.0288
          43   -0.6312   -0.0041
          44    0.1878    0.0007
          45   -0.0305   -0.0004
          46    0.0003    0.0000
          47    0.6819    0.0002
          48   -0.0232   -0.0001


          DESCRIPTION OF VIBRATIONS


 VIBRATION    1    1A       ATOM PAIR        ENERGY CONTRIBUTION    RADIAL
 FREQ.        90.44        C  2 --  C  3          +18.2% (698.5%)     0.0%
 T-DIPOLE    0.0398        C  1 --  C  4           +9.0% (490.8%)     0.0%
 TRAVEL      0.0415        C  3 --  H 11           +9.0% (490.2%)    99.7%
 RED. MASS   0.9048        C  3 --  C  6           +8.8% (485.3%)     0.0%
 EFF. MASS 433.1928

 VIBRATION    2    2A       ATOM PAIR        ENERGY CONTRIBUTION    RADIAL
 FREQ.       194.90        C  4 --  H 12          +31.9% (312.7%)     0.3%
 T-DIPOLE    0.0086        C  4 --  H 13          +30.9% (307.7%)     0.2%
 TRAVEL      0.2970        C  4 --  H 14          +30.6% (306.2%)     0.0%
 RED. MASS   0.3129        C  2 --  C  3           +1.0% ( 56.4%)     0.2%
 EFF. MASS   3.9213

 VIBRATION    3    3A       ATOM PAIR        ENERGY CONTRIBUTION    RADIAL
 FREQ.       276.61        C  1 --  C  4          +15.0% (182.3%)     0.0%
 T-DIPOLE    0.0266        C  3 --  C  6          +10.8% (154.7%)     0.0%
 TRAVEL      0.0810        C  4 --  H 14           +9.2% (142.7%)    14.5%
 RED. MASS   1.1919        C  5 --  C  6           +9.1% (142.1%)     0.0%
 EFF. MASS  37.1220

 VIBRATION    4    4A       ATOM PAIR        ENERGY CONTRIBUTION    RADIAL
 FREQ.       379.21        C  1 --  C  4          +16.7% (160.7%)     0.0%
 T-DIPOLE    0.0391        C  4 --  H 13          +10.7% (128.3%)     8.4%
 TRAVEL      0.0813        C  4 --  H 12          +10.2% (125.8%)    38.3%
 RED. MASS   1.0172        C  1 --  C  2           +9.8% (123.1%)     0.1%
 EFF. MASS  26.8868

 VIBRATION    5    5A       ATOM PAIR        ENERGY CONTRIBUTION    RADIAL
 FREQ.       496.01        C  1 --  C  5          +14.2% (107.0%)     0.0%
 T-DIPOLE    0.1312        C  1 --  C  4          +11.8% ( 97.7%)     4.1%
 TRAVEL      0.0935        C  4 --  H 13          +11.0% ( 94.3%)     0.4%
 RED. MASS   0.9801        C  1 --  C  2           +9.8% ( 88.9%)     0.2%
 EFF. MASS  15.5669

 VIBRATION    6    6A       ATOM PAIR        ENERGY CONTRIBUTION    RADIAL
 FREQ.       657.77        C  1 --  C  2          +14.3% (102.3%)     2.4%
[...]
 T-DIPOLE    0.0250        C  1 --  C  2           +9.9% ( 36.9%)    80.1%
 TRAVEL      0.1291        C  2 --  H  8           +8.4% ( 33.9%)     6.6%
 RED. MASS   0.4002        C  2 --  C  3           +7.1% ( 31.3%)    18.0%
 EFF. MASS   3.5840

 VIBRATION   21   21A       ATOM PAIR        ENERGY CONTRIBUTION    RADIAL
 FREQ.      1153.07        C  1 --  C  4          +17.4% ( 56.3%)    23.8%
 T-DIPOLE    0.0966        C  1 --  C  2          +13.6% ( 49.8%)    21.2%
 TRAVEL      0.1024        C  1 --  C  5          +11.7% ( 46.2%)    12.2%
 RED. MASS   0.7377        C  2 --  H  9          +11.0% ( 44.8%)     9.9%
 EFF. MASS   5.5787

 VIBRATION   22   22A       ATOM PAIR        ENERGY CONTRIBUTION    RADIAL
 FREQ.      1234.93        C  6 --  H 16          +17.0% ( 51.9%)     0.4%
 T-DIPOLE    0.0397        C  5 --  H 15          +14.6% ( 48.1%)     0.3%
 TRAVEL      0.1179        C  3 --  H 10           +9.5% ( 38.8%)     0.9%
 RED. MASS   0.4406        C  1 --  H  7           +9.0% ( 37.8%)     1.1%
 EFF. MASS   3.9258

 VIBRATION   23   23A       ATOM PAIR        ENERGY CONTRIBUTION    RADIAL
 FREQ.      1260.68        C  2 --  H  8          +20.3% ( 59.8%)     1.0%
 T-DIPOLE    0.0409        C  2 --  H  9          +17.3% ( 55.3%)     0.0%
 TRAVEL      0.1028        C  1 --  H  7          +12.8% ( 47.6%)     0.4%
 RED. MASS   0.9029        C  1 --  C  2          +11.6% ( 45.3%)     1.2%
 EFF. MASS   5.0613        C  2 --  C  3          +11.5% ( 45.1%)    86.8%

 VIBRATION   24   24A       ATOM PAIR        ENERGY CONTRIBUTION    RADIAL
 FREQ.      1305.85        C  1 --  C  2          +21.1% ( 68.0%)    92.7%
 T-DIPOLE    0.0714        C  1 --  H  7          +16.8% ( 60.7%)     0.0%
 TRAVEL      0.0793        C  1 --  C  5          +16.5% ( 60.2%)    36.6%
 RED. MASS   2.3044        C  1 --  C  4          +12.5% ( 52.4%)    23.6%
 EFF. MASS   8.2117

 VIBRATION   25   25A       ATOM PAIR        ENERGY CONTRIBUTION    RADIAL
 FREQ.      1350.91        C  3 --  C  6          +20.9% ( 64.0%)    75.9%
 T-DIPOLE    0.0558        C  3 --  H 11          +16.8% ( 57.5%)     0.0%
 TRAVEL      0.0827        C  3 --  H 10          +16.5% ( 56.8%)     0.0%
 RED. MASS   1.7318        C  2 --  C  3          +12.4% ( 49.4%)    66.0%
 EFF. MASS   7.2996

 VIBRATION   26   26A       ATOM PAIR        ENERGY CONTRIBUTION    RADIAL
 FREQ.      1375.84        C  1 --  C  5          +17.6% ( 51.5%)    99.3%
 T-DIPOLE    0.0738        C  4 --  H 12           +8.4% ( 35.5%)     0.3%
 TRAVEL      0.0978        C  1 --  H  7           +8.1% ( 34.9%)     2.0%
 RED. MASS   0.5615        C  1 --  C  2           +7.9% ( 34.5%)     2.1%
 EFF. MASS   5.1218

 VIBRATION   27   27A       ATOM PAIR        ENERGY CONTRIBUTION    RADIAL
 FREQ.      1403.39        C  4 --  H 12          +47.8% ( 60.3%)     0.9%
 T-DIPOLE    0.0422        C  4 --  H 14          +36.1% ( 52.4%)     3.4%
 TRAVEL      0.1727        C  4 --  H 13           +9.3% ( 26.6%)    49.4%
 RED. MASS   0.4262        C  1 --  C  4           +5.4% ( 20.3%)     8.4%
 EFF. MASS   1.6116

 VIBRATION   28   28A       ATOM PAIR        ENERGY CONTRIBUTION    RADIAL
 FREQ.      1407.22        C  3 --  C  6          +13.1% ( 42.1%)    98.9%
 T-DIPOLE    0.0214        C  3 --  H 10          +12.9% ( 41.9%)     5.3%
 TRAVEL      0.1055        C  3 --  H 11          +12.9% ( 41.9%)     5.4%
 RED. MASS   0.4273        C  4 --  H 13          +11.6% ( 39.6%)     0.7%
 EFF. MASS   4.3085

 VIBRATION   29   29A       ATOM PAIR        ENERGY CONTRIBUTION    RADIAL
 FREQ.      1411.67        C  4 --  H 13          +30.8% ( 54.6%)     0.4%
 T-DIPOLE    0.0655        C  4 --  H 14          +17.9% ( 41.6%)     8.2%
 TRAVEL      0.1370        C  3 --  H 10          +10.0% ( 31.1%)     6.0%
 RED. MASS   0.3140        C  3 --  H 11           +9.9% ( 31.0%)     6.3%
 EFF. MASS   2.5450

 VIBRATION   30   30A       ATOM PAIR        ENERGY CONTRIBUTION    RADIAL
 FREQ.      1421.76        C  2 --  H  9          +26.1% ( 55.7%)     3.9%
 T-DIPOLE    0.0485        C  2 --  H  8          +22.4% ( 51.6%)     6.1%
 TRAVEL      0.1177        C  1 --  C  2           +9.8% ( 34.1%)    85.4%
 RED. MASS   0.4131        C  2 --  C  3           +8.1% ( 31.1%)    53.7%
 EFF. MASS   3.4215

 VIBRATION   31   31A       ATOM PAIR        ENERGY CONTRIBUTION    RADIAL
 FREQ.      1424.09        C  1 --  C  4          +17.2% ( 57.7%)    90.3%
 T-DIPOLE    0.0660        C  1 --  C  5          +12.8% ( 49.8%)    80.1%
 TRAVEL      0.0819        C  1 --  C  2           +9.9% ( 43.8%)     5.8%
 RED. MASS   1.0907        C  1 --  H  7           +9.4% ( 42.8%)     0.1%
 EFF. MASS   7.0516

 VIBRATION   32   32A       ATOM PAIR        ENERGY CONTRIBUTION    RADIAL
 FREQ.      1831.43        C  5 --  C  6          +45.8% (100.2%)   100.0%
 T-DIPOLE    0.1069        C  1 --  C  5          +13.9% ( 55.2%)    25.2%
 TRAVEL      0.0557        C  3 --  C  6          +13.9% ( 55.2%)    25.6%
 RED. MASS   5.3942        C  5 --  H 15          +13.0% ( 53.3%)    10.0%
 EFF. MASS  11.8853        C  6 --  H 16          +13.0% ( 53.3%)     9.6%

 VIBRATION   33   33A       ATOM PAIR        ENERGY CONTRIBUTION    RADIAL
 FREQ.      2891.69        C  1 --  H  7          +96.4% ( 99.8%)   100.0%
 T-DIPOLE    0.0525        C  1 --  C  2           +1.1% ( 10.4%)    10.0%
 TRAVEL      0.1270        C  1 --  C  4           +1.0% ( 10.4%)     9.0%
 RED. MASS   0.9217        C  1 --  C  5           +1.0% ( 10.3%)     9.9%
 EFF. MASS   1.4453

 VIBRATION   34   34A       ATOM PAIR        ENERGY CONTRIBUTION    RADIAL
 FREQ.      2972.20        C  3 --  H 10          +38.3% ( 64.4%)    96.7%
 T-DIPOLE    0.0072        C  3 --  H 11          +35.9% ( 62.3%)    96.3%
 TRAVEL      0.1209        C  2 --  H  9          +13.1% ( 37.7%)    97.0%
 RED. MASS   0.3305        C  2 --  H  8          +10.2% ( 33.3%)    95.4%
 EFF. MASS   1.5517

 VIBRATION   35   35A       ATOM PAIR        ENERGY CONTRIBUTION    RADIAL
 FREQ.      2989.29        C  2 --  H  9          +42.7% ( 67.6%)    97.4%
 T-DIPOLE    0.0482        C  2 --  H  8          +31.7% ( 58.3%)    95.6%
 TRAVEL      0.1214        C  3 --  H 10          +12.1% ( 36.0%)    97.1%
 RED. MASS   0.3341        C  3 --  H 11          +11.2% ( 34.6%)    96.6%
 EFF. MASS   1.5302

 VIBRATION   36   36A       ATOM PAIR        ENERGY CONTRIBUTION    RADIAL
 FREQ.      3055.22        C  3 --  H 11          +49.9% ( 69.7%)    97.8%
 T-DIPOLE    0.0750        C  3 --  H 10          +46.1% ( 67.0%)    97.3%
 TRAVEL      0.1311        C  2 --  H  8           +1.4% ( 11.8%)    98.3%
 RED. MASS   0.4608        C  2 --  H  9           +1.0% (  9.8%)    96.0%
 EFF. MASS   1.2838

 VIBRATION   37   37A       ATOM PAIR        ENERGY CONTRIBUTION    RADIAL
 FREQ.      3067.59        C  2 --  H  8          +55.5% ( 73.4%)    98.4%
 T-DIPOLE    0.0649        C  2 --  H  9          +40.7% ( 62.9%)    96.6%
 TRAVEL      0.1310        C  3 --  H 10           +1.2% ( 10.8%)    97.9%
 RED. MASS   0.4691        C  3 --  H 11           +1.1% ( 10.6%)    97.8%
 EFF. MASS   1.2805

 VIBRATION   38   38A       ATOM PAIR        ENERGY CONTRIBUTION    RADIAL
 FREQ.      3081.50        C  4 --  H 13          +65.3% ( 83.4%)    98.9%
 T-DIPOLE    0.0156        C  4 --  H 14          +17.9% ( 43.7%)    85.5%
 TRAVEL      0.1206        C  4 --  H 12          +15.7% ( 40.9%)    83.1%
 RED. MASS   0.5112        C  1 --  C  4           +1.0% ( 10.3%)     0.0%
 EFF. MASS   1.5043

 VIBRATION   39   39A       ATOM PAIR        ENERGY CONTRIBUTION    RADIAL
 FREQ.      3084.81        C  4 --  H 12          +50.3% ( 73.2%)    97.3%
 T-DIPOLE    0.0100        C  4 --  H 14          +47.7% ( 71.3%)    96.9%
 TRAVEL      0.1204        C  1 --  C  4           +1.0% ( 10.5%)     0.0%
 RED. MASS   0.5101        C  4 --  H 13           +1.0% ( 10.3%)     0.6%
 EFF. MASS   1.5079

 VIBRATION   40   40A       ATOM PAIR        ENERGY CONTRIBUTION    RADIAL
 FREQ.      3115.03        C  5 --  H 15          +50.4% ( 72.1%)   100.0%
 T-DIPOLE    0.3633        C  6 --  H 16          +47.1% ( 69.7%)    99.9%
 TRAVEL      0.1217        C  5 --  C  6           +1.1% ( 10.7%)     0.0%
 RED. MASS   0.4653        C  1 --  C  5           +0.7% (  8.8%)    25.8%
 EFF. MASS   1.4613

 VIBRATION   41   41A       ATOM PAIR        ENERGY CONTRIBUTION    RADIAL
 FREQ.      3134.08        C  6 --  H 16          +49.3% ( 71.6%)    99.9%
 T-DIPOLE    0.3339        C  5 --  H 15          +46.1% ( 69.2%)    99.9%
 TRAVEL      0.1141        C  5 --  C  6           +2.5% ( 16.1%)   100.0%
 RED. MASS   0.4664        C  3 --  C  6           +1.0% ( 10.0%)    20.9%
 EFF. MASS   1.6519

 VIBRATION   42   42A       ATOM PAIR        ENERGY CONTRIBUTION    RADIAL
 FREQ.      3180.23        C  4 --  H 14          +33.6% ( 55.8%)    97.2%
 T-DIPOLE    0.0302        C  4 --  H 12          +33.2% ( 55.5%)    97.1%
 TRAVEL      0.1367        C  4 --  H 13          +32.8% ( 55.1%)    97.0%
 RED. MASS   0.3271        C  1 --  C  4           +0.3% (  5.1%)   100.0%
 EFF. MASS   1.1351

 SYMMETRY NUMBER FOR POINT-GROUP C1  =  1


          SYSTEM IS A GROUND STATE


    NULL



          MOLECULE IS NOT LINEAR

          THERE ARE 42 GENUINE VIBRATIONS IN THIS SYSTEM
          THIS THERMODYNAMICS CALCULATION IS LIMITED TO
          MOLECULES WHICH HAVE NO INTERNAL ROTATIONS




                    CALCULATED THERMODYNAMIC PROPERTIES
                                          *
   TEMP. (K)   PARTITION FUNCTION   H.O.F.    ENTHALPY  HEAT CAPACITY ENTROPY
                                   KCAL/MOL   CAL/MOLE    CAL/K/MOL  CAL/K/MOL


 298.00  VIB.     0.1018D+02                  2001.6933    16.5709    11.3285
         ROT.     0.1201D+06                   888.2813     2.9808    26.2241
         INT.     0.1223D+07                  2889.9746    19.5517    37.5526
         TRA.     0.7198D+27                  1480.4688     4.9680    39.1295
         TOT.                       -2.703    4370.4435    24.5198    76.6821

 200.00  VIB.     0.3638D+01                   771.7638     8.9153     6.4251
         ROT.     0.6606D+05                   596.1620     2.9808    25.0355
         INT.     0.2403D+06                  1367.9258    11.8961    31.4605
         TRA.     0.3957D+27                   993.6033     4.9680    37.1484
         TOT.                       -4.711    2361.5290    16.8641    68.6089

 210.00  VIB.     0.4012D+01                   864.1921     9.5759     6.8759
         ROT.     0.7108D+05                   625.9700     2.9808    25.1809
         INT.     0.2851D+06                  1490.1621    12.5567    32.0568
         TRA.     0.4258D+27                  1043.2834     4.9680    37.3907
         TOT.                       -4.540    2533.4455    17.5247    69.4475

 220.00  VIB.     0.4431D+01                   963.3924    10.2696     7.3372
         ROT.     0.7621D+05                   655.7781     2.9808    25.3196
         INT.     0.3377D+06                  1619.1705    13.2504    32.6568
         TRA.     0.4566D+27                  1092.9636     4.9680    37.6219
         TOT.                       -4.361    2712.1341    18.2184    70.2787

 230.00  VIB.     0.4902D+01                  1069.6890    10.9949     7.8096
         ROT.     0.8147D+05                   685.5862     2.9808    25.4521
         INT.     0.3993D+06                  1755.2752    13.9757    33.2617
         TRA.     0.4880D+27                  1142.6437     4.9680    37.8427
         TOT.                       -4.175    2897.9189    18.9437    71.1044

 240.00  VIB.     0.5431D+01                  1183.3891    11.7499     8.2934
         ROT.     0.8684D+05                   715.3943     2.9808    25.5789
         INT.     0.4716D+06                  1898.7834    14.7307    33.8723
         TRA.     0.5202D+27                  1192.3239     4.9680    38.0541
         TOT.                       -3.982    3091.1073    19.6987    71.9265

 250.00  VIB.     0.6028D+01                  1304.7773    12.5321     8.7888
         ROT.     0.9232D+05                   745.2024     2.9808    25.7006
         INT.     0.5565D+06                  2049.9798    15.5129    34.4895
         TRA.     0.5531D+27                  1242.0041     4.9680    38.2569
         TOT.                       -3.781    3291.9838    20.4809    72.7464

 260.00  VIB.     0.6701D+01                  1434.1117    13.3386     9.2960
         ROT.     0.9792D+05                   775.0105     2.9808    25.8175
         INT.     0.6561D+06                  2209.1222    16.3194    35.1135
         TRA.     0.5866D+27                  1291.6842     4.9680    38.4518
         TOT.                       -3.572    3500.8065    21.2874    73.5653

 270.00  VIB.     0.7462D+01                  1571.6207    14.1665     9.8149
         ROT.     0.1036D+06                   804.8186     2.9808    25.9300
         INT.     0.7732D+06                  2376.4393    17.1473    35.7449
         TRA.     0.6208D+27                  1341.3644     4.9680    38.6393
         TOT.                       -3.355    3717.8037    22.1153    74.3842

 280.00  VIB.     0.8325D+01                  1717.5017    15.0125    10.3453
         ROT.     0.1094D+06                   834.6267     2.9808    26.0384
         INT.     0.9110D+06                  2552.1284    17.9933    36.3837
         TRA.     0.6556D+27                  1391.0445     4.9680    38.8200
         TOT.                       -3.130    3943.1730    22.9613    75.2037

 290.00  VIB.     0.9303D+01                  1871.9203    15.8735    10.8871
         ROT.     0.1153D+06                   864.4348     2.9808    26.1430
         INT.     0.1073D+07                  2736.3551    18.8543    37.0301
         TRA.     0.6910D+27                  1440.7247     4.9680    38.9943
         TOT.                       -2.896    4177.0798    23.8223    76.0244

 300.00  VIB.     0.1042D+02                  2035.0105    16.7463    11.4399
         ROT.     0.1214D+06                   894.2429     2.9808    26.2441
         INT.     0.1264D+07                  2929.2534    19.7271    37.6840
         TRA.     0.7270D+27                  1490.4049     4.9680    39.1627
         TOT.                       -2.653    4419.6583    24.6951    76.8467

 310.00  VIB.     0.1168D+02                  2206.8757    17.6280    12.0034
         ROT.     0.1275D+06                   924.0510     2.9808    26.3418
         INT.     0.1489D+07                  3130.9267    20.6088    38.3452
         TRA.     0.7637D+27                  1540.0850     4.9680    39.3256
         TOT.                       -2.402    4671.0118    25.5768    77.6708

 320.00  VIB.     0.1312D+02                  2387.5898    18.5156    12.5770
         ROT.     0.1337D+06                   953.8591     2.9808    26.4365
         INT.     0.1755D+07                  3341.4490    21.4964    39.0135
         TRA.     0.8009D+27                  1589.7652     4.9680    39.4834
         TOT.                       -2.142    4931.2142    26.4644    78.4968

 330.00  VIB.     0.1477D+02                  2577.1992    19.4066    13.1604
         ROT.     0.1400D+06                   983.6672     2.9808    26.5282
         INT.     0.2068D+07                  3560.8664    22.3874    39.6886
         TRA.     0.8388D+27                  1639.4454     4.9680    39.6362
         TOT.                       -1.873    5200.3117    27.3554    79.3248

 340.00  VIB.     0.1665D+02                  2775.7242    20.2984    13.7530
         ROT.     0.1464D+06                  1013.4753     2.9808    26.6172
         INT.     0.2438D+07                  3789.1995    23.2792    40.3702
         TRA.     0.8772D+27                  1689.1255     4.9680    39.7845
         TOT.                       -1.595    5478.3251    28.2472    80.1547

 350.00  VIB.     0.1881D+02                  2983.1620    21.1888    14.3543
         ROT.     0.1529D+06                  1043.2834     2.9808    26.7036
         INT.     0.2876D+07                  4026.4455    24.1696    41.0578
         TRA.     0.9162D+27                  1738.8057     4.9680    39.9285
         TOT.                       -1.308    5765.2511    29.1376    80.9864

 360.00  VIB.     0.2128D+02                  3199.4882    22.0757    14.9636
         ROT.     0.1595D+06                  1073.0915     2.9808    26.7875
         INT.     0.3394D+07                  4272.5797    25.0565    41.7512
         TRA.     0.9557D+27                  1788.4859     4.9680    40.0685
         TOT.                       -1.012    6061.0656    30.0246    81.8197

 370.00  VIB.     0.2411D+02                  3424.6593    22.9575    15.5805
         ROT.     0.1662D+06                  1102.8996     2.9808    26.8692
         INT.     0.4008D+07                  4527.5589    25.9383    42.4497
         TRA.     0.9958D+27                  1838.1660     4.9680    40.2046
         TOT.                       -0.707    6365.7249    30.9063    82.6543

 380.00  VIB.     0.2737D+02                  3658.6147    23.8324    16.2044
         ROT.     0.1730D+06                  1132.7077     2.9808    26.9487
         INT.     0.4735D+07                  4791.3225    26.8132    43.1531
         TRA.     0.1036D+28                  1887.8462     4.9680    40.3371
         TOT.                       -0.394    6679.1686    31.7812    83.4902

 390.00  VIB.     0.3111D+02                  3901.2794    24.6991    16.8347
         ROT.     0.1799D+06                  1162.5158     2.9808    27.0261
         INT.     0.5597D+07                  5063.7952    27.6799    43.8608
         TRA.     0.1078D+28                  1937.5263     4.9680    40.4662
         TOT.                       -0.072    7001.3215    32.6479    84.3270

 400.00  VIB.     0.3543D+02                  4152.5650    25.5564    17.4708
         ROT.     0.1868D+06                  1192.3239     2.9808    27.1016
         INT.     0.6620D+07                  5344.8889    28.5372    44.5724
         TRA.     0.1119D+28                  1987.2065     4.9680    40.5919
         TOT.                        0.259    7332.0954    33.5052    85.1644

   *: NOTE: HEATS OF FORMATION ARE RELATIVE TO THE
            ELEMENTS IN THEIR STANDARD STATE AT 298K
              (=  Standard Enthalpy of Formation).

            Hvib:  Zero-point energy is not included.
                   frequencies of less than zero cm-1 are not included.
            Hrot = (3/2)RT
            Htra = (3/2)RT + pV = (5/2)RT

            Heat capacity is Cp, not Cv

           For more information, see: HTTP://OpenMOPAC.net/Manual/thermochemistry.html


           FORCE CONSTANT IN CARTESIAN COORDINATES (Millidynes/A)

    ATOM   CHEMICAL       X               Y               Z
   NUMBER   SYMBOL  FORCE CONSTANT  FORCE CONSTANT  FORCE CONSTANT

      1       C        7.829699        9.255647        8.257039
      2       C        7.603490        8.440843        8.414396
      3       C        9.631640        7.570413        8.075107
      4       C        8.401248        8.374237        8.181986
      5       C       14.614497       10.401608        2.434811
      6       C       12.008110       13.107333        2.363339
      7       H        1.177287        1.218906        3.601975
      8       H        1.241067        1.672938        3.590749
      9       H        1.312774        1.653136        3.560546
     10       H        1.741692        0.934623        3.707748
     11       H        2.107730        0.897705        3.391843
     12       H        1.031094        5.018427        0.726243
     13       H        1.179113        1.317578        4.284466
     14       H        5.374344        0.690547        0.707400
     15       H        4.960774        1.094028        0.361304
     16       H        0.711092        5.352190        0.358767



 TOTAL CPU TIME:             1.14 SECONDS

 == MOPAC DONE ==
