 *******************************************************************************
 ** Site#: 14399           For non-commercial use only        Version 13.159M **
 *******************************************************************************
 ** Cite this work as: MOPAC2012, James J. P. Stewart, Stewart Computational  **
 ** Chemistry, Version 13.159M web: HTTP://OpenMOPAC.net  Days remaining:   6 **
 *******************************************************************************
 **                                                                           **
 **                                MOPAC2012                                  **
 **                                                                           **
 *******************************************************************************

                            PM3 CALCULATION RESULTS


 *******************************************************************************
 *  CALCULATION DONE:                                Mon Jun  2 11:06:08 2014  *
 *  PM3      - The PM3 Hamiltonian to be used
 *  PRECISE  - CRITERIA TO BE INCREASED BY 100 TIMES
 *  NOSYM    - POINT-GROUP SYMMETRY SET TO C1
 *  T=       - A TIME OF 172800.0 SECONDS REQUESTED
 *  DUMP=N   - RESTART FILE WRITTEN EVERY  7200.000 SECONDS
 *******************************************************************************
pm3  precise nosym
 InChI=1S/C11H18/c1-3-5-7-11-8-10(9-11)6-4-2/h4-5,7,10-11H,2-3,6,8-9H2,1H3

   ATOM   CHEMICAL          X               Y               Z
  NUMBER   SYMBOL      (ANGSTROMS)     (ANGSTROMS)     (ANGSTROMS)
 
     1       C         -1.83320000  *  -1.21710000  *   0.01540000  *
     2       C          0.28780000  *  -1.36490000  *  -0.37350000  *
     3       C         -0.87400000  *  -0.69720000  *  -1.10220000  *
     4       C         -0.62930000  *  -1.87070000  *   0.69070000  *
     5       C         -2.51190000  *  -0.12010000  *   0.84390000  *
     6       C          3.65940000  *   0.43930000  *   0.35670000  *
     7       C          3.54150000  *   1.81230000  *  -0.29630000  *
     8       C          1.32190000  *  -0.38730000  *   0.12450000  *
     9       C          2.62680000  *  -0.53080000  *  -0.14320000  *
    10       C         -3.59720000  *   0.55670000  *   0.05590000  *
    11       C         -3.57700000  *   1.86170000  *  -0.22580000  *
    12       H         -2.55570000  *  -1.97790000  *  -0.36660000  *
    13       H          0.71520000  *  -2.20100000  *  -0.97870000  *
    14       H         -1.08950000  *  -1.17020000  *  -2.08870000  *
    15       H         -0.81470000  *   0.41470000  *  -1.18080000  *
    16       H         -0.41740000  *  -1.50130000  *   1.72290000  *
    17       H         -0.70650000  *  -2.98360000  *   0.68740000  *
    18       H          3.58550000  *   0.53520000  *   1.46470000  *
    19       H          4.67190000  *   0.03210000  *   0.13100000  *
    20       H         -2.98290000  *  -0.58570000  *   1.73950000  *
    21       H         -1.75600000  *   0.60800000  *   1.22400000  *
    22       H          4.35510000  *   2.47610000  *   0.07450000  *
    23       H          2.56880000  *   2.29500000  *  -0.04890000  *
    24       H          3.63580000  *   1.73280000  *  -1.40360000  *
    25       H          2.97150000  *  -1.38510000  *  -0.72530000  *
    26       H          0.98620000  *   0.46120000  *   0.72170000  *
    27       H         -4.43320000  *  -0.04410000  *  -0.30020000  *
    28       H         -2.76250000  *   2.50470000  *   0.10350000  *
    29       H         -4.38610000  *   2.30720000  *  -0.80150000  *
 


          CARTESIAN COORDINATES 

    NO.       ATOM         X         Y         Z

     1         C       -1.8332   -1.2171    0.0154
     2         C        0.2878   -1.3649   -0.3735
     3         C       -0.8740   -0.6972   -1.1022
     4         C       -0.6293   -1.8707    0.6907
     5         C       -2.5119   -0.1201    0.8439
     6         C        3.6594    0.4393    0.3567
     7         C        3.5415    1.8123   -0.2963
     8         C        1.3219   -0.3873    0.1245
     9         C        2.6268   -0.5308   -0.1432
    10         C       -3.5972    0.5567    0.0559
    11         C       -3.5770    1.8617   -0.2258
    12         H       -2.5557   -1.9779   -0.3666
    13         H        0.7152   -2.2010   -0.9787
    14         H       -1.0895   -1.1702   -2.0887
    15         H       -0.8147    0.4147   -1.1808
    16         H       -0.4174   -1.5013    1.7229
    17         H       -0.7065   -2.9836    0.6874
    18         H        3.5855    0.5352    1.4647
    19         H        4.6719    0.0321    0.1310
    20         H       -2.9829   -0.5857    1.7395
    21         H       -1.7560    0.6080    1.2240
    22         H        4.3551    2.4761    0.0745
    23         H        2.5688    2.2950   -0.0489
    24         H        3.6358    1.7328   -1.4036
    25         H        2.9715   -1.3851   -0.7253
    26         H        0.9862    0.4612    0.7217
    27         H       -4.4332   -0.0441   -0.3002
    28         H       -2.7625    2.5047    0.1035
    29         H       -4.3861    2.3072   -0.8015

  H: (PM3): J. J. P. STEWART, J. COMP. CHEM. 10, 209 (1989).
  C: (PM3): J. J. P. STEWART, J. COMP. CHEM. 10, 209 (1989).

           Empirical Formula: C11 H18  =    29 atoms



      MOLECULAR POINT GROUP   :   C1  


      RHF CALCULATION, NO. OF DOUBLY OCCUPIED LEVELS =   31

      Geometry optimization using EF

          DIAGONAL MATRIX USED AS START HESSIAN

 CYCLE:     1 TIME:   0.023 TIME LEFT:  2.00D  GRAD.:   104.748 HEAT: 18.93699
 CYCLE:     2 TIME:   0.026 TIME LEFT:  2.00D  GRAD.:   111.703 HEAT: 18.34135
 CYCLE:     3 TIME:   0.012 TIME LEFT:  2.00D  GRAD.:   102.666 HEAT: 17.11963
 CYCLE:     4 TIME:   0.025 TIME LEFT:  2.00D  GRAD.:    53.499 HEAT: 15.23394
 CYCLE:     5 TIME:   0.026 TIME LEFT:  2.00D  GRAD.:    36.998 HEAT: 14.68461
 CYCLE:     6 TIME:   0.015 TIME LEFT:  2.00D  GRAD.:    31.717 HEAT: 14.47760
 CYCLE:     7 TIME:   0.014 TIME LEFT:  2.00D  GRAD.:    31.898 HEAT: 14.30498
 CYCLE:     8 TIME:   0.014 TIME LEFT:  2.00D  GRAD.:    35.783 HEAT: 14.24944
 CYCLE:     9 TIME:   0.013 TIME LEFT:  2.00D  GRAD.:    27.979 HEAT: 14.12702
 CYCLE:    10 TIME:   0.021 TIME LEFT:  2.00D  GRAD.:    14.119 HEAT: 13.92139
 CYCLE:    11 TIME:   0.025 TIME LEFT:  2.00D  GRAD.:    12.123 HEAT: 13.88238
 CYCLE:    12 TIME:   0.014 TIME LEFT:  2.00D  GRAD.:     9.248 HEAT: 13.84175
 CYCLE:    13 TIME:   0.011 TIME LEFT:  2.00D  GRAD.:    12.308 HEAT: 13.82478
 CYCLE:    14 TIME:   0.023 TIME LEFT:  2.00D  GRAD.:     6.987 HEAT: 13.78895
 CYCLE:    15 TIME:   0.023 TIME LEFT:  2.00D  GRAD.:     4.852 HEAT: 13.77676
 CYCLE:    16 TIME:   0.012 TIME LEFT:  2.00D  GRAD.:     4.025 HEAT: 13.76734
 CYCLE:    17 TIME:   0.012 TIME LEFT:  2.00D  GRAD.:     5.662 HEAT: 13.76297
 CYCLE:    18 TIME:   0.013 TIME LEFT:  2.00D  GRAD.:     5.805 HEAT: 13.75828
 CYCLE:    19 TIME:   0.022 TIME LEFT:  2.00D  GRAD.:     3.682 HEAT: 13.75055
 CYCLE:    20 TIME:   0.011 TIME LEFT:  2.00D  GRAD.:     5.396 HEAT: 13.75179
 CYCLE:    21 TIME:   0.011 TIME LEFT:  2.00D  GRAD.:     4.527 HEAT: 13.74551
 CYCLE:    22 TIME:   0.020 TIME LEFT:  2.00D  GRAD.:     3.281 HEAT: 13.74110
 CYCLE:    23 TIME:   0.011 TIME LEFT:  2.00D  GRAD.:     1.990 HEAT: 13.73643
 CYCLE:    24 TIME:   0.011 TIME LEFT:  2.00D  GRAD.:     3.726 HEAT: 13.73166
 CYCLE:    25 TIME:   0.011 TIME LEFT:  2.00D  GRAD.:     4.225 HEAT: 13.72545
 CYCLE:    26 TIME:   0.011 TIME LEFT:  2.00D  GRAD.:     3.793 HEAT: 13.71747
 CYCLE:    27 TIME:   0.011 TIME LEFT:  2.00D  GRAD.:     3.122 HEAT: 13.71243
 CYCLE:    28 TIME:   0.011 TIME LEFT:  2.00D  GRAD.:     2.199 HEAT: 13.70843
 CYCLE:    29 TIME:   0.011 TIME LEFT:  2.00D  GRAD.:     3.320 HEAT: 13.70565
 CYCLE:    30 TIME:   0.011 TIME LEFT:  2.00D  GRAD.:     3.090 HEAT: 13.70062
 CYCLE:    31 TIME:   0.011 TIME LEFT:  2.00D  GRAD.:     2.651 HEAT: 13.69656
 CYCLE:    32 TIME:   0.011 TIME LEFT:  2.00D  GRAD.:     2.915 HEAT: 13.69316
 CYCLE:    33 TIME:   0.011 TIME LEFT:  2.00D  GRAD.:     2.544 HEAT: 13.68687
 CYCLE:    34 TIME:   0.012 TIME LEFT:  2.00D  GRAD.:     2.690 HEAT: 13.67773
 CYCLE:    35 TIME:   0.012 TIME LEFT:  2.00D  GRAD.:     3.980 HEAT: 13.66962
 CYCLE:    36 TIME:   0.011 TIME LEFT:  2.00D  GRAD.:     3.298 HEAT: 13.66205
 CYCLE:    37 TIME:   0.011 TIME LEFT:  2.00D  GRAD.:     2.595 HEAT: 13.65531
 CYCLE:    38 TIME:   0.013 TIME LEFT:  2.00D  GRAD.:     2.851 HEAT: 13.64613
 CYCLE:    39 TIME:   0.013 TIME LEFT:  2.00D  GRAD.:     2.538 HEAT: 13.63830
 CYCLE:    40 TIME:   0.012 TIME LEFT:  2.00D  GRAD.:     2.483 HEAT: 13.63111
 CYCLE:    41 TIME:   0.012 TIME LEFT:  2.00D  GRAD.:     2.302 HEAT: 13.62365
 CYCLE:    42 TIME:   0.012 TIME LEFT:  2.00D  GRAD.:     2.787 HEAT: 13.61174
 CYCLE:    43 TIME:   0.011 TIME LEFT:  2.00D  GRAD.:     2.411 HEAT: 13.60059
 CYCLE:    44 TIME:   0.013 TIME LEFT:  2.00D  GRAD.:     2.074 HEAT: 13.59141
 CYCLE:    45 TIME:   0.012 TIME LEFT:  2.00D  GRAD.:     2.487 HEAT: 13.58079
 CYCLE:    46 TIME:   0.012 TIME LEFT:  2.00D  GRAD.:     2.825 HEAT: 13.56924
 CYCLE:    47 TIME:   0.012 TIME LEFT:  2.00D  GRAD.:     3.108 HEAT: 13.55179
 CYCLE:    48 TIME:   0.012 TIME LEFT:  2.00D  GRAD.:     3.784 HEAT: 13.53819
 CYCLE:    49 TIME:   0.012 TIME LEFT:  2.00D  GRAD.:     2.926 HEAT: 13.52270
 CYCLE:    50 TIME:   0.013 TIME LEFT:  2.00D  GRAD.:     2.996 HEAT: 13.50674
 CYCLE:    51 TIME:   0.016 TIME LEFT:  2.00D  GRAD.:     2.601 HEAT: 13.49151
 CYCLE:    52 TIME:   0.016 TIME LEFT:  2.00D  GRAD.:     2.456 HEAT: 13.47764
 CYCLE:    53 TIME:   0.016 TIME LEFT:  2.00D  GRAD.:     3.425 HEAT: 13.46646
 CYCLE:    54 TIME:   0.015 TIME LEFT:  2.00D  GRAD.:     2.973 HEAT: 13.45621
 CYCLE:    55 TIME:   0.016 TIME LEFT:  2.00D  GRAD.:     2.313 HEAT: 13.44541
 CYCLE:    56 TIME:   0.013 TIME LEFT:  2.00D  GRAD.:     2.194 HEAT: 13.43608
 CYCLE:    57 TIME:   0.013 TIME LEFT:  2.00D  GRAD.:     2.020 HEAT: 13.42957
 CYCLE:    58 TIME:   0.013 TIME LEFT:  2.00D  GRAD.:     1.446 HEAT: 13.42357
 CYCLE:    59 TIME:   0.013 TIME LEFT:  2.00D  GRAD.:     1.414 HEAT: 13.41789
 CYCLE:    60 TIME:   0.013 TIME LEFT:  2.00D  GRAD.:     1.921 HEAT: 13.41298
 CYCLE:    61 TIME:   0.015 TIME LEFT:  2.00D  GRAD.:     1.866 HEAT: 13.40568
 CYCLE:    62 TIME:   0.016 TIME LEFT:  2.00D  GRAD.:     2.124 HEAT: 13.39777
 CYCLE:    63 TIME:   0.012 TIME LEFT:  2.00D  GRAD.:     2.106 HEAT: 13.38960
 CYCLE:    64 TIME:   0.012 TIME LEFT:  2.00D  GRAD.:     2.368 HEAT: 13.38082
 CYCLE:    65 TIME:   0.015 TIME LEFT:  2.00D  GRAD.:     2.797 HEAT: 13.36876
 CYCLE:    66 TIME:   0.014 TIME LEFT:  2.00D  GRAD.:     3.209 HEAT: 13.35266
 CYCLE:    67 TIME:   0.015 TIME LEFT:  2.00D  GRAD.:     4.266 HEAT: 13.32570
 CYCLE:    68 TIME:   0.014 TIME LEFT:  2.00D  GRAD.:     3.399 HEAT: 13.30726
 CYCLE:    69 TIME:   0.012 TIME LEFT:  2.00D  GRAD.:     4.648 HEAT: 13.27523
 CYCLE:    70 TIME:   0.015 TIME LEFT:  2.00D  GRAD.:     3.804 HEAT: 13.25236
 CYCLE:    71 TIME:   0.014 TIME LEFT:  2.00D  GRAD.:     2.715 HEAT: 13.22999
 CYCLE:    72 TIME:   0.012 TIME LEFT:  2.00D  GRAD.:     4.129 HEAT: 13.20370
 CYCLE:    73 TIME:   0.011 TIME LEFT:  2.00D  GRAD.:     3.459 HEAT: 13.19468
 CYCLE:    74 TIME:   0.013 TIME LEFT:  2.00D  GRAD.:     2.668 HEAT: 13.18133
 CYCLE:    75 TIME:   0.018 TIME LEFT:  2.00D  GRAD.:     2.405 HEAT: 13.16748
 CYCLE:    76 TIME:   0.015 TIME LEFT:  2.00D  GRAD.:     1.882 HEAT: 13.16090
 CYCLE:    77 TIME:   0.012 TIME LEFT:  2.00D  GRAD.:     1.292 HEAT: 13.15483
 CYCLE:    78 TIME:   0.012 TIME LEFT:  2.00D  GRAD.:     1.208 HEAT: 13.15128
 CYCLE:    79 TIME:   0.015 TIME LEFT:  2.00D  GRAD.:     1.178 HEAT: 13.14786
 CYCLE:    80 TIME:   0.012 TIME LEFT:  2.00D  GRAD.:     1.380 HEAT: 13.14480
 CYCLE:    81 TIME:   0.015 TIME LEFT:  2.00D  GRAD.:     1.085 HEAT: 13.14199
 CYCLE:    82 TIME:   0.016 TIME LEFT:  2.00D  GRAD.:     1.249 HEAT: 13.14001
 CYCLE:    83 TIME:   0.012 TIME LEFT:  2.00D  GRAD.:     1.075 HEAT: 13.13812
 CYCLE:    84 TIME:   0.011 TIME LEFT:  2.00D  GRAD.:     1.075 HEAT: 13.13582
 CYCLE:    85 TIME:   0.012 TIME LEFT:  2.00D  GRAD.:     1.339 HEAT: 13.13184
 CYCLE:    86 TIME:   0.012 TIME LEFT:  2.00D  GRAD.:     1.549 HEAT: 13.12782
 CYCLE:    87 TIME:   0.013 TIME LEFT:  2.00D  GRAD.:     1.446 HEAT: 13.12329
 CYCLE:    88 TIME:   0.016 TIME LEFT:  2.00D  GRAD.:     1.146 HEAT: 13.11983
 CYCLE:    89 TIME:   0.014 TIME LEFT:  2.00D  GRAD.:     0.943 HEAT: 13.11760
 CYCLE:    90 TIME:   0.015 TIME LEFT:  2.00D  GRAD.:     1.096 HEAT: 13.11566
 CYCLE:    91 TIME:   0.013 TIME LEFT:  2.00D  GRAD.:     1.142 HEAT: 13.11334
 CYCLE:    92 TIME:   0.011 TIME LEFT:  2.00D  GRAD.:     1.339 HEAT: 13.11016
 CYCLE:    93 TIME:   0.012 TIME LEFT:  2.00D  GRAD.:     1.228 HEAT: 13.10723
 CYCLE:    94 TIME:   0.012 TIME LEFT:  2.00D  GRAD.:     1.504 HEAT: 13.10450
 CYCLE:    95 TIME:   0.013 TIME LEFT:  2.00D  GRAD.:     1.356 HEAT: 13.10189
 CYCLE:    96 TIME:   0.011 TIME LEFT:  2.00D  GRAD.:     1.474 HEAT: 13.09865
 CYCLE:    97 TIME:   0.012 TIME LEFT:  2.00D  GRAD.:     1.517 HEAT: 13.09424
 CYCLE:    98 TIME:   0.012 TIME LEFT:  2.00D  GRAD.:     1.529 HEAT: 13.09028
 CYCLE:    99 TIME:   0.015 TIME LEFT:  2.00D  GRAD.:     1.606 HEAT: 13.08632
 CYCLE:   100 TIME:   0.011 TIME LEFT:  2.00D  GRAD.:     1.722 HEAT: 13.08249
 CYCLE:   101 TIME:   0.013 TIME LEFT:  2.00D  GRAD.:     1.709 HEAT: 13.07740
 CYCLE:   102 TIME:   0.017 TIME LEFT:  2.00D  GRAD.:     1.433 HEAT: 13.07417
 CYCLE:   103 TIME:   0.012 TIME LEFT:  2.00D  GRAD.:     1.775 HEAT: 13.06848
 CYCLE:   104 TIME:   0.013 TIME LEFT:  2.00D  GRAD.:     1.332 HEAT: 13.06608
 CYCLE:   105 TIME:   0.013 TIME LEFT:  2.00D  GRAD.:     1.475 HEAT: 13.06030
 CYCLE:   106 TIME:   0.015 TIME LEFT:  2.00D  GRAD.:     1.095 HEAT: 13.05835
 CYCLE:   107 TIME:   0.013 TIME LEFT:  2.00D  GRAD.:     1.060 HEAT: 13.05501
 CYCLE:   108 TIME:   0.017 TIME LEFT:  2.00D  GRAD.:     0.858 HEAT: 13.05355
 CYCLE:   109 TIME:   0.012 TIME LEFT:  2.00D  GRAD.:     0.890 HEAT: 13.05179
 CYCLE:   110 TIME:   0.012 TIME LEFT:  2.00D  GRAD.:     0.952 HEAT: 13.04998
 CYCLE:   111 TIME:   0.012 TIME LEFT:  2.00D  GRAD.:     0.704 HEAT: 13.04879
 CYCLE:   112 TIME:   0.013 TIME LEFT:  2.00D  GRAD.:     0.610 HEAT: 13.04775
 CYCLE:   113 TIME:   0.016 TIME LEFT:  2.00D  GRAD.:     0.614 HEAT: 13.04693
 CYCLE:   114 TIME:   0.013 TIME LEFT:  2.00D  GRAD.:     0.643 HEAT: 13.04598
 CYCLE:   115 TIME:   0.017 TIME LEFT:  2.00D  GRAD.:     0.659 HEAT: 13.04522
 CYCLE:   116 TIME:   0.012 TIME LEFT:  2.00D  GRAD.:     0.717 HEAT: 13.04425
 CYCLE:   117 TIME:   0.012 TIME LEFT:  2.00D  GRAD.:     0.742 HEAT: 13.04330
 CYCLE:   118 TIME:   0.012 TIME LEFT:  2.00D  GRAD.:     0.673 HEAT: 13.04231
 CYCLE:   119 TIME:   0.011 TIME LEFT:  2.00D  GRAD.:     0.644 HEAT: 13.04146
 CYCLE:   120 TIME:   0.012 TIME LEFT:  2.00D  GRAD.:     0.803 HEAT: 13.04051
 CYCLE:   121 TIME:   0.011 TIME LEFT:  2.00D  GRAD.:     0.892 HEAT: 13.03958
 CYCLE:   122 TIME:   0.012 TIME LEFT:  2.00D  GRAD.:     1.091 HEAT: 13.03814
 CYCLE:   123 TIME:   0.013 TIME LEFT:  2.00D  GRAD.:     0.860 HEAT: 13.03720
 CYCLE:   124 TIME:   0.012 TIME LEFT:  2.00D  GRAD.:     1.306 HEAT: 13.03475
 CYCLE:   125 TIME:   0.011 TIME LEFT:  2.00D  GRAD.:     1.149 HEAT: 13.03360
 CYCLE:   126 TIME:   0.013 TIME LEFT:  2.00D  GRAD.:     1.899 HEAT: 13.02932
 CYCLE:   127 TIME:   0.014 TIME LEFT:  2.00D  GRAD.:     1.299 HEAT: 13.02688
 CYCLE:   128 TIME:   0.015 TIME LEFT:  2.00D  GRAD.:     1.113 HEAT: 13.02064
 CYCLE:   129 TIME:   0.014 TIME LEFT:  2.00D  GRAD.:     1.607 HEAT: 13.01011
 CYCLE:   130 TIME:   0.014 TIME LEFT:  2.00D  GRAD.:     5.661 HEAT: 13.00351
 CYCLE:   131 TIME:   0.012 TIME LEFT:  2.00D  GRAD.:     4.195 HEAT: 12.98858
 CYCLE:   132 TIME:   0.012 TIME LEFT:  2.00D  GRAD.:     2.032 HEAT: 12.98298
 CYCLE:   133 TIME:   0.012 TIME LEFT:  2.00D  GRAD.:     2.673 HEAT: 12.96540
 CYCLE:   134 TIME:   0.012 TIME LEFT:  2.00D  GRAD.:     4.325 HEAT: 12.95744
 CYCLE:   135 TIME:   0.011 TIME LEFT:  2.00D  GRAD.:     2.856 HEAT: 12.94635
 CYCLE:   136 TIME:   0.013 TIME LEFT:  2.00D  GRAD.:     3.957 HEAT: 12.93128
 CYCLE:   137 TIME:   0.015 TIME LEFT:  2.00D  GRAD.:     1.973 HEAT: 12.91540
 CYCLE:   138 TIME:   0.012 TIME LEFT:  2.00D  GRAD.:     2.862 HEAT: 12.90258
 CYCLE:   139 TIME:   0.012 TIME LEFT:  2.00D  GRAD.:     4.425 HEAT: 12.90103
 CYCLE:   140 TIME:   0.022 TIME LEFT:  2.00D  GRAD.:     5.817 HEAT: 12.90031
 CYCLE:   141 TIME:   0.012 TIME LEFT:  2.00D  GRAD.:     2.282 HEAT: 12.88511
 CYCLE:   142 TIME:   0.012 TIME LEFT:  2.00D  GRAD.:     1.683 HEAT: 12.88131
 CYCLE:   143 TIME:   0.012 TIME LEFT:  2.00D  GRAD.:     1.418 HEAT: 12.87848
 CYCLE:   144 TIME:   0.012 TIME LEFT:  2.00D  GRAD.:     2.088 HEAT: 12.87495
 CYCLE:   145 TIME:   0.012 TIME LEFT:  2.00D  GRAD.:     1.828 HEAT: 12.87141
 CYCLE:   146 TIME:   0.012 TIME LEFT:  2.00D  GRAD.:     1.487 HEAT: 12.86198
 CYCLE:   147 TIME:   0.012 TIME LEFT:  2.00D  GRAD.:     2.024 HEAT: 12.85933
 CYCLE:   148 TIME:   0.012 TIME LEFT:  2.00D  GRAD.:     2.667 HEAT: 12.85655
 CYCLE:   149 TIME:   0.012 TIME LEFT:  2.00D  GRAD.:     1.860 HEAT: 12.85241
 CYCLE:   150 TIME:   0.011 TIME LEFT:  2.00D  GRAD.:     1.128 HEAT: 12.85005
 CYCLE:   151 TIME:   0.012 TIME LEFT:  2.00D  GRAD.:     1.306 HEAT: 12.84772
 CYCLE:   152 TIME:   0.012 TIME LEFT:  2.00D  GRAD.:     1.539 HEAT: 12.84496
 CYCLE:   153 TIME:   0.012 TIME LEFT:  2.00D  GRAD.:     1.175 HEAT: 12.84224
 CYCLE:   154 TIME:   0.012 TIME LEFT:  2.00D  GRAD.:     1.665 HEAT: 12.83916
 CYCLE:   155 TIME:   0.012 TIME LEFT:  2.00D  GRAD.:     1.634 HEAT: 12.83646
 CYCLE:   156 TIME:   0.012 TIME LEFT:  2.00D  GRAD.:     2.491 HEAT: 12.83405
 CYCLE:   157 TIME:   0.013 TIME LEFT:  2.00D  GRAD.:     1.367 HEAT: 12.82937
 CYCLE:   158 TIME:   0.012 TIME LEFT:  2.00D  GRAD.:     1.180 HEAT: 12.82580
 CYCLE:   159 TIME:   0.012 TIME LEFT:  2.00D  GRAD.:     1.583 HEAT: 12.81885
 CYCLE:   160 TIME:   0.012 TIME LEFT:  2.00D  GRAD.:     3.734 HEAT: 12.81401
 CYCLE:   161 TIME:   0.021 TIME LEFT:  2.00D  GRAD.:     3.161 HEAT: 12.80586
 CYCLE:   162 TIME:   0.011 TIME LEFT:  2.00D  GRAD.:     2.236 HEAT: 12.79832
 CYCLE:   163 TIME:   0.012 TIME LEFT:  2.00D  GRAD.:     1.857 HEAT: 12.78939
 CYCLE:   164 TIME:   0.012 TIME LEFT:  2.00D  GRAD.:     2.356 HEAT: 12.78275
 CYCLE:   165 TIME:   0.016 TIME LEFT:  2.00D  GRAD.:     2.296 HEAT: 12.77766
 CYCLE:   166 TIME:   0.013 TIME LEFT:  2.00D  GRAD.:     1.232 HEAT: 12.77281
 CYCLE:   167 TIME:   0.013 TIME LEFT:  2.00D  GRAD.:     1.033 HEAT: 12.77080
 CYCLE:   168 TIME:   0.012 TIME LEFT:  2.00D  GRAD.:     1.651 HEAT: 12.76802
 CYCLE:   169 TIME:   0.011 TIME LEFT:  2.00D  GRAD.:     1.179 HEAT: 12.76677
 CYCLE:   170 TIME:   0.012 TIME LEFT:  2.00D  GRAD.:     0.768 HEAT: 12.76562
 CYCLE:   171 TIME:   0.012 TIME LEFT:  2.00D  GRAD.:     0.866 HEAT: 12.76468
 CYCLE:   172 TIME:   0.012 TIME LEFT:  2.00D  GRAD.:     0.909 HEAT: 12.76385
 CYCLE:   173 TIME:   0.015 TIME LEFT:  2.00D  GRAD.:     0.960 HEAT: 12.76263
 CYCLE:   174 TIME:   0.014 TIME LEFT:  2.00D  GRAD.:     1.278 HEAT: 12.76090
 CYCLE:   175 TIME:   0.012 TIME LEFT:  2.00D  GRAD.:     1.057 HEAT: 12.75869
 CYCLE:   176 TIME:   0.012 TIME LEFT:  2.00D  GRAD.:     0.888 HEAT: 12.75617
 CYCLE:   177 TIME:   0.012 TIME LEFT:  2.00D  GRAD.:     1.249 HEAT: 12.75496
 CYCLE:   178 TIME:   0.011 TIME LEFT:  2.00D  GRAD.:     0.972 HEAT: 12.75376
 CYCLE:   179 TIME:   0.012 TIME LEFT:  2.00D  GRAD.:     0.867 HEAT: 12.75271
 CYCLE:   180 TIME:   0.012 TIME LEFT:  2.00D  GRAD.:     0.752 HEAT: 12.75145
 CYCLE:   181 TIME:   0.013 TIME LEFT:  2.00D  GRAD.:     0.856 HEAT: 12.75035
 CYCLE:   182 TIME:   0.012 TIME LEFT:  2.00D  GRAD.:     0.796 HEAT: 12.74906
 CYCLE:   183 TIME:   0.014 TIME LEFT:  2.00D  GRAD.:     0.703 HEAT: 12.74786
 CYCLE:   184 TIME:   0.013 TIME LEFT:  2.00D  GRAD.:     1.036 HEAT: 12.74725
 CYCLE:   185 TIME:   0.013 TIME LEFT:  2.00D  GRAD.:     0.542 HEAT: 12.74660
 CYCLE:   186 TIME:   0.013 TIME LEFT:  2.00D  GRAD.:     0.399 HEAT: 12.74620
 CYCLE:   187 TIME:   0.012 TIME LEFT:  2.00D  GRAD.:     0.420 HEAT: 12.74577
 CYCLE:   188 TIME:   0.012 TIME LEFT:  2.00D  GRAD.:     0.483 HEAT: 12.74550
 CYCLE:   189 TIME:   0.012 TIME LEFT:  2.00D  GRAD.:     0.525 HEAT: 12.74509
 CYCLE:   190 TIME:   0.012 TIME LEFT:  2.00D  GRAD.:     0.620 HEAT: 12.74472
 CYCLE:   191 TIME:   0.013 TIME LEFT:  2.00D  GRAD.:     0.565 HEAT: 12.74428
 CYCLE:   192 TIME:   0.016 TIME LEFT:  2.00D  GRAD.:     0.450 HEAT: 12.74401
 CYCLE:   193 TIME:   0.013 TIME LEFT:  2.00D  GRAD.:     0.470 HEAT: 12.74377
 CYCLE:   194 TIME:   0.011 TIME LEFT:  2.00D  GRAD.:     0.472 HEAT: 12.74360
 CYCLE:   195 TIME:   0.011 TIME LEFT:  2.00D  GRAD.:     0.465 HEAT: 12.74337
 CYCLE:   196 TIME:   0.012 TIME LEFT:  2.00D  GRAD.:     0.573 HEAT: 12.74305
 CYCLE:   197 TIME:   0.012 TIME LEFT:  2.00D  GRAD.:     0.469 HEAT: 12.74273
 CYCLE:   198 TIME:   0.012 TIME LEFT:  2.00D  GRAD.:     0.490 HEAT: 12.74216
 CYCLE:   199 TIME:   0.012 TIME LEFT:  2.00D  GRAD.:     0.703 HEAT: 12.74145
 CYCLE:   200 TIME:   0.012 TIME LEFT:  2.00D  GRAD.:     0.882 HEAT: 12.74038
 CYCLE:   201 TIME:   0.012 TIME LEFT:  2.00D  GRAD.:     1.405 HEAT: 12.73768
 CYCLE:   202 TIME:   0.012 TIME LEFT:  2.00D  GRAD.:     1.176 HEAT: 12.73557
 CYCLE:   203 TIME:   0.012 TIME LEFT:  2.00D  GRAD.:     0.656 HEAT: 12.73235
 CYCLE:   204 TIME:   0.012 TIME LEFT:  2.00D  GRAD.:     0.480 HEAT: 12.73203
 CYCLE:   205 TIME:   0.012 TIME LEFT:  2.00D  GRAD.:     0.617 HEAT: 12.73182
 CYCLE:   206 TIME:   0.011 TIME LEFT:  2.00D  GRAD.:     0.438 HEAT: 12.73158
 CYCLE:   207 TIME:   0.012 TIME LEFT:  2.00D  GRAD.:     0.442 HEAT: 12.73135
 CYCLE:   208 TIME:   0.012 TIME LEFT:  2.00D  GRAD.:     0.420 HEAT: 12.73101
 CYCLE:   209 TIME:   0.012 TIME LEFT:  2.00D  GRAD.:     0.438 HEAT: 12.73074
 CYCLE:   210 TIME:   0.012 TIME LEFT:  2.00D  GRAD.:     0.592 HEAT: 12.73000
 CYCLE:   211 TIME:   0.012 TIME LEFT:  2.00D  GRAD.:     0.578 HEAT: 12.72960
 CYCLE:   212 TIME:   0.011 TIME LEFT:  2.00D  GRAD.:     0.554 HEAT: 12.72912
 CYCLE:   213 TIME:   0.011 TIME LEFT:  2.00D  GRAD.:     0.802 HEAT: 12.72791
 CYCLE:   214 TIME:   0.012 TIME LEFT:  2.00D  GRAD.:     0.862 HEAT: 12.72708
 CYCLE:   215 TIME:   0.012 TIME LEFT:  2.00D  GRAD.:     1.134 HEAT: 12.72386
 CYCLE:   216 TIME:   0.012 TIME LEFT:  2.00D  GRAD.:     0.736 HEAT: 12.72232
 CYCLE:   217 TIME:   0.012 TIME LEFT:  2.00D  GRAD.:     0.700 HEAT: 12.71979
 CYCLE:   218 TIME:   0.012 TIME LEFT:  2.00D  GRAD.:     0.366 HEAT: 12.71921
 CYCLE:   219 TIME:   0.012 TIME LEFT:  2.00D  GRAD.:     0.401 HEAT: 12.71897
 CYCLE:   220 TIME:   0.011 TIME LEFT:  2.00D  GRAD.:     0.233 HEAT: 12.71883
 CYCLE:   221 TIME:   0.011 TIME LEFT:  2.00D  GRAD.:     0.189 HEAT: 12.71876
 CYCLE:   222 TIME:   0.012 TIME LEFT:  2.00D  GRAD.:     0.113 HEAT: 12.71871
 CYCLE:   223 TIME:   0.011 TIME LEFT:  2.00D  GRAD.:     0.082 HEAT: 12.71870
 CYCLE:   224 TIME:   0.011 TIME LEFT:  2.00D  GRAD.:     0.070 HEAT: 12.71870
 CYCLE:   225 TIME:   0.011 TIME LEFT:  2.00D  GRAD.:     0.055 HEAT: 12.71869
 CYCLE:   226 TIME:   0.011 TIME LEFT:  2.00D  GRAD.:     0.064 HEAT: 12.71868
 CYCLE:   227 TIME:   0.011 TIME LEFT:  2.00D  GRAD.:     0.059 HEAT: 12.71868
 CYCLE:   228 TIME:   0.012 TIME LEFT:  2.00D  GRAD.:     0.073 HEAT: 12.71865
 CYCLE:   229 TIME:   0.013 TIME LEFT:  2.00D  GRAD.:     0.077 HEAT: 12.71861
 CYCLE:   230 TIME:   0.011 TIME LEFT:  2.00D  GRAD.:     0.082 HEAT: 12.71855
 CYCLE:   231 TIME:   0.012 TIME LEFT:  2.00D  GRAD.:     0.911 HEAT: 12.72019
 CYCLE:   232 TIME:   0.012 TIME LEFT:  2.00D  GRAD.:     0.149 HEAT: 12.71831
 CYCLE:   233 TIME:   0.012 TIME LEFT:  2.00D  GRAD.:     0.138 HEAT: 12.71825
 CYCLE:   234 TIME:   0.012 TIME LEFT:  2.00D  GRAD.:     0.098 HEAT: 12.71816
 CYCLE:   235 TIME:   0.011 TIME LEFT:  2.00D  GRAD.:     0.076 HEAT: 12.71812
 CYCLE:   236 TIME:   0.011 TIME LEFT:  2.00D  GRAD.:     0.091 HEAT: 12.71810
 CYCLE:   237 TIME:   0.012 TIME LEFT:  2.00D  GRAD.:     0.121 HEAT: 12.71808
 CYCLE:   238 TIME:   0.012 TIME LEFT:  2.00D  GRAD.:     0.121 HEAT: 12.71804
 CYCLE:   239 TIME:   0.012 TIME LEFT:  2.00D  GRAD.:     0.184 HEAT: 12.71801
 CYCLE:   240 TIME:   0.012 TIME LEFT:  2.00D  GRAD.:     0.121 HEAT: 12.71796
 CYCLE:   241 TIME:   0.011 TIME LEFT:  2.00D  GRAD.:     0.085 HEAT: 12.71794
 CYCLE:   242 TIME:   0.011 TIME LEFT:  2.00D  GRAD.:     0.096 HEAT: 12.71793
 CYCLE:   243 TIME:   0.011 TIME LEFT:  2.00D  GRAD.:     0.062 HEAT: 12.71793
 CYCLE:   244 TIME:   0.011 TIME LEFT:  2.00D  GRAD.:     0.046 HEAT: 12.71792

     RMS GRADIENT =  0.04607  IS LESS THAN CUTOFF =  0.05000



 -------------------------------------------------------------------------------
pm3  precise nosym
 InChI=1S/C11H18/c1-3-5-7-11-8-10(9-11)6-4-2/h4-5,7,10-11H,2-3,6,8-9H2,1H3



     GEOMETRY OPTIMISED USING EIGENVECTOR FOLLOWING (EF).     
     SCF FIELD WAS ACHIEVED                                   


                              PM3 CALCULATION
                                                       MOPAC2012 (Version: 13.159M)
                                                       Mon Jun  2 11:06:11 2014
                                                       No. of days left =   6




          FINAL HEAT OF FORMATION =         12.71792 KCAL/MOL =      53.21178 KJ/MOL


          TOTAL ENERGY            =      -1580.48129 EV
          ELECTRONIC ENERGY       =      -9198.29513 EV  POINT GROUP:     C1  
          CORE-CORE REPULSION     =       7617.81384 EV
          COSMO AREA              =        227.10 SQUARE ANGSTROMS
          COSMO VOLUME            =        229.63 CUBIC ANGSTROMS

          GRADIENT NORM           =          0.04607
          IONIZATION POTENTIAL    =          9.772965 EV
          HOMO LUMO ENERGIES (EV) =         -9.773  1.039
          NO. OF FILLED LEVELS    =         31
          MOLECULAR WEIGHT        =        150.263

          MOLECULAR DIMENSIONS (Angstroms)

            Atom       Atom       Distance
            H    29    H    24    10.13993
            H    17    H    22     5.73292
            H    14    H    19     3.84482


          SCF CALCULATIONS        =        256
          COMPUTATION TIME        =          3.193 SECONDS




   ATOM   CHEMICAL          X               Y               Z
  NUMBER   SYMBOL      (ANGSTROMS)     (ANGSTROMS)     (ANGSTROMS)
 
     1       C         -1.86311889  *  -1.17898767  *  -0.08281826  *
     2       C          0.30336073  *  -1.15402939  *  -0.44552682  *
     3       C         -0.92971094  *  -0.48571272  *  -1.10483083  *
     4       C         -0.62988789  *  -1.82561402  *   0.59365227  *
     5       C         -2.64731300  *  -0.24554423  *   0.81775086  *
     6       C          3.55173317  *   0.70839219  *   0.49329937  *
     7       C          4.47174217  *   1.29103237  *  -0.55803581  *
     8       C          1.26879321  *  -0.19326800  *   0.14272297  *
     9       C          2.57785949  *  -0.24270058  *  -0.10772499  *
    10       C         -3.82633581  *   0.33311789  *   0.11711963  *
    11       C         -4.09971302  *   1.63241947  *   0.10803101  *
    12       H         -2.54486424  *  -1.92096553  *  -0.54952001  *
    13       H          0.81343236  *  -1.88294481  *  -1.11027993  *
    14       H         -1.10010559  *  -0.77311824  *  -2.15242561  *
    15       H         -0.93656995  *   0.61482173  *  -1.06143050  *
    16       H         -0.46008800  *  -1.51241685  *   1.63593414  *
    17       H         -0.61857502  *  -2.92498746  *   0.57597012  *
    18       H          3.03297682  *   1.52330632  *   1.03699731  *
    19       H          4.14141957  *   0.16525370  *   1.25922137  *
    20       H         -3.00626844  *  -0.80763503  *   1.70385083  *
    21       H         -1.98327682  *   0.55054375  *   1.21389222  *
    22       H          5.20737060  *   1.97026874  *  -0.10878624  *
    23       H          3.91343565  *   1.86216206  *  -1.31096507  *
    24       H          5.02868497  *   0.50823069  *  -1.08995266  *
    25       H          3.00131070  *  -1.00356689  *  -0.77627264  *
    26       H          0.84122954  *   0.57103586  *   0.80570871  *
    27       H         -4.47706881  *  -0.38447194  *  -0.39776047  *
    28       H         -3.47796452  *   2.37606304  *   0.59935958  *
    29       H         -4.97008683  *   2.04383544  *  -0.39370933  *

           Empirical Formula: C11 H18  =    29 atoms



      MOLECULAR POINT GROUP   :   C1  


                  EIGENVALUES  
 -41.39665 -36.92463 -34.39254 -30.11057 -27.02199 -25.50404 -23.56184 -21.01950
 -20.16794 -19.47006 -18.45324 -17.09248 -16.64460 -15.91340 -15.55954 -15.15647
 -14.97598 -14.44220 -13.75419 -13.63339 -13.27633 -13.00509 -12.70573 -12.30282
 -12.12527 -11.95942 -11.66882 -11.49107 -11.35385 -10.11914  -9.77296   1.03880
   1.16433   3.21988   3.29042   3.42138   3.58447   3.62252   3.77052   3.78277
   3.88815   3.93763   3.98761   4.01122   4.05562   4.15833   4.17818   4.24075
   4.41794   4.51766   4.54529   4.55569   4.67825   4.71981   4.82154   4.85904
   5.25981   5.41461   5.63025   5.81953   5.90394   6.03315


              NET ATOMIC CHARGES AND DIPOLE CONTRIBUTIONS

  ATOM NO.   TYPE          CHARGE      No. of ELECS.   s-Pop       p-Pop       
    1          C          -0.090241        4.0902     1.19008     2.90016
    2          C          -0.058618        4.0586     1.17777     2.88085
    3          C          -0.106009        4.1060     1.17737     2.92864
    4          C          -0.108129        4.1081     1.17792     2.93020
    5          C          -0.061983        4.0620     1.14930     2.91269
    6          C          -0.062472        4.0625     1.14589     2.91658
    7          C          -0.105878        4.1059     1.13764     2.96823
    8          C          -0.143298        4.1433     1.19518     2.94812
    9          C          -0.144263        4.1443     1.19783     2.94643
   10          C          -0.134733        4.1347     1.19523     2.93950
   11          C          -0.168170        4.1682     1.18268     2.98549
   12          H           0.071554        0.9284     0.92845
   13          H           0.072887        0.9271     0.92711
   14          H           0.056294        0.9437     0.94371
   15          H           0.066596        0.9334     0.93340
   16          H           0.063274        0.9367     0.93673
   17          H           0.056038        0.9440     0.94396
   18          H           0.051340        0.9487     0.94866
   19          H           0.053064        0.9469     0.94694
   20          H           0.057325        0.9427     0.94267
   21          H           0.057866        0.9421     0.94213
   22          H           0.036753        0.9632     0.96325
   23          H           0.040245        0.9598     0.95975
   24          H           0.037825        0.9622     0.96217
   25          H           0.101545        0.8985     0.89845
   26          H           0.103747        0.8963     0.89625
   27          H           0.096757        0.9032     0.90324
   28          H           0.081509        0.9185     0.91849
   29          H           0.079175        0.9208     0.92083
 DIPOLE           X         Y         Z       TOTAL
 POINT-CHG.     0.170    -0.104     0.110     0.228
 HYBRID        -0.011     0.014     0.004     0.018
 SUM            0.160    -0.090     0.114     0.216


          ATOMIC ORBITAL ELECTRON POPULATIONS

    Atom      s        px        py        pz   
    1  C   1.19008   0.95375   0.97704   0.96938
    2  C   1.17777   0.94144   0.96710   0.97230
    3  C   1.17737   0.95077   1.00188   0.97599
    4  C   1.17792   0.95508   0.99293   0.98219
    5  C   1.14930   0.95504   0.98851   0.96914
    6  C   1.14589   0.97049   0.97566   0.97043
    7  C   1.13764   0.98481   0.99993   0.98349
    8  C   1.19518   0.94946   0.99423   1.00442
    9  C   1.19783   0.95291   0.99272   1.00080
   10  C   1.19523   0.97794   0.96898   0.99258
   11  C   1.18268   1.01150   0.95856   1.01543
   12  H   0.92845
   13  H   0.92711
   14  H   0.94371
   15  H   0.93340
   16  H   0.93673
   17  H   0.94396
   18  H   0.94866
   19  H   0.94694
   20  H   0.94267
   21  H   0.94213
   22  H   0.96325
   23  H   0.95975
   24  H   0.96217
   25  H   0.89845
   26  H   0.89625
   27  H   0.90324
   28  H   0.91849
   29  H   0.92083
 *******************************************************************************
 ** Site#: 14399           For non-commercial use only        Version 13.159M **
 *******************************************************************************
 ** Cite this work as: MOPAC2012, James J. P. Stewart, Stewart Computational  **
 ** Chemistry, Version 13.159M web: HTTP://OpenMOPAC.net  Days remaining:   6 **
 *******************************************************************************
 **                                                                           **
 **                                MOPAC2012                                  **
 **                                                                           **
 *******************************************************************************

                            PM3 CALCULATION RESULTS


 *******************************************************************************
 *  CALCULATION DONE:                                Mon Jun  2 11:06:11 2014  *
 *  PM3      - The PM3 Hamiltonian to be used
 *  OLDGEO   - PREVIOUS GEOMETRY TO BE USED
 *  PRECISE  - CRITERIA TO BE INCREASED BY 100 TIMES
 *  NOSYM    - POINT-GROUP SYMMETRY SET TO C1
 *  T=       - A TIME OF 172800.0 SECONDS REQUESTED
 *  DUMP=N   - RESTART FILE WRITTEN EVERY  7200.000 SECONDS
 *  THERMO   - THERMODYNAMIC QUANTITIES TO BE CALCULATED
 *******************************************************************************
oldgeo thermo nosym precise  pm3

   ATOM   CHEMICAL          X               Y               Z
  NUMBER   SYMBOL      (ANGSTROMS)     (ANGSTROMS)     (ANGSTROMS)
 
     1       C         -1.86311889  *  -1.17898767  *  -0.08281826  *
     2       C          0.30336073  *  -1.15402939  *  -0.44552682  *
     3       C         -0.92971094  *  -0.48571272  *  -1.10483083  *
     4       C         -0.62988789  *  -1.82561402  *   0.59365227  *
     5       C         -2.64731300  *  -0.24554423  *   0.81775086  *
     6       C          3.55173317  *   0.70839219  *   0.49329937  *
     7       C          4.47174217  *   1.29103237  *  -0.55803581  *
     8       C          1.26879321  *  -0.19326800  *   0.14272297  *
     9       C          2.57785949  *  -0.24270058  *  -0.10772499  *
    10       C         -3.82633581  *   0.33311789  *   0.11711963  *
    11       C         -4.09971302  *   1.63241947  *   0.10803101  *
    12       H         -2.54486424  *  -1.92096553  *  -0.54952001  *
    13       H          0.81343236  *  -1.88294481  *  -1.11027993  *
    14       H         -1.10010559  *  -0.77311824  *  -2.15242561  *
    15       H         -0.93656995  *   0.61482173  *  -1.06143050  *
    16       H         -0.46008800  *  -1.51241685  *   1.63593414  *
    17       H         -0.61857502  *  -2.92498746  *   0.57597012  *
    18       H          3.03297682  *   1.52330632  *   1.03699731  *
    19       H          4.14141957  *   0.16525370  *   1.25922137  *
    20       H         -3.00626844  *  -0.80763503  *   1.70385083  *
    21       H         -1.98327682  *   0.55054375  *   1.21389222  *
    22       H          5.20737060  *   1.97026874  *  -0.10878624  *
    23       H          3.91343565  *   1.86216206  *  -1.31096507  *
    24       H          5.02868497  *   0.50823069  *  -1.08995266  *
    25       H          3.00131070  *  -1.00356689  *  -0.77627264  *
    26       H          0.84122954  *   0.57103586  *   0.80570871  *
    27       H         -4.47706881  *  -0.38447194  *  -0.39776047  *
    28       H         -3.47796452  *   2.37606304  *   0.59935958  *
    29       H         -4.97008683  *   2.04383544  *  -0.39370933  *
 


          CARTESIAN COORDINATES 

    NO.       ATOM         X         Y         Z

     1         C       -1.8631   -1.1790   -0.0828
     2         C        0.3034   -1.1540   -0.4455
     3         C       -0.9297   -0.4857   -1.1048
     4         C       -0.6299   -1.8256    0.5937
     5         C       -2.6473   -0.2455    0.8178
     6         C        3.5517    0.7084    0.4933
     7         C        4.4717    1.2910   -0.5580
     8         C        1.2688   -0.1933    0.1427
     9         C        2.5779   -0.2427   -0.1077
    10         C       -3.8263    0.3331    0.1171
    11         C       -4.0997    1.6324    0.1080
    12         H       -2.5449   -1.9210   -0.5495
    13         H        0.8134   -1.8829   -1.1103
    14         H       -1.1001   -0.7731   -2.1524
    15         H       -0.9366    0.6148   -1.0614
    16         H       -0.4601   -1.5124    1.6359
    17         H       -0.6186   -2.9250    0.5760
    18         H        3.0330    1.5233    1.0370
    19         H        4.1414    0.1653    1.2592
    20         H       -3.0063   -0.8076    1.7039
    21         H       -1.9833    0.5505    1.2139
    22         H        5.2074    1.9703   -0.1088
    23         H        3.9134    1.8622   -1.3110
    24         H        5.0287    0.5082   -1.0900
    25         H        3.0013   -1.0036   -0.7763
    26         H        0.8412    0.5710    0.8057
    27         H       -4.4771   -0.3845   -0.3978
    28         H       -3.4780    2.3761    0.5994
    29         H       -4.9701    2.0438   -0.3937

  H: (PM3): J. J. P. STEWART, J. COMP. CHEM. 10, 209 (1989).
  C: (PM3): J. J. P. STEWART, J. COMP. CHEM. 10, 209 (1989).

           Empirical Formula: C11 H18  =    29 atoms



      MOLECULAR POINT GROUP   :   C1  


      RHF CALCULATION, NO. OF DOUBLY OCCUPIED LEVELS =   31



          HEAT OF FORMATION =      12.717921 KCALS/MOLE


          INTERNAL COORDINATE DERIVATIVES

   NUMBER  ATOM       BOND         ANGLE      DIHEDRAL

     1       C      0.004796     0.001587    -0.002372
     2       C     -0.005926     0.000167    -0.001405
     3       C     -0.002711    -0.000727     0.005230
     4       C      0.001468     0.005271    -0.007229
     5       C      0.004472    -0.001394    -0.003275
     6       C     -0.003781    -0.000544     0.000528
     7       C     -0.006599     0.002453     0.004178
     8       C     -0.005205    -0.001309     0.000310
     9       C     -0.000277     0.000190     0.003044
    10       C     -0.000199    -0.007527     0.002642
    11       C      0.003453     0.010704     0.007479
    12       H      0.006187    -0.002527    -0.001693
    13       H      0.007197    -0.001867     0.002824
    14       H     -0.007239     0.001304    -0.001098
    15       H      0.003812    -0.001633    -0.000302
    16       H     -0.000494    -0.001970     0.005898
    17       H     -0.003533     0.000911     0.001537
    18       H     -0.000941     0.004007     0.005084
    19       H      0.005560    -0.004346    -0.002846
    20       H     -0.003035    -0.002348    -0.001425
    21       H      0.009636    -0.003173     0.000996
    22       H     -0.002949     0.000403    -0.009565
    23       H      0.009158    -0.010472    -0.003937
    24       H     -0.004306     0.007329     0.007107
    25       H      0.002286     0.000769    -0.006236
    26       H      0.002506     0.001472     0.004101
    27       H     -0.013706    -0.000423    -0.017507
    28       H     -0.001461     0.002859     0.009428
    29       H      0.001831     0.000834    -0.001495


          GRADIENT NORM =   0.04633


          TIME FOR SCF CALCULATION =    0.01

          TIME FOR DERIVATIVES     =    0.01

          MOLECULAR WEIGHT =  150.26



          ROTATIONAL CONSTANTS IN CM(-1)

          A =    0.07293207   B =    0.01343201   C =    0.01228864



           PRINCIPAL MOMENTS OF INERTIA IN UNITS OF 10**(-40)*GRAM-CM**2

          A =      383.8198   B =     2084.0348   C =     2277.9388


          ORIENTATION OF MOLECULE IN FORCE CALCULATION

    NO.       ATOM         X         Y         Z

     1          C      -1.7087   -0.3738   -1.0543
     2          C       0.4881   -0.3738   -1.0543
     3          C      -0.6115    0.7183   -1.0543
     4          C      -0.6115   -1.4656   -1.0268
     5          C      -2.6202   -0.3786    0.1567
     6          C       3.5578   -0.3777    1.2863
     7          C       4.6453    0.6698    1.1805
     8          C       1.3540   -0.3592    0.1503
     9          C       2.6858   -0.3753    0.0806
    10          C      -3.6607    0.6821    0.0662
    11          C      -3.9140    1.5363    1.0506
    12          H      -2.3124   -0.3842   -1.9863
    13          H       1.0926   -0.3858   -1.9859
    14          H      -0.6099    1.3689   -1.9408
    15          H      -0.6130    1.3719   -0.1678
    16          H      -0.6126   -2.0960   -0.1235
    17          H      -0.6099   -2.1389   -1.8961
    18          H       2.9657   -0.2177    2.2097
    19          H       4.0067   -1.3863    1.3893
    20          H      -3.1269   -1.3624    0.2295
    21          H      -2.0216   -0.2777    1.0858
    22          H       5.3044    0.6472    2.0577
    23          H       4.2255    1.6816    1.1104
    24          H       5.2735    0.5156    0.2931
    25          H       3.2051   -0.3925   -0.8865
    26          H       0.8315   -0.3350    1.1162
    27          H      -4.2256    0.7197   -0.8735
    28          H      -3.3735    1.5369    1.9934
    29          H      -4.6849    2.2975    0.9811


    FIRST DERIVATIVES WILL BE USED IN THE CALCULATION OF SECOND DERIVATIVES

          ESTIMATED TIME TO COMPLETE CALCULATION =        5.50 SECONDS

    FOR POINT-GROUP C1   THERE ARE   1 UNIQUE SYMMETRY FUNCTIONS.

 STEP:   1 TIME =     0.05 SECS, INTEGRAL =      0.05 TIME LEFT: 172799.94
 STEP:   2 TIME =     0.05 SECS, INTEGRAL =      0.10 TIME LEFT: 172799.89
 STEP:   3 TIME =     0.05 SECS, INTEGRAL =      0.15 TIME LEFT: 172799.84
 STEP:   4 TIME =     0.05 SECS, INTEGRAL =      0.20 TIME LEFT: 172799.79
 STEP:   5 TIME =     0.05 SECS, INTEGRAL =      0.25 TIME LEFT: 172799.74
 STEP:   6 TIME =     0.05 SECS, INTEGRAL =      0.30 TIME LEFT: 172799.69
 STEP:   7 TIME =     0.05 SECS, INTEGRAL =      0.35 TIME LEFT: 172799.64
 STEP:   8 TIME =     0.05 SECS, INTEGRAL =      0.39 TIME LEFT: 172799.59
 STEP:   9 TIME =     0.05 SECS, INTEGRAL =      0.44 TIME LEFT: 172799.54
 STEP:  10 TIME =     0.05 SECS, INTEGRAL =      0.49 TIME LEFT: 172799.49
 STEP:  11 TIME =     0.06 SECS, INTEGRAL =      0.55 TIME LEFT: 172799.43
 STEP:  12 TIME =     0.05 SECS, INTEGRAL =      0.61 TIME LEFT: 172799.38
 STEP:  13 TIME =     0.05 SECS, INTEGRAL =      0.66 TIME LEFT: 172799.33
 STEP:  14 TIME =     0.05 SECS, INTEGRAL =      0.71 TIME LEFT: 172799.27
 STEP:  15 TIME =     0.05 SECS, INTEGRAL =      0.76 TIME LEFT: 172799.22
 STEP:  16 TIME =     0.05 SECS, INTEGRAL =      0.81 TIME LEFT: 172799.17
 STEP:  17 TIME =     0.06 SECS, INTEGRAL =      0.87 TIME LEFT: 172799.12
 STEP:  18 TIME =     0.05 SECS, INTEGRAL =      0.92 TIME LEFT: 172799.07
 STEP:  19 TIME =     0.05 SECS, INTEGRAL =      0.97 TIME LEFT: 172799.02
 STEP:  20 TIME =     0.05 SECS, INTEGRAL =      1.01 TIME LEFT: 172798.97
 STEP:  21 TIME =     0.05 SECS, INTEGRAL =      1.06 TIME LEFT: 172798.92
 STEP:  22 TIME =     0.05 SECS, INTEGRAL =      1.11 TIME LEFT: 172798.87
 STEP:  23 TIME =     0.05 SECS, INTEGRAL =      1.17 TIME LEFT: 172798.82
 STEP:  24 TIME =     0.06 SECS, INTEGRAL =      1.22 TIME LEFT: 172798.76
 STEP:  25 TIME =     0.06 SECS, INTEGRAL =      1.28 TIME LEFT: 172798.70
 STEP:  26 TIME =     0.06 SECS, INTEGRAL =      1.34 TIME LEFT: 172798.64
 STEP:  27 TIME =     0.05 SECS, INTEGRAL =      1.40 TIME LEFT: 172798.59
 STEP:  28 TIME =     0.05 SECS, INTEGRAL =      1.45 TIME LEFT: 172798.54
 STEP:  29 TIME =     0.05 SECS, INTEGRAL =      1.50 TIME LEFT: 172798.48
 STEP:  30 TIME =     0.05 SECS, INTEGRAL =      1.55 TIME LEFT: 172798.43
 STEP:  31 TIME =     0.05 SECS, INTEGRAL =      1.60 TIME LEFT: 172798.38
 STEP:  32 TIME =     0.05 SECS, INTEGRAL =      1.65 TIME LEFT: 172798.33
 STEP:  33 TIME =     0.05 SECS, INTEGRAL =      1.70 TIME LEFT: 172798.28
 STEP:  34 TIME =     0.05 SECS, INTEGRAL =      1.75 TIME LEFT: 172798.23
 STEP:  35 TIME =     0.05 SECS, INTEGRAL =      1.80 TIME LEFT: 172798.18
 STEP:  36 TIME =     0.05 SECS, INTEGRAL =      1.85 TIME LEFT: 172798.13
 STEP:  37 TIME =     0.05 SECS, INTEGRAL =      1.90 TIME LEFT: 172798.08
 STEP:  38 TIME =     0.05 SECS, INTEGRAL =      1.95 TIME LEFT: 172798.03
 STEP:  39 TIME =     0.05 SECS, INTEGRAL =      2.00 TIME LEFT: 172797.99
 STEP:  40 TIME =     0.05 SECS, INTEGRAL =      2.05 TIME LEFT: 172797.93
 STEP:  41 TIME =     0.05 SECS, INTEGRAL =      2.10 TIME LEFT: 172797.88
 STEP:  42 TIME =     0.05 SECS, INTEGRAL =      2.15 TIME LEFT: 172797.83
 STEP:  43 TIME =     0.05 SECS, INTEGRAL =      2.20 TIME LEFT: 172797.78
 STEP:  44 TIME =     0.05 SECS, INTEGRAL =      2.25 TIME LEFT: 172797.73
 STEP:  45 TIME =     0.05 SECS, INTEGRAL =      2.30 TIME LEFT: 172797.68
 STEP:  46 TIME =     0.05 SECS, INTEGRAL =      2.35 TIME LEFT: 172797.63
 STEP:  47 TIME =     0.05 SECS, INTEGRAL =      2.40 TIME LEFT: 172797.58
 STEP:  48 TIME =     0.05 SECS, INTEGRAL =      2.45 TIME LEFT: 172797.53
 STEP:  49 TIME =     0.05 SECS, INTEGRAL =      2.51 TIME LEFT: 172797.48
 STEP:  50 TIME =     0.05 SECS, INTEGRAL =      2.56 TIME LEFT: 172797.43
 STEP:  51 TIME =     0.05 SECS, INTEGRAL =      2.61 TIME LEFT: 172797.38
 STEP:  52 TIME =     0.06 SECS, INTEGRAL =      2.67 TIME LEFT: 172797.32
 STEP:  53 TIME =     0.05 SECS, INTEGRAL =      2.72 TIME LEFT: 172797.27
 STEP:  54 TIME =     0.05 SECS, INTEGRAL =      2.77 TIME LEFT: 172797.22
 STEP:  55 TIME =     0.05 SECS, INTEGRAL =      2.82 TIME LEFT: 172797.17
 STEP:  56 TIME =     0.05 SECS, INTEGRAL =      2.87 TIME LEFT: 172797.12
 STEP:  57 TIME =     0.05 SECS, INTEGRAL =      2.92 TIME LEFT: 172797.06
 STEP:  58 TIME =     0.06 SECS, INTEGRAL =      2.98 TIME LEFT: 172797.00
 STEP:  59 TIME =     0.05 SECS, INTEGRAL =      3.03 TIME LEFT: 172796.95
 STEP:  60 TIME =     0.06 SECS, INTEGRAL =      3.09 TIME LEFT: 172796.89
 STEP:  61 TIME =     0.06 SECS, INTEGRAL =      3.15 TIME LEFT: 172796.83
 STEP:  62 TIME =     0.06 SECS, INTEGRAL =      3.21 TIME LEFT: 172796.78
 STEP:  63 TIME =     0.05 SECS, INTEGRAL =      3.26 TIME LEFT: 172796.72
 STEP:  64 TIME =     0.05 SECS, INTEGRAL =      3.32 TIME LEFT: 172796.67
 STEP:  65 TIME =     0.06 SECS, INTEGRAL =      3.38 TIME LEFT: 172796.61
 STEP:  66 TIME =     0.06 SECS, INTEGRAL =      3.43 TIME LEFT: 172796.55
 STEP:  67 TIME =     0.06 SECS, INTEGRAL =      3.49 TIME LEFT: 172796.49
 STEP:  68 TIME =     0.06 SECS, INTEGRAL =      3.55 TIME LEFT: 172796.44
 STEP:  69 TIME =     0.06 SECS, INTEGRAL =      3.60 TIME LEFT: 172796.38
 STEP:  70 TIME =     0.07 SECS, INTEGRAL =      3.67 TIME LEFT: 172796.32
 STEP:  71 TIME =     0.06 SECS, INTEGRAL =      3.73 TIME LEFT: 172796.26
 STEP:  72 TIME =     0.05 SECS, INTEGRAL =      3.78 TIME LEFT: 172796.20
 STEP:  73 TIME =     0.06 SECS, INTEGRAL =      3.84 TIME LEFT: 172796.15
 STEP:  74 TIME =     0.06 SECS, INTEGRAL =      3.89 TIME LEFT: 172796.09
 STEP:  75 TIME =     0.05 SECS, INTEGRAL =      3.94 TIME LEFT: 172796.04
 STEP:  76 TIME =     0.05 SECS, INTEGRAL =      3.99 TIME LEFT: 172795.99
 STEP:  77 TIME =     0.05 SECS, INTEGRAL =      4.05 TIME LEFT: 172795.94
 STEP:  78 TIME =     0.05 SECS, INTEGRAL =      4.09 TIME LEFT: 172795.89
 STEP:  79 TIME =     0.05 SECS, INTEGRAL =      4.15 TIME LEFT: 172795.84
 STEP:  80 TIME =     0.06 SECS, INTEGRAL =      4.20 TIME LEFT: 172795.78
 STEP:  81 TIME =     0.05 SECS, INTEGRAL =      4.25 TIME LEFT: 172795.73
 STEP:  82 TIME =     0.06 SECS, INTEGRAL =      4.31 TIME LEFT: 172795.67
 STEP:  83 TIME =     0.06 SECS, INTEGRAL =      4.37 TIME LEFT: 172795.61
 STEP:  84 TIME =     0.05 SECS, INTEGRAL =      4.42 TIME LEFT: 172795.56
 STEP:  85 TIME =     0.06 SECS, INTEGRAL =      4.48 TIME LEFT: 172795.50
 STEP:  86 TIME =     0.07 SECS, INTEGRAL =      4.55 TIME LEFT: 172795.44
 STEP:  87 TIME =     0.06 SECS, INTEGRAL =      4.60 TIME LEFT: 172795.38

(To convert to Hartree/Bohr^2, multiply by (10^(-21) x N x a0^2)/(4.184 x 627.51) = 0.0642)


           FORCE MATRIX IN MILLIDYNES/ANGSTROM


                  C  1       C  2       C  3       C  4       C  5       C  6
 ------------------------------------------------------------------------------
     C    1  14.514162
     C    2   1.796508  14.916258
     C    3   3.465724   3.392370  14.301983
     C    4   3.467213   3.393049   1.828668  14.303952
     C    5   4.256917   0.040001   0.538975   0.548813  14.781031
     C    6   0.002079   0.143567   0.018063   0.019431   0.001041  14.695586
     C    7   0.000805   0.019147   0.003610   0.001927   0.000525   4.409419
     C    8   0.042736   5.060964   0.596308   0.596524   0.007356   0.821800
     C    9   0.002984   0.846383   0.033682   0.032214   0.001094   4.964303
     C   10   0.695116   0.005221   0.024124   0.050495   4.951594   0.000630
     C   11   0.042695   0.001269   0.004407   0.007769   0.834496   0.000626
     H   12   4.424342   0.027942   0.428438   0.427080   0.432155   0.000325
     H   13   0.027990   4.420878   0.426027   0.426501   0.002195   0.001784
     H   14   0.441109   0.444748   4.721389   0.031051   0.032821   0.001941
     H   15   0.453476   0.452627   4.664248   0.027645   0.026173   0.000976
     H   16   0.452046   0.452608   0.027913   4.658705   0.031481   0.001118
     H   17   0.441402   0.443855   0.031224   4.721536   0.033045   0.002478
     H   18   0.000193   0.002934   0.000449   0.000835   0.000228   4.441991
     H   19   0.000353   0.019350   0.002008   0.003423   0.000207   4.421890
     H   20   0.440632   0.003157   0.047109   0.019599   4.414621   0.000243
     H   21   0.446069   0.002421   0.025035   0.020280   4.405588   0.000252
     H   22   0.000132   0.003346   0.000846   0.000424   0.000156   0.449494
     H   23   0.000157   0.000869   0.000366   0.000263   0.000273   0.459641
     H   24   0.000246   0.000846   0.000235   0.000210   0.000170   0.464262
     H   25   0.000745   0.085951   0.008040   0.008199   0.000229   0.430628
     H   26   0.002217   0.434807   0.018730   0.017758   0.004151   0.083235
     H   27   0.027614   0.000563   0.002614   0.001832   0.432017   0.000346
     H   28   0.010693   0.000616   0.000621   0.001893   0.096727   0.000543
     H   29   0.017499   0.000548   0.001092   0.002685   0.135783   0.000284


                  C  7       C  8       C  9       C 10       C 11       H 12
 ------------------------------------------------------------------------------
     C    7  14.348330
     C    8   0.041757  18.334365
     C    9   0.717088  10.685268  18.196082
     C   10   0.000889   0.001629   0.001401  18.184816
     C   11   0.000491   0.001035   0.000859  11.084148  18.044058
     H   12   0.000443   0.003555   0.000495   0.039664   0.002179   4.927498
     H   13   0.000684   0.445423   0.055423   0.000564   0.000363   0.002484
     H   14   0.000779   0.031788   0.003376   0.002636   0.000989   0.027080
     H   15   0.000383   0.031289   0.003265   0.004364   0.002849   0.030322
     H   16   0.000274   0.030932   0.003054   0.002545   0.000884   0.030798
     H   17   0.000259   0.032086   0.003261   0.006111   0.001424   0.026808
     H   18   0.434993   0.050379   0.458459   0.000312   0.000375   0.000101
     H   19   0.445095   0.032175   0.408392   0.000427   0.000330   0.000072
     H   20   0.000139   0.001421   0.000379   0.411113   0.034013   0.023641
     H   21   0.000218   0.003439   0.000792   0.459258   0.047656   0.041707
     H   22   4.751151   0.007082   0.052169   0.000282   0.000283   0.000051
     H   23   4.747627   0.002250   0.016361   0.000276   0.000223   0.000075
     H   24   4.726023   0.001910   0.027747   0.000261   0.000307   0.000083
     H   25   0.026287   0.469137   4.758877   0.000498   0.000342   0.000194
     H   26   0.008175   4.740266   0.467969   0.001040   0.000761   0.000896
     H   27   0.000246   0.000767   0.000355   4.784013   0.453735   0.027037
     H   28   0.000243   0.000631   0.000298   0.489973   5.072046   0.000671
     H   29   0.000242   0.000467   0.000255   0.462191   5.109270   0.000664


                  H 13       H 14       H 15       H 16       H 17       H 18
 ------------------------------------------------------------------------------
     H   13   4.915969
     H   14   0.027139   5.338203
     H   15   0.030069   0.549863   5.293863
     H   16   0.030179   0.001017   0.002812   5.291053
     H   17   0.027136   0.003405   0.001011   0.549712   5.337828
     H   18   0.000617   0.000071   0.000282   0.000237   0.000210   5.053275
     H   19   0.000479   0.000149   0.000174   0.000357   0.000638   0.566259
     H   20   0.000637   0.005627   0.003358   0.012360   0.002075   0.000066
     H   21   0.000552   0.001642   0.024615   0.015600   0.001231   0.000129
     H   22   0.000200   0.000232   0.000156   0.000103   0.000110   0.030188
     H   23   0.000174   0.000098   0.000079   0.000107   0.000194   0.024928
     H   24   0.000190   0.000113   0.000109   0.000073   0.000121   0.047514
     H   25   0.029898   0.001326   0.000742   0.000713   0.001336   0.038339
     H   26   0.036544   0.001376   0.018116   0.016915   0.001361   0.030005
     H   27   0.000323   0.000726   0.000959   0.000637   0.000576   0.000086
     H   28   0.000219   0.000278   0.000735   0.000375   0.000375   0.000156
     H   29   0.000177   0.000259   0.000486   0.000298   0.000585   0.000116


                  H 19       H 20       H 21       H 22       H 23       H 24
 ------------------------------------------------------------------------------
     H   19   5.019679
     H   20   0.000054   5.004474
     H   21   0.000134   0.559052   5.012339
     H   22   0.028723   0.000053   0.000063   5.488913
     H   23   0.047684   0.000158   0.000085   0.574039   5.486099
     H   24   0.024018   0.000094   0.000079   0.570622   0.578466   5.471391
     H   25   0.017643   0.000106   0.000259   0.001973   0.002622   0.020209
     H   26   0.009743   0.000499   0.008969   0.001692   0.000459   0.000579
     H   27   0.000142   0.018574   0.038881   0.000087   0.000077   0.000077
     H   28   0.000137   0.011408   0.028970   0.000145   0.000091   0.000154
     H   29   0.000113   0.017158   0.003030   0.000144   0.000069   0.000069


                  H 25       H 26       H 27       H 28       H 29
 ------------------------------------------------------------------
     H   25   5.140240
     H   26   0.104989   5.118699
     H   27   0.000194   0.000315   5.157730
     H   28   0.000071   0.000444   0.116584   5.468596
     H   29   0.000115   0.000239   0.077902   0.422573   5.498463


          HEAT OF FORMATION =      12.717921 KCALS/MOLE

          ZERO POINT ENERGY     162.818 KCAL/MOL


           NORMAL COORDINATE ANALYSIS (Total motion = 1 Angstrom)


   Root No.       1         2         3         4         5         6         7         8

                 1 A       2 A       3 A       4 A       5 A       6 A       7 A       8 A   

                  27.6      43.3      70.1      81.0     104.0     124.0     184.8     226.0
  
           1    0.0011   -0.0035   -0.0072   -0.0008   -0.0035   -0.0045    0.0012   -0.0007
           2    0.0047   -0.0121   -0.0060   -0.0103   -0.0015   -0.0177    0.0031   -0.0028
           3    0.0075   -0.0117   -0.0034    0.0049    0.0119   -0.0009   -0.0107   -0.0106
           4    0.0010   -0.0034   -0.0075   -0.0011   -0.0034   -0.0041    0.0000   -0.0026
           5    0.0192    0.0075    0.0022    0.0277    0.0010   -0.0002   -0.0014    0.0054
           6    0.0142   -0.0107    0.0172    0.0019   -0.0112   -0.0002    0.0125    0.0182
           7   -0.0061   -0.0131   -0.0115   -0.0195   -0.0046   -0.0127    0.0034   -0.0046
           8    0.0119   -0.0024   -0.0019    0.0087   -0.0002   -0.0094    0.0010    0.0015
           9    0.0162   -0.0262    0.0376   -0.0024   -0.0013   -0.0150   -0.0132   -0.0180
          10    0.0080    0.0062   -0.0035    0.0175   -0.0024    0.0039   -0.0014    0.0023
          11    0.0120   -0.0023   -0.0023    0.0088   -0.0004   -0.0086    0.0005    0.0010
          12    0.0152   -0.0109   -0.0037    0.0120   -0.0069    0.0263   -0.0087   -0.0008
          13   -0.0104    0.0080   -0.0325   -0.0012    0.0130   -0.0136    0.0116    0.0121
          14   -0.0019   -0.0112   -0.0296   -0.0150   -0.0009   -0.0004    0.0048    0.0049
          15   -0.0013   -0.0029   -0.0229    0.0045    0.0249   -0.0081   -0.0028   -0.0013
          16    0.0104   -0.0287    0.0089    0.0042   -0.0058    0.0068    0.0070    0.0175
          17    0.0016    0.0223    0.0083   -0.0263   -0.0017   -0.0071   -0.0018   -0.0223
          18    0.0013    0.0227   -0.0052   -0.0056   -0.0080   -0.0143    0.0030   -0.0130
          19    0.0463    0.0139    0.0122   -0.0212    0.0101    0.0121    0.0032   -0.0015
          20   -0.0386   -0.0246    0.0047    0.0010   -0.0153   -0.0096    0.0007   -0.0016
          21   -0.0273   -0.0026   -0.0086    0.0028    0.0272    0.0243   -0.0189   -0.0087
          22    0.0053   -0.0157   -0.0016    0.0021   -0.0005    0.0048   -0.0169   -0.0174
          23    0.0218    0.0224   -0.0130    0.0402   -0.0052    0.0179   -0.0011    0.0013
          24    0.0110   -0.0019    0.0130   -0.0007   -0.0133   -0.0069    0.0261    0.0305
          25    0.0048   -0.0151   -0.0016    0.0010    0.0000    0.0048   -0.0171   -0.0178
          26    0.0033    0.0117    0.0177   -0.0282    0.0322    0.0267    0.0030    0.0220
          27    0.0054    0.0129    0.0026   -0.0032   -0.0123   -0.0131    0.0219    0.0146
          28   -0.0226    0.0156   -0.0026   -0.0011   -0.0117    0.0096    0.0018    0.0057
          29   -0.0150   -0.0025    0.0010   -0.0151   -0.0262    0.0224   -0.0051   -0.0021
          30   -0.0158    0.0124   -0.0104    0.0010    0.0107   -0.0089    0.0002   -0.0011
          31   -0.0420    0.0334    0.0442    0.0212    0.0067   -0.0065    0.0026    0.0025
          32   -0.0132   -0.0045    0.0177    0.0096    0.0206   -0.0060   -0.0031   -0.0033
          33   -0.0224    0.0187   -0.0130   -0.0147   -0.0252    0.0118   -0.0013   -0.0010
          34    0.0095   -0.0116    0.0112   -0.0007   -0.0167    0.0020   -0.0039   -0.0062
          35    0.0010   -0.0235    0.0097   -0.0268   -0.0009   -0.0398    0.0028   -0.0127
          36    0.0019   -0.0061   -0.0155    0.0050    0.0203   -0.0050   -0.0071   -0.0065
          37   -0.0017    0.0053   -0.0107   -0.0036   -0.0069   -0.0104    0.0165    0.0147
          38    0.0237    0.0065    0.0216    0.0330    0.0046   -0.0120   -0.0046    0.0024
          39    0.0122   -0.0049    0.0147    0.0002   -0.0133   -0.0042    0.0227    0.0287
          40   -0.0077   -0.0185   -0.0056   -0.0319   -0.0146   -0.0177    0.0146    0.0056
          41    0.0167   -0.0154    0.0245    0.0040   -0.0021   -0.0204   -0.0125   -0.0193
          42    0.0197   -0.0358    0.0570   -0.0059   -0.0027   -0.0230   -0.0232   -0.0335
          43   -0.0130   -0.0198   -0.0227   -0.0303    0.0046   -0.0184   -0.0044   -0.0185
          44    0.0072    0.0106   -0.0283    0.0136    0.0017    0.0011    0.0143    0.0218
          45    0.0197   -0.0358    0.0572   -0.0060   -0.0027   -0.0228   -0.0232   -0.0334
          46    0.0095    0.0115   -0.0097    0.0300    0.0073    0.0084   -0.0122   -0.0076
          47    0.0164   -0.0030   -0.0100    0.0165   -0.0072    0.0145   -0.0091   -0.0048
          48    0.0183   -0.0114   -0.0091    0.0173   -0.0116    0.0425   -0.0155   -0.0048
          49    0.0151    0.0126    0.0072    0.0280   -0.0111    0.0095    0.0068    0.0171
          50    0.0079   -0.0017    0.0052    0.0015    0.0060   -0.0310    0.0097    0.0061
          51    0.0184   -0.0114   -0.0095    0.0176   -0.0119    0.0438   -0.0159   -0.0049
          52    0.0200   -0.0331    0.0173    0.0042   -0.0096    0.0074    0.0296    0.0438
          53    0.0429    0.0788    0.0054   -0.0516   -0.0162   -0.0358   -0.0110   -0.0713
          54    0.0003    0.0101    0.0006   -0.0012   -0.0078   -0.0089    0.0186    0.0118
          55   -0.0236   -0.0693    0.0062    0.0276   -0.0200    0.0029    0.0119    0.0354
          56   -0.0115    0.0084    0.0061   -0.0173   -0.0104   -0.0125   -0.0019   -0.0204
          57    0.0223    0.0643   -0.0147   -0.0201   -0.0293   -0.0477   -0.0178   -0.0721
          58    0.0008    0.0016   -0.0572    0.0010    0.0376   -0.0361    0.0206    0.0187
          59   -0.0078   -0.0079   -0.0200   -0.0160   -0.0115    0.0106    0.0010    0.0028
          60   -0.0026   -0.0023   -0.0683    0.0039    0.0520   -0.0150    0.0092    0.0160
          61   -0.0209    0.0182   -0.0500   -0.0023    0.0220   -0.0179    0.0198    0.0224
          62    0.0089   -0.0197   -0.0761   -0.0135    0.0330   -0.0167    0.0164    0.0187
          63    0.0042   -0.0084   -0.0067    0.0050    0.0154   -0.0036   -0.0092   -0.0091
          64    0.0478    0.0051    0.0167   -0.0143    0.0081    0.0228    0.1093   -0.0573
          65   -0.0400   -0.0213    0.0003    0.0031   -0.0538   -0.0588   -0.0972    0.0719
          66   -0.0285    0.0041   -0.0120   -0.0023    0.0278    0.0151   -0.1010    0.0348
          67    0.0811    0.0548    0.0155   -0.0457    0.0261    0.0184    0.0027   -0.0234
          68   -0.0258   -0.0103    0.0064   -0.0079   -0.0066   -0.0031    0.0114   -0.0170
          69   -0.0509   -0.0405   -0.0041    0.0214    0.0590    0.0810    0.1395   -0.1015
          70    0.0387    0.0160    0.0072   -0.0242    0.0095    0.0001   -0.1046    0.0588
          71   -0.0819   -0.0794    0.0045    0.0293    0.0034    0.0310    0.0903   -0.0430
          72   -0.0252    0.0083   -0.0121   -0.0042    0.0235    0.0087   -0.1109    0.0412
          73    0.0002   -0.0050   -0.0093   -0.0016    0.0029    0.0019   -0.0291   -0.0370
          74   -0.0134   -0.0077    0.0513   -0.0872    0.0801    0.0447    0.0074    0.0673
          75    0.0031    0.0186   -0.0023   -0.0035   -0.0115   -0.0148    0.0145    0.0027
          76    0.0096   -0.0261    0.0045    0.0054   -0.0006    0.0104   -0.0225   -0.0184
          77    0.0382    0.0413   -0.0478    0.1010   -0.0482    0.0093   -0.0052   -0.0348
          78    0.0128   -0.0079    0.0170   -0.0004   -0.0121   -0.0035    0.0224    0.0299
          79   -0.0146    0.0062   -0.0188   -0.0185   -0.0445    0.0393   -0.0061    0.0037
          80   -0.0264    0.0060    0.0107   -0.0354   -0.0840    0.0627   -0.0145   -0.0067
          81   -0.0212    0.0184   -0.0003    0.0107    0.0280   -0.0250    0.0046   -0.0001
          82   -0.0506    0.0433    0.0629    0.0389    0.0375   -0.0347    0.0104    0.0046
          83   -0.0023   -0.0132    0.0091    0.0299    0.0788   -0.0460    0.0055    0.0004
          84   -0.0174    0.0131   -0.0237   -0.0249   -0.0430    0.0280   -0.0058   -0.0022
          85   -0.0502    0.0390    0.0669    0.0236   -0.0072    0.0071   -0.0043   -0.0025
          86   -0.0225    0.0022    0.0415    0.0116    0.0051    0.0080   -0.0099   -0.0083
          87   -0.0333    0.0302   -0.0046   -0.0187   -0.0402    0.0143    0.0018    0.0004


   Root No.       9        10        11        12        13        14        15        16

                 9 A      10 A      11 A      12 A      13 A      14 A      15 A      16 A   

                 234.7     329.9     384.2     411.2     420.1     461.1     481.4     505.3
  
           1    0.0028    0.0204    0.0035    0.0092    0.0156    0.0052    0.0124   -0.0092
           2   -0.0203    0.0143   -0.0118    0.0195   -0.0185   -0.0027   -0.0044    0.0038
           3    0.0185    0.0095    0.0111    0.0239   -0.0038   -0.0265    0.0275    0.0022
           4   -0.0016    0.0064    0.0152    0.0090    0.0148    0.0007    0.0098   -0.0012
           5    0.0126    0.0043    0.0165   -0.0181   -0.0158    0.0057    0.0080   -0.0063
           6   -0.0042   -0.0054   -0.0189   -0.0119   -0.0049    0.0238    0.0137    0.0370
           7   -0.0152    0.0206   -0.0056    0.0299    0.0170    0.0000    0.0077    0.0007
           8   -0.0032    0.0150   -0.0006    0.0005   -0.0232    0.0029    0.0026   -0.0054
           9    0.0244    0.0090   -0.0207   -0.0117    0.0252   -0.0039   -0.0101   -0.0071
          10    0.0159    0.0098    0.0259   -0.0099    0.0220    0.0113    0.0230   -0.0135
          11   -0.0058    0.0082    0.0057    0.0011   -0.0245    0.0009    0.0021    0.0003
          12   -0.0230    0.0417   -0.0016   -0.0073   -0.0151    0.0061   -0.0059   -0.0113
          13    0.0139    0.0099   -0.0217   -0.0153   -0.0026    0.0097   -0.0140   -0.0043
          14   -0.0076   -0.0020   -0.0045   -0.0286    0.0207   -0.0143    0.0075   -0.0023
          15    0.0267   -0.0037   -0.0016    0.0087   -0.0147   -0.0175    0.0071    0.0069
          16   -0.0102   -0.0320    0.0058    0.0023   -0.0108   -0.0140   -0.0117   -0.0126
          17   -0.0012   -0.0073   -0.0125   -0.0020   -0.0062    0.0091    0.0144   -0.0118
          18   -0.0010   -0.0026    0.0230   -0.0055   -0.0046   -0.0161   -0.0254    0.0132
          19   -0.0101   -0.0317   -0.0075    0.0017   -0.0130   -0.0048    0.0022   -0.0235
          20   -0.0025   -0.0136   -0.0008   -0.0010   -0.0081   -0.0020    0.0012   -0.0113
          21   -0.0106   -0.0199   -0.0136    0.0003   -0.0068    0.0036    0.0078   -0.0110
          22   -0.0092   -0.0084    0.0091   -0.0110   -0.0045    0.0030   -0.0083    0.0343
          23   -0.0033   -0.0073   -0.0197    0.0222    0.0322   -0.0117   -0.0157    0.0170
          24    0.0001   -0.0034   -0.0106    0.0026    0.0040    0.0161    0.0214    0.0074
          25   -0.0099   -0.0122    0.0103   -0.0115   -0.0074    0.0009   -0.0105    0.0332
          26    0.0033    0.0177    0.0043    0.0103    0.0208   -0.0091   -0.0163    0.0207
          27    0.0001   -0.0110    0.0178    0.0065   -0.0019   -0.0227   -0.0202   -0.0192
          28    0.0408    0.0077   -0.0169    0.0065   -0.0191    0.0187   -0.0193   -0.0032
          29    0.0172   -0.0089    0.0072   -0.0075    0.0132   -0.0020    0.0060   -0.0021
          30   -0.0104   -0.0119    0.0143    0.0134    0.0066    0.0366   -0.0153   -0.0046
          31   -0.0135    0.0130   -0.0131   -0.0079   -0.0097   -0.0230    0.0063    0.0038
          32    0.0065   -0.0156    0.0168    0.0085    0.0115    0.0237   -0.0057   -0.0033
          33   -0.0159   -0.0056    0.0085   -0.0050    0.0131    0.0044    0.0022   -0.0023
          34   -0.0079    0.0354    0.0028    0.0050    0.0283    0.0145    0.0082   -0.0203
          35   -0.0181    0.0091   -0.0320    0.0430   -0.0107   -0.0081   -0.0150    0.0125
          36    0.0248   -0.0001    0.0110    0.0246   -0.0115   -0.0313    0.0290    0.0089
          37   -0.0002   -0.0025    0.0175    0.0185    0.0191    0.0079    0.0294    0.0041
          38    0.0437   -0.0099    0.0289   -0.0447   -0.0080    0.0103    0.0189   -0.0166
          39   -0.0035   -0.0103   -0.0170   -0.0051   -0.0020    0.0272    0.0253    0.0386
          40   -0.0349    0.0176   -0.0292    0.0248    0.0168    0.0243   -0.0024    0.0235
          41    0.0127    0.0239   -0.0209   -0.0209    0.0162   -0.0005   -0.0410   -0.0450
          42    0.0362    0.0158   -0.0361   -0.0279    0.0550   -0.0066   -0.0433   -0.0372
          43   -0.0161    0.0322   -0.0019    0.0609    0.0190   -0.0284    0.0117   -0.0133
          44   -0.0178    0.0060    0.0168    0.0200   -0.0582    0.0055    0.0437    0.0317
          45    0.0356    0.0159   -0.0346   -0.0269    0.0531   -0.0062   -0.0421   -0.0360
          46    0.0348    0.0143    0.0502   -0.0056    0.0260   -0.0084    0.0377   -0.0382
          47   -0.0336    0.0499    0.0078   -0.0151   -0.0381    0.0107   -0.0339   -0.0454
          48   -0.0430    0.0726   -0.0001   -0.0192   -0.0258    0.0136   -0.0322   -0.0453
          49    0.0164    0.0002    0.0219   -0.0398    0.0247    0.0417    0.0222    0.0012
          50    0.0221   -0.0353    0.0037    0.0172   -0.0086   -0.0099    0.0381    0.0473
          51   -0.0449    0.0762    0.0000   -0.0203   -0.0277    0.0149   -0.0348   -0.0490
          52   -0.0076   -0.0355    0.0127    0.0144   -0.0049   -0.0332   -0.0273   -0.0334
          53    0.0020    0.0010   -0.0123   -0.0225   -0.0207    0.0318    0.0334    0.0076
          54    0.0001   -0.0062    0.0266    0.0054    0.0016   -0.0312   -0.0375   -0.0028
          55   -0.0123   -0.0450    0.0123    0.0054   -0.0164   -0.0261   -0.0207   -0.0299
          56   -0.0020   -0.0124   -0.0093   -0.0038   -0.0110    0.0069    0.0129   -0.0161
          57   -0.0005    0.0008    0.0220   -0.0335   -0.0272    0.0138   -0.0006    0.0389
          58   -0.0044    0.0169   -0.0386   -0.0352   -0.0070   -0.0119   -0.0136    0.0013
          59    0.0036   -0.0070    0.0019   -0.0250    0.0241   -0.0068    0.0071   -0.0046
          60    0.0411   -0.0190   -0.0284   -0.0704    0.0000   -0.0570    0.0040    0.0128
          61    0.0140   -0.0021   -0.0357   -0.0470   -0.0015    0.0178   -0.0352   -0.0036
          62   -0.0033   -0.0058   -0.0302   -0.0917    0.0293   -0.0646    0.0159    0.0059
          63    0.0256    0.0049    0.0092    0.0338   -0.0159   -0.0185    0.0197    0.0053
          64   -0.0010   -0.0166    0.0168   -0.0047   -0.0117   -0.0161   -0.0205   -0.0006
          65   -0.0035   -0.0111    0.0244    0.0002   -0.0034   -0.0226   -0.0307    0.0103
          66   -0.0175   -0.0318   -0.0319    0.0051   -0.0081    0.0118    0.0248   -0.0288
          67   -0.0101   -0.0320   -0.0253    0.0013   -0.0156    0.0088    0.0236   -0.0401
          68   -0.0022   -0.0133   -0.0084   -0.0015   -0.0093    0.0042    0.0108   -0.0180
          69   -0.0058   -0.0178   -0.0203   -0.0035   -0.0112    0.0129    0.0207   -0.0169
          70   -0.0194   -0.0478   -0.0289    0.0080   -0.0148    0.0037    0.0213   -0.0457
          71   -0.0026   -0.0187   -0.0055   -0.0014   -0.0112    0.0017    0.0081   -0.0165
          72   -0.0172   -0.0308   -0.0285    0.0049   -0.0078    0.0093    0.0208   -0.0264
          73   -0.0104   -0.0099    0.0247   -0.0170   -0.0105   -0.0097   -0.0300    0.0463
          74    0.0174    0.0641    0.0611   -0.0165    0.0026   -0.0090   -0.0279    0.0444
          75   -0.0005   -0.0104    0.0240    0.0037   -0.0034   -0.0276   -0.0299   -0.0118
          76   -0.0124   -0.0106   -0.0053   -0.0216   -0.0092    0.0215    0.0012    0.0676
          77   -0.0201   -0.0503   -0.0809    0.0617    0.0686   -0.0209   -0.0190    0.0107
          78   -0.0013   -0.0032   -0.0168   -0.0045    0.0004    0.0261    0.0258    0.0254
          79    0.1036    0.0108   -0.0290    0.0298   -0.0590    0.0063   -0.0234    0.0087
          80    0.0494   -0.0069    0.0038    0.0087   -0.0113   -0.0172    0.0092    0.0081
          81   -0.0475   -0.0134    0.0211   -0.0010    0.0300    0.0415   -0.0116   -0.0111
          82   -0.0834    0.0166   -0.0073   -0.0476    0.0342   -0.0474    0.0307   -0.0055
          83   -0.0180   -0.0267    0.0315    0.0087    0.0420    0.0948   -0.0350   -0.0250
          84    0.0238   -0.0074    0.0050    0.0172   -0.0119    0.0169   -0.0110    0.0032
          85    0.0048    0.0161   -0.0168    0.0139   -0.0444   -0.0552    0.0161    0.0232
          86    0.0210   -0.0120    0.0132    0.0269   -0.0204   -0.0125    0.0071    0.0160
          87   -0.0625    0.0040    0.0044   -0.0504    0.0455   -0.0550    0.0413   -0.0034


   Root No.      17        18        19        20        21        22        23        24

                17 A      18 A      19 A      20 A      21 A      22 A      23 A      24 A   

                 620.3     779.1     814.6     876.3     894.1     915.8     917.2     925.4
  
           1   -0.0028   -0.0351    0.0056   -0.0010   -0.0019    0.0018   -0.0011    0.0000
           2   -0.0019   -0.0013    0.0004   -0.0058   -0.0053   -0.0015    0.0016    0.0006
           3   -0.0200   -0.0151    0.0031    0.0017    0.0010   -0.0094    0.0082   -0.0003
           4    0.0106    0.0354   -0.0045   -0.0072   -0.0002   -0.0119    0.0098   -0.0001
           5    0.0000    0.0003    0.0010    0.0021   -0.0004    0.0059    0.0064   -0.0122
           6   -0.0034   -0.0121   -0.0058    0.0016    0.0000    0.0049   -0.0048    0.0003
           7    0.0083    0.0110   -0.0004    0.0153    0.0055    0.0140   -0.0037   -0.0080
           8   -0.0059   -0.0298    0.0014    0.0117    0.0087    0.0075   -0.0193    0.0122
           9    0.0002   -0.0071   -0.0025    0.0161   -0.0196   -0.0036    0.0110   -0.0062
          10    0.0123   -0.0009   -0.0045    0.0009   -0.0018    0.0020   -0.0102    0.0087
          11    0.0024    0.0403   -0.0099   -0.0032    0.0103   -0.0171    0.0008    0.0120
          12   -0.0015   -0.0093    0.0005   -0.0019    0.0246   -0.0096   -0.0013    0.0061
          13   -0.0047   -0.0168    0.0037   -0.0251   -0.0078    0.0008    0.0000   -0.0006
          14    0.0004   -0.0151    0.0038   -0.0281   -0.0047   -0.0119    0.0103   -0.0007
          15   -0.0033    0.0216   -0.0023   -0.0145   -0.0052    0.0175   -0.0143    0.0002
          16   -0.0022   -0.0007    0.0237    0.0022   -0.0019   -0.0014   -0.0028   -0.0008
          17    0.0017   -0.0007   -0.0250   -0.0025    0.0012   -0.0011    0.0009    0.0002
          18   -0.0043   -0.0087   -0.0098    0.0001    0.0004    0.0029   -0.0008    0.0005
          19   -0.0009   -0.0038    0.0092    0.0025   -0.0008   -0.0003   -0.0044   -0.0004
          20   -0.0003   -0.0025   -0.0018   -0.0003    0.0031    0.0073    0.0063    0.0012
          21   -0.0001   -0.0014   -0.0006   -0.0002   -0.0001    0.0013   -0.0009   -0.0009
          22   -0.0015    0.0034   -0.0089   -0.0031   -0.0008   -0.0030    0.0008   -0.0003
          23   -0.0007    0.0019    0.0177   -0.0011    0.0125    0.0203    0.0189   -0.0460
          24    0.0053    0.0226    0.0052   -0.0089   -0.0020   -0.0049    0.0061    0.0002
          25   -0.0025    0.0020   -0.0049   -0.0031   -0.0011   -0.0022    0.0007    0.0002
          26   -0.0007    0.0004   -0.0066    0.0015   -0.0103   -0.0233   -0.0236   -0.0154
          27   -0.0011   -0.0022    0.0001    0.0019   -0.0001   -0.0027   -0.0010    0.0007
          28   -0.0360    0.0068   -0.0010    0.0013    0.0005   -0.0073    0.0069   -0.0014
          29   -0.0202    0.0054   -0.0010    0.0011   -0.0026    0.0019   -0.0006   -0.0011
          30    0.0200   -0.0061    0.0006    0.0022    0.0016    0.0015   -0.0020    0.0008
          31    0.0004    0.0011   -0.0002    0.0055    0.0039   -0.0133    0.0110   -0.0002
          32    0.0122   -0.0018   -0.0002    0.0011   -0.0026    0.0107   -0.0087    0.0002
          33    0.0047   -0.0025    0.0000    0.0069    0.0025   -0.0047    0.0036    0.0002
          34    0.0066   -0.0613    0.0071    0.0371    0.0069   -0.0023    0.0020   -0.0003
          35   -0.0049    0.0080    0.0009    0.0277   -0.0668    0.0227    0.0300   -0.0404
          36   -0.0244    0.0031    0.0018   -0.0228   -0.0040   -0.0051    0.0042    0.0004
          37    0.0175    0.0710   -0.0060   -0.0191   -0.0023   -0.0162    0.0154   -0.0006
          38    0.0032   -0.0069   -0.0104    0.0137   -0.0777    0.0053    0.0250   -0.0331
          39    0.0010    0.0114   -0.0061   -0.0070   -0.0005    0.0014   -0.0007    0.0002
          40    0.0216    0.0189   -0.0135    0.0233    0.0037    0.0611   -0.0483   -0.0006
          41    0.0177    0.0121    0.0168   -0.0550    0.0875    0.0174   -0.0560    0.0383
          42    0.0184    0.0267    0.0091   -0.0360    0.0422    0.0032   -0.0174    0.0146
          43    0.0025    0.0178    0.0100    0.0391    0.0180    0.0001    0.0204   -0.0277
          44   -0.0284   -0.0819   -0.0113    0.0818   -0.0711    0.0034    0.0141   -0.0124
          45    0.0178    0.0325    0.0078   -0.0387    0.0426    0.0000   -0.0149    0.0130
          46    0.0076   -0.0046    0.0004    0.0061   -0.0036   -0.0250    0.0047    0.0250
          47    0.0239    0.1038   -0.0162    0.0017   -0.0905    0.0126    0.0124   -0.0135
          48    0.0142    0.0370   -0.0042    0.0021   -0.0501    0.0127    0.0066   -0.0129
          49    0.0274    0.0039   -0.0178    0.0104    0.0008    0.0507   -0.0525    0.0059
          50   -0.0181   -0.0115   -0.0057   -0.0109    0.1064   -0.0519   -0.0042    0.0378
          51    0.0152    0.0341   -0.0032    0.0040   -0.0546    0.0184    0.0038   -0.0156
          52   -0.0032   -0.0120   -0.0131    0.0049   -0.0065   -0.0188   -0.0232   -0.0051
          53    0.0025    0.0258    0.1499    0.0122   -0.0132   -0.0232   -0.0226   -0.0031
          54   -0.0049   -0.0193   -0.0586   -0.0004   -0.0005   -0.0050   -0.0102   -0.0015
          55   -0.0038   -0.0170   -0.0575   -0.0094    0.0234    0.0532    0.0536    0.0057
          56    0.0010   -0.0047   -0.0391   -0.0064    0.0121    0.0245    0.0270    0.0034
          57   -0.0042    0.0171    0.1601    0.0080    0.0015    0.0217    0.0176    0.0033
          58    0.0640   -0.0307    0.0030    0.0355    0.0076   -0.0050    0.0010    0.0060
          59   -0.0285   -0.0039    0.0027   -0.0458   -0.0100   -0.0093    0.0102   -0.0042
          60    0.0588    0.0716   -0.0185    0.1293    0.0279    0.0151   -0.0134   -0.0002
          61    0.0275    0.0032   -0.0034    0.0291    0.0028    0.0037   -0.0024   -0.0017
          62    0.0762    0.0059   -0.0065    0.1066    0.0259   -0.0281    0.0226    0.0011
          63   -0.0305    0.0071    0.0031   -0.0607   -0.0145    0.0172   -0.0139    0.0008
          64   -0.0046   -0.0142   -0.0146    0.0004   -0.0006    0.0071   -0.0060   -0.0008
          65   -0.0053   -0.0084    0.0420    0.0085   -0.0134   -0.0179   -0.0352   -0.0052
          66    0.0026    0.0064    0.0184    0.0016   -0.0002   -0.0041    0.0003   -0.0006
          67    0.0023   -0.0109   -0.1002   -0.0145    0.0274    0.0536    0.0620    0.0094
          68    0.0011   -0.0045   -0.0418   -0.0067    0.0139    0.0278    0.0320    0.0052
          69    0.0018    0.0065    0.0309    0.0031   -0.0019   -0.0057   -0.0032    0.0002
          70    0.0021    0.0059    0.0458    0.0069   -0.0028   -0.0096   -0.0074    0.0016
          71    0.0006    0.0118    0.1053    0.0147   -0.0155   -0.0329   -0.0359   -0.0024
          72    0.0019    0.0036    0.0102    0.0008    0.0012    0.0003    0.0030    0.0007
          73   -0.0072   -0.0137   -0.0297   -0.0005   -0.0007   -0.0027   -0.0065    0.0006
          74   -0.0029    0.0063    0.0870    0.0030    0.0171    0.1029    0.1108    0.2491
          75   -0.0036   -0.0108   -0.0144    0.0033   -0.0003   -0.0051   -0.0072   -0.0040
          76   -0.0047   -0.0011   -0.0209   -0.0101   -0.0038   -0.0002   -0.0037    0.0017
          77    0.0003    0.0002   -0.0297    0.0144   -0.0673   -0.0428   -0.0301    0.3449
          78    0.0034    0.0198    0.0000   -0.0130   -0.0016   -0.0016    0.0048   -0.0084
          79    0.0179    0.0207   -0.0043    0.0391    0.0166    0.0423   -0.0440    0.0118
[...]
 TRAVEL      0.0696        C  2 --  C  4           +8.3% ( 47.9%)    63.7%
 RED. MASS   1.3581        C  2 --  C  3           +8.1% ( 47.4%)    61.3%
 EFF. MASS   9.5032

 VIBRATION   62   62A       ATOM PAIR        ENERGY CONTRIBUTION    RADIAL
 FREQ.      1861.42        C 10 --  C 11          +45.3% ( 99.3%)    98.9%
 T-DIPOLE    0.2376        C  5 --  C 10          +16.7% ( 60.3%)    54.7%
 TRAVEL      0.0554        C 10 --  H 27          +15.4% ( 58.0%)     3.9%
 RED. MASS   5.2988        C 11 --  H 28          +11.0% ( 48.9%)    10.9%
 EFF. MASS  11.7903        C 11 --  H 29          +10.8% ( 48.4%)    11.5%

 VIBRATION   63   63A       ATOM PAIR        ENERGY CONTRIBUTION    RADIAL
 FREQ.      1891.54        C  8 --  C  9          +43.6% ( 97.6%)    96.4%
 T-DIPOLE    0.1442        C  2 --  C  8          +14.5% ( 56.2%)    55.8%
 TRAVEL      0.0550        C  6 --  C  9          +13.9% ( 55.2%)    54.7%
 RED. MASS   5.3558        C  8 --  H 26          +13.4% ( 54.1%)     3.6%
 EFF. MASS  11.7972        C  9 --  H 25          +13.0% ( 53.4%)     3.7%

 VIBRATION   64   64A       ATOM PAIR        ENERGY CONTRIBUTION    RADIAL
 FREQ.      2937.29        C  5 --  H 21          +46.8% ( 71.1%)    96.8%
 T-DIPOLE    0.0312        C  5 --  H 20          +42.8% ( 67.9%)    96.1%
 TRAVEL      0.1220        C  1 --  H 12           +7.6% ( 28.6%)   100.0%
 RED. MASS   0.4431        C  1 --  C  5           +1.2% ( 11.5%)     0.8%
 EFF. MASS   1.5426

 VIBRATION   65   65A       ATOM PAIR        ENERGY CONTRIBUTION    RADIAL
 FREQ.      2945.17        C  6 --  H 19          +52.2% ( 75.1%)    96.8%
 T-DIPOLE    0.0175        C  6 --  H 18          +45.0% ( 69.7%)    96.1%
 TRAVEL      0.1218        C  6 --  C  7           +1.2% ( 11.2%)     0.0%
 RED. MASS   0.5164        C  6 --  C  9           +1.2% ( 11.1%)     0.2%
 EFF. MASS   1.5437

 VIBRATION   66   66A       ATOM PAIR        ENERGY CONTRIBUTION    RADIAL
 FREQ.      2948.44        C  2 --  H 13          +93.7% ( 99.0%)   100.0%
 T-DIPOLE    0.0688        C  2 --  C  8           +1.1% ( 10.7%)    13.4%
 TRAVEL      0.1255        C  2 --  C  4           +1.1% ( 10.7%)    13.5%
 RED. MASS   0.8934        C  2 --  C  3           +1.1% ( 10.7%)    13.5%
 EFF. MASS   1.4531

 VIBRATION   67   67A       ATOM PAIR        ENERGY CONTRIBUTION    RADIAL
 FREQ.      2953.10        C  1 --  H 12          +86.0% ( 94.9%)   100.0%
 T-DIPOLE    0.0846        C  5 --  H 20           +4.3% ( 21.2%)    97.0%
 TRAVEL      0.1253        C  5 --  H 21           +3.7% ( 19.7%)    96.6%
 RED. MASS   0.7575        C  1 --  C  5           +1.0% ( 10.1%)    17.2%
 EFF. MASS   1.4555

 VIBRATION   68   68A       ATOM PAIR        ENERGY CONTRIBUTION    RADIAL
 FREQ.      3015.25        C  5 --  H 20          +51.1% ( 70.5%)    97.9%
 T-DIPOLE    0.0564        C  5 --  H 21          +46.7% ( 67.3%)    97.4%
 TRAVEL      0.1323        C  5 --  C 10           +0.6% (  7.9%)    31.2%
 RED. MASS   0.4763        C  1 --  C  5           +0.6% (  7.7%)    29.5%
 EFF. MASS   1.2767

 VIBRATION   69   69A       ATOM PAIR        ENERGY CONTRIBUTION    RADIAL
 FREQ.      3024.46        C  6 --  H 18          +50.0% ( 69.8%)    98.1%
 T-DIPOLE    0.0397        C  6 --  H 19          +43.8% ( 65.3%)    97.3%
 TRAVEL      0.1314        C  8 --  H 26           +2.6% ( 15.9%)    99.9%
 RED. MASS   0.4430        C  9 --  H 25           +1.6% ( 12.7%)    99.7%
 EFF. MASS   1.2922

 VIBRATION   70   70A       ATOM PAIR        ENERGY CONTRIBUTION    RADIAL
 FREQ.      3029.68        C  8 --  H 26          +92.0% ( 97.1%)   100.0%
 T-DIPOLE    0.2816        C  9 --  H 25           +2.9% ( 17.4%)    99.6%
 TRAVEL      0.1225        C  2 --  C  8           +1.3% ( 11.4%)    15.4%
 RED. MASS   0.8274        C  8 --  C  9           +1.2% ( 11.3%)    40.3%
 EFF. MASS   1.4827

 VIBRATION   71   71A       ATOM PAIR        ENERGY CONTRIBUTION    RADIAL
 FREQ.      3035.89        C  4 --  H 16          +34.2% ( 60.7%)    98.0%
 T-DIPOLE    0.0967        C  4 --  H 17          +21.3% ( 47.9%)    95.2%
 TRAVEL      0.1203        C  3 --  H 15          +17.2% ( 43.1%)    97.9%
 RED. MASS   0.2387        C  9 --  H 25          +12.2% ( 36.3%)   100.0%
 EFF. MASS   1.5357        C  3 --  H 14          +11.1% ( 34.6%)    95.4%

 VIBRATION   72   72A       ATOM PAIR        ENERGY CONTRIBUTION    RADIAL
 FREQ.      3035.99        C  9 --  H 25          +77.3% ( 89.6%)   100.0%
 T-DIPOLE    0.2031        C  3 --  H 15           +6.8% ( 26.6%)    97.9%
 TRAVEL      0.1205        C  3 --  H 14           +4.4% ( 21.4%)    95.4%
 RED. MASS   0.6080        C  4 --  H 16           +2.8% ( 17.2%)    98.0%
 EFF. MASS   1.5302

 VIBRATION   73   73A       ATOM PAIR        ENERGY CONTRIBUTION    RADIAL
 FREQ.      3038.77        C  3 --  H 15          +34.8% ( 61.4%)    98.0%
 T-DIPOLE    0.1171        C  4 --  H 16          +22.5% ( 49.3%)    98.0%
 TRAVEL      0.1199        C  3 --  H 14          +22.1% ( 48.9%)    95.3%
 RED. MASS   0.2655        C  4 --  H 17          +13.8% ( 38.7%)    95.1%
 EFF. MASS   1.5435

 VIBRATION   74   74A       ATOM PAIR        ENERGY CONTRIBUTION    RADIAL
 FREQ.      3040.85        C 10 --  H 27          +95.7% ( 99.2%)   100.0%
 T-DIPOLE    0.2258        C 10 --  C 11           +1.4% ( 12.0%)    30.6%
 TRAVEL      0.1216        C  5 --  C 10           +1.3% ( 11.6%)    14.2%
 RED. MASS   0.9012        C 11 --  H 29           +0.9% (  9.5%)    96.2%
 EFF. MASS   1.5003

 VIBRATION   75   75A       ATOM PAIR        ENERGY CONTRIBUTION    RADIAL
 FREQ.      3081.47        C  7 --  H 24          +64.2% ( 82.6%)    98.7%
 T-DIPOLE    0.0076        C  7 --  H 23          +28.2% ( 54.8%)    92.1%
 TRAVEL      0.1207        C  7 --  H 22           +6.4% ( 26.1%)    62.3%
 RED. MASS   0.5227        C  6 --  C  7           +1.0% ( 10.2%)     0.0%
 EFF. MASS   1.5011

 VIBRATION   76   76A       ATOM PAIR        ENERGY CONTRIBUTION    RADIAL
 FREQ.      3086.24        C  7 --  H 22          +58.3% ( 78.7%)    98.3%
 T-DIPOLE    0.0146        C  7 --  H 23          +36.6% ( 62.4%)    94.6%
 TRAVEL      0.1205        C  7 --  H 24           +3.8% ( 20.0%)    44.6%
 RED. MASS   0.5030        C  6 --  C  7           +1.0% ( 10.3%)     0.1%
 EFF. MASS   1.5041

 VIBRATION   77   77A       ATOM PAIR        ENERGY CONTRIBUTION    RADIAL
 FREQ.      3102.09        C  4 --  H 17          +37.2% ( 60.5%)    98.5%
 T-DIPOLE    0.1107        C  3 --  H 14          +23.9% ( 48.5%)    98.5%
 TRAVEL      0.1311        C  4 --  H 16          +22.3% ( 46.8%)    95.1%
 RED. MASS   0.2659        C  3 --  H 15          +14.8% ( 38.2%)    95.4%
 EFF. MASS   1.2648

 VIBRATION   78   78A       ATOM PAIR        ENERGY CONTRIBUTION    RADIAL
 FREQ.      3104.96        C  3 --  H 14          +36.6% ( 60.1%)    98.3%
 T-DIPOLE    0.0207        C  4 --  H 17          +24.1% ( 48.8%)    98.3%
 TRAVEL      0.1289        C  3 --  H 15          +22.5% ( 47.2%)    94.9%
 RED. MASS   0.2657        C  4 --  H 16          +14.4% ( 37.7%)    94.6%
 EFF. MASS   1.3062

 VIBRATION   79   79A       ATOM PAIR        ENERGY CONTRIBUTION    RADIAL
 FREQ.      3135.60        C 11 --  H 28          +91.3% ( 97.3%)    99.9%
 T-DIPOLE    0.1858        C 11 --  H 29           +7.3% ( 27.6%)    74.9%
 TRAVEL      0.1182        C 10 --  C 11           +1.3% ( 11.7%)    21.2%
 RED. MASS   0.8461
 EFF. MASS   1.5401

 VIBRATION   80   80A       ATOM PAIR        ENERGY CONTRIBUTION    RADIAL
 FREQ.      3148.00        C 11 --  H 29          +91.3% ( 96.2%)    99.3%
 T-DIPOLE    0.2555        C 11 --  H 28           +6.3% ( 25.2%)    44.8%
 TRAVEL      0.1210        C 10 --  C 11           +1.6% ( 12.7%)    74.3%
 RED. MASS   0.8108        C 10 --  H 27           +0.8% (  8.7%)    94.5%
 EFF. MASS   1.4631

 VIBRATION   81   81A       ATOM PAIR        ENERGY CONTRIBUTION    RADIAL
 FREQ.      3183.29        C  7 --  H 23          +34.5% ( 56.5%)    97.3%
 T-DIPOLE    0.0235        C  7 --  H 22          +34.4% ( 56.4%)    97.3%
 TRAVEL      0.1365        C  7 --  H 24          +30.8% ( 53.4%)    96.7%
 RED. MASS   0.3277        C  6 --  C  7           +0.3% (  5.1%)    99.8%
 EFF. MASS   1.1361

 SYMMETRY NUMBER FOR POINT-GROUP C1  =  1


          SYSTEM IS A GROUND STATE


    NULL



          MOLECULE IS NOT LINEAR

          THERE ARE 81 GENUINE VIBRATIONS IN THIS SYSTEM
          THIS THERMODYNAMICS CALCULATION IS LIMITED TO
          MOLECULES WHICH HAVE NO INTERNAL ROTATIONS




                    CALCULATED THERMODYNAMIC PROPERTIES
                                          *
   TEMP. (K)   PARTITION FUNCTION   H.O.F.    ENTHALPY  HEAT CAPACITY ENTROPY
                                   KCAL/MOL   CAL/MOLE    CAL/K/MOL  CAL/K/MOL


 298.00  VIB.     0.3553D+05                  6050.8131    40.2360    41.1267
         ROT.     0.1523D+07                   888.2813     2.9808    31.2707
         INT.     0.5410D+11                  6939.0944    43.2168    72.3974
         TRA.     0.1781D+28                  1480.4688     4.9680    40.9296
         TOT.                       12.718    8419.5633    48.1848   113.3271

 200.00  VIB.     0.1181D+04                  2830.0558    26.0704    28.2083
         ROT.     0.8372D+06                   596.1620     2.9808    30.0821
         INT.     0.9889D+09                  3426.2178    29.0513    58.2904
         TRA.     0.9791D+27                   993.6033     4.9680    38.9485
         TOT.                        8.718    4419.8210    34.0193    97.2389

 210.00  VIB.     0.1684D+04                  3097.0710    27.3401    29.5108
         ROT.     0.9008D+06                   625.9700     2.9808    30.2275
         INT.     0.1517D+10                  3723.0410    30.3209    59.7383
         TRA.     0.1053D+28                  1043.2834     4.9680    39.1909
         TOT.                        9.065    4766.3244    35.2889    98.9292

 220.00  VIB.     0.2395D+04                  3377.0092    28.6551    30.8129
         ROT.     0.9659D+06                   655.7781     2.9808    30.3662
         INT.     0.2313D+10                  4032.7874    31.6360    61.1790
         TRA.     0.1130D+28                  1092.9636     4.9680    39.4220
         TOT.                        9.424    5125.7509    36.6040   100.6010

 230.00  VIB.     0.3399D+04                  3670.3247    30.0154    32.1165
         ROT.     0.1033D+07                   685.5862     2.9808    30.4987
         INT.     0.3510D+10                  4355.9109    32.9962    62.6151
         TRA.     0.1207D+28                  1142.6437     4.9680    39.6428
         TOT.                        9.797    5498.5546    37.9642   102.2580

 240.00  VIB.     0.4815D+04                  3977.4618    31.4191    33.4234
         ROT.     0.1101D+07                   715.3943     2.9808    30.6255
         INT.     0.5300D+10                  4692.8562    34.3999    64.0490
         TRA.     0.1287D+28                  1192.3239     4.9680    39.8543
         TOT.                       10.184    5885.1801    39.3679   103.9032

 250.00  VIB.     0.6811D+04                  4298.8432    32.8637    34.7352
         ROT.     0.1170D+07                   745.2024     2.9808    30.7472
         INT.     0.7970D+10                  5044.0456    35.8445    65.4824
         TRA.     0.1368D+28                  1242.0041     4.9680    40.0571
         TOT.                       10.584    6286.0497    40.8125   105.5395

 260.00  VIB.     0.9623D+04                  4634.8592    34.3454    36.0529
         ROT.     0.1241D+07                   775.0105     2.9808    30.8641
         INT.     0.1194D+11                  5409.8697    37.3262    66.9170
         TRA.     0.1451D+28                  1291.6842     4.9680    40.2519
         TOT.                       11.000    6701.5539    42.2942   107.1689

 270.00  VIB.     0.1358D+05                  4985.8608    35.8600    37.3774
         ROT.     0.1313D+07                   804.8186     2.9808    30.9766
         INT.     0.1784D+11                  5790.6794    38.8409    68.3540
         TRA.     0.1536D+28                  1341.3644     4.9680    40.4394
         TOT.                       11.430    7132.0438    43.8089   108.7934

 280.00  VIB.     0.1916D+05                  5352.1544    37.4030    38.7093
         ROT.     0.1387D+07                   834.6267     2.9808    31.0850
         INT.     0.2657D+11                  6186.7812    40.3838    69.7944
         TRA.     0.1622D+28                  1391.0445     4.9680    40.6201
         TOT.                       11.876    7577.8257    45.3518   110.4144

 290.00  VIB.     0.2700D+05                  5733.9988    38.9694    40.0491
         ROT.     0.1462D+07                   864.4348     2.9808    31.1896
         INT.     0.3947D+11                  6598.4336    41.9502    71.2387
         TRA.     0.1710D+28                  1440.7247     4.9680    40.7944
         TOT.                       12.338    8039.1583    46.9182   112.0332

 300.00  VIB.     0.3805D+05                  6131.6033    40.5542    41.3969
         ROT.     0.1538D+07                   894.2429     2.9808    31.2907
         INT.     0.5852D+11                  7025.8462    43.5350    72.6876
         TRA.     0.1799D+28                  1490.4049     4.9680    40.9628
         TOT.                       12.815    8516.2511    48.5030   113.6504

 310.00  VIB.     0.5360D+05                  6545.1285    42.1527    42.7527
         ROT.     0.1616D+07                   924.0510     2.9808    31.3884
         INT.     0.8660D+11                  7469.1795    45.1335    74.1411
         TRA.     0.1889D+28                  1540.0850     4.9680    41.1257
         TOT.                       13.308    9009.2646    50.1015   115.2669

 320.00  VIB.     0.7551D+05                  6974.6872    43.7601    44.1164
         ROT.     0.1694D+07                   953.8591     2.9808    31.4830
         INT.     0.1280D+12                  7928.5463    46.7410    75.5994
         TRA.     0.1982D+28                  1589.7652     4.9680    41.2835
         TOT.                       13.817    9518.3115    51.7090   116.8829

 330.00  VIB.     0.1064D+06                  7420.3463    45.3721    45.4876
         ROT.     0.1774D+07                   983.6672     2.9808    31.5748
         INT.     0.1888D+12                  8404.0135    48.3529    77.0624
         TRA.     0.2075D+28                  1639.4454     4.9680    41.4364
         TOT.                       14.342   10043.4589    53.3209   118.4987

 340.00  VIB.     0.1499D+06                  7882.1299    46.9844    46.8660
         ROT.     0.1856D+07                  1013.4753     2.9808    31.6638
         INT.     0.2782D+12                  8895.6052    49.9652    78.5298
         TRA.     0.2170D+28                  1689.1255     4.9680    41.5847
         TOT.                       14.883   10584.7307    54.9332   120.1145

 350.00  VIB.     0.2113D+06                  8360.0223    48.5932    48.2512
         ROT.     0.1938D+07                  1043.2834     2.9808    31.7502
         INT.     0.4096D+12                  9403.3057    51.5740    80.0014
         TRA.     0.2267D+28                  1738.8057     4.9680    41.7287
         TOT.                       15.440   11142.1114    56.5421   121.7301

 360.00  VIB.     0.2980D+06                  8853.9714    50.1952    49.6426
         ROT.     0.2022D+07                  1073.0915     2.9808    31.8341
         INT.     0.6025D+12                  9927.0629    53.1760    81.4768
         TRA.     0.2364D+28                  1788.4859     4.9680    41.8686
         TOT.                       16.014   11715.5488    58.1440   123.3454

 370.00  VIB.     0.4203D+06                  9363.8925    51.7871    51.0396
         ROT.     0.2107D+07                  1102.8996     2.9808    31.9158
         INT.     0.8855D+12                 10466.7921    54.7679    82.9555
         TRA.     0.2464D+28                  1838.1660     4.9680    42.0047
         TOT.                       16.603   12304.9581    59.7360   124.9602

 380.00  VIB.     0.5931D+06                  9889.6716    53.3664    52.4417
         ROT.     0.2193D+07                  1132.7077     2.9808    31.9953
         INT.     0.1301D+13                 11022.3793    56.3472    84.4370
         TRA.     0.2564D+28                  1887.8462     4.9680    42.1372
         TOT.                       17.209   12910.2255    61.3152   126.5743

 390.00  VIB.     0.8374D+06                 10431.1693    54.9305    53.8482
         ROT.     0.2280D+07                  1162.5158     2.9808    32.0727
         INT.     0.1909D+13                 11593.6851    57.9113    85.9209
         TRA.     0.2666D+28                  1937.5263     4.9680    42.2663
         TOT.                       17.830   13531.2114    62.8793   128.1872

 400.00  VIB.     0.1183D+07                 10988.2237    56.4774    55.2584
         ROT.     0.2368D+07                  1192.3239     2.9808    32.1482
         INT.     0.2801D+13                 12180.5476    59.4582    87.4066
         TRA.     0.2769D+28                  1987.2065     4.9680    42.3921
         TOT.                       18.466   14167.7541    64.4262   129.7987

   *: NOTE: HEATS OF FORMATION ARE RELATIVE TO THE
            ELEMENTS IN THEIR STANDARD STATE AT 298K
              (=  Standard Enthalpy of Formation).

            Hvib:  Zero-point energy is not included.
                   frequencies of less than zero cm-1 are not included.
            Hrot = (3/2)RT
            Htra = (3/2)RT + pV = (5/2)RT

            Heat capacity is Cp, not Cv

           For more information, see: HTTP://OpenMOPAC.net/Manual/thermochemistry.html


           FORCE CONSTANT IN CARTESIAN COORDINATES (Millidynes/A)

    ATOM   CHEMICAL       X               Y               Z
   NUMBER   SYMBOL  FORCE CONSTANT  FORCE CONSTANT  FORCE CONSTANT

      1       C        9.818975        6.303695        8.630588
      2       C       10.049855        5.933542        9.282782
      3       C        5.936641        9.708879        8.662035
      4       C        5.946305        9.713876        8.653296
      5       C        8.681973        8.529029        8.354858
      6       C        8.572659        8.023592        8.828964
      7       C        8.309987        8.215487        8.324211
      8       C       15.573845        2.492734        9.344271
      9       C       15.464075        2.456694        9.267838
     10       C        6.448969        9.028603       11.684623
     11       C        6.187241        8.923123       11.411763
     12       H        1.996034        0.668788        3.606508
     13       H        2.010710        0.655682        3.594860
     14       H        0.667351        2.257440        3.717320
     15       H        0.678167        2.280880        3.665730
     16       H        0.685970        2.169164        3.770535
     17       H        0.666913        2.368713        3.605990
     18       H        1.982290        0.809433        3.609412
     19       H        1.410718        4.187278        0.681723
     20       H        1.599505        3.964061        0.684608
     21       H        1.983688        0.771397        3.614859
     22       H        2.327016        0.706585        3.761633
     23       H        1.476322        4.623181        0.687143
     24       H        2.179391        0.823717        3.784458
     25       H        1.732572        0.359429        4.121894
     26       H        1.728259        0.362856        4.097707
     27       H        1.760054        0.607542        3.860895
     28       H        1.723729        0.559835        4.186187
     29       H        2.944651        2.873761        0.668333



 TOTAL CPU TIME:             7.84 SECONDS

 == MOPAC DONE ==
