 *******************************************************************************
 ** Site#: 14399           For non-commercial use only        Version 13.159M **
 *******************************************************************************
 ** Cite this work as: MOPAC2012, James J. P. Stewart, Stewart Computational  **
 ** Chemistry, Version 13.159M web: HTTP://OpenMOPAC.net  Days remaining:   6 **
 *******************************************************************************
 **                                                                           **
 **                                MOPAC2012                                  **
 **                                                                           **
 *******************************************************************************

                            PM3 CALCULATION RESULTS


 *******************************************************************************
 *  CALCULATION DONE:                                Mon Jun  2 11:06:47 2014  *
 *  PM3      - The PM3 Hamiltonian to be used
 *  PRECISE  - CRITERIA TO BE INCREASED BY 100 TIMES
 *  NOSYM    - POINT-GROUP SYMMETRY SET TO C1
 *  T=       - A TIME OF 172800.0 SECONDS REQUESTED
 *  DUMP=N   - RESTART FILE WRITTEN EVERY  7200.000 SECONDS
 *******************************************************************************
pm3  precise nosym
 InChI=1S/C11H18/c1-3-5-7-11-9-8-10(11)6-4-2/h4-5,7,10-11H,2-3,6,8-9H2,1H3

   ATOM   CHEMICAL          X               Y               Z
  NUMBER   SYMBOL      (ANGSTROMS)     (ANGSTROMS)     (ANGSTROMS)
 
     1       C         -1.65480000  *  -0.58820000  *   0.61980000  *
     2       C         -0.28340000  *  -1.14950000  *   0.23610000  *
     3       C         -1.95740000  *  -1.95070000  *   1.31950000  *
     4       C         -0.50180000  *  -2.34230000  *   1.10570000  *
     5       C         -2.58440000  *  -0.24200000  *  -0.55050000  *
     6       C          2.90820000  *   1.06160000  *   0.21540000  *
     7       C          3.83470000  *   1.43950000  *  -0.93410000  *
     8       C          0.86420000  *  -0.26550000  *   0.65150000  *
     9       C          1.78390000  *   0.16520000  *  -0.22120000  *
    10       C         -2.09710000  *   0.94020000  *  -1.34010000  *
    11       C         -2.02860000  *   2.17130000  *  -0.82690000  *
    12       H         -1.61950000  *   0.22870000  *   1.38150000  *
    13       H         -0.23340000  *  -1.45900000  *  -0.83730000  *
    14       H         -2.65740000  *  -2.61210000  *   0.75610000  *
    15       H         -2.23350000  *  -1.84120000  *   2.39400000  *
    16       H         -0.38860000  *  -3.31180000  *   0.56640000  *
    17       H          0.06640000  *  -2.33660000  *   2.06660000  *
    18       H          3.50640000  *   0.54700000  *   1.00280000  *
    19       H          2.48620000  *   1.99510000  *   0.65510000  *
    20       H         -3.60830000  *  -0.03390000  *  -0.16310000  *
    21       H         -2.67680000  *  -1.11170000  *  -1.24220000  *
    22       H          4.64830000  *   2.10240000  *  -0.56140000  *
    23       H          3.27720000  *   1.98810000  *  -1.72760000  *
    24       H          4.30370000  *   0.53230000  *  -1.37910000  *
    25       H          1.71440000  *  -0.13300000  *  -1.26780000  *
    26       H          0.92970000  *   0.04380000  *   1.69540000  *
    27       H         -1.79970000  *   0.78800000  *  -2.37680000  *
    28       H         -2.32550000  *   2.37560000  *   0.20040000  *
    29       H         -1.67280000  *   2.99840000  *  -1.43820000  *
 


          CARTESIAN COORDINATES 

    NO.       ATOM         X         Y         Z

     1         C       -1.6548   -0.5882    0.6198
     2         C       -0.2834   -1.1495    0.2361
     3         C       -1.9574   -1.9507    1.3195
     4         C       -0.5018   -2.3423    1.1057
     5         C       -2.5844   -0.2420   -0.5505
     6         C        2.9082    1.0616    0.2154
     7         C        3.8347    1.4395   -0.9341
     8         C        0.8642   -0.2655    0.6515
     9         C        1.7839    0.1652   -0.2212
    10         C       -2.0971    0.9402   -1.3401
    11         C       -2.0286    2.1713   -0.8269
    12         H       -1.6195    0.2287    1.3815
    13         H       -0.2334   -1.4590   -0.8373
    14         H       -2.6574   -2.6121    0.7561
    15         H       -2.2335   -1.8412    2.3940
    16         H       -0.3886   -3.3118    0.5664
    17         H        0.0664   -2.3366    2.0666
    18         H        3.5064    0.5470    1.0028
    19         H        2.4862    1.9951    0.6551
    20         H       -3.6083   -0.0339   -0.1631
    21         H       -2.6768   -1.1117   -1.2422
    22         H        4.6483    2.1024   -0.5614
    23         H        3.2772    1.9881   -1.7276
    24         H        4.3037    0.5323   -1.3791
    25         H        1.7144   -0.1330   -1.2678
    26         H        0.9297    0.0438    1.6954
    27         H       -1.7997    0.7880   -2.3768
    28         H       -2.3255    2.3756    0.2004
    29         H       -1.6728    2.9984   -1.4382

  H: (PM3): J. J. P. STEWART, J. COMP. CHEM. 10, 209 (1989).
  C: (PM3): J. J. P. STEWART, J. COMP. CHEM. 10, 209 (1989).

           Empirical Formula: C11 H18  =    29 atoms



      MOLECULAR POINT GROUP   :   C1  


      RHF CALCULATION, NO. OF DOUBLY OCCUPIED LEVELS =   31

      Geometry optimization using EF

          DIAGONAL MATRIX USED AS START HESSIAN

 CYCLE:     1 TIME:   0.014 TIME LEFT:  2.00D  GRAD.:   108.525 HEAT: 20.77105
 CYCLE:     2 TIME:   0.021 TIME LEFT:  2.00D  GRAD.:   114.640 HEAT: 19.69009
 CYCLE:     3 TIME:   0.020 TIME LEFT:  2.00D  GRAD.:    74.298 HEAT: 17.52124
 CYCLE:     4 TIME:   0.021 TIME LEFT:  2.00D  GRAD.:    26.580 HEAT: 16.40895
 CYCLE:     5 TIME:   0.011 TIME LEFT:  2.00D  GRAD.:    31.219 HEAT: 15.93385
 CYCLE:     6 TIME:   0.011 TIME LEFT:  2.00D  GRAD.:    44.611 HEAT: 15.69990
 CYCLE:     7 TIME:   0.021 TIME LEFT:  2.00D  GRAD.:    30.197 HEAT: 15.27814
 CYCLE:     8 TIME:   0.021 TIME LEFT:  2.00D  GRAD.:    29.298 HEAT: 15.16866
 CYCLE:     9 TIME:   0.020 TIME LEFT:  2.00D  GRAD.:    14.640 HEAT: 15.02221
 CYCLE:    10 TIME:   0.011 TIME LEFT:  2.00D  GRAD.:    18.591 HEAT: 15.01821
 CYCLE:    11 TIME:   0.011 TIME LEFT:  2.00D  GRAD.:    13.941 HEAT: 14.94928
 CYCLE:    12 TIME:   0.020 TIME LEFT:  2.00D  GRAD.:     9.551 HEAT: 14.89994
 CYCLE:    13 TIME:   0.011 TIME LEFT:  2.00D  GRAD.:    10.371 HEAT: 14.88223
 CYCLE:    14 TIME:   0.011 TIME LEFT:  2.00D  GRAD.:     9.172 HEAT: 14.85716
 CYCLE:    15 TIME:   0.020 TIME LEFT:  2.00D  GRAD.:     5.405 HEAT: 14.83567
 CYCLE:    16 TIME:   0.011 TIME LEFT:  2.00D  GRAD.:     8.298 HEAT: 14.83543
 CYCLE:    17 TIME:   0.011 TIME LEFT:  2.00D  GRAD.:     4.927 HEAT: 14.81168
 CYCLE:    18 TIME:   0.011 TIME LEFT:  2.00D  GRAD.:     7.893 HEAT: 14.80756
 CYCLE:    19 TIME:   0.011 TIME LEFT:  2.00D  GRAD.:     6.623 HEAT: 14.78829
 CYCLE:    20 TIME:   0.021 TIME LEFT:  2.00D  GRAD.:     5.823 HEAT: 14.78009
 CYCLE:    21 TIME:   0.011 TIME LEFT:  2.00D  GRAD.:     4.022 HEAT: 14.76891
 CYCLE:    22 TIME:   0.011 TIME LEFT:  2.00D  GRAD.:     5.866 HEAT: 14.76288
 CYCLE:    23 TIME:   0.011 TIME LEFT:  2.00D  GRAD.:     5.464 HEAT: 14.75252
 CYCLE:    24 TIME:   0.011 TIME LEFT:  2.00D  GRAD.:     5.777 HEAT: 14.74063
 CYCLE:    25 TIME:   0.011 TIME LEFT:  2.00D  GRAD.:     7.733 HEAT: 14.72821
 CYCLE:    26 TIME:   0.011 TIME LEFT:  2.00D  GRAD.:     7.730 HEAT: 14.70820
 CYCLE:    27 TIME:   0.020 TIME LEFT:  2.00D  GRAD.:     9.364 HEAT: 14.70424
 CYCLE:    28 TIME:   0.011 TIME LEFT:  2.00D  GRAD.:     6.669 HEAT: 14.67878
 CYCLE:    29 TIME:   0.011 TIME LEFT:  2.00D  GRAD.:     9.275 HEAT: 14.67574
 CYCLE:    30 TIME:   0.011 TIME LEFT:  2.00D  GRAD.:     4.278 HEAT: 14.64770
 CYCLE:    31 TIME:   0.028 TIME LEFT:  2.00D  GRAD.:     4.144 HEAT: 14.64120
 CYCLE:    32 TIME:   0.011 TIME LEFT:  2.00D  GRAD.:     2.402 HEAT: 14.63094
 CYCLE:    33 TIME:   0.011 TIME LEFT:  2.00D  GRAD.:     2.791 HEAT: 14.62136
 CYCLE:    34 TIME:   0.013 TIME LEFT:  2.00D  GRAD.:     2.822 HEAT: 14.60896
 CYCLE:    35 TIME:   0.016 TIME LEFT:  2.00D  GRAD.:     3.402 HEAT: 14.59165
 CYCLE:    36 TIME:   0.012 TIME LEFT:  2.00D  GRAD.:     2.404 HEAT: 14.56935
 CYCLE:    37 TIME:   0.012 TIME LEFT:  2.00D  GRAD.:     4.980 HEAT: 14.54613
 CYCLE:    38 TIME:   0.011 TIME LEFT:  2.00D  GRAD.:     5.274 HEAT: 14.53211
 CYCLE:    39 TIME:   0.011 TIME LEFT:  2.00D  GRAD.:     3.334 HEAT: 14.51847
 CYCLE:    40 TIME:   0.011 TIME LEFT:  2.00D  GRAD.:     2.955 HEAT: 14.50813
 CYCLE:    41 TIME:   0.011 TIME LEFT:  2.00D  GRAD.:     3.410 HEAT: 14.48939
 CYCLE:    42 TIME:   0.011 TIME LEFT:  2.00D  GRAD.:     4.291 HEAT: 14.45835
 CYCLE:    43 TIME:   0.011 TIME LEFT:  2.00D  GRAD.:     3.727 HEAT: 14.44145
 CYCLE:    44 TIME:   0.011 TIME LEFT:  2.00D  GRAD.:     2.646 HEAT: 14.42741
 CYCLE:    45 TIME:   0.012 TIME LEFT:  2.00D  GRAD.:     2.692 HEAT: 14.41583
 CYCLE:    46 TIME:   0.014 TIME LEFT:  2.00D  GRAD.:     2.099 HEAT: 14.40673
 CYCLE:    47 TIME:   0.017 TIME LEFT:  2.00D  GRAD.:     2.226 HEAT: 14.39843
 CYCLE:    48 TIME:   0.017 TIME LEFT:  2.00D  GRAD.:     3.222 HEAT: 14.38969
 CYCLE:    49 TIME:   0.011 TIME LEFT:  2.00D  GRAD.:     2.990 HEAT: 14.37735
 CYCLE:    50 TIME:   0.014 TIME LEFT:  2.00D  GRAD.:     2.918 HEAT: 14.35699
 CYCLE:    51 TIME:   0.012 TIME LEFT:  2.00D  GRAD.:     3.221 HEAT: 14.33419
 CYCLE:    52 TIME:   0.012 TIME LEFT:  2.00D  GRAD.:     3.158 HEAT: 14.31401
 CYCLE:    53 TIME:   0.012 TIME LEFT:  2.00D  GRAD.:     3.403 HEAT: 14.29383
 CYCLE:    54 TIME:   0.012 TIME LEFT:  2.00D  GRAD.:     2.950 HEAT: 14.27859
 CYCLE:    55 TIME:   0.012 TIME LEFT:  2.00D  GRAD.:     2.384 HEAT: 14.26795
 CYCLE:    56 TIME:   0.011 TIME LEFT:  2.00D  GRAD.:     2.087 HEAT: 14.25769
 CYCLE:    57 TIME:   0.013 TIME LEFT:  2.00D  GRAD.:     2.060 HEAT: 14.24600
 CYCLE:    58 TIME:   0.014 TIME LEFT:  2.00D  GRAD.:     1.656 HEAT: 14.23733
 CYCLE:    59 TIME:   0.013 TIME LEFT:  2.00D  GRAD.:     1.518 HEAT: 14.23149
 CYCLE:    60 TIME:   0.012 TIME LEFT:  2.00D  GRAD.:     1.342 HEAT: 14.22710
 CYCLE:    61 TIME:   0.015 TIME LEFT:  2.00D  GRAD.:     1.093 HEAT: 14.22383
 CYCLE:    62 TIME:   0.012 TIME LEFT:  2.00D  GRAD.:     1.168 HEAT: 14.22088
 CYCLE:    63 TIME:   0.012 TIME LEFT:  2.00D  GRAD.:     1.226 HEAT: 14.21816
 CYCLE:    64 TIME:   0.011 TIME LEFT:  2.00D  GRAD.:     1.299 HEAT: 14.21519
 CYCLE:    65 TIME:   0.012 TIME LEFT:  2.00D  GRAD.:     1.319 HEAT: 14.21164
 CYCLE:    66 TIME:   0.012 TIME LEFT:  2.00D  GRAD.:     1.618 HEAT: 14.20629
 CYCLE:    67 TIME:   0.013 TIME LEFT:  2.00D  GRAD.:     2.005 HEAT: 14.19902
 CYCLE:    68 TIME:   0.015 TIME LEFT:  2.00D  GRAD.:     2.102 HEAT: 14.19059
 CYCLE:    69 TIME:   0.012 TIME LEFT:  2.00D  GRAD.:     2.034 HEAT: 14.17880
 CYCLE:    70 TIME:   0.012 TIME LEFT:  2.00D  GRAD.:     1.880 HEAT: 14.17144
 CYCLE:    71 TIME:   0.013 TIME LEFT:  2.00D  GRAD.:     2.369 HEAT: 14.15869
 CYCLE:    72 TIME:   0.012 TIME LEFT:  2.00D  GRAD.:     2.442 HEAT: 14.15236
 CYCLE:    73 TIME:   0.011 TIME LEFT:  2.00D  GRAD.:     1.883 HEAT: 14.14418
 CYCLE:    74 TIME:   0.012 TIME LEFT:  2.00D  GRAD.:     1.907 HEAT: 14.13287
 CYCLE:    75 TIME:   0.012 TIME LEFT:  2.00D  GRAD.:     2.302 HEAT: 14.12072
 CYCLE:    76 TIME:   0.011 TIME LEFT:  2.00D  GRAD.:     2.604 HEAT: 14.10752
 CYCLE:    77 TIME:   0.012 TIME LEFT:  2.00D  GRAD.:     2.093 HEAT: 14.09667
 CYCLE:    78 TIME:   0.012 TIME LEFT:  2.00D  GRAD.:     3.812 HEAT: 14.09020
 CYCLE:    79 TIME:   0.011 TIME LEFT:  2.00D  GRAD.:     2.258 HEAT: 14.08192
 CYCLE:    80 TIME:   0.011 TIME LEFT:  2.00D  GRAD.:     2.139 HEAT: 14.07318
 CYCLE:    81 TIME:   0.012 TIME LEFT:  2.00D  GRAD.:     2.849 HEAT: 14.04834
 CYCLE:    82 TIME:   0.012 TIME LEFT:  2.00D  GRAD.:     2.756 HEAT: 14.03681
 CYCLE:    83 TIME:   0.012 TIME LEFT:  2.00D  GRAD.:    12.970 HEAT: 14.03011
 CYCLE:    84 TIME:   0.025 TIME LEFT:  2.00D  GRAD.:     9.191 HEAT: 13.97156
 CYCLE:    85 TIME:   0.011 TIME LEFT:  2.00D  GRAD.:     6.181 HEAT: 13.91582
 CYCLE:    86 TIME:   0.011 TIME LEFT:  2.00D  GRAD.:     5.131 HEAT: 13.87491
 CYCLE:    87 TIME:   0.012 TIME LEFT:  2.00D  GRAD.:     7.068 HEAT: 13.81494
 CYCLE:    88 TIME:   0.012 TIME LEFT:  2.00D  GRAD.:     6.525 HEAT: 13.72421
 CYCLE:    89 TIME:   0.012 TIME LEFT:  2.00D  GRAD.:    13.639 HEAT: 13.67853
 CYCLE:    90 TIME:   0.021 TIME LEFT:  2.00D  GRAD.:    10.753 HEAT: 13.61218
 CYCLE:    91 TIME:   0.012 TIME LEFT:  2.00D  GRAD.:    13.225 HEAT: 13.57511
 CYCLE:    92 TIME:   0.012 TIME LEFT:  2.00D  GRAD.:     6.068 HEAT: 13.47256
 CYCLE:    93 TIME:   0.011 TIME LEFT:  2.00D  GRAD.:     5.322 HEAT: 13.42558
 CYCLE:    94 TIME:   0.012 TIME LEFT:  2.00D  GRAD.:     5.834 HEAT: 13.37146
 CYCLE:    95 TIME:   0.011 TIME LEFT:  2.00D  GRAD.:     3.338 HEAT: 13.34765
 CYCLE:    96 TIME:   0.012 TIME LEFT:  2.00D  GRAD.:     8.050 HEAT: 13.34634
 CYCLE:    97 TIME:   0.015 TIME LEFT:  2.00D  GRAD.:     3.571 HEAT: 13.31157
 CYCLE:    98 TIME:   0.011 TIME LEFT:  2.00D  GRAD.:     2.868 HEAT: 13.28955
 CYCLE:    99 TIME:   0.012 TIME LEFT:  2.00D  GRAD.:     3.396 HEAT: 13.24229
 CYCLE:   100 TIME:   0.013 TIME LEFT:  2.00D  GRAD.:     5.719 HEAT: 13.22444
 CYCLE:   101 TIME:   0.012 TIME LEFT:  2.00D  GRAD.:     5.323 HEAT: 13.20636
 CYCLE:   102 TIME:   0.012 TIME LEFT:  2.00D  GRAD.:     6.079 HEAT: 13.16631
 CYCLE:   103 TIME:   0.011 TIME LEFT:  2.00D  GRAD.:     4.436 HEAT: 13.14819
 CYCLE:   104 TIME:   0.012 TIME LEFT:  2.00D  GRAD.:     6.831 HEAT: 13.12313
 CYCLE:   105 TIME:   0.012 TIME LEFT:  2.00D  GRAD.:     4.210 HEAT: 13.09702
 CYCLE:   106 TIME:   0.011 TIME LEFT:  2.00D  GRAD.:     4.221 HEAT: 13.07893
 CYCLE:   107 TIME:   0.012 TIME LEFT:  2.00D  GRAD.:     4.458 HEAT: 13.05138
 CYCLE:   108 TIME:   0.011 TIME LEFT:  2.00D  GRAD.:     4.022 HEAT: 13.02998
 CYCLE:   109 TIME:   0.012 TIME LEFT:  2.00D  GRAD.:     4.091 HEAT: 12.99604
 CYCLE:   110 TIME:   0.011 TIME LEFT:  2.00D  GRAD.:     5.491 HEAT: 12.95922
 CYCLE:   111 TIME:   0.011 TIME LEFT:  2.00D  GRAD.:     5.778 HEAT: 12.93212
 CYCLE:   112 TIME:   0.011 TIME LEFT:  2.00D  GRAD.:     3.981 HEAT: 12.89368
 CYCLE:   113 TIME:   0.011 TIME LEFT:  2.00D  GRAD.:     3.440 HEAT: 12.86419
 CYCLE:   114 TIME:   0.011 TIME LEFT:  2.00D  GRAD.:     2.522 HEAT: 12.84297
 CYCLE:   115 TIME:   0.011 TIME LEFT:  2.00D  GRAD.:     2.680 HEAT: 12.83228
 CYCLE:   116 TIME:   0.011 TIME LEFT:  2.00D  GRAD.:     2.476 HEAT: 12.82063
 CYCLE:   117 TIME:   0.011 TIME LEFT:  2.00D  GRAD.:     2.313 HEAT: 12.81050
 CYCLE:   118 TIME:   0.011 TIME LEFT:  2.00D  GRAD.:     2.020 HEAT: 12.80117
 CYCLE:   119 TIME:   0.011 TIME LEFT:  2.00D  GRAD.:     2.032 HEAT: 12.79349
 CYCLE:   120 TIME:   0.011 TIME LEFT:  2.00D  GRAD.:     2.851 HEAT: 12.78598
 CYCLE:   121 TIME:   0.012 TIME LEFT:  2.00D  GRAD.:     2.575 HEAT: 12.77865
 CYCLE:   122 TIME:   0.011 TIME LEFT:  2.00D  GRAD.:     2.309 HEAT: 12.77041
 CYCLE:   123 TIME:   0.011 TIME LEFT:  2.00D  GRAD.:     1.805 HEAT: 12.76133
 CYCLE:   124 TIME:   0.012 TIME LEFT:  2.00D  GRAD.:     2.078 HEAT: 12.75563
 CYCLE:   125 TIME:   0.011 TIME LEFT:  2.00D  GRAD.:     2.083 HEAT: 12.74999
 CYCLE:   126 TIME:   0.012 TIME LEFT:  2.00D  GRAD.:     1.661 HEAT: 12.74520
 CYCLE:   127 TIME:   0.012 TIME LEFT:  2.00D  GRAD.:     1.421 HEAT: 12.74126
 CYCLE:   128 TIME:   0.011 TIME LEFT:  2.00D  GRAD.:     1.154 HEAT: 12.73863
 CYCLE:   129 TIME:   0.012 TIME LEFT:  2.00D  GRAD.:     1.006 HEAT: 12.73650
 CYCLE:   130 TIME:   0.012 TIME LEFT:  2.00D  GRAD.:     0.935 HEAT: 12.73472
 CYCLE:   131 TIME:   0.012 TIME LEFT:  2.00D  GRAD.:     0.839 HEAT: 12.73300
 CYCLE:   132 TIME:   0.012 TIME LEFT:  2.00D  GRAD.:     0.813 HEAT: 12.73156
 CYCLE:   133 TIME:   0.012 TIME LEFT:  2.00D  GRAD.:     0.691 HEAT: 12.73043
 CYCLE:   134 TIME:   0.011 TIME LEFT:  2.00D  GRAD.:     0.606 HEAT: 12.72969
 CYCLE:   135 TIME:   0.012 TIME LEFT:  2.00D  GRAD.:     0.545 HEAT: 12.72899
 CYCLE:   136 TIME:   0.011 TIME LEFT:  2.00D  GRAD.:     0.623 HEAT: 12.72825
 CYCLE:   137 TIME:   0.012 TIME LEFT:  2.00D  GRAD.:     0.704 HEAT: 12.72722
 CYCLE:   138 TIME:   0.012 TIME LEFT:  2.00D  GRAD.:     0.923 HEAT: 12.72592
 CYCLE:   139 TIME:   0.012 TIME LEFT:  2.00D  GRAD.:     0.897 HEAT: 12.72432
 CYCLE:   140 TIME:   0.012 TIME LEFT:  2.00D  GRAD.:     0.978 HEAT: 12.72265
 CYCLE:   141 TIME:   0.012 TIME LEFT:  2.00D  GRAD.:     0.915 HEAT: 12.72100
 CYCLE:   142 TIME:   0.012 TIME LEFT:  2.00D  GRAD.:     1.019 HEAT: 12.71943
 CYCLE:   143 TIME:   0.012 TIME LEFT:  2.00D  GRAD.:     0.973 HEAT: 12.71758
 CYCLE:   144 TIME:   0.012 TIME LEFT:  2.00D  GRAD.:     0.962 HEAT: 12.71582
 CYCLE:   145 TIME:   0.012 TIME LEFT:  2.00D  GRAD.:     0.930 HEAT: 12.71393
 CYCLE:   146 TIME:   0.011 TIME LEFT:  2.00D  GRAD.:     1.048 HEAT: 12.71233
 CYCLE:   147 TIME:   0.012 TIME LEFT:  2.00D  GRAD.:     1.078 HEAT: 12.71031
 CYCLE:   148 TIME:   0.012 TIME LEFT:  2.00D  GRAD.:     1.109 HEAT: 12.70772
 CYCLE:   149 TIME:   0.012 TIME LEFT:  2.00D  GRAD.:     1.103 HEAT: 12.70486
 CYCLE:   150 TIME:   0.012 TIME LEFT:  2.00D  GRAD.:     1.136 HEAT: 12.70230
 CYCLE:   151 TIME:   0.012 TIME LEFT:  2.00D  GRAD.:     1.089 HEAT: 12.70033
 CYCLE:   152 TIME:   0.012 TIME LEFT:  2.00D  GRAD.:     1.027 HEAT: 12.69901
 CYCLE:   153 TIME:   0.011 TIME LEFT:  2.00D  GRAD.:     0.715 HEAT: 12.69805
 CYCLE:   154 TIME:   0.012 TIME LEFT:  2.00D  GRAD.:     0.589 HEAT: 12.69737
 CYCLE:   155 TIME:   0.011 TIME LEFT:  2.00D  GRAD.:     0.575 HEAT: 12.69681
 CYCLE:   156 TIME:   0.012 TIME LEFT:  2.00D  GRAD.:     0.529 HEAT: 12.69626
 CYCLE:   157 TIME:   0.011 TIME LEFT:  2.00D  GRAD.:     0.506 HEAT: 12.69570
 CYCLE:   158 TIME:   0.012 TIME LEFT:  2.00D  GRAD.:     0.503 HEAT: 12.69526
 CYCLE:   159 TIME:   0.015 TIME LEFT:  2.00D  GRAD.:     0.493 HEAT: 12.69484
 CYCLE:   160 TIME:   0.011 TIME LEFT:  2.00D  GRAD.:     0.457 HEAT: 12.69444
 CYCLE:   161 TIME:   0.011 TIME LEFT:  2.00D  GRAD.:     0.388 HEAT: 12.69403
 CYCLE:   162 TIME:   0.011 TIME LEFT:  2.00D  GRAD.:     0.343 HEAT: 12.69372
 CYCLE:   163 TIME:   0.011 TIME LEFT:  2.00D  GRAD.:     0.385 HEAT: 12.69349
 CYCLE:   164 TIME:   0.011 TIME LEFT:  2.00D  GRAD.:     0.436 HEAT: 12.69320
 CYCLE:   165 TIME:   0.011 TIME LEFT:  2.00D  GRAD.:     0.448 HEAT: 12.69293
 CYCLE:   166 TIME:   0.012 TIME LEFT:  2.00D  GRAD.:     0.486 HEAT: 12.69254
 CYCLE:   167 TIME:   0.011 TIME LEFT:  2.00D  GRAD.:     0.438 HEAT: 12.69226
 CYCLE:   168 TIME:   0.011 TIME LEFT:  2.00D  GRAD.:     0.800 HEAT: 12.69130
 CYCLE:   169 TIME:   0.012 TIME LEFT:  2.00D  GRAD.:     0.824 HEAT: 12.69076
 CYCLE:   170 TIME:   0.012 TIME LEFT:  2.00D  GRAD.:     1.622 HEAT: 12.68881
 CYCLE:   171 TIME:   0.012 TIME LEFT:  2.00D  GRAD.:     1.222 HEAT: 12.68729
 CYCLE:   172 TIME:   0.011 TIME LEFT:  2.00D  GRAD.:     1.095 HEAT: 12.68588
 CYCLE:   173 TIME:   0.012 TIME LEFT:  2.00D  GRAD.:     1.510 HEAT: 12.67974
 CYCLE:   174 TIME:   0.012 TIME LEFT:  2.00D  GRAD.:     1.189 HEAT: 12.67756
 CYCLE:   175 TIME:   0.012 TIME LEFT:  2.00D  GRAD.:     1.145 HEAT: 12.67424
 CYCLE:   176 TIME:   0.011 TIME LEFT:  2.00D  GRAD.:     0.769 HEAT: 12.67356
 CYCLE:   177 TIME:   0.012 TIME LEFT:  2.00D  GRAD.:     0.791 HEAT: 12.67280
 CYCLE:   178 TIME:   0.012 TIME LEFT:  2.00D  GRAD.:     0.549 HEAT: 12.67250
 CYCLE:   179 TIME:   0.012 TIME LEFT:  2.00D  GRAD.:     0.474 HEAT: 12.67218
 CYCLE:   180 TIME:   0.011 TIME LEFT:  2.00D  GRAD.:     0.414 HEAT: 12.67197
 CYCLE:   181 TIME:   0.011 TIME LEFT:  2.00D  GRAD.:     0.393 HEAT: 12.67176
 CYCLE:   182 TIME:   0.011 TIME LEFT:  2.00D  GRAD.:     0.297 HEAT: 12.67158
 CYCLE:   183 TIME:   0.011 TIME LEFT:  2.00D  GRAD.:     0.265 HEAT: 12.67141
 CYCLE:   184 TIME:   0.011 TIME LEFT:  2.00D  GRAD.:     0.264 HEAT: 12.67130
 CYCLE:   185 TIME:   0.012 TIME LEFT:  2.00D  GRAD.:     0.393 HEAT: 12.67113
 CYCLE:   186 TIME:   0.011 TIME LEFT:  2.00D  GRAD.:     0.324 HEAT: 12.67101
 CYCLE:   187 TIME:   0.011 TIME LEFT:  2.00D  GRAD.:     0.373 HEAT: 12.67082
 CYCLE:   188 TIME:   0.011 TIME LEFT:  2.00D  GRAD.:     0.322 HEAT: 12.67069
 CYCLE:   189 TIME:   0.011 TIME LEFT:  2.00D  GRAD.:     0.302 HEAT: 12.67032
 CYCLE:   190 TIME:   0.011 TIME LEFT:  2.00D  GRAD.:     0.359 HEAT: 12.67007
 CYCLE:   191 TIME:   0.011 TIME LEFT:  2.00D  GRAD.:     0.453 HEAT: 12.66970
 CYCLE:   192 TIME:   0.012 TIME LEFT:  2.00D  GRAD.:     0.747 HEAT: 12.66876
 CYCLE:   193 TIME:   0.012 TIME LEFT:  2.00D  GRAD.:     1.030 HEAT: 12.66724
 CYCLE:   194 TIME:   0.012 TIME LEFT:  2.00D  GRAD.:     1.735 HEAT: 12.66406
 CYCLE:   195 TIME:   0.012 TIME LEFT:  2.00D  GRAD.:     2.814 HEAT: 12.66416
 CYCLE:   196 TIME:   0.011 TIME LEFT:  2.00D  GRAD.:     1.230 HEAT: 12.65859
 CYCLE:   197 TIME:   0.012 TIME LEFT:  2.00D  GRAD.:     0.757 HEAT: 12.65623
 CYCLE:   198 TIME:   0.012 TIME LEFT:  2.00D  GRAD.:     0.903 HEAT: 12.65519
 CYCLE:   199 TIME:   0.012 TIME LEFT:  2.00D  GRAD.:     0.697 HEAT: 12.65435
 CYCLE:   200 TIME:   0.011 TIME LEFT:  2.00D  GRAD.:     0.562 HEAT: 12.65397
 CYCLE:   201 TIME:   0.012 TIME LEFT:  2.00D  GRAD.:     0.313 HEAT: 12.65360
 CYCLE:   202 TIME:   0.012 TIME LEFT:  2.00D  GRAD.:     0.221 HEAT: 12.65341
 CYCLE:   203 TIME:   0.011 TIME LEFT:  2.00D  GRAD.:     0.237 HEAT: 12.65334
 CYCLE:   204 TIME:   0.011 TIME LEFT:  2.00D  GRAD.:     0.211 HEAT: 12.65326
 CYCLE:   205 TIME:   0.011 TIME LEFT:  2.00D  GRAD.:     0.178 HEAT: 12.65319
 CYCLE:   206 TIME:   0.011 TIME LEFT:  2.00D  GRAD.:     0.138 HEAT: 12.65315
 CYCLE:   207 TIME:   0.011 TIME LEFT:  2.00D  GRAD.:     0.119 HEAT: 12.65312
 CYCLE:   208 TIME:   0.011 TIME LEFT:  2.00D  GRAD.:     0.092 HEAT: 12.65311
 CYCLE:   209 TIME:   0.011 TIME LEFT:  2.00D  GRAD.:     0.086 HEAT: 12.65309
 CYCLE:   210 TIME:   0.014 TIME LEFT:  2.00D  GRAD.:     0.094 HEAT: 12.65306
 CYCLE:   211 TIME:   0.012 TIME LEFT:  2.00D  GRAD.:     0.073 HEAT: 12.65303
 CYCLE:   212 TIME:   0.011 TIME LEFT:  2.00D  GRAD.:     0.059 HEAT: 12.65299
 CYCLE:   213 TIME:   0.011 TIME LEFT:  2.00D  GRAD.:     0.038 HEAT: 12.65299

     RMS GRADIENT =  0.03753  IS LESS THAN CUTOFF =  0.05000



 -------------------------------------------------------------------------------
pm3  precise nosym
 InChI=1S/C11H18/c1-3-5-7-11-9-8-10(11)6-4-2/h4-5,7,10-11H,2-3,6,8-9H2,1H3



     GEOMETRY OPTIMISED USING EIGENVECTOR FOLLOWING (EF).     
     SCF FIELD WAS ACHIEVED                                   


                              PM3 CALCULATION
                                                       MOPAC2012 (Version: 13.159M)
                                                       Mon Jun  2 11:06:50 2014
                                                       No. of days left =   6




          FINAL HEAT OF FORMATION =         12.65299 KCAL/MOL =      52.94010 KJ/MOL


          TOTAL ENERGY            =      -1580.48411 EV
          ELECTRONIC ENERGY       =      -9360.30861 EV  POINT GROUP:     C1  
          CORE-CORE REPULSION     =       7779.82451 EV
          COSMO AREA              =        224.43 SQUARE ANGSTROMS
          COSMO VOLUME            =        230.08 CUBIC ANGSTROMS

          GRADIENT NORM           =          0.03753
          IONIZATION POTENTIAL    =          9.731597 EV
          HOMO LUMO ENERGIES (EV) =         -9.732  1.024
          NO. OF FILLED LEVELS    =         31
          MOLECULAR WEIGHT        =        150.263

          MOLECULAR DIMENSIONS (Angstroms)

            Atom       Atom       Distance
            H    22    H    14     8.74679
            H    29    H    17     7.27601
            H    13    H    12     2.91806


          SCF CALCULATIONS        =        228
          COMPUTATION TIME        =          2.638 SECONDS




   ATOM   CHEMICAL          X               Y               Z
  NUMBER   SYMBOL      (ANGSTROMS)     (ANGSTROMS)     (ANGSTROMS)
 
     1       C         -1.48716134  *  -0.52948998  *   0.69073692  *
     2       C         -0.16643441  *  -1.15303965  *   0.14035604  *
     3       C         -1.81519569  *  -1.86958267  *   1.39146284  *
     4       C         -0.48965245  *  -2.46937877  *   0.88863965  *
     5       C         -2.49350495  *  -0.10333832  *  -0.35877237  *
     6       C          2.92560425  *   1.14972392  *   0.25205006  *
     7       C          4.03202204  *   1.06076426  *  -0.77707444  *
     8       C          1.06138723  *  -0.45161608  *   0.58942042  *
     9       C          1.71303262  *   0.41118104  *  -0.19231896  *
    10       C         -2.06761327  *   1.14764840  *  -1.04389077  *
    11       C         -2.88925077  *   2.16369530  *  -1.27815776  *
    12       H         -1.30556327  *   0.30343646  *   1.40208406  *
    13       H         -0.17077219  *  -1.27027904  *  -0.96526309  *
    14       H         -2.72050730  *  -2.37261312  *   1.01755208  *
    15       H         -1.90900374  *  -1.80328128  *   2.48538977  *
    16       H         -0.59661357  *  -3.34891498  *   0.23670397  *
    17       H          0.22453751  *  -2.73892324  *   1.68213085  *
    18       H          3.28667554  *   0.77481207  *   1.23075490  *
    19       H          2.64526382  *   2.20895073  *   0.42193310  *
    20       H         -3.48751227  *   0.01637543  *   0.11760489  *
    21       H         -2.61950181  *  -0.89814477  *  -1.12277289  *
    22       H          4.91507821  *   1.63000923  *  -0.46001149  *
    23       H          3.71543278  *   1.45961771  *  -1.75000336  *
    24       H          4.35029278  *   0.02277112  *  -0.93864342  *
    25       H          1.36822481  *   0.62223005  *  -1.21368428  *
    26       H          1.40358999  *  -0.66533202  *   1.61035118  *
    27       H         -1.01459621  *   1.18157012  *  -1.35527049  *
    28       H         -3.93349126  *   2.16755843  *  -0.97737215  *
    29       H         -2.57189625  *   3.06647609  *  -1.79075842  *

           Empirical Formula: C11 H18  =    29 atoms



      MOLECULAR POINT GROUP   :   C1  


                  EIGENVALUES  
 -41.48957 -36.67514 -34.43691 -30.26108 -27.69364 -24.98296 -22.88538 -21.68185
 -19.98155 -19.56056 -18.52424 -17.02497 -16.70238 -15.86927 -15.49223 -15.38035
 -14.95275 -14.15421 -13.81742 -13.61654 -13.28968 -13.22334 -12.81825 -12.28339
 -12.09036 -11.96955 -11.69505 -11.45249 -11.34723 -10.12491  -9.73160   1.02423
   1.18428   3.17167   3.25593   3.47822   3.53092   3.68067   3.73897   3.77891
   3.81687   3.93235   3.96800   4.04051   4.06297   4.14119   4.18130   4.23226
   4.34493   4.42178   4.55553   4.65729   4.67880   4.74638   4.78350   4.85409
   5.22843   5.43073   5.64656   5.83121   5.89757   5.99469


              NET ATOMIC CHARGES AND DIPOLE CONTRIBUTIONS

  ATOM NO.   TYPE          CHARGE      No. of ELECS.   s-Pop       p-Pop       
    1          C          -0.086526        4.0865     1.19339     2.89313
    2          C          -0.062117        4.0621     1.18174     2.88038
    3          C          -0.110965        4.1110     1.17412     2.93685
    4          C          -0.105187        4.1052     1.17346     2.93172
    5          C          -0.060666        4.0607     1.14883     2.91184
    6          C          -0.061595        4.0616     1.14566     2.91594
    7          C          -0.105950        4.1060     1.13767     2.96828
    8          C          -0.140036        4.1400     1.19513     2.94491
    9          C          -0.148765        4.1488     1.19789     2.95087
   10          C          -0.139555        4.1396     1.19611     2.94345
   11          C          -0.167868        4.1679     1.18228     2.98559
   12          H           0.079667        0.9203     0.92033
   13          H           0.078524        0.9215     0.92148
   14          H           0.058206        0.9418     0.94179
   15          H           0.055906        0.9441     0.94409
   16          H           0.055485        0.9445     0.94451
   17          H           0.059498        0.9405     0.94050
   18          H           0.051612        0.9484     0.94839
   19          H           0.053350        0.9467     0.94665
   20          H           0.055949        0.9441     0.94405
   21          H           0.058596        0.9414     0.94140
   22          H           0.036899        0.9631     0.96310
   23          H           0.037693        0.9623     0.96231
   24          H           0.040196        0.9598     0.95980
   25          H           0.101443        0.8986     0.89856
   26          H           0.104575        0.8954     0.89542
   27          H           0.101462        0.8985     0.89854
   28          H           0.081125        0.9189     0.91887
   29          H           0.079046        0.9210     0.92095
 DIPOLE           X         Y         Z       TOTAL
 POINT-CHG.     0.107    -0.110     0.091     0.179
 HYBRID        -0.024     0.028    -0.029     0.047
 SUM            0.083    -0.082     0.062     0.132


          ATOMIC ORBITAL ELECTRON POPULATIONS

    Atom      s        px        py        pz   
    1  C   1.19339   0.94776   0.96929   0.97609
    2  C   1.18174   0.93132   0.95474   0.99432
    3  C   1.17412   0.97314   0.96525   0.99845
    4  C   1.17346   0.97356   0.96001   0.99816
    5  C   1.14883   0.97780   0.96316   0.97088
    6  C   1.14566   0.94049   0.99486   0.98059
    7  C   1.13767   0.97455   1.01094   0.98279
    8  C   1.19513   0.96972   0.98398   0.99121
    9  C   1.19789   0.97366   0.98284   0.99438
   10  C   1.19611   0.99422   0.95974   0.98948
   11  C   1.18228   0.99167   0.97797   1.01595
   12  H   0.92033
   13  H   0.92148
   14  H   0.94179
   15  H   0.94409
   16  H   0.94451
   17  H   0.94050
   18  H   0.94839
   19  H   0.94665
   20  H   0.94405
   21  H   0.94140
   22  H   0.96310
   23  H   0.96231
   24  H   0.95980
   25  H   0.89856
   26  H   0.89542
   27  H   0.89854
   28  H   0.91887
   29  H   0.92095
 *******************************************************************************
 ** Site#: 14399           For non-commercial use only        Version 13.159M **
 *******************************************************************************
 ** Cite this work as: MOPAC2012, James J. P. Stewart, Stewart Computational  **
 ** Chemistry, Version 13.159M web: HTTP://OpenMOPAC.net  Days remaining:   6 **
 *******************************************************************************
 **                                                                           **
 **                                MOPAC2012                                  **
 **                                                                           **
 *******************************************************************************

                            PM3 CALCULATION RESULTS


 *******************************************************************************
 *  CALCULATION DONE:                                Mon Jun  2 11:06:50 2014  *
 *  PM3      - The PM3 Hamiltonian to be used
 *  OLDGEO   - PREVIOUS GEOMETRY TO BE USED
 *  PRECISE  - CRITERIA TO BE INCREASED BY 100 TIMES
 *  NOSYM    - POINT-GROUP SYMMETRY SET TO C1
 *  T=       - A TIME OF 172800.0 SECONDS REQUESTED
 *  DUMP=N   - RESTART FILE WRITTEN EVERY  7200.000 SECONDS
 *  THERMO   - THERMODYNAMIC QUANTITIES TO BE CALCULATED
 *******************************************************************************
oldgeo thermo nosym precise  pm3

   ATOM   CHEMICAL          X               Y               Z
  NUMBER   SYMBOL      (ANGSTROMS)     (ANGSTROMS)     (ANGSTROMS)
 
     1       C         -1.48716134  *  -0.52948998  *   0.69073692  *
     2       C         -0.16643441  *  -1.15303965  *   0.14035604  *
     3       C         -1.81519569  *  -1.86958267  *   1.39146284  *
     4       C         -0.48965245  *  -2.46937877  *   0.88863965  *
     5       C         -2.49350495  *  -0.10333832  *  -0.35877237  *
     6       C          2.92560425  *   1.14972392  *   0.25205006  *
     7       C          4.03202204  *   1.06076426  *  -0.77707444  *
     8       C          1.06138723  *  -0.45161608  *   0.58942042  *
     9       C          1.71303262  *   0.41118104  *  -0.19231896  *
    10       C         -2.06761327  *   1.14764840  *  -1.04389077  *
    11       C         -2.88925077  *   2.16369530  *  -1.27815776  *
    12       H         -1.30556327  *   0.30343646  *   1.40208406  *
    13       H         -0.17077219  *  -1.27027904  *  -0.96526309  *
    14       H         -2.72050730  *  -2.37261312  *   1.01755208  *
    15       H         -1.90900374  *  -1.80328128  *   2.48538977  *
    16       H         -0.59661357  *  -3.34891498  *   0.23670397  *
    17       H          0.22453751  *  -2.73892324  *   1.68213085  *
    18       H          3.28667554  *   0.77481207  *   1.23075490  *
    19       H          2.64526382  *   2.20895073  *   0.42193310  *
    20       H         -3.48751227  *   0.01637543  *   0.11760489  *
    21       H         -2.61950181  *  -0.89814477  *  -1.12277289  *
    22       H          4.91507821  *   1.63000923  *  -0.46001149  *
    23       H          3.71543278  *   1.45961771  *  -1.75000336  *
    24       H          4.35029278  *   0.02277112  *  -0.93864342  *
    25       H          1.36822481  *   0.62223005  *  -1.21368428  *
    26       H          1.40358999  *  -0.66533202  *   1.61035118  *
    27       H         -1.01459621  *   1.18157012  *  -1.35527049  *
    28       H         -3.93349126  *   2.16755843  *  -0.97737215  *
    29       H         -2.57189625  *   3.06647609  *  -1.79075842  *
 


          CARTESIAN COORDINATES 

    NO.       ATOM         X         Y         Z

     1         C       -1.4872   -0.5295    0.6907
     2         C       -0.1664   -1.1530    0.1404
     3         C       -1.8152   -1.8696    1.3915
     4         C       -0.4897   -2.4694    0.8886
     5         C       -2.4935   -0.1033   -0.3588
     6         C        2.9256    1.1497    0.2521
     7         C        4.0320    1.0608   -0.7771
     8         C        1.0614   -0.4516    0.5894
     9         C        1.7130    0.4112   -0.1923
    10         C       -2.0676    1.1476   -1.0439
    11         C       -2.8893    2.1637   -1.2782
    12         H       -1.3056    0.3034    1.4021
    13         H       -0.1708   -1.2703   -0.9653
    14         H       -2.7205   -2.3726    1.0176
    15         H       -1.9090   -1.8033    2.4854
    16         H       -0.5966   -3.3489    0.2367
    17         H        0.2245   -2.7389    1.6821
    18         H        3.2867    0.7748    1.2308
    19         H        2.6453    2.2090    0.4219
    20         H       -3.4875    0.0164    0.1176
    21         H       -2.6195   -0.8981   -1.1228
    22         H        4.9151    1.6300   -0.4600
    23         H        3.7154    1.4596   -1.7500
    24         H        4.3503    0.0228   -0.9386
    25         H        1.3682    0.6222   -1.2137
    26         H        1.4036   -0.6653    1.6104
    27         H       -1.0146    1.1816   -1.3553
    28         H       -3.9335    2.1676   -0.9774
    29         H       -2.5719    3.0665   -1.7908

  H: (PM3): J. J. P. STEWART, J. COMP. CHEM. 10, 209 (1989).
  C: (PM3): J. J. P. STEWART, J. COMP. CHEM. 10, 209 (1989).

           Empirical Formula: C11 H18  =    29 atoms



      MOLECULAR POINT GROUP   :   C1  


      RHF CALCULATION, NO. OF DOUBLY OCCUPIED LEVELS =   31



          HEAT OF FORMATION =      12.652988 KCALS/MOLE


          INTERNAL COORDINATE DERIVATIVES

   NUMBER  ATOM       BOND         ANGLE      DIHEDRAL

     1       C      0.003564     0.001573     0.000732
     2       C      0.001173     0.003832    -0.000818
     3       C      0.003295     0.001873     0.000210
     4       C     -0.004159     0.000763     0.000832
     5       C     -0.001902     0.001656     0.000696
     6       C      0.004112    -0.002607    -0.004697
     7       C     -0.007537    -0.002639    -0.003968
     8       C      0.016717    -0.002616     0.006354
     9       C      0.005099     0.004269     0.002786
    10       C     -0.010882    -0.001489    -0.004640
    11       C      0.004025     0.006625    -0.001439
    12       H     -0.004292     0.000002     0.000294
    13       H     -0.000585    -0.000437    -0.000195
    14       H      0.002276     0.001038    -0.001668
    15       H     -0.003010    -0.001053     0.001585
    16       H     -0.002201    -0.000215    -0.000575
    17       H     -0.003295    -0.002796     0.005927
    18       H     -0.005044    -0.005815     0.001442
    19       H      0.007242    -0.000569    -0.000442
    20       H     -0.000831    -0.001091     0.001337
    21       H      0.002020    -0.002838    -0.000114
    22       H     -0.003772    -0.000756     0.000283
    23       H      0.001843     0.004210    -0.001152
    24       H      0.003634     0.000886     0.004069
    25       H     -0.004679     0.003532    -0.005018
    26       H     -0.005732    -0.003539    -0.005926
    27       H      0.010936     0.000675     0.002573
    28       H     -0.007541    -0.000092     0.001255
    29       H     -0.000472    -0.002381     0.000276


          GRADIENT NORM =   0.03754


          TIME FOR SCF CALCULATION =    0.01

          TIME FOR DERIVATIVES     =    0.01

          MOLECULAR WEIGHT =  150.26



          ROTATIONAL CONSTANTS IN CM(-1)

          A =    0.04209744   B =    0.02050013   C =    0.01460588



           PRINCIPAL MOMENTS OF INERTIA IN UNITS OF 10**(-40)*GRAM-CM**2

          A =      664.9520   B =     1365.4928   C =     1916.5412


          ORIENTATION OF MOLECULE IN FORCE CALCULATION

    NO.       ATOM         X         Y         Z

     1          C      -1.1980    1.0165    0.2644
     2          C       0.3628    1.0165    0.2644
     3          C      -1.1873    2.5638    0.2644
     4          C       0.3513    2.5639    0.2159
     5          C      -1.8497    0.3900    1.4804
     6          C       2.0199   -1.5942   -2.0409
     7          C       3.3546   -2.2270   -1.7101
     8          C       0.9632    0.3479   -0.9162
     9          C       1.4456   -0.8948   -0.8601
    10          C      -1.7475   -1.0947    1.4475
    11          C      -2.7661   -1.8995    1.7252
    12          H      -1.6279    0.5817   -0.6623
    13          H       0.7959    0.6152    1.2066
    14          H      -1.6205    3.0251    1.1655
    15          H      -1.6789    3.0251   -0.6047
    16          H       0.8421    3.0497    1.0722
    17          H       0.7836    3.0023   -0.6970
    18          H       2.1301   -0.9036   -2.9009
    19          H       1.2996   -2.3702   -2.3701
    20          H      -2.9066    0.7200    1.5374
    21          H      -1.3694    0.7557    2.4114
    22          H       3.7626   -2.7664   -2.5744
    23          H       3.2705   -2.9453   -0.8838
    24          H       4.0956   -1.4738   -1.4127
    25          H       1.4297   -1.4669    0.0775
    26          H       0.9782    0.9227   -1.8513
    27          H      -0.7602   -1.4951    1.1795
    28          H      -3.7573   -1.5384    1.9860
    29          H      -2.6774   -2.9814    1.7115


    FIRST DERIVATIVES WILL BE USED IN THE CALCULATION OF SECOND DERIVATIVES

          ESTIMATED TIME TO COMPLETE CALCULATION =        5.65 SECONDS

    FOR POINT-GROUP C1   THERE ARE   1 UNIQUE SYMMETRY FUNCTIONS.

 STEP:   1 TIME =     0.05 SECS, INTEGRAL =      0.05 TIME LEFT: 172799.93
 STEP:   2 TIME =     0.05 SECS, INTEGRAL =      0.10 TIME LEFT: 172799.89
 STEP:   3 TIME =     0.05 SECS, INTEGRAL =      0.15 TIME LEFT: 172799.84
 STEP:   4 TIME =     0.05 SECS, INTEGRAL =      0.20 TIME LEFT: 172799.79
 STEP:   5 TIME =     0.05 SECS, INTEGRAL =      0.25 TIME LEFT: 172799.73
 STEP:   6 TIME =     0.05 SECS, INTEGRAL =      0.30 TIME LEFT: 172799.68
 STEP:   7 TIME =     0.05 SECS, INTEGRAL =      0.36 TIME LEFT: 172799.63
 STEP:   8 TIME =     0.05 SECS, INTEGRAL =      0.40 TIME LEFT: 172799.58
 STEP:   9 TIME =     0.05 SECS, INTEGRAL =      0.45 TIME LEFT: 172799.53
 STEP:  10 TIME =     0.05 SECS, INTEGRAL =      0.50 TIME LEFT: 172799.48
 STEP:  11 TIME =     0.05 SECS, INTEGRAL =      0.55 TIME LEFT: 172799.43
 STEP:  12 TIME =     0.05 SECS, INTEGRAL =      0.60 TIME LEFT: 172799.39
 STEP:  13 TIME =     0.05 SECS, INTEGRAL =      0.65 TIME LEFT: 172799.34
 STEP:  14 TIME =     0.05 SECS, INTEGRAL =      0.69 TIME LEFT: 172799.29
 STEP:  15 TIME =     0.05 SECS, INTEGRAL =      0.74 TIME LEFT: 172799.24
 STEP:  16 TIME =     0.05 SECS, INTEGRAL =      0.79 TIME LEFT: 172799.19
 STEP:  17 TIME =     0.05 SECS, INTEGRAL =      0.84 TIME LEFT: 172799.14
 STEP:  18 TIME =     0.06 SECS, INTEGRAL =      0.90 TIME LEFT: 172799.08
 STEP:  19 TIME =     0.05 SECS, INTEGRAL =      0.95 TIME LEFT: 172799.03
 STEP:  20 TIME =     0.05 SECS, INTEGRAL =      1.00 TIME LEFT: 172798.98
 STEP:  21 TIME =     0.05 SECS, INTEGRAL =      1.05 TIME LEFT: 172798.93
 STEP:  22 TIME =     0.05 SECS, INTEGRAL =      1.10 TIME LEFT: 172798.88
 STEP:  23 TIME =     0.05 SECS, INTEGRAL =      1.15 TIME LEFT: 172798.83
 STEP:  24 TIME =     0.05 SECS, INTEGRAL =      1.20 TIME LEFT: 172798.78
 STEP:  25 TIME =     0.05 SECS, INTEGRAL =      1.26 TIME LEFT: 172798.73
 STEP:  26 TIME =     0.05 SECS, INTEGRAL =      1.31 TIME LEFT: 172798.68
 STEP:  27 TIME =     0.05 SECS, INTEGRAL =      1.35 TIME LEFT: 172798.63
 STEP:  28 TIME =     0.05 SECS, INTEGRAL =      1.40 TIME LEFT: 172798.58
 STEP:  29 TIME =     0.05 SECS, INTEGRAL =      1.45 TIME LEFT: 172798.53
 STEP:  30 TIME =     0.05 SECS, INTEGRAL =      1.50 TIME LEFT: 172798.48
 STEP:  31 TIME =     0.05 SECS, INTEGRAL =      1.55 TIME LEFT: 172798.43
 STEP:  32 TIME =     0.05 SECS, INTEGRAL =      1.60 TIME LEFT: 172798.38
 STEP:  33 TIME =     0.05 SECS, INTEGRAL =      1.65 TIME LEFT: 172798.33
 STEP:  34 TIME =     0.05 SECS, INTEGRAL =      1.70 TIME LEFT: 172798.28
 STEP:  35 TIME =     0.05 SECS, INTEGRAL =      1.75 TIME LEFT: 172798.23
 STEP:  36 TIME =     0.05 SECS, INTEGRAL =      1.80 TIME LEFT: 172798.18
 STEP:  37 TIME =     0.05 SECS, INTEGRAL =      1.85 TIME LEFT: 172798.13
 STEP:  38 TIME =     0.05 SECS, INTEGRAL =      1.90 TIME LEFT: 172798.08
 STEP:  39 TIME =     0.05 SECS, INTEGRAL =      1.95 TIME LEFT: 172798.03
 STEP:  40 TIME =     0.05 SECS, INTEGRAL =      2.00 TIME LEFT: 172797.98
 STEP:  41 TIME =     0.05 SECS, INTEGRAL =      2.05 TIME LEFT: 172797.93
 STEP:  42 TIME =     0.05 SECS, INTEGRAL =      2.10 TIME LEFT: 172797.88
 STEP:  43 TIME =     0.06 SECS, INTEGRAL =      2.16 TIME LEFT: 172797.82
 STEP:  44 TIME =     0.06 SECS, INTEGRAL =      2.22 TIME LEFT: 172797.76
 STEP:  45 TIME =     0.05 SECS, INTEGRAL =      2.27 TIME LEFT: 172797.71
 STEP:  46 TIME =     0.05 SECS, INTEGRAL =      2.32 TIME LEFT: 172797.66
 STEP:  47 TIME =     0.05 SECS, INTEGRAL =      2.38 TIME LEFT: 172797.61
 STEP:  48 TIME =     0.06 SECS, INTEGRAL =      2.43 TIME LEFT: 172797.55
 STEP:  49 TIME =     0.05 SECS, INTEGRAL =      2.49 TIME LEFT: 172797.49
 STEP:  50 TIME =     0.05 SECS, INTEGRAL =      2.54 TIME LEFT: 172797.44
 STEP:  51 TIME =     0.05 SECS, INTEGRAL =      2.59 TIME LEFT: 172797.40
 STEP:  52 TIME =     0.05 SECS, INTEGRAL =      2.64 TIME LEFT: 172797.34
 STEP:  53 TIME =     0.06 SECS, INTEGRAL =      2.70 TIME LEFT: 172797.29
 STEP:  54 TIME =     0.06 SECS, INTEGRAL =      2.76 TIME LEFT: 172797.22
 STEP:  55 TIME =     0.05 SECS, INTEGRAL =      2.82 TIME LEFT: 172797.17
 STEP:  56 TIME =     0.06 SECS, INTEGRAL =      2.87 TIME LEFT: 172797.11
 STEP:  57 TIME =     0.05 SECS, INTEGRAL =      2.93 TIME LEFT: 172797.06
 STEP:  58 TIME =     0.05 SECS, INTEGRAL =      2.98 TIME LEFT: 172797.01
 STEP:  59 TIME =     0.05 SECS, INTEGRAL =      3.03 TIME LEFT: 172796.95
 STEP:  60 TIME =     0.06 SECS, INTEGRAL =      3.09 TIME LEFT: 172796.89
 STEP:  61 TIME =     0.05 SECS, INTEGRAL =      3.15 TIME LEFT: 172796.84
 STEP:  62 TIME =     0.05 SECS, INTEGRAL =      3.20 TIME LEFT: 172796.78
 STEP:  63 TIME =     0.06 SECS, INTEGRAL =      3.26 TIME LEFT: 172796.73
 STEP:  64 TIME =     0.06 SECS, INTEGRAL =      3.32 TIME LEFT: 172796.67
 STEP:  65 TIME =     0.06 SECS, INTEGRAL =      3.37 TIME LEFT: 172796.61
 STEP:  66 TIME =     0.06 SECS, INTEGRAL =      3.43 TIME LEFT: 172796.55
 STEP:  67 TIME =     0.06 SECS, INTEGRAL =      3.49 TIME LEFT: 172796.49
 STEP:  68 TIME =     0.05 SECS, INTEGRAL =      3.54 TIME LEFT: 172796.44
 STEP:  69 TIME =     0.05 SECS, INTEGRAL =      3.59 TIME LEFT: 172796.39
 STEP:  70 TIME =     0.05 SECS, INTEGRAL =      3.64 TIME LEFT: 172796.34
 STEP:  71 TIME =     0.05 SECS, INTEGRAL =      3.69 TIME LEFT: 172796.29
 STEP:  72 TIME =     0.05 SECS, INTEGRAL =      3.74 TIME LEFT: 172796.24
 STEP:  73 TIME =     0.05 SECS, INTEGRAL =      3.80 TIME LEFT: 172796.19
 STEP:  74 TIME =     0.05 SECS, INTEGRAL =      3.85 TIME LEFT: 172796.14
 STEP:  75 TIME =     0.05 SECS, INTEGRAL =      3.90 TIME LEFT: 172796.09
 STEP:  76 TIME =     0.06 SECS, INTEGRAL =      3.96 TIME LEFT: 172796.03
 STEP:  77 TIME =     0.06 SECS, INTEGRAL =      4.01 TIME LEFT: 172795.97
 STEP:  78 TIME =     0.05 SECS, INTEGRAL =      4.06 TIME LEFT: 172795.92
 STEP:  79 TIME =     0.05 SECS, INTEGRAL =      4.11 TIME LEFT: 172795.87
 STEP:  80 TIME =     0.05 SECS, INTEGRAL =      4.16 TIME LEFT: 172795.82
 STEP:  81 TIME =     0.06 SECS, INTEGRAL =      4.22 TIME LEFT: 172795.77
 STEP:  82 TIME =     0.05 SECS, INTEGRAL =      4.26 TIME LEFT: 172795.72
 STEP:  83 TIME =     0.05 SECS, INTEGRAL =      4.32 TIME LEFT: 172795.67
 STEP:  84 TIME =     0.05 SECS, INTEGRAL =      4.37 TIME LEFT: 172795.61
 STEP:  85 TIME =     0.05 SECS, INTEGRAL =      4.42 TIME LEFT: 172795.56
 STEP:  86 TIME =     0.05 SECS, INTEGRAL =      4.47 TIME LEFT: 172795.52
 STEP:  87 TIME =     0.05 SECS, INTEGRAL =      4.52 TIME LEFT: 172795.46

(To convert to Hartree/Bohr^2, multiply by (10^(-21) x N x a0^2)/(4.184 x 627.51) = 0.0642)


           FORCE MATRIX IN MILLIDYNES/ANGSTROM


                  C  1       C  2       C  3       C  4       C  5       C  6
 ------------------------------------------------------------------------------
     C    1  14.362131
     C    2   3.034273  14.793210
     C    3   3.485556   1.808943  14.435828
     C    4   1.814397   3.455140   3.753068  14.425150
     C    5   4.277776   0.530022   0.541588   0.041754  14.786931
     C    6   0.019376   0.139836   0.001930   0.012812   0.002506  14.699458
     C    7   0.002292   0.018246   0.000462   0.002670   0.000606   4.410088
     C    8   0.581684   5.054376   0.042023   0.572011   0.032849   0.820224
     C    9   0.026978   0.852773   0.004785   0.045195   0.002538   4.973441
     C   10   0.696691   0.035792   0.051233   0.005087   4.951472   0.001194
     C   11   0.045935   0.001901   0.008503   0.001020   0.834196   0.001565
     H   12   4.440371   0.437767   0.427577   0.025968   0.427926   0.001118
     H   13   0.438329   4.380789   0.025863   0.425575   0.030595   0.004695
     H   14   0.452281   0.029116   4.668354   0.445447   0.030063   0.000238
     H   15   0.442456   0.030357   4.709119   0.444356   0.032575   0.000331
     H   16   0.030178   0.443610   0.445013   4.706802   0.003714   0.001625
     H   17   0.029346   0.452731   0.445849   4.669598   0.001814   0.000843
     H   18   0.000782   0.002863   0.000148   0.000453   0.000375   4.441974
     H   19   0.003027   0.018728   0.000400   0.001180   0.000696   4.420672
     H   20   0.428944   0.045554   0.018712   0.003439   4.436032   0.000495
     H   21   0.456805   0.023334   0.018973   0.001680   4.394500   0.000341
     H   22   0.000484   0.002979   0.000280   0.000644   0.000222   0.449040
     H   23   0.000225   0.000675   0.000244   0.000195   0.000238   0.464176
     H   24   0.000213   0.000748   0.000108   0.000263   0.000320   0.460914
     H   25   0.010630   0.085068   0.000943   0.004650   0.001186   0.430658
     H   26   0.010753   0.437201   0.001311   0.033166   0.001512   0.083101
     H   27   0.029859   0.007933   0.002382   0.001075   0.433440   0.002035
     H   28   0.009387   0.000593   0.001323   0.000397   0.097620   0.000289
     H   29   0.016848   0.000629   0.002645   0.000712   0.138029   0.000475


                  C  7       C  8       C  9       C 10       C 11       H 12
 ------------------------------------------------------------------------------
     C    7  14.352441
     C    8   0.042132  18.279982
     C    9   0.716700  10.664264  18.181548
     C   10   0.000783   0.005304   0.009039  18.193248
     C   11   0.000715   0.001778   0.003570  11.088557  18.046685
     H   12   0.000279   0.032828   0.004126   0.026164   0.002458   4.938361
     H   13   0.000521   0.434004   0.050352   0.008443   0.001094   0.029104
     H   14   0.000262   0.003040   0.000480   0.002632   0.001043   0.031140
     H   15   0.000143   0.003636   0.000835   0.006201   0.001549   0.027182
     H   16   0.000616   0.032584   0.005197   0.000710   0.000346   0.001119
     H   17   0.000321   0.031494   0.003109   0.000596   0.000284   0.002551
     H   18   0.434587   0.050464   0.458773   0.000212   0.000339   0.000220
     H   19   0.445327   0.031019   0.408469   0.000310   0.000489   0.000379
     H   20   0.000326   0.006043   0.000757   0.459958   0.045294   0.024771
     H   21   0.000251   0.000849   0.000444   0.408920   0.031890   0.042895
     H   22   4.751546   0.007343   0.052268   0.000364   0.000201   0.000153
     H   23   4.725678   0.002052   0.027548   0.000281   0.000408   0.000134
     H   24   4.746531   0.002203   0.015818   0.000217   0.000285   0.000109
     H   25   0.026241   0.470295   4.736758   0.010172   0.001944   0.000758
     H   26   0.008328   4.759780   0.467672   0.001186   0.000548   0.004240
     H   27   0.000423   0.003757   0.009460   4.733919   0.451840   0.003730
     H   28   0.000288   0.000854   0.000541   0.491352   5.071402   0.000694
     H   29   0.000340   0.000574   0.000800   0.462198   5.108994   0.000608


                  H 13       H 14       H 15       H 16       H 17       H 18
 ------------------------------------------------------------------------------
     H   13   4.880527
     H   14   0.002556   5.298168
     H   15   0.001146   0.555467   5.329730
     H   16   0.028043   0.023343   0.032263   5.327210
     H   17   0.030503   0.032786   0.023495   0.556425   5.299461
     H   18   0.000595   0.000078   0.000082   0.000127   0.000163   5.053086
     H   19   0.000846   0.000080   0.000078   0.000170   0.000137   0.565890
     H   20   0.003077   0.010681   0.001774   0.000643   0.000628   0.000138
     H   21   0.026226   0.015234   0.001293   0.000800   0.000572   0.000103
     H   22   0.000141   0.000087   0.000088   0.000175   0.000130   0.030265
     H   23   0.000171   0.000065   0.000054   0.000066   0.000094   0.047579
     H   24   0.000104   0.000102   0.000077   0.000108   0.000074   0.024680
     H   25   0.029212   0.000204   0.000219   0.000876   0.000814   0.038298
     H   26   0.032513   0.000847   0.000711   0.001801   0.029674   0.029963
     H   27   0.010411   0.000647   0.000465   0.000494   0.000423   0.000563
     H   28   0.000326   0.000361   0.000266   0.000153   0.000124   0.000113
     H   29   0.000226   0.000150   0.000439   0.000126   0.000130   0.000078


                  H 19       H 20       H 21       H 22       H 23       H 24
 ------------------------------------------------------------------------------
     H   19   5.018691
     H   20   0.000230   5.039459
     H   21   0.000189   0.561108   4.993461
     H   22   0.028658   0.000065   0.000096   5.488886
     H   23   0.023926   0.000080   0.000110   0.571438   5.470918
     H   24   0.048606   0.000112   0.000094   0.573288   0.577861   5.484923
     H   25   0.017462   0.000651   0.000342   0.001940   0.020150   0.002702
     H   26   0.009653   0.000348   0.000528   0.001720   0.000596   0.000537
     H   27   0.000410   0.038854   0.015314   0.000165   0.000168   0.000202
     H   28   0.000130   0.028177   0.012260   0.000150   0.000140   0.000051
     H   29   0.000151   0.003798   0.018051   0.000147   0.000099   0.000088


                  H 25       H 26       H 27       H 28       H 29
 ------------------------------------------------------------------
     H   25   5.121993
     H   26   0.105161   5.137366
     H   27   0.012532   0.000898   5.107427
     H   28   0.000425   0.000261   0.118346   5.467730
     H   29   0.000472   0.000264   0.080327   0.423627   5.498026


          HEAT OF FORMATION =      12.652988 KCALS/MOLE

          ZERO POINT ENERGY     162.699 KCAL/MOL


           NORMAL COORDINATE ANALYSIS (Total motion = 1 Angstrom)


   Root No.       1         2         3         4         5         6         7         8

                 1 A       2 A       3 A       4 A       5 A       6 A       7 A       8 A   

                  38.2      64.8      76.3      95.9     103.8     117.7     185.2     210.6
  
           1   -0.0030   -0.0026   -0.0095    0.0191   -0.0054    0.0013    0.0015   -0.0034
           2   -0.0018   -0.0078    0.0168   -0.0149   -0.0064    0.0023    0.0040   -0.0012
           3   -0.0011   -0.0114   -0.0160   -0.0092    0.0017    0.0002    0.0056   -0.0021
           4   -0.0030   -0.0024   -0.0095    0.0196   -0.0052    0.0019    0.0016   -0.0044
           5   -0.0191   -0.0094   -0.0060    0.0113   -0.0098    0.0098    0.0037   -0.0051
           6    0.0011    0.0043    0.0057    0.0161    0.0116    0.0100    0.0091   -0.0003
           7    0.0141   -0.0011    0.0133   -0.0068   -0.0029   -0.0064    0.0012   -0.0010
           8   -0.0019   -0.0076    0.0167   -0.0149   -0.0066    0.0021    0.0038   -0.0020
           9   -0.0025   -0.0148    0.0031   -0.0310   -0.0240   -0.0024   -0.0025   -0.0228
          10    0.0143   -0.0001    0.0140   -0.0054   -0.0019   -0.0063    0.0005    0.0013
          11   -0.0188   -0.0088   -0.0055    0.0109   -0.0097    0.0094    0.0035   -0.0053
          12    0.0044    0.0190    0.0212    0.0121    0.0093   -0.0056   -0.0254    0.0264
          13   -0.0110   -0.0150   -0.0334    0.0085   -0.0121   -0.0060   -0.0051    0.0187
          14    0.0081    0.0019    0.0078   -0.0067    0.0166   -0.0043    0.0016    0.0025
          15   -0.0003   -0.0129   -0.0335   -0.0108    0.0104   -0.0078    0.0004    0.0115
          16    0.0027    0.0252   -0.0148   -0.0277    0.0020   -0.0067   -0.0026   -0.0082
          17   -0.0129    0.0278   -0.0098   -0.0062    0.0078   -0.0037    0.0065   -0.0073
          18   -0.0026   -0.0190    0.0064    0.0034   -0.0045    0.0203    0.0032    0.0056
          19    0.0378   -0.0003   -0.0068   -0.0140   -0.0005   -0.0004    0.0004   -0.0039
          20    0.0508   -0.0192    0.0038    0.0162   -0.0061   -0.0207    0.0049    0.0026
          21   -0.0223   -0.0063   -0.0001   -0.0105   -0.0221   -0.0414   -0.0148    0.0080
          22   -0.0082    0.0085   -0.0068    0.0373   -0.0041    0.0005    0.0031   -0.0193
          23   -0.0203    0.0066   -0.0055    0.0165   -0.0067   -0.0011   -0.0140    0.0010
          24   -0.0008    0.0006    0.0068    0.0221    0.0103    0.0159    0.0214   -0.0112
          25    0.0015    0.0143   -0.0109   -0.0206    0.0117    0.0472   -0.0020    0.0051
          26   -0.0165    0.0083   -0.0071   -0.0065   -0.0007    0.0176   -0.0161    0.0110
          27   -0.0009   -0.0125    0.0067    0.0070    0.0056    0.0343    0.0181    0.0000
          28   -0.0233   -0.0161    0.0156    0.0003    0.0152   -0.0116   -0.0027    0.0065
          29    0.0071    0.0016    0.0107   -0.0074    0.0178   -0.0046    0.0017    0.0018
          30    0.0068    0.0062   -0.0138   -0.0018    0.0455   -0.0198   -0.0072   -0.0150
          31   -0.0278   -0.0098    0.0478   -0.0038    0.0048   -0.0068    0.0033    0.0071
          32    0.0174    0.0072   -0.0209    0.0007    0.0037   -0.0024   -0.0031    0.0052
          33    0.0200    0.0463    0.0125    0.0068   -0.0345    0.0047    0.0004   -0.0042
          34   -0.0068    0.0050   -0.0026    0.0411   -0.0016    0.0109    0.0065   -0.0100
          35    0.0014   -0.0116    0.0345   -0.0357   -0.0227    0.0011    0.0026   -0.0131
          36   -0.0008   -0.0129   -0.0276   -0.0097    0.0076   -0.0041    0.0036    0.0066
          37   -0.0086   -0.0113   -0.0281    0.0148   -0.0097   -0.0005    0.0009   -0.0031
          38   -0.0266   -0.0210   -0.0209    0.0178   -0.0122    0.0210    0.0225   -0.0212
          39    0.0005    0.0033    0.0080    0.0206    0.0124    0.0156    0.0170   -0.0074
          40    0.0149   -0.0212    0.0096   -0.0408   -0.0230   -0.0062    0.0163   -0.0331
          41    0.0040   -0.0043    0.0121   -0.0086    0.0103    0.0008    0.0071    0.0139
          42   -0.0051   -0.0262    0.0037   -0.0507   -0.0424   -0.0016    0.0031   -0.0468
          43    0.0233    0.0191    0.0304    0.0105    0.0177   -0.0111   -0.0133    0.0314
          44    0.0025   -0.0099    0.0347   -0.0365   -0.0216   -0.0012    0.0004   -0.0168
          45   -0.0054   -0.0275    0.0030   -0.0524   -0.0437   -0.0014    0.0040   -0.0493
          46    0.0156   -0.0192    0.0112   -0.0388   -0.0207   -0.0066    0.0148   -0.0285
          47   -0.0262   -0.0182   -0.0215    0.0204   -0.0104    0.0212    0.0248   -0.0254
          48    0.0079    0.0354    0.0319    0.0259    0.0205   -0.0122   -0.0460    0.0551
          49    0.0235    0.0211    0.0312    0.0137    0.0198   -0.0111   -0.0154    0.0358
          50   -0.0215    0.0005   -0.0030    0.0174   -0.0105    0.0014   -0.0183    0.0120
          51    0.0075    0.0336    0.0307    0.0243    0.0192   -0.0116   -0.0437    0.0515
          52   -0.0467    0.0648   -0.0278   -0.0494    0.0013   -0.0385   -0.0047   -0.0182
          53   -0.0233    0.0504   -0.0146   -0.0109    0.0163   -0.0158    0.0272   -0.0210
          54   -0.0173    0.0042    0.0009   -0.0033    0.0021    0.0063    0.0190   -0.0065
          55    0.0283    0.0119   -0.0111   -0.0214   -0.0058   -0.0335    0.0001   -0.0091
          56   -0.0494    0.0573   -0.0180   -0.0185    0.0166    0.0022    0.0123   -0.0148
          57    0.0276   -0.0596    0.0176    0.0190   -0.0084    0.0639   -0.0160    0.0254
          58   -0.0085   -0.0155   -0.0454    0.0095   -0.0183   -0.0050   -0.0057    0.0238
          59    0.0170    0.0028   -0.0248   -0.0015    0.0007   -0.0009    0.0003    0.0124
          60   -0.0041   -0.0269   -0.0727   -0.0201   -0.0129   -0.0091   -0.0042    0.0446
          61   -0.0102   -0.0244   -0.0761    0.0034   -0.0307   -0.0082   -0.0103    0.0480
          62    0.0080    0.0111    0.0315   -0.0040    0.0487   -0.0139   -0.0017   -0.0122
          63   -0.0007   -0.0115   -0.0207   -0.0092    0.0072   -0.0029    0.0043    0.0021
          64    0.0416    0.0030   -0.0094   -0.0201   -0.0124   -0.0611    0.0708    0.0253
          65    0.0537   -0.0084    0.0010    0.0117   -0.0011   -0.0490    0.1509    0.0464
          66   -0.0223   -0.0115    0.0004   -0.0106   -0.0308   -0.0526   -0.0726   -0.0054
          67    0.0877   -0.0390    0.0061    0.0088    0.0008    0.0341   -0.0235   -0.0096
          68    0.0614   -0.0386    0.0091    0.0249   -0.0134    0.0002   -0.1232   -0.0335
          69   -0.0080   -0.0270    0.0058   -0.0007   -0.0283   -0.0197   -0.1288   -0.0240
          70    0.0118    0.0149   -0.0107   -0.0198    0.0083    0.0315   -0.0444   -0.0245
          71    0.0881   -0.0484    0.0123    0.0301   -0.0151   -0.0280   -0.0136    0.0038
          72   -0.0520    0.0296   -0.0117   -0.0310   -0.0212   -0.1026    0.1438    0.0566
          73    0.0120    0.0094   -0.0113   -0.0685    0.0284    0.1116   -0.0012    0.0384
          74   -0.0147   -0.0044   -0.0073   -0.0271   -0.0017    0.0458   -0.0265    0.0306
          75    0.0003   -0.0204    0.0066   -0.0065    0.0051    0.0522    0.0109    0.0128
          76   -0.0191    0.0124   -0.0042    0.0926   -0.0193   -0.0560    0.0105   -0.0575
          77   -0.0230    0.0181   -0.0047    0.0375   -0.0082   -0.0294   -0.0180   -0.0103
          78   -0.0027    0.0077    0.0074    0.0357    0.0089   -0.0025    0.0183   -0.0182
          79   -0.0285   -0.0230    0.0256   -0.0029    0.0448   -0.0198   -0.0046   -0.0038
          80   -0.0023   -0.0033    0.0391   -0.0151    0.0306   -0.0058    0.0056   -0.0014
          81    0.0015   -0.0119   -0.0203   -0.0016    0.1358   -0.0488   -0.0203   -0.0490
          82   -0.0227   -0.0027    0.0387   -0.0008   -0.0242    0.0017    0.0050    0.0174
          83    0.0274    0.0128   -0.0520    0.0085   -0.0102    0.0000   -0.0081    0.0089
          84    0.0257    0.0658    0.0207    0.0074   -0.1258    0.0338    0.0138    0.0298
          85   -0.0372   -0.0113    0.0863   -0.0105    0.0245   -0.0109    0.0072   -0.0027
          86    0.0166    0.0069   -0.0179    0.0000    0.0050   -0.0026   -0.0027    0.0048
          87    0.0259    0.0628    0.0279    0.0140   -0.0148   -0.0025   -0.0062   -0.0283


   Root No.       9        10        11        12        13        14        15        16

                 9 A      10 A      11 A      12 A      13 A      14 A      15 A      16 A   

                 231.2     285.2     336.5     399.3     409.4     468.0     478.3     554.5
  
           1   -0.0076   -0.0209   -0.0013    0.0141    0.0206   -0.0183    0.0043    0.0019
           2    0.0051    0.0061   -0.0006   -0.0184    0.0113    0.0174   -0.0134   -0.0047
           3    0.0111   -0.0154   -0.0274    0.0037    0.0160    0.0186    0.0149   -0.0205
           4   -0.0080   -0.0193   -0.0076    0.0142    0.0181   -0.0165    0.0008   -0.0020
           5   -0.0061   -0.0017   -0.0029   -0.0066    0.0284   -0.0032   -0.0080   -0.0051
           6    0.0132   -0.0156   -0.0013    0.0177    0.0067    0.0227    0.0000    0.0373
           7    0.0007   -0.0237    0.0015   -0.0154   -0.0098    0.0007    0.0078    0.0000
           8    0.0039    0.0048    0.0011   -0.0263    0.0114    0.0214   -0.0162   -0.0061
           9   -0.0193    0.0186    0.0047    0.0166   -0.0032   -0.0118   -0.0004    0.0012
          10    0.0012   -0.0240    0.0025   -0.0162   -0.0082    0.0007    0.0076    0.0002
          11   -0.0063    0.0011   -0.0041   -0.0044    0.0373   -0.0030   -0.0138   -0.0068
          12   -0.0108    0.0197    0.0022    0.0023    0.0181   -0.0082   -0.0068   -0.0031
          13    0.0046    0.0116    0.0267   -0.0118   -0.0021   -0.0080   -0.0147    0.0164
          14    0.0085    0.0101   -0.0194    0.0136   -0.0068   -0.0208   -0.0044    0.0083
          15    0.0195    0.0033   -0.0287   -0.0038   -0.0076    0.0032    0.0049   -0.0129
          16    0.0098    0.0125   -0.0052   -0.0049    0.0179    0.0016    0.0081    0.0068
          17    0.0190   -0.0169    0.0257   -0.0058   -0.0140   -0.0166    0.0086   -0.0062
          18   -0.0052    0.0067    0.0075   -0.0199   -0.0036   -0.0172    0.0350    0.0043
          19    0.0009    0.0197   -0.0126   -0.0066    0.0236    0.0050    0.0119    0.0126
          20    0.0018   -0.0169    0.0123    0.0051   -0.0157   -0.0061   -0.0086   -0.0098
          21   -0.0032   -0.0191    0.0021    0.0103   -0.0096    0.0028   -0.0113   -0.0028
          22   -0.0070    0.0237   -0.0207   -0.0025   -0.0337    0.0059   -0.0135   -0.0212
          23   -0.0158   -0.0027   -0.0179   -0.0094   -0.0201    0.0101    0.0223    0.0151
          24    0.0206    0.0041    0.0097    0.0083   -0.0015    0.0198   -0.0217    0.0165
          25   -0.0130   -0.0019   -0.0084    0.0119   -0.0240    0.0115   -0.0294   -0.0163
          26   -0.0185   -0.0154   -0.0112   -0.0040   -0.0209    0.0103    0.0177    0.0163
          27    0.0071    0.0019    0.0255   -0.0114   -0.0118   -0.0235    0.0049   -0.0187
          28   -0.0003    0.0124    0.0323    0.0145    0.0009    0.0259    0.0170   -0.0115
          29    0.0084    0.0124   -0.0197    0.0212   -0.0082   -0.0230   -0.0009    0.0094
          30   -0.0196   -0.0052   -0.0013   -0.0162   -0.0007   -0.0062   -0.0070   -0.0059
          31    0.0122    0.0077   -0.0045    0.0115   -0.0042   -0.0030    0.0038    0.0026
          32   -0.0018    0.0201    0.0279    0.0314   -0.0017    0.0149    0.0183   -0.0046
          33   -0.0060   -0.0029    0.0037   -0.0068    0.0023    0.0013   -0.0035    0.0019
          34   -0.0117   -0.0355   -0.0003    0.0341    0.0383   -0.0208    0.0056    0.0230
          35   -0.0065    0.0152    0.0149   -0.0305    0.0043    0.0248   -0.0219   -0.0065
          36    0.0182   -0.0114   -0.0346   -0.0006    0.0094    0.0159    0.0172   -0.0287
          37   -0.0096   -0.0342   -0.0191    0.0223    0.0425   -0.0291    0.0158   -0.0138
          38    0.0023   -0.0102   -0.0048    0.0046    0.0422   -0.0011   -0.0159   -0.0044
          39    0.0172   -0.0111    0.0037    0.0177    0.0005    0.0288   -0.0104    0.0419
          40   -0.0028   -0.0244    0.0067   -0.0113   -0.0377    0.0021    0.0125    0.0118
          41    0.0254   -0.0159   -0.0196   -0.0470    0.0195    0.0542   -0.0060   -0.0320
          42   -0.0323    0.0294    0.0180    0.0303   -0.0212   -0.0291   -0.0036    0.0211
          43    0.0094   -0.0235    0.0003   -0.0382   -0.0029    0.0145    0.0041   -0.0108
          44   -0.0123    0.0268    0.0239   -0.0219   -0.0153    0.0035   -0.0278    0.0194
          45   -0.0331    0.0302    0.0179    0.0322   -0.0218   -0.0299   -0.0043    0.0219
          46   -0.0009   -0.0253    0.0076   -0.0151   -0.0371    0.0084    0.0142    0.0127
          47    0.0042   -0.0207   -0.0085    0.0167    0.0330    0.0139   -0.0085    0.0342
          48   -0.0157    0.0331    0.0016   -0.0108    0.0378   -0.0227   -0.0138   -0.0350
          49    0.0092   -0.0235    0.0022   -0.0376    0.0024    0.0076    0.0035   -0.0134
          50   -0.0229    0.0234   -0.0059   -0.0096    0.0585   -0.0331   -0.0205   -0.0489
          51   -0.0151    0.0311    0.0012   -0.0103    0.0346   -0.0202   -0.0125   -0.0312
          52    0.0311    0.0035    0.0097   -0.0040    0.0298   -0.0109    0.0084    0.0014
          53    0.0480   -0.0168    0.0571   -0.0118   -0.0018   -0.0470    0.0100   -0.0267
          54    0.0205    0.0053    0.0338   -0.0240    0.0077   -0.0418    0.0354   -0.0119
          55    0.0133    0.0145   -0.0058   -0.0024    0.0345    0.0015    0.0069    0.0116
          56    0.0338   -0.0209    0.0430   -0.0096   -0.0180   -0.0324    0.0092   -0.0203
          57   -0.0474    0.0108   -0.0309   -0.0156   -0.0303    0.0192    0.0343    0.0256
          58    0.0086    0.0140    0.0238   -0.0182   -0.0070   -0.0201   -0.0258    0.0315
          59    0.0151    0.0118   -0.0294    0.0020   -0.0150   -0.0558   -0.0292    0.0430
          60    0.0458    0.0376   -0.0152   -0.0440   -0.0423   -0.0059   -0.0404    0.0418
          61    0.0262    0.0408    0.0337   -0.0470   -0.0355   -0.0352   -0.0615    0.0760
          62   -0.0095    0.0090   -0.0093    0.0316   -0.0065   -0.0179    0.0141   -0.0140
          63    0.0152   -0.0108   -0.0354    0.0067    0.0090    0.0155    0.0206   -0.0329
          64   -0.0333    0.0095   -0.0267    0.0172    0.0150    0.0253   -0.0307    0.0022
          65   -0.0529    0.0012   -0.0009   -0.0055   -0.0140   -0.0078    0.0098   -0.0034
          66    0.0146   -0.0356    0.0038    0.0287   -0.0154    0.0136   -0.0442   -0.0124
          67    0.0019    0.0340   -0.0159   -0.0194    0.0314   -0.0016    0.0348    0.0193
          68    0.0458   -0.0330    0.0210    0.0176   -0.0184   -0.0019   -0.0308   -0.0179
          69    0.0352   -0.0320    0.0094    0.0203   -0.0115    0.0060   -0.0292   -0.0095
          70    0.0278    0.0216   -0.0004   -0.0197    0.0287   -0.0074    0.0357    0.0193
          71   -0.0026   -0.0203    0.0054    0.0160   -0.0186    0.0028   -0.0284   -0.0162
          72   -0.0592   -0.0158   -0.0105    0.0159   -0.0157    0.0113   -0.0221   -0.0044
          73   -0.0278   -0.0490    0.0136    0.0499   -0.0134    0.0093   -0.0794   -0.0246
          74   -0.0402   -0.0319   -0.0111   -0.0013   -0.0205   -0.0013    0.0250    0.0137
          75   -0.0068   -0.0091    0.0251   -0.0087   -0.0115   -0.0297    0.0086   -0.0197
          76    0.0103    0.0841   -0.0417   -0.0425   -0.0672    0.0132    0.0130   -0.0466
          77   -0.0091    0.0125   -0.0362   -0.0137   -0.0344    0.0342    0.0363    0.0376
          78    0.0243    0.0144   -0.0022    0.0049   -0.0109    0.0344   -0.0120    0.0297
          79   -0.0108    0.0085    0.0320    0.0092    0.0029    0.0237    0.0112   -0.0041
          80    0.0153    0.0099   -0.0446    0.0298   -0.0115   -0.0300    0.0027    0.0056
          81   -0.0701   -0.0155    0.0399   -0.0476    0.0130    0.0022   -0.0304    0.0240
          82    0.0219    0.0135    0.0028    0.0255   -0.0056    0.0121    0.0212   -0.0172
          83   -0.0126    0.0292    0.0841    0.0468    0.0064    0.0701    0.0485   -0.0302
          84    0.0455    0.0071   -0.0433    0.0261   -0.0138   -0.0134    0.0234   -0.0408
          85    0.0148   -0.0037   -0.0535   -0.0089   -0.0089   -0.0590   -0.0344    0.0460
          86   -0.0012    0.0195    0.0237    0.0306   -0.0024    0.0107    0.0162   -0.0022
          87   -0.0453   -0.0106    0.0577   -0.0299    0.0220    0.0272   -0.0254    0.0543


   Root No.      17        18        19        20        21        22        23        24

                17 A      18 A      19 A      20 A      21 A      22 A      23 A      24 A   

                 619.5     770.4     811.1     841.9     869.0     905.0     923.6     926.1
  
           1    0.0021   -0.0285    0.0101   -0.0087    0.0072    0.0070    0.0034    0.0075
           2    0.0017   -0.0275   -0.0002   -0.0063   -0.0078   -0.0005   -0.0001    0.0000
           3    0.0286   -0.0169    0.0043   -0.0056   -0.0001    0.0103    0.0008   -0.0064
           4    0.0053   -0.0138   -0.0065   -0.0018   -0.0269   -0.0087   -0.0010    0.0018
           5   -0.0062    0.0304   -0.0022    0.0071    0.0025   -0.0022   -0.0015   -0.0042
           6   -0.0102   -0.0111   -0.0064   -0.0062   -0.0076   -0.0007    0.0022    0.0045
           7   -0.0047    0.0301   -0.0012    0.0081    0.0047    0.0016    0.0000   -0.0005
           8   -0.0061   -0.0336    0.0002   -0.0133   -0.0073   -0.0059    0.0016    0.0082
           9    0.0026   -0.0073    0.0002    0.0223    0.0048    0.0071   -0.0003   -0.0079
          10   -0.0047    0.0295   -0.0003    0.0077    0.0072    0.0023   -0.0006   -0.0023
          11   -0.0073    0.0354    0.0011    0.0136    0.0102    0.0033    0.0001    0.0065
          12   -0.0002   -0.0056   -0.0047    0.0216   -0.0006   -0.0076    0.0001    0.0100
          13   -0.0109   -0.0289    0.0102   -0.0085    0.0320   -0.0063   -0.0025   -0.0050
          14    0.0014   -0.0045    0.0013   -0.0021    0.0020   -0.0049    0.0011    0.0113
          15    0.0095    0.0189   -0.0019   -0.0053    0.0077   -0.0177   -0.0027    0.0089
          16   -0.0020    0.0016    0.0141    0.0027   -0.0030   -0.0006   -0.0015    0.0018
          17    0.0031   -0.0017    0.0282    0.0045   -0.0073   -0.0033    0.0016    0.0001
          18    0.0027   -0.0076   -0.0046   -0.0025   -0.0016    0.0006   -0.0011    0.0011
          19   -0.0043    0.0038   -0.0013    0.0004    0.0000   -0.0038    0.0056   -0.0049
          20    0.0032   -0.0027    0.0077    0.0018   -0.0050   -0.0049    0.0054   -0.0027
          21    0.0003   -0.0008   -0.0002   -0.0008   -0.0005   -0.0004    0.0026   -0.0015
          22    0.0085   -0.0068   -0.0154    0.0002   -0.0126   -0.0229   -0.0176   -0.0196
          23   -0.0027    0.0005   -0.0142   -0.0029   -0.0002   -0.0084   -0.0051   -0.0115
          24   -0.0123    0.0189    0.0054   -0.0031    0.0105    0.0018   -0.0054   -0.0123
          25    0.0044   -0.0016    0.0081    0.0004    0.0049    0.0151   -0.0319    0.0168
          26   -0.0035    0.0009   -0.0007   -0.0034    0.0062    0.0078   -0.0119    0.0033
          27    0.0068   -0.0021    0.0009    0.0025   -0.0007    0.0007   -0.0068    0.0040
          28   -0.0068    0.0053   -0.0021    0.0005   -0.0037   -0.0023    0.0003    0.0009
          29    0.0077   -0.0016    0.0017    0.0022    0.0031    0.0047   -0.0006   -0.0058
          30   -0.0463   -0.0050   -0.0010    0.0010   -0.0020   -0.0064    0.0033    0.0071
          31    0.0084    0.0045   -0.0011    0.0018   -0.0063    0.0023    0.0013    0.0055
          32    0.0095    0.0032    0.0006    0.0019    0.0056    0.0053   -0.0030   -0.0183
          33    0.0036   -0.0014    0.0000   -0.0001   -0.0003   -0.0001    0.0009    0.0000
          34   -0.0086   -0.0419    0.0071   -0.0231   -0.0251    0.0170    0.0154    0.0314
          35   -0.0054   -0.0541   -0.0035    0.0127   -0.0221    0.0131   -0.0029   -0.0245
          36    0.0358    0.0032    0.0063   -0.0080    0.0206   -0.0023   -0.0036   -0.0054
          37    0.0263   -0.0328    0.0041   -0.0142   -0.0579    0.0153    0.0070    0.0152
          38   -0.0068    0.0604    0.0031   -0.0033   -0.0039    0.0118   -0.0039   -0.0204
          39   -0.0198    0.0103   -0.0084   -0.0055    0.0052   -0.0052   -0.0022   -0.0094
          40   -0.0118    0.0629    0.0079   -0.1213   -0.0154    0.0051    0.0020   -0.0116
          41    0.0219   -0.0877    0.0006    0.0312   -0.0066    0.0291    0.0021   -0.0393
          42   -0.0158    0.0380    0.0046   -0.0687   -0.0066   -0.0103    0.0005    0.0126
          43   -0.0029    0.0037   -0.0174    0.1243    0.0121   -0.0157   -0.0027    0.0093
          44   -0.0377    0.0084   -0.0089   -0.0694   -0.0293   -0.0581    0.0004    0.0577
          45   -0.0161    0.0333    0.0050   -0.0789   -0.0111   -0.0114    0.0008    0.0138
          46   -0.0086   -0.0028   -0.0119    0.1198    0.0333   -0.0041   -0.0005    0.0017
          47   -0.0186    0.0131   -0.0250    0.0665   -0.0087   -0.0291    0.0033    0.0512
          48    0.0086    0.0291    0.0177   -0.0782   -0.0054    0.0156   -0.0018   -0.0192
          49   -0.0050    0.0602    0.0150   -0.1216   -0.0073    0.0114   -0.0021   -0.0143
          50    0.0063    0.0827    0.0223   -0.0272    0.0185    0.0349   -0.0003   -0.0335
          51    0.0067    0.0328    0.0143   -0.0651   -0.0037    0.0134   -0.0011   -0.0164
          52   -0.0002   -0.0070   -0.1070   -0.0215    0.0299    0.0308   -0.0313    0.0183
          53    0.0107   -0.0131   -0.0586   -0.0079    0.0018   -0.0070    0.0150   -0.0084
          54    0.0085   -0.0170   -0.0848   -0.0148    0.0091    0.0010    0.0061   -0.0040
          55   -0.0052    0.0063    0.0203    0.0089   -0.0205   -0.0408    0.0524   -0.0369
          56    0.0092   -0.0119   -0.0487   -0.0120    0.0193    0.0337   -0.0407    0.0296
          57   -0.0043    0.0053    0.1501    0.0208   -0.0231    0.0040   -0.0211    0.0174
          58   -0.0010   -0.0251    0.0075   -0.0030    0.0129    0.0095    0.0023   -0.0008
          59    0.0266   -0.0046    0.0001    0.0083   -0.0332    0.0352    0.0137    0.0245
          60    0.0404    0.0833   -0.0372    0.0307   -0.1081    0.0196    0.0065    0.0078
          61    0.0096    0.0181   -0.0173    0.0262   -0.0715    0.0401    0.0107   -0.0014
          62   -0.0678   -0.0164    0.0078   -0.0068    0.0518   -0.0529   -0.0044    0.0258
          63    0.0268    0.0001    0.0091   -0.0207    0.0391   -0.0215   -0.0070    0.0014
          64   -0.0053    0.0125   -0.0293   -0.0024    0.0212    0.0213   -0.0292    0.0178
          65    0.0032   -0.0082   -0.0280   -0.0081    0.0065    0.0104   -0.0097    0.0062
          66   -0.0001    0.0068    0.0089    0.0041    0.0027    0.0025   -0.0056    0.0045
          67   -0.0038   -0.0066   -0.1025   -0.0248    0.0340    0.0374   -0.0319    0.0186
          68    0.0037    0.0006    0.0027    0.0024    0.0007    0.0020   -0.0069    0.0052
          69    0.0007    0.0014   -0.0114   -0.0019    0.0067    0.0084   -0.0103    0.0069
          70   -0.0045    0.0030    0.0608    0.0131   -0.0301   -0.0423    0.0538   -0.0357
          71    0.0038   -0.0042   -0.0712   -0.0151    0.0299    0.0392   -0.0472    0.0309
          72   -0.0005    0.0047    0.0356    0.0084   -0.0098   -0.0113    0.0105   -0.0062
          73   -0.0018    0.0091   -0.0552   -0.0049    0.0059   -0.0295    0.2778   -0.0456
          74   -0.0008   -0.0087   -0.0529   -0.0099    0.0020   -0.0152    0.1182   -0.0241
          75    0.0081   -0.0079   -0.0314   -0.0016   -0.0031   -0.0139    0.0773   -0.0136
          76    0.0248   -0.0067    0.0420    0.0047    0.0385    0.0838    0.2190    0.0837
          77   -0.0065   -0.0036    0.0005   -0.0162    0.0274    0.0423    0.0915    0.0205
          78   -0.0141    0.0160    0.0156   -0.0113    0.0282    0.0348    0.0576    0.0091
          79    0.0186    0.0130   -0.0060    0.0063   -0.0324    0.0307    0.0005   -0.0106
          80    0.0203    0.0239   -0.0075    0.0102   -0.0344    0.0126    0.0106    0.0183
          81    0.0286   -0.0133   -0.0020    0.0101   -0.0530    0.1027   -0.0142   -0.0700
          82   -0.0320    0.0109   -0.0059    0.0054   -0.0338    0.0171    0.0030    0.0195
          83    0.0152    0.0354   -0.0128    0.0061   -0.0528   -0.0015    0.0124    0.0633
          84   -0.1584   -0.0187   -0.0009    0.0081   -0.0292    0.0635   -0.0126   -0.0524
          85    0.0686   -0.0206    0.0141   -0.0034    0.0631    0.0068   -0.0164   -0.0827
          86    0.0118    0.0016    0.0015    0.0019    0.0097    0.0065   -0.0042   -0.0252
          87    0.2447    0.0301    0.0020   -0.0115    0.0282   -0.0417   -0.0019    0.0336


   Root No.      25        26        27        28        29        30        31        32

                25 A      26 A      27 A      28 A      29 A      30 A      31 A      32 A   

                 945.9     952.1     970.5     990.8    1002.7    1031.5    1036.6    1043.1
  
           1    0.0050   -0.0101    0.0026    0.0039   -0.0191   -0.0087   -0.0081   -0.0098
           2   -0.0011    0.0027   -0.0017    0.0113    0.0071    0.0140   -0.0046    0.0197
           3   -0.0030    0.0004    0.0030    0.0068   -0.0039   -0.0002   -0.0028    0.0010
           4   -0.0079    0.0111   -0.0055   -0.0107    0.0196    0.0121    0.0097    0.0089
           5   -0.0013   -0.0008    0.0053   -0.0163   -0.0014    0.0107   -0.0131    0.0163
           6   -0.0009    0.0079    0.0017    0.0039    0.0073   -0.0040    0.0048    0.0018
           7   -0.0005    0.0023   -0.0031    0.0056    0.0075   -0.0107    0.0249   -0.0237
           8    0.0045    0.0011   -0.0002   -0.0171   -0.0150   -0.0133   -0.0045   -0.0146
           9   -0.0112   -0.0118    0.0033    0.0014    0.0073   -0.0011   -0.0006   -0.0007
          10    0.0012   -0.0006    0.0021    0.0063   -0.0040    0.0106   -0.0240    0.0247
          11    0.0073    0.0060   -0.0076    0.0257   -0.0026   -0.0107    0.0006   -0.0120
          12    0.0107    0.0115   -0.0019    0.0045   -0.0017    0.0018   -0.0056   -0.0005
          13    0.0093   -0.0072    0.0004    0.0030    0.0084    0.0066    0.0094    0.0055
          14    0.0062   -0.0189    0.0016    0.0027    0.0102    0.0041    0.0048    0.0067
          15    0.0147    0.0010   -0.0054   -0.0097    0.0031    0.0013    0.0038    0.0018
[...]
 T-DIPOLE    0.1026        C  2 --  C  8           +9.4% ( 49.1%)    94.5%
 TRAVEL      0.0731        C  2 --  C  3           +8.7% ( 47.3%)    88.9%
 RED. MASS   1.0680        C  2 --  C  4           +8.7% ( 47.1%)    71.7%
 EFF. MASS   8.6220

 VIBRATION   62   62A       ATOM PAIR        ENERGY CONTRIBUTION    RADIAL
 FREQ.      1862.32        C 10 --  C 11          +45.3% ( 99.3%)    98.9%
 T-DIPOLE    0.2390        C  5 --  C 10          +16.8% ( 60.4%)    54.7%
 TRAVEL      0.0554        C 10 --  H 27          +15.5% ( 58.0%)     4.0%
 RED. MASS   5.2981        C 11 --  H 28          +10.9% ( 48.8%)    11.0%
 EFF. MASS  11.7933        C 11 --  H 29          +10.7% ( 48.4%)    12.5%

 VIBRATION   63   63A       ATOM PAIR        ENERGY CONTRIBUTION    RADIAL
 FREQ.      1888.72        C  8 --  C  9          +43.6% ( 97.6%)    96.4%
 T-DIPOLE    0.1401        C  2 --  C  8          +14.3% ( 55.9%)    54.5%
 TRAVEL      0.0550        C  6 --  C  9          +14.1% ( 55.5%)    55.0%
 RED. MASS   5.3624        C  8 --  H 26          +13.2% ( 53.8%)     3.5%
 EFF. MASS  11.8010        C  9 --  H 25          +13.2% ( 53.7%)     3.5%

 VIBRATION   64   64A       ATOM PAIR        ENERGY CONTRIBUTION    RADIAL
 FREQ.      2936.13        C  2 --  H 13          +82.1% ( 92.8%)   100.0%
 T-DIPOLE    0.0676        C  5 --  H 21           +5.4% ( 23.8%)    97.6%
 TRAVEL      0.1253        C  1 --  H 12           +4.6% ( 22.1%)    99.9%
 RED. MASS   0.6961        C  5 --  H 20           +3.3% ( 18.7%)    94.8%
 EFF. MASS   1.4636

 VIBRATION   65   65A       ATOM PAIR        ENERGY CONTRIBUTION    RADIAL
 FREQ.      2939.44        C  5 --  H 21          +47.7% ( 71.6%)    97.2%
 T-DIPOLE    0.0367        C  5 --  H 20          +35.9% ( 62.1%)    95.6%
 TRAVEL      0.1225        C  2 --  H 13          +10.4% ( 33.4%)   100.0%
 RED. MASS   0.3964        C  1 --  H 12           +3.1% ( 18.3%)    99.8%
 EFF. MASS   1.5278

 VIBRATION   66   66A       ATOM PAIR        ENERGY CONTRIBUTION    RADIAL
 FREQ.      2944.97        C  6 --  H 19          +52.4% ( 75.2%)    96.9%
 T-DIPOLE    0.0183        C  6 --  H 18          +44.8% ( 69.5%)    96.1%
 TRAVEL      0.1218        C  6 --  C  7           +1.2% ( 11.2%)     0.0%
 RED. MASS   0.5163        C  6 --  C  9           +1.2% ( 11.1%)     0.2%
 EFF. MASS   1.5436

 VIBRATION   67   67A       ATOM PAIR        ENERGY CONTRIBUTION    RADIAL
 FREQ.      2958.12        C  1 --  H 12          +87.6% ( 95.6%)   100.0%
 T-DIPOLE    0.1256        C  5 --  H 21           +3.1% ( 18.1%)    97.2%
 TRAVEL      0.1255        C  5 --  H 20           +2.7% ( 16.9%)    96.4%
 RED. MASS   0.7795        C  2 --  H 13           +2.1% ( 14.8%)    99.7%
 EFF. MASS   1.4463

 VIBRATION   68   68A       ATOM PAIR        ENERGY CONTRIBUTION    RADIAL
 FREQ.      3018.37        C  5 --  H 20          +51.6% ( 71.0%)    98.4%
 T-DIPOLE    0.0606        C  5 --  H 21          +39.3% ( 62.0%)    96.8%
 TRAVEL      0.1312        C 10 --  H 27           +7.2% ( 26.5%)    99.9%
 RED. MASS   0.4266        C  5 --  C 10           +0.8% (  8.7%)    28.1%
 EFF. MASS   1.2977

 VIBRATION   69   69A       ATOM PAIR        ENERGY CONTRIBUTION    RADIAL
 FREQ.      3023.97        C  6 --  H 18          +39.5% ( 62.4%)    98.0%
 T-DIPOLE    0.1179        C  6 --  H 19          +36.2% ( 59.7%)    97.4%
 TRAVEL      0.1293        C  9 --  H 25          +13.3% ( 36.2%)    99.9%
 RED. MASS   0.3141        C 10 --  H 27           +7.5% ( 27.1%)   100.0%
 EFF. MASS   1.3337

 VIBRATION   70   70A       ATOM PAIR        ENERGY CONTRIBUTION    RADIAL
 FREQ.      3025.84        C 10 --  H 27          +66.4% ( 82.1%)   100.0%
 T-DIPOLE    0.2470        C  9 --  H 25           +9.3% ( 30.6%)   100.0%
 TRAVEL      0.1241        C  6 --  H 18           +8.9% ( 30.0%)    98.4%
 RED. MASS   0.4457        C  6 --  H 19           +6.5% ( 25.6%)    96.7%
 EFF. MASS   1.4473

 VIBRATION   71   71A       ATOM PAIR        ENERGY CONTRIBUTION    RADIAL
 FREQ.      3028.52        C  4 --  H 17          +27.8% ( 55.1%)    97.4%
 T-DIPOLE    0.0512        C  3 --  H 14          +25.8% ( 53.0%)    97.4%
 TRAVEL      0.1198        C  4 --  H 16          +21.6% ( 48.5%)    95.9%
 RED. MASS   0.2543        C  3 --  H 15          +19.7% ( 46.3%)    95.8%
 EFF. MASS   1.5525

 VIBRATION   72   72A       ATOM PAIR        ENERGY CONTRIBUTION    RADIAL
 FREQ.      3030.56        C  9 --  H 25          +72.0% ( 85.8%)   100.0%
 T-DIPOLE    0.2877        C 10 --  H 27          +16.3% ( 40.9%)   100.0%
 TRAVEL      0.1230        C  8 --  H 26           +3.3% ( 18.4%)    99.7%
 RED. MASS   0.5336        C  6 --  H 18           +2.9% ( 17.3%)    99.1%
 EFF. MASS   1.4717

 VIBRATION   73   73A       ATOM PAIR        ENERGY CONTRIBUTION    RADIAL
 FREQ.      3035.17        C  8 --  H 26          +91.9% ( 97.3%)   100.0%
 T-DIPOLE    0.2139        C  9 --  H 25           +2.8% ( 16.9%)    99.2%
 TRAVEL      0.1202        C  8 --  C  9           +1.7% ( 13.3%)    39.7%
 RED. MASS   0.8365        C  2 --  C  8           +1.3% ( 11.7%)    14.2%
 EFF. MASS   1.5382

 VIBRATION   74   74A       ATOM PAIR        ENERGY CONTRIBUTION    RADIAL
 FREQ.      3043.16        C  3 --  H 14          +28.9% ( 55.8%)    97.8%
 T-DIPOLE    0.0889        C  4 --  H 17          +26.7% ( 53.7%)    97.7%
 TRAVEL      0.1203        C  3 --  H 15          +20.7% ( 47.3%)    95.9%
 RED. MASS   0.2620        C  4 --  H 16          +19.9% ( 46.3%)    96.0%
 EFF. MASS   1.5304

 VIBRATION   75   75A       ATOM PAIR        ENERGY CONTRIBUTION    RADIAL
 FREQ.      3081.33        C  7 --  H 23          +63.8% ( 82.4%)    98.7%
 T-DIPOLE    0.0093        C  7 --  H 24          +29.0% ( 55.5%)    92.4%
 TRAVEL      0.1207        C  7 --  H 22           +6.0% ( 25.3%)    60.4%
 RED. MASS   0.5218        C  6 --  C  7           +1.0% ( 10.2%)     0.0%
 EFF. MASS   1.5012

 VIBRATION   76   76A       ATOM PAIR        ENERGY CONTRIBUTION    RADIAL
 FREQ.      3086.11        C  7 --  H 22          +58.6% ( 79.0%)    98.3%
 T-DIPOLE    0.0115        C  7 --  H 24          +35.9% ( 61.8%)    94.4%
 TRAVEL      0.1205        C  7 --  H 23           +4.1% ( 20.9%)    47.5%
 RED. MASS   0.5022        C  6 --  C  7           +1.0% ( 10.3%)     0.0%
 EFF. MASS   1.5043

 VIBRATION   77   77A       ATOM PAIR        ENERGY CONTRIBUTION    RADIAL
 FREQ.      3103.32        C  4 --  H 16          +30.1% ( 54.4%)    98.1%
 T-DIPOLE    0.0678        C  3 --  H 15          +27.2% ( 51.7%)    98.1%
 TRAVEL      0.1302        C  4 --  H 17          +21.7% ( 46.2%)    95.9%
 RED. MASS   0.2487        C  3 --  H 14          +19.0% ( 43.2%)    95.8%
 EFF. MASS   1.2814

 VIBRATION   78   78A       ATOM PAIR        ENERGY CONTRIBUTION    RADIAL
 FREQ.      3104.88        C  3 --  H 15          +29.7% ( 54.0%)    98.0%
 T-DIPOLE    0.0819        C  4 --  H 16          +26.0% ( 50.6%)    98.0%
 TRAVEL      0.1298        C  3 --  H 14          +22.0% ( 46.6%)    96.1%
 RED. MASS   0.2468        C  4 --  H 17          +20.1% ( 44.4%)    96.2%
 EFF. MASS   1.2890

 VIBRATION   79   79A       ATOM PAIR        ENERGY CONTRIBUTION    RADIAL
 FREQ.      3135.52        C 11 --  H 28          +91.7% ( 97.5%)    99.9%
 T-DIPOLE    0.1972        C 11 --  H 29           +6.9% ( 26.8%)    72.3%
 TRAVEL      0.1182        C 10 --  C 11           +1.3% ( 11.7%)    21.9%
 RED. MASS   0.8519
 EFF. MASS   1.5391

 VIBRATION   80   80A       ATOM PAIR        ENERGY CONTRIBUTION    RADIAL
 FREQ.      3147.88        C 11 --  H 29          +91.9% ( 96.5%)    99.6%
 T-DIPOLE    0.2431        C 11 --  H 28           +5.9% ( 24.5%)    42.1%
 TRAVEL      0.1210        C 10 --  C 11           +1.6% ( 12.6%)    72.4%
 RED. MASS   0.8203        C 10 --  H 27           +0.6% (  7.7%)    93.4%
 EFF. MASS   1.4629

 VIBRATION   81   81A       ATOM PAIR        ENERGY CONTRIBUTION    RADIAL
 FREQ.      3183.13        C  7 --  H 22          +34.5% ( 56.5%)    97.3%
 T-DIPOLE    0.0218        C  7 --  H 24          +34.4% ( 56.4%)    97.3%
 TRAVEL      0.1366        C  7 --  H 23          +30.9% ( 53.5%)    96.7%
 RED. MASS   0.3277        C  6 --  C  7           +0.3% (  5.1%)    99.8%
 EFF. MASS   1.1360

 SYMMETRY NUMBER FOR POINT-GROUP C1  =  1


          SYSTEM IS A GROUND STATE


    NULL



          MOLECULE IS NOT LINEAR

          THERE ARE 81 GENUINE VIBRATIONS IN THIS SYSTEM
          THIS THERMODYNAMICS CALCULATION IS LIMITED TO
          MOLECULES WHICH HAVE NO INTERNAL ROTATIONS




                    CALCULATED THERMODYNAMIC PROPERTIES
                                          *
   TEMP. (K)   PARTITION FUNCTION   H.O.F.    ENTHALPY  HEAT CAPACITY ENTROPY
                                   KCAL/MOL   CAL/MOLE    CAL/K/MOL  CAL/K/MOL


 298.00  VIB.     0.1832D+05                  6070.3767    40.4111    39.8762
         ROT.     0.1488D+07                   888.2813     2.9808    31.2250
         INT.     0.2726D+11                  6958.6580    43.3919    71.1012
         TRA.     0.1781D+28                  1480.4688     4.9680    40.9296
         TOT.                       12.653    8439.1268    48.3599   112.0309

 200.00  VIB.     0.6051D+03                  2827.4123    26.3588    26.8659
         ROT.     0.8182D+06                   596.1620     2.9808    30.0364
         INT.     0.4951D+09                  3423.5742    29.3396    56.9023
         TRA.     0.9791D+27                   993.6033     4.9680    38.9485
         TOT.                        8.631    4417.1775    34.3076    95.8508

 210.00  VIB.     0.8626D+03                  3097.2395    27.6142    28.1822
         ROT.     0.8803D+06                   625.9700     2.9808    30.1818
         INT.     0.7594D+09                  3723.2095    30.5950    58.3640
         TRA.     0.1053D+28                  1043.2834     4.9680    39.1909
         TOT.                        8.980    4766.4929    35.5630    97.5549

 220.00  VIB.     0.1227D+04                  3379.8493    28.9155    29.4967
         ROT.     0.9439D+06                   655.7781     2.9808    30.3205
         INT.     0.1158D+10                  4035.6274    31.8963    59.8171
         TRA.     0.1130D+28                  1092.9636     4.9680    39.4220
         TOT.                        9.342    5128.5910    36.8643    99.2391

 230.00  VIB.     0.1742D+04                  3675.7014    30.2625    30.8116
         ROT.     0.1009D+07                   685.5862     2.9808    30.4530
         INT.     0.1758D+10                  4361.2877    33.2433    61.2645
         TRA.     0.1207D+28                  1142.6437     4.9680    39.6428
         TOT.                        9.718    5503.9314    38.2113   100.9073

 240.00  VIB.     0.2469D+04                  3985.2468    31.6537    32.1288
         ROT.     0.1076D+07                   715.3943     2.9808    30.5798
         INT.     0.2656D+10                  4700.6411    34.6346    62.7086
         TRA.     0.1287D+28                  1192.3239     4.9680    39.8543
         TOT.                       10.107    5892.9650    39.6026   102.5628

 250.00  VIB.     0.3496D+04                  4308.9146    33.0865    33.4498
         ROT.     0.1143D+07                   745.2024     2.9808    30.7015
         INT.     0.3997D+10                  5054.1170    36.0673    64.1513
         TRA.     0.1368D+28                  1242.0041     4.9680    40.0571
         TOT.                       10.510    6296.1211    41.0353   104.2084

 260.00  VIB.     0.4943D+04                  4647.1022    34.5570    34.7760
         ROT.     0.1213D+07                   775.0105     2.9808    30.8184
         INT.     0.5994D+10                  5422.1127    37.5378    65.5945
         TRA.     0.1451D+28                  1291.6842     4.9680    40.2519
         TOT.                       10.928    6713.7969    42.5059   105.8464

 270.00  VIB.     0.6983D+04                  5000.1673    36.0612    36.1083
         ROT.     0.1283D+07                   804.8186     2.9808    30.9309
         INT.     0.8962D+10                  5804.9859    39.0420    67.0392
         TRA.     0.1536D+28                  1341.3644     4.9680    40.4394
         TOT.                       11.360    7146.3503    44.0100   107.4787

 280.00  VIB.     0.9858D+04                  5368.4228    37.5943    37.4474
         ROT.     0.1355D+07                   834.6267     2.9808    31.0393
         INT.     0.1336D+11                  6203.0496    40.5751    68.4867
         TRA.     0.1622D+28                  1391.0445     4.9680    40.6201
         TOT.                       11.808    7594.0941    45.5431   109.1068

 290.00  VIB.     0.1391D+05                  5752.1337    39.1514    38.7938
         ROT.     0.1429D+07                   864.4348     2.9808    31.1439
         INT.     0.1987D+11                  6616.5685    42.1323    69.9377
         TRA.     0.1710D+28                  1440.7247     4.9680    40.7944
         TOT.                       12.271    8057.2932    47.1003   110.7321

 300.00  VIB.     0.1962D+05                  6151.5153    40.7276    40.1476
         ROT.     0.1503D+07                   894.2429     2.9808    31.2450
         INT.     0.2950D+11                  7045.7582    43.7085    71.3925
         TRA.     0.1799D+28                  1490.4049     4.9680    40.9628
         TOT.                       12.750    8536.1631    48.6765   112.3554

 310.00  VIB.     0.2768D+05                  6566.7338    42.3180    41.5089
         ROT.     0.1579D+07                   924.0510     2.9808    31.3427
         INT.     0.4370D+11                  7490.7849    45.2988    72.8516
         TRA.     0.1889D+28                  1540.0850     4.9680    41.1257
         TOT.                       13.245    9030.8699    50.2668   113.9774

 320.00  VIB.     0.3904D+05                  6997.9072    43.9179    42.8777
         ROT.     0.1656D+07                   953.8591     2.9808    31.4373
         INT.     0.6464D+11                  7951.7663    46.8987    74.3151
         TRA.     0.1982D+28                  1589.7652     4.9680    41.2835
         TOT.                       13.755    9541.5315    51.8667   115.5985

 330.00  VIB.     0.5506D+05                  7445.1074    45.5227    44.2537
         ROT.     0.1734D+07                   983.6672     2.9808    31.5291
         INT.     0.9549D+11                  8428.7747    48.5035    75.7828
         TRA.     0.2075D+28                  1639.4454     4.9680    41.4364
         TOT.                       14.282   10068.2200    53.4715   117.2191

 340.00  VIB.     0.7768D+05                  7908.3632    47.1283    45.6365
         ROT.     0.1814D+07                  1013.4753     2.9808    31.6181
         INT.     0.1409D+12                  8921.8385    50.1091    77.2546
         TRA.     0.2170D+28                  1689.1255     4.9680    41.5847
         TOT.                       14.825   10610.9640    55.0771   118.8393

 350.00  VIB.     0.1096D+06                  8387.6630    48.7309    47.0258
         ROT.     0.1894D+07                  1043.2834     2.9808    31.7045
         INT.     0.2076D+12                  9430.9464    51.7117    78.7303
         TRA.     0.2267D+28                  1738.8057     4.9680    41.7287
         TOT.                       15.384   11169.7521    56.6797   120.4589

 360.00  VIB.     0.1547D+06                  8882.9590    50.3270    48.4210
         ROT.     0.1976D+07                  1073.0915     2.9808    31.7884
         INT.     0.3057D+12                  9956.0505    53.3078    80.2094
         TRA.     0.2364D+28                  1788.4859     4.9680    41.8686
         TOT.                       15.958   11744.5363    58.2758   122.0780

 370.00  VIB.     0.2185D+06                  9394.1700    51.9134    49.8215
         ROT.     0.2059D+07                  1102.8996     2.9808    31.8701
         INT.     0.4499D+12                 10497.0696    54.8942    81.6917
         TRA.     0.2464D+28                  1838.1660     4.9680    42.0047
         TOT.                       16.549   12335.2356    59.8622   123.6964

 380.00  VIB.     0.3087D+06                  9921.1857    53.4875    51.2269
         ROT.     0.2143D+07                  1132.7077     2.9808    31.9496
         INT.     0.6615D+12                 11053.8934    56.4683    83.1765
         TRA.     0.2564D+28                  1887.8462     4.9680    42.1372
         TOT.                       17.156   12941.7396    61.4363   125.3137

 390.00  VIB.     0.4363D+06                 10463.8699    55.0467    52.6365
         ROT.     0.2228D+07                  1162.5158     2.9808    32.0270
         INT.     0.9721D+12                 11626.3857    58.0275    84.6635
         TRA.     0.2666D+28                  1937.5263     4.9680    42.2663
         TOT.                       17.778   13563.9120    62.9955   126.9298

 400.00  VIB.     0.6169D+06                 11022.0638    56.5891    54.0496
         ROT.     0.2314D+07                  1192.3239     2.9808    32.1025
         INT.     0.1428D+13                 12214.3877    59.5699    86.1521
         TRA.     0.2769D+28                  1987.2065     4.9680    42.3921
         TOT.                       18.415   14201.5942    64.5379   128.5442

   *: NOTE: HEATS OF FORMATION ARE RELATIVE TO THE
            ELEMENTS IN THEIR STANDARD STATE AT 298K
              (=  Standard Enthalpy of Formation).

            Hvib:  Zero-point energy is not included.
                   frequencies of less than zero cm-1 are not included.
            Hrot = (3/2)RT
            Htra = (3/2)RT + pV = (5/2)RT

            Heat capacity is Cp, not Cv

           For more information, see: HTTP://OpenMOPAC.net/Manual/thermochemistry.html


           FORCE CONSTANT IN CARTESIAN COORDINATES (Millidynes/A)

    ATOM   CHEMICAL       X               Y               Z
   NUMBER   SYMBOL  FORCE CONSTANT  FORCE CONSTANT  FORCE CONSTANT

      1       C        7.617838        8.189321        8.676785
      2       C        7.484826        8.355322        9.214434
      3       C        8.094049        7.864497        8.589851
      4       C        8.073266        7.850122        8.601463
      5       C        8.425653        9.102298        8.046431
      6       C        8.245264        8.387815        8.798405
      7       C        8.283012        8.260871        8.312913
      8       C        4.726309       13.683720        8.977029
      9       C        4.698912       13.621280        8.880730
     10       C       12.323065       11.537993        3.260750
     11       C       12.223353       11.578064        2.712807
     12       H        1.352560        1.349359        3.563563
     13       H        1.358001        1.264899        3.609780
     14       H        1.361926        1.482016        3.773987
     15       H        1.569557        1.464796        3.601058
     16       H        1.566037        1.550106        3.517410
     17       H        1.360392        1.409585        3.854464
     18       H        0.775388        2.439048        3.186043
     19       H        2.477579        2.818239        0.982174
     20       H        4.585871        1.092219        0.684416
     21       H        1.555537        1.082109        3.626592
     22       H        1.301558        1.789663        3.704790
     23       H        0.772910        2.672623        3.340783
     24       H        2.752175        3.022248        1.009853
     25       H        0.448275        1.879142        3.880851
     26       H        0.427893        1.899885        3.881098
     27       H        4.167366        1.360878        0.641254
     28       H        4.587591        1.240141        0.637048
     29       H        0.709951        5.405310        0.362298



 TOTAL CPU TIME:             7.21 SECONDS

 == MOPAC DONE ==
