 *******************************************************************************
 ** Site#: 14399           For non-commercial use only        Version 13.159M **
 *******************************************************************************
 ** Cite this work as: MOPAC2012, James J. P. Stewart, Stewart Computational  **
 ** Chemistry, Version 13.159M web: HTTP://OpenMOPAC.net  Days remaining:   6 **
 *******************************************************************************
 **                                                                           **
 **                                MOPAC2012                                  **
 **                                                                           **
 *******************************************************************************

                            PM3 CALCULATION RESULTS


 *******************************************************************************
 *  CALCULATION DONE:                                Mon Jun  2 11:13:32 2014  *
 *  PM3      - The PM3 Hamiltonian to be used
 *  PRECISE  - CRITERIA TO BE INCREASED BY 100 TIMES
 *  NOSYM    - POINT-GROUP SYMMETRY SET TO C1
 *  T=       - A TIME OF 172800.0 SECONDS REQUESTED
 *  DUMP=N   - RESTART FILE WRITTEN EVERY  7200.000 SECONDS
 *******************************************************************************
pm3  precise nosym
 InChI=1S/C10H12/c1-3-6-9(2)10-7-4-5-8-10/h3-8,10H,2H2,1H3

   ATOM   CHEMICAL          X               Y               Z
  NUMBER   SYMBOL      (ANGSTROMS)     (ANGSTROMS)     (ANGSTROMS)
 
     1       C         -1.48770000  *   0.64370000  *  -0.42460000  *
     2       C          3.15600000  *  -0.87610000  *   0.81480000  *
     3       C         -0.06290000  *   1.08260000  *  -0.15500000  *
     4       C         -2.09990000  *  -0.08830000  *   0.73040000  *
     5       C         -1.58310000  *  -0.40560000  *  -1.48970000  *
     6       C          2.25010000  *   0.25620000  *   0.45010000  *
     7       C          0.94820000  *   0.05480000  *   0.21700000  *
     8       C         -2.46280000  *  -1.31090000  *   0.37950000  *
     9       C         -2.13710000  *  -1.51090000  *  -1.01950000  *
    10       C          0.23010000  *   2.38610000  *  -0.25680000  *
    11       H         -2.16670000  *   1.48440000  *  -0.70260000  *
    12       H          2.81530000  *  -1.35500000  *   1.76090000  *
    13       H          4.19480000  *  -0.50520000  *   0.96620000  *
    14       H          3.17220000  *  -1.63650000  *   0.00120000  *
    15       H         -2.24110000  *   0.32460000  *   1.72410000  *
    16       H         -1.25390000  *  -0.28150000  *  -2.51650000  *
    17       H          2.70210000  *   1.23880000  *   0.38220000  *
    18       H         -2.93250000  *  -2.03660000  *   1.03510000  *
    19       H         -2.32020000  *  -2.41250000  *  -1.59460000  *
    20       H          0.58810000  *  -0.96750000  *   0.30230000  *
    21       H         -0.52460000  *   3.11860000  *  -0.52780000  *
    22       H          1.21570000  *   2.79690000  *  -0.07670000  *
 


          CARTESIAN COORDINATES 

    NO.       ATOM         X         Y         Z

     1         C       -1.4877    0.6437   -0.4246
     2         C        3.1560   -0.8761    0.8148
     3         C       -0.0629    1.0826   -0.1550
     4         C       -2.0999   -0.0883    0.7304
     5         C       -1.5831   -0.4056   -1.4897
     6         C        2.2501    0.2562    0.4501
     7         C        0.9482    0.0548    0.2170
     8         C       -2.4628   -1.3109    0.3795
     9         C       -2.1371   -1.5109   -1.0195
    10         C        0.2301    2.3861   -0.2568
    11         H       -2.1667    1.4844   -0.7026
    12         H        2.8153   -1.3550    1.7609
    13         H        4.1948   -0.5052    0.9662
    14         H        3.1722   -1.6365    0.0012
    15         H       -2.2411    0.3246    1.7241
    16         H       -1.2539   -0.2815   -2.5165
    17         H        2.7021    1.2388    0.3822
    18         H       -2.9325   -2.0366    1.0351
    19         H       -2.3202   -2.4125   -1.5946
    20         H        0.5881   -0.9675    0.3023
    21         H       -0.5246    3.1186   -0.5278
    22         H        1.2157    2.7969   -0.0767

  H: (PM3): J. J. P. STEWART, J. COMP. CHEM. 10, 209 (1989).
  C: (PM3): J. J. P. STEWART, J. COMP. CHEM. 10, 209 (1989).

           Empirical Formula: C10 H12  =    22 atoms



      MOLECULAR POINT GROUP   :   C1  


      RHF CALCULATION, NO. OF DOUBLY OCCUPIED LEVELS =   26

      Geometry optimization using EF

          DIAGONAL MATRIX USED AS START HESSIAN

 CYCLE:     1 TIME:   0.010 TIME LEFT:  2.00D  GRAD.:   112.420 HEAT: 65.20565
 CYCLE:     2 TIME:   0.019 TIME LEFT:  2.00D  GRAD.:    71.574 HEAT: 63.45569
 CYCLE:     3 TIME:   0.007 TIME LEFT:  2.00D  GRAD.:    31.525 HEAT: 62.06200
 CYCLE:     4 TIME:   0.013 TIME LEFT:  2.00D  GRAD.:    33.626 HEAT: 61.68285
 CYCLE:     5 TIME:   0.007 TIME LEFT:  2.00D  GRAD.:    34.644 HEAT: 61.38431
 CYCLE:     6 TIME:   0.007 TIME LEFT:  2.00D  GRAD.:    42.768 HEAT: 61.20019
 CYCLE:     7 TIME:   0.013 TIME LEFT:  2.00D  GRAD.:    22.143 HEAT: 60.81373
 CYCLE:     8 TIME:   0.013 TIME LEFT:  2.00D  GRAD.:    17.256 HEAT: 60.70258
 CYCLE:     9 TIME:   0.007 TIME LEFT:  2.00D  GRAD.:    17.387 HEAT: 60.60450
 CYCLE:    10 TIME:   0.007 TIME LEFT:  2.00D  GRAD.:    23.362 HEAT: 60.56932
 CYCLE:    11 TIME:   0.007 TIME LEFT:  2.00D  GRAD.:    17.685 HEAT: 60.47895
 CYCLE:    12 TIME:   0.013 TIME LEFT:  2.00D  GRAD.:    22.221 HEAT: 60.46235
 CYCLE:    13 TIME:   0.013 TIME LEFT:  2.00D  GRAD.:    10.118 HEAT: 60.37925
 CYCLE:    14 TIME:   0.007 TIME LEFT:  2.00D  GRAD.:    13.901 HEAT: 60.37694
 CYCLE:    15 TIME:   0.007 TIME LEFT:  2.00D  GRAD.:     6.282 HEAT: 60.30899
 CYCLE:    16 TIME:   0.013 TIME LEFT:  2.00D  GRAD.:     8.004 HEAT: 60.29248
 CYCLE:    17 TIME:   0.007 TIME LEFT:  2.00D  GRAD.:     6.029 HEAT: 60.26048
 CYCLE:    18 TIME:   0.007 TIME LEFT:  2.00D  GRAD.:     9.212 HEAT: 60.22475
 CYCLE:    19 TIME:   0.007 TIME LEFT:  2.00D  GRAD.:    11.256 HEAT: 60.18286
 CYCLE:    20 TIME:   0.007 TIME LEFT:  2.00D  GRAD.:    10.664 HEAT: 60.12508
 CYCLE:    21 TIME:   0.007 TIME LEFT:  2.00D  GRAD.:    16.024 HEAT: 60.12047
 CYCLE:    22 TIME:   0.007 TIME LEFT:  2.00D  GRAD.:     8.149 HEAT: 60.07928
 CYCLE:    23 TIME:   0.007 TIME LEFT:  2.00D  GRAD.:     8.594 HEAT: 60.07012
 CYCLE:    24 TIME:   0.007 TIME LEFT:  2.00D  GRAD.:     4.944 HEAT: 60.04765
 CYCLE:    25 TIME:   0.007 TIME LEFT:  2.00D  GRAD.:     4.719 HEAT: 60.03322
 CYCLE:    26 TIME:   0.007 TIME LEFT:  2.00D  GRAD.:     6.516 HEAT: 60.02226
 CYCLE:    27 TIME:   0.007 TIME LEFT:  2.00D  GRAD.:     6.093 HEAT: 59.99848
 CYCLE:    28 TIME:   0.007 TIME LEFT:  2.00D  GRAD.:     3.052 HEAT: 59.98150
 CYCLE:    29 TIME:   0.007 TIME LEFT:  2.00D  GRAD.:     3.446 HEAT: 59.97656
 CYCLE:    30 TIME:   0.007 TIME LEFT:  2.00D  GRAD.:     3.706 HEAT: 59.96890
 CYCLE:    31 TIME:   0.007 TIME LEFT:  2.00D  GRAD.:     2.649 HEAT: 59.95786
 CYCLE:    32 TIME:   0.007 TIME LEFT:  2.00D  GRAD.:     2.852 HEAT: 59.94797
 CYCLE:    33 TIME:   0.007 TIME LEFT:  2.00D  GRAD.:     3.891 HEAT: 59.93978
 CYCLE:    34 TIME:   0.007 TIME LEFT:  2.00D  GRAD.:     3.191 HEAT: 59.92821
 CYCLE:    35 TIME:   0.007 TIME LEFT:  2.00D  GRAD.:     3.165 HEAT: 59.90800
 CYCLE:    36 TIME:   0.007 TIME LEFT:  2.00D  GRAD.:     2.805 HEAT: 59.89281
 CYCLE:    37 TIME:   0.007 TIME LEFT:  2.00D  GRAD.:     2.186 HEAT: 59.88131
 CYCLE:    38 TIME:   0.007 TIME LEFT:  2.00D  GRAD.:     1.783 HEAT: 59.87252
 CYCLE:    39 TIME:   0.007 TIME LEFT:  2.00D  GRAD.:     1.452 HEAT: 59.86807
 CYCLE:    40 TIME:   0.007 TIME LEFT:  2.00D  GRAD.:     1.211 HEAT: 59.86498
 CYCLE:    41 TIME:   0.007 TIME LEFT:  2.00D  GRAD.:     1.177 HEAT: 59.86192
 CYCLE:    42 TIME:   0.007 TIME LEFT:  2.00D  GRAD.:     1.213 HEAT: 59.85891
 CYCLE:    43 TIME:   0.007 TIME LEFT:  2.00D  GRAD.:     1.095 HEAT: 59.85633
 CYCLE:    44 TIME:   0.007 TIME LEFT:  2.00D  GRAD.:     1.039 HEAT: 59.85388
 CYCLE:    45 TIME:   0.007 TIME LEFT:  2.00D  GRAD.:     1.010 HEAT: 59.85138
 CYCLE:    46 TIME:   0.007 TIME LEFT:  2.00D  GRAD.:     0.998 HEAT: 59.84898
 CYCLE:    47 TIME:   0.007 TIME LEFT:  2.00D  GRAD.:     0.903 HEAT: 59.84687
 CYCLE:    48 TIME:   0.007 TIME LEFT:  2.00D  GRAD.:     0.891 HEAT: 59.84485
 CYCLE:    49 TIME:   0.007 TIME LEFT:  2.00D  GRAD.:     0.864 HEAT: 59.84290
 CYCLE:    50 TIME:   0.007 TIME LEFT:  2.00D  GRAD.:     0.885 HEAT: 59.84118
 CYCLE:    51 TIME:   0.007 TIME LEFT:  2.00D  GRAD.:     0.915 HEAT: 59.83948
 CYCLE:    52 TIME:   0.007 TIME LEFT:  2.00D  GRAD.:     1.018 HEAT: 59.83749
 CYCLE:    53 TIME:   0.007 TIME LEFT:  2.00D  GRAD.:     1.214 HEAT: 59.83458
 CYCLE:    54 TIME:   0.007 TIME LEFT:  2.00D  GRAD.:     1.394 HEAT: 59.83054
 CYCLE:    55 TIME:   0.007 TIME LEFT:  2.00D  GRAD.:     1.580 HEAT: 59.82422
 CYCLE:    56 TIME:   0.007 TIME LEFT:  2.00D  GRAD.:     1.252 HEAT: 59.82041
 CYCLE:    57 TIME:   0.007 TIME LEFT:  2.00D  GRAD.:     0.854 HEAT: 59.81626
 CYCLE:    58 TIME:   0.007 TIME LEFT:  2.00D  GRAD.:     0.518 HEAT: 59.81528
 CYCLE:    59 TIME:   0.007 TIME LEFT:  2.00D  GRAD.:     0.382 HEAT: 59.81427
 CYCLE:    60 TIME:   0.007 TIME LEFT:  2.00D  GRAD.:     0.411 HEAT: 59.81362
 CYCLE:    61 TIME:   0.007 TIME LEFT:  2.00D  GRAD.:     0.565 HEAT: 59.81181
 CYCLE:    62 TIME:   0.007 TIME LEFT:  2.00D  GRAD.:     0.485 HEAT: 59.81121
 CYCLE:    63 TIME:   0.007 TIME LEFT:  2.00D  GRAD.:     0.675 HEAT: 59.80999
 CYCLE:    64 TIME:   0.007 TIME LEFT:  2.00D  GRAD.:     0.527 HEAT: 59.80954
 CYCLE:    65 TIME:   0.007 TIME LEFT:  2.00D  GRAD.:     0.641 HEAT: 59.80825
 CYCLE:    66 TIME:   0.007 TIME LEFT:  2.00D  GRAD.:     0.595 HEAT: 59.80765
 CYCLE:    67 TIME:   0.007 TIME LEFT:  2.00D  GRAD.:     0.852 HEAT: 59.80533
 CYCLE:    68 TIME:   0.007 TIME LEFT:  2.00D  GRAD.:     0.802 HEAT: 59.80403
 CYCLE:    69 TIME:   0.007 TIME LEFT:  2.00D  GRAD.:     1.511 HEAT: 59.80039
 CYCLE:    70 TIME:   0.007 TIME LEFT:  2.00D  GRAD.:     1.163 HEAT: 59.79823
 CYCLE:    71 TIME:   0.007 TIME LEFT:  2.00D  GRAD.:     1.422 HEAT: 59.79262
 CYCLE:    72 TIME:   0.007 TIME LEFT:  2.00D  GRAD.:     2.003 HEAT: 59.78042
 CYCLE:    73 TIME:   0.007 TIME LEFT:  2.00D  GRAD.:     3.562 HEAT: 59.76460
 CYCLE:    74 TIME:   0.007 TIME LEFT:  2.00D  GRAD.:     3.570 HEAT: 59.74520
 CYCLE:    75 TIME:   0.007 TIME LEFT:  2.00D  GRAD.:     7.887 HEAT: 59.73152
 CYCLE:    76 TIME:   0.007 TIME LEFT:  2.00D  GRAD.:     3.886 HEAT: 59.67279
 CYCLE:    77 TIME:   0.007 TIME LEFT:  2.00D  GRAD.:     4.658 HEAT: 59.64204
 CYCLE:    78 TIME:   0.007 TIME LEFT:  2.00D  GRAD.:     4.670 HEAT: 59.60319
 CYCLE:    79 TIME:   0.007 TIME LEFT:  2.00D  GRAD.:     4.878 HEAT: 59.57624
 CYCLE:    80 TIME:   0.019 TIME LEFT:  2.00D  GRAD.:     4.272 HEAT: 59.56640
 CYCLE:    81 TIME:   0.007 TIME LEFT:  2.00D  GRAD.:     1.774 HEAT: 59.54889
 CYCLE:    82 TIME:   0.007 TIME LEFT:  2.00D  GRAD.:     1.843 HEAT: 59.53790
 CYCLE:    83 TIME:   0.007 TIME LEFT:  2.00D  GRAD.:     2.051 HEAT: 59.52385
 CYCLE:    84 TIME:   0.007 TIME LEFT:  2.00D  GRAD.:     2.140 HEAT: 59.50682
 CYCLE:    85 TIME:   0.007 TIME LEFT:  2.00D  GRAD.:     1.829 HEAT: 59.48485
 CYCLE:    86 TIME:   0.007 TIME LEFT:  2.00D  GRAD.:     2.430 HEAT: 59.46154
 CYCLE:    87 TIME:   0.007 TIME LEFT:  2.00D  GRAD.:     2.927 HEAT: 59.43976
 CYCLE:    88 TIME:   0.007 TIME LEFT:  2.00D  GRAD.:     2.543 HEAT: 59.43741
 CYCLE:    89 TIME:   0.007 TIME LEFT:  2.00D  GRAD.:     1.738 HEAT: 59.42997
 CYCLE:    90 TIME:   0.007 TIME LEFT:  2.00D  GRAD.:     1.345 HEAT: 59.42695
 CYCLE:    91 TIME:   0.007 TIME LEFT:  2.00D  GRAD.:     1.743 HEAT: 59.42176
 CYCLE:    92 TIME:   0.010 TIME LEFT:  2.00D  GRAD.:     2.101 HEAT: 59.41300
 CYCLE:    93 TIME:   0.008 TIME LEFT:  2.00D  GRAD.:     2.105 HEAT: 59.40536
 CYCLE:    94 TIME:   0.008 TIME LEFT:  2.00D  GRAD.:     2.270 HEAT: 59.39554
 CYCLE:    95 TIME:   0.008 TIME LEFT:  2.00D  GRAD.:     2.751 HEAT: 59.38904
 CYCLE:    96 TIME:   0.007 TIME LEFT:  2.00D  GRAD.:     2.035 HEAT: 59.37739
 CYCLE:    97 TIME:   0.007 TIME LEFT:  2.00D  GRAD.:     2.193 HEAT: 59.36277
 CYCLE:    98 TIME:   0.007 TIME LEFT:  2.00D  GRAD.:     3.384 HEAT: 59.34672
 CYCLE:    99 TIME:   0.007 TIME LEFT:  2.00D  GRAD.:     2.856 HEAT: 59.33242
 CYCLE:   100 TIME:   0.007 TIME LEFT:  2.00D  GRAD.:     4.273 HEAT: 59.32036
 CYCLE:   101 TIME:   0.007 TIME LEFT:  2.00D  GRAD.:     2.630 HEAT: 59.30662
 CYCLE:   102 TIME:   0.007 TIME LEFT:  2.00D  GRAD.:     2.161 HEAT: 59.29306
 CYCLE:   103 TIME:   0.007 TIME LEFT:  2.00D  GRAD.:     3.808 HEAT: 59.27760
 CYCLE:   104 TIME:   0.007 TIME LEFT:  2.00D  GRAD.:     3.239 HEAT: 59.26394
 CYCLE:   105 TIME:   0.007 TIME LEFT:  2.00D  GRAD.:     4.635 HEAT: 59.24339
 CYCLE:   106 TIME:   0.007 TIME LEFT:  2.00D  GRAD.:     2.963 HEAT: 59.22002
 CYCLE:   107 TIME:   0.007 TIME LEFT:  2.00D  GRAD.:     2.308 HEAT: 59.20891
 CYCLE:   108 TIME:   0.007 TIME LEFT:  2.00D  GRAD.:     1.521 HEAT: 59.19899
 CYCLE:   109 TIME:   0.007 TIME LEFT:  2.00D  GRAD.:     1.970 HEAT: 59.19617
 CYCLE:   110 TIME:   0.007 TIME LEFT:  2.00D  GRAD.:     1.912 HEAT: 59.19549
 CYCLE:   111 TIME:   0.007 TIME LEFT:  2.00D  GRAD.:     1.271 HEAT: 59.19253
 CYCLE:   112 TIME:   0.007 TIME LEFT:  2.00D  GRAD.:     0.654 HEAT: 59.19175
 CYCLE:   113 TIME:   0.007 TIME LEFT:  2.00D  GRAD.:     0.407 HEAT: 59.19141
 CYCLE:   114 TIME:   0.007 TIME LEFT:  2.00D  GRAD.:     0.370 HEAT: 59.19109
 CYCLE:   115 TIME:   0.007 TIME LEFT:  2.00D  GRAD.:     0.382 HEAT: 59.19091
 CYCLE:   116 TIME:   0.007 TIME LEFT:  2.00D  GRAD.:     0.499 HEAT: 59.19043
 CYCLE:   117 TIME:   0.007 TIME LEFT:  2.00D  GRAD.:     0.478 HEAT: 59.19025
 CYCLE:   118 TIME:   0.007 TIME LEFT:  2.00D  GRAD.:     0.879 HEAT: 59.18941
 CYCLE:   119 TIME:   0.007 TIME LEFT:  2.00D  GRAD.:     0.870 HEAT: 59.18886
 CYCLE:   120 TIME:   0.007 TIME LEFT:  2.00D  GRAD.:     0.782 HEAT: 59.18761
 CYCLE:   121 TIME:   0.007 TIME LEFT:  2.00D  GRAD.:     0.549 HEAT: 59.18717
 CYCLE:   122 TIME:   0.007 TIME LEFT:  2.00D  GRAD.:     0.387 HEAT: 59.18606
 CYCLE:   123 TIME:   0.007 TIME LEFT:  2.00D  GRAD.:     0.294 HEAT: 59.18580
 CYCLE:   124 TIME:   0.007 TIME LEFT:  2.00D  GRAD.:     0.327 HEAT: 59.18548
 CYCLE:   125 TIME:   0.007 TIME LEFT:  2.00D  GRAD.:     0.300 HEAT: 59.18531
 CYCLE:   126 TIME:   0.007 TIME LEFT:  2.00D  GRAD.:     0.308 HEAT: 59.18509
 CYCLE:   127 TIME:   0.007 TIME LEFT:  2.00D  GRAD.:     0.239 HEAT: 59.18495
 CYCLE:   128 TIME:   0.007 TIME LEFT:  2.00D  GRAD.:     0.228 HEAT: 59.18469
 CYCLE:   129 TIME:   0.007 TIME LEFT:  2.00D  GRAD.:     0.214 HEAT: 59.18452
 CYCLE:   130 TIME:   0.007 TIME LEFT:  2.00D  GRAD.:     0.188 HEAT: 59.18440
 CYCLE:   131 TIME:   0.007 TIME LEFT:  2.00D  GRAD.:     0.149 HEAT: 59.18431
 CYCLE:   132 TIME:   0.009 TIME LEFT:  2.00D  GRAD.:     0.116 HEAT: 59.18426
 CYCLE:   133 TIME:   0.008 TIME LEFT:  2.00D  GRAD.:     0.133 HEAT: 59.18423
 CYCLE:   134 TIME:   0.007 TIME LEFT:  2.00D  GRAD.:     0.095 HEAT: 59.18421
 CYCLE:   135 TIME:   0.007 TIME LEFT:  2.00D  GRAD.:     0.084 HEAT: 59.18420
 CYCLE:   136 TIME:   0.007 TIME LEFT:  2.00D  GRAD.:     0.130 HEAT: 59.18417
 CYCLE:   137 TIME:   0.007 TIME LEFT:  2.00D  GRAD.:     0.178 HEAT: 59.18413
 CYCLE:   138 TIME:   0.008 TIME LEFT:  2.00D  GRAD.:     0.304 HEAT: 59.18401
 CYCLE:   139 TIME:   0.007 TIME LEFT:  2.00D  GRAD.:     0.332 HEAT: 59.18387
 CYCLE:   140 TIME:   0.007 TIME LEFT:  2.00D  GRAD.:     0.352 HEAT: 59.18310
 CYCLE:   141 TIME:   0.007 TIME LEFT:  2.00D  GRAD.:     1.072 HEAT: 59.18200
 CYCLE:   142 TIME:   0.007 TIME LEFT:  2.00D  GRAD.:     0.485 HEAT: 59.18117
 CYCLE:   143 TIME:   0.007 TIME LEFT:  2.00D  GRAD.:     0.502 HEAT: 59.18006
 CYCLE:   144 TIME:   0.007 TIME LEFT:  2.00D  GRAD.:     0.438 HEAT: 59.17852
 CYCLE:   145 TIME:   0.007 TIME LEFT:  2.00D  GRAD.:     0.412 HEAT: 59.17800
 CYCLE:   146 TIME:   0.007 TIME LEFT:  2.00D  GRAD.:     0.191 HEAT: 59.17783
 CYCLE:   147 TIME:   0.007 TIME LEFT:  2.00D  GRAD.:     0.292 HEAT: 59.17773
 CYCLE:   148 TIME:   0.007 TIME LEFT:  2.00D  GRAD.:     0.105 HEAT: 59.17768
 CYCLE:   149 TIME:   0.007 TIME LEFT:  2.00D  GRAD.:     0.103 HEAT: 59.17765
 CYCLE:   150 TIME:   0.007 TIME LEFT:  2.00D  GRAD.:     0.109 HEAT: 59.17763
 CYCLE:   151 TIME:   0.007 TIME LEFT:  2.00D  GRAD.:     0.066 HEAT: 59.17761
 CYCLE:   152 TIME:   0.006 TIME LEFT:  2.00D  GRAD.:     0.035 HEAT: 59.17760

     RMS GRADIENT =  0.03525  IS LESS THAN CUTOFF =  0.05000



 -------------------------------------------------------------------------------
pm3  precise nosym
 InChI=1S/C10H12/c1-3-6-9(2)10-7-4-5-8-10/h3-8,10H,2H2,1H3



     GEOMETRY OPTIMISED USING EIGENVECTOR FOLLOWING (EF).     
     SCF FIELD WAS ACHIEVED                                   


                              PM3 CALCULATION
                                                       MOPAC2012 (Version: 13.159M)
                                                       Mon Jun  2 11:13:33 2014
                                                       No. of days left =   6




          FINAL HEAT OF FORMATION =         59.17760 KCAL/MOL =     247.59907 KJ/MOL


          TOTAL ENERGY            =      -1367.83012 EV
          ELECTRONIC ENERGY       =      -7264.46355 EV  POINT GROUP:     C1  
          CORE-CORE REPULSION     =       5896.63343 EV
          COSMO AREA              =        189.96 SQUARE ANGSTROMS
          COSMO VOLUME            =        190.90 CUBIC ANGSTROMS

          GRADIENT NORM           =          0.03525
          IONIZATION POTENTIAL    =          9.151480 EV
          HOMO LUMO ENERGIES (EV) =         -9.151  0.243
          NO. OF FILLED LEVELS    =         26
          MOLECULAR WEIGHT        =        132.205

          MOLECULAR DIMENSIONS (Angstroms)

            Atom       Atom       Distance
            H    18    H    13     7.21515
            H    21    H    19     5.28588
            H    12    H    16     4.99776


          SCF CALCULATIONS        =        163
          COMPUTATION TIME        =          1.138 SECONDS




   ATOM   CHEMICAL          X               Y               Z
  NUMBER   SYMBOL      (ANGSTROMS)     (ANGSTROMS)     (ANGSTROMS)
 
     1       C         -1.46068717  *   0.61576550  *  -0.40794635  *
     2       C          3.18322037  *  -0.77393762  *   0.82910213  *
     3       C         -0.05217727  *   1.04690755  *  -0.13193314  *
     4       C         -2.09394142  *  -0.12562484  *   0.74865583  *
     5       C         -1.56565375  *  -0.38908260  *  -1.53386395  *
     6       C          2.19530579  *   0.26635774  *   0.47845397  *
     7       C          0.91031313  *   0.00304106  *   0.21340368  *
     8       C         -2.52556806  *  -1.33441391  *   0.32794833  *
     9       C         -2.19701813  *  -1.49825636  *  -1.09164825  *
    10       C          0.29698891  *   2.33640356  *  -0.20210090  *
    11       H         -2.09823713  *   1.49897554  *  -0.65746205  *
    12       H          3.61503499  *  -0.57544302  *   1.81941357  *
    13       H          4.00850873  *  -0.77972980  *   0.10421809  *
    14       H          2.75241966  *  -1.78383376  *   0.85063112  *
    15       H         -2.16530416  *   0.30347490  *   1.74541546  *
    16       H         -1.17584666  *  -0.18997770  *  -2.52942989  *
    17       H          2.55637617  *   1.30732243  *   0.43864987  *
    18       H         -3.03959147  *  -2.09456588  *   0.91283746  *
    19       H         -2.44374370  *  -2.39167406  *  -1.66179328  *
    20       H          0.51773451  *  -1.02249217  *   0.24420761  *
    21       H         -0.39254403  *   3.13529591  *  -0.45540670  *
    22       H          1.32192387  *   2.65264101  *  -0.00180383  *

           Empirical Formula: C10 H12  =    22 atoms



      MOLECULAR POINT GROUP   :   C1  


                  EIGENVALUES  
 -40.75417 -36.19335 -32.07381 -27.29010 -26.44831 -25.75842 -21.08342 -19.22950
 -18.60932 -18.17941 -18.01384 -16.39977 -15.95117 -14.31759 -14.19182 -13.98395
 -13.95377 -13.32552 -13.25089 -12.76264 -12.61197 -12.10982 -11.32547 -11.06356
  -9.28284  -9.15148   0.24346   0.27804   1.92527   2.02839   3.12235   3.31255
   3.37205   3.50750   3.74961   3.92096   3.93239   4.00515   4.11988   4.23441
   4.33272   4.37933   4.42999   4.48078   4.63100   5.05066   5.46034   5.64725
   5.74927   5.98721   6.11899   6.19428


              NET ATOMIC CHARGES AND DIPOLE CONTRIBUTIONS

  ATOM NO.   TYPE          CHARGE      No. of ELECS.   s-Pop       p-Pop       
    1          C           0.003929        3.9961     1.15404     2.84203
    2          C          -0.072500        4.0725     1.12415     2.94835
    3          C          -0.045936        4.0459     1.17799     2.86795
    4          C          -0.149812        4.1498     1.20906     2.94075
    5          C          -0.149775        4.1498     1.20907     2.94071
    6          C          -0.140046        4.1400     1.19577     2.94428
    7          C          -0.116591        4.1166     1.18223     2.93436
    8          C          -0.122540        4.1225     1.19305     2.92949
    9          C          -0.122565        4.1226     1.19305     2.92952
   10          C          -0.171918        4.1719     1.18605     2.98587
   11          H           0.093340        0.9067     0.90666
   12          H           0.044968        0.9550     0.95503
   13          H           0.044997        0.9550     0.95500
   14          H           0.043141        0.9569     0.95686
   15          H           0.119392        0.8806     0.88061
   16          H           0.119386        0.8806     0.88061
   17          H           0.102646        0.8974     0.89735
   18          H           0.114462        0.8855     0.88554
   19          H           0.114464        0.8855     0.88554
   20          H           0.114985        0.8850     0.88502
   21          H           0.087525        0.9125     0.91247
   22          H           0.088450        0.9115     0.91155
 DIPOLE           X         Y         Z       TOTAL
 POINT-CHG.     0.346     0.111     0.067     0.369
 HYBRID        -0.043     0.062    -0.017     0.077
 SUM            0.303     0.173     0.050     0.352


          ATOMIC ORBITAL ELECTRON POPULATIONS

    Atom      s        px        py        pz   
    1  C   1.15404   0.93391   0.97825   0.92987
    2  C   1.12415   0.97705   0.97124   1.00006
    3  C   1.17799   0.93338   0.94490   0.98967
    4  C   1.20906   0.99965   0.96343   0.97767
    5  C   1.20907   1.00149   0.95786   0.98136
    6  C   1.19577   0.95670   0.99334   0.99424
    7  C   1.18223   0.94079   0.98331   1.01026
    8  C   1.19305   1.00622   0.96986   0.95341
    9  C   1.19305   0.99978   0.97686   0.95288
   10  C   1.18605   1.01328   0.95411   1.01848
   11  H   0.90666
   12  H   0.95503
   13  H   0.95500
   14  H   0.95686
   15  H   0.88061
   16  H   0.88061
   17  H   0.89735
   18  H   0.88554
   19  H   0.88554
   20  H   0.88502
   21  H   0.91247
   22  H   0.91155
 *******************************************************************************
 ** Site#: 14399           For non-commercial use only        Version 13.159M **
 *******************************************************************************
 ** Cite this work as: MOPAC2012, James J. P. Stewart, Stewart Computational  **
 ** Chemistry, Version 13.159M web: HTTP://OpenMOPAC.net  Days remaining:   6 **
 *******************************************************************************
 **                                                                           **
 **                                MOPAC2012                                  **
 **                                                                           **
 *******************************************************************************

                            PM3 CALCULATION RESULTS


 *******************************************************************************
 *  CALCULATION DONE:                                Mon Jun  2 11:13:33 2014  *
 *  PM3      - The PM3 Hamiltonian to be used
 *  OLDGEO   - PREVIOUS GEOMETRY TO BE USED
 *  PRECISE  - CRITERIA TO BE INCREASED BY 100 TIMES
 *  NOSYM    - POINT-GROUP SYMMETRY SET TO C1
 *  T=       - A TIME OF 172800.0 SECONDS REQUESTED
 *  DUMP=N   - RESTART FILE WRITTEN EVERY  7200.000 SECONDS
 *  THERMO   - THERMODYNAMIC QUANTITIES TO BE CALCULATED
 *******************************************************************************
oldgeo thermo nosym precise  pm3

   ATOM   CHEMICAL          X               Y               Z
  NUMBER   SYMBOL      (ANGSTROMS)     (ANGSTROMS)     (ANGSTROMS)
 
     1       C         -1.46068717  *   0.61576550  *  -0.40794635  *
     2       C          3.18322037  *  -0.77393762  *   0.82910213  *
     3       C         -0.05217727  *   1.04690755  *  -0.13193314  *
     4       C         -2.09394142  *  -0.12562484  *   0.74865583  *
     5       C         -1.56565375  *  -0.38908260  *  -1.53386395  *
     6       C          2.19530579  *   0.26635774  *   0.47845397  *
     7       C          0.91031313  *   0.00304106  *   0.21340368  *
     8       C         -2.52556806  *  -1.33441391  *   0.32794833  *
     9       C         -2.19701813  *  -1.49825636  *  -1.09164825  *
    10       C          0.29698891  *   2.33640356  *  -0.20210090  *
    11       H         -2.09823713  *   1.49897554  *  -0.65746205  *
    12       H          3.61503499  *  -0.57544302  *   1.81941357  *
    13       H          4.00850873  *  -0.77972980  *   0.10421809  *
    14       H          2.75241966  *  -1.78383376  *   0.85063112  *
    15       H         -2.16530416  *   0.30347490  *   1.74541546  *
    16       H         -1.17584666  *  -0.18997770  *  -2.52942989  *
    17       H          2.55637617  *   1.30732243  *   0.43864987  *
    18       H         -3.03959147  *  -2.09456588  *   0.91283746  *
    19       H         -2.44374370  *  -2.39167406  *  -1.66179328  *
    20       H          0.51773451  *  -1.02249217  *   0.24420761  *
    21       H         -0.39254403  *   3.13529591  *  -0.45540670  *
    22       H          1.32192387  *   2.65264101  *  -0.00180383  *
 


          CARTESIAN COORDINATES 

    NO.       ATOM         X         Y         Z

     1         C       -1.4607    0.6158   -0.4079
     2         C        3.1832   -0.7739    0.8291
     3         C       -0.0522    1.0469   -0.1319
     4         C       -2.0939   -0.1256    0.7487
     5         C       -1.5657   -0.3891   -1.5339
     6         C        2.1953    0.2664    0.4785
     7         C        0.9103    0.0030    0.2134
     8         C       -2.5256   -1.3344    0.3279
     9         C       -2.1970   -1.4983   -1.0916
    10         C        0.2970    2.3364   -0.2021
    11         H       -2.0982    1.4990   -0.6575
    12         H        3.6150   -0.5754    1.8194
    13         H        4.0085   -0.7797    0.1042
    14         H        2.7524   -1.7838    0.8506
    15         H       -2.1653    0.3035    1.7454
    16         H       -1.1758   -0.1900   -2.5294
    17         H        2.5564    1.3073    0.4386
    18         H       -3.0396   -2.0946    0.9128
    19         H       -2.4437   -2.3917   -1.6618
    20         H        0.5177   -1.0225    0.2442
    21         H       -0.3925    3.1353   -0.4554
    22         H        1.3219    2.6526   -0.0018

  H: (PM3): J. J. P. STEWART, J. COMP. CHEM. 10, 209 (1989).
  C: (PM3): J. J. P. STEWART, J. COMP. CHEM. 10, 209 (1989).

           Empirical Formula: C10 H12  =    22 atoms



      MOLECULAR POINT GROUP   :   C1  


      RHF CALCULATION, NO. OF DOUBLY OCCUPIED LEVELS =   26



          HEAT OF FORMATION =      59.177597 KCALS/MOLE


          INTERNAL COORDINATE DERIVATIVES

   NUMBER  ATOM       BOND         ANGLE      DIHEDRAL

     1       C     -0.001690    -0.003653     0.001609
     2       C     -0.005611    -0.011799    -0.004310
     3       C      0.003402    -0.006942    -0.000442
     4       C      0.004539     0.003944     0.001266
     5       C      0.005260    -0.002109     0.000368
     6       C      0.008247     0.007251    -0.002834
     7       C      0.001907    -0.004306     0.000314
     8       C     -0.002258    -0.002953    -0.006790
     9       C     -0.003490     0.000874     0.004682
    10       C      0.000141     0.001003     0.001615
    11       H     -0.003226     0.001971    -0.002766
    12       H     -0.001410    -0.001229    -0.006289
    13       H     -0.002821     0.007010     0.003787
    14       H      0.001770     0.008240     0.007781
    15       H     -0.001532     0.000912    -0.001655
    16       H     -0.001022    -0.001904     0.002542
    17       H     -0.000242    -0.012937    -0.000396
    18       H      0.001801    -0.001266    -0.003401
    19       H     -0.000345     0.005418     0.001726
    20       H     -0.000829     0.012039     0.002847
    21       H     -0.002587     0.002510     0.001228
    22       H     -0.000006    -0.002074    -0.000882


          GRADIENT NORM =   0.03553


          TIME FOR SCF CALCULATION =    0.01

          TIME FOR DERIVATIVES     =    0.00

          MOLECULAR WEIGHT =  132.20



          ROTATIONAL CONSTANTS IN CM(-1)

          A =    0.07406636   B =    0.02862382   C =    0.02429016



           PRINCIPAL MOMENTS OF INERTIA IN UNITS OF 10**(-40)*GRAM-CM**2

          A =      377.9418   B =      977.9537   C =     1152.4327


          ORIENTATION OF MOLECULE IN FORCE CALCULATION

    NO.       ATOM         X         Y         Z

     1          C      -1.3536    0.2367    0.0006
     2          C       3.6491    0.2367    0.0006
     3          C      -0.0976    1.0544    0.0006
     4          C      -1.4495   -0.7074    1.1787
     5          C      -1.4503   -0.7055   -1.1790
     6          C       2.3564    0.9509   -0.0003
     7          C       1.1712    0.3295    0.0016
     8          C      -1.6184   -1.9709    0.7320
     9          C      -1.6189   -1.9697   -0.7343
    10          C      -0.1491    2.3912   -0.0004
    11          H      -2.2525    0.9007    0.0014
    12          H       4.2397    0.5124    0.8848
    13          H       4.2376    0.5068   -0.8868
    14          H       3.5351   -0.8555    0.0043
    15          H      -1.3885   -0.3613    2.2079
    16          H      -1.3900   -0.3578   -2.2077
    17          H       2.3926    2.0528   -0.0025
    18          H      -1.7398   -2.8733    1.3278
    19          H      -1.7408   -2.8711   -1.3315
    20          H       1.0993   -0.7666    0.0039
    21          H      -1.0737    2.9594   -0.0011
    22          H       0.7640    2.9885   -0.0007


    FIRST DERIVATIVES WILL BE USED IN THE CALCULATION OF SECOND DERIVATIVES

          ESTIMATED TIME TO COMPLETE CALCULATION =        2.64 SECONDS

    FOR POINT-GROUP C1   THERE ARE   1 UNIQUE SYMMETRY FUNCTIONS.

 STEP:   1 TIME =     0.03 SECS, INTEGRAL =      0.03 TIME LEFT: 172799.96
 STEP:   2 TIME =     0.03 SECS, INTEGRAL =      0.06 TIME LEFT: 172799.93
 STEP:   3 TIME =     0.03 SECS, INTEGRAL =      0.09 TIME LEFT: 172799.90
 STEP:   4 TIME =     0.03 SECS, INTEGRAL =      0.12 TIME LEFT: 172799.87
 STEP:   5 TIME =     0.03 SECS, INTEGRAL =      0.15 TIME LEFT: 172799.84
 STEP:   6 TIME =     0.04 SECS, INTEGRAL =      0.19 TIME LEFT: 172799.80
 STEP:   7 TIME =     0.03 SECS, INTEGRAL =      0.22 TIME LEFT: 172799.77
 STEP:   8 TIME =     0.03 SECS, INTEGRAL =      0.25 TIME LEFT: 172799.74
 STEP:   9 TIME =     0.03 SECS, INTEGRAL =      0.29 TIME LEFT: 172799.70
 STEP:  10 TIME =     0.03 SECS, INTEGRAL =      0.32 TIME LEFT: 172799.67
 STEP:  11 TIME =     0.03 SECS, INTEGRAL =      0.35 TIME LEFT: 172799.64
 STEP:  12 TIME =     0.03 SECS, INTEGRAL =      0.38 TIME LEFT: 172799.61
 STEP:  13 TIME =     0.03 SECS, INTEGRAL =      0.41 TIME LEFT: 172799.58
 STEP:  14 TIME =     0.03 SECS, INTEGRAL =      0.45 TIME LEFT: 172799.54
 STEP:  15 TIME =     0.03 SECS, INTEGRAL =      0.48 TIME LEFT: 172799.51
 STEP:  16 TIME =     0.03 SECS, INTEGRAL =      0.51 TIME LEFT: 172799.48
 STEP:  17 TIME =     0.03 SECS, INTEGRAL =      0.54 TIME LEFT: 172799.45
 STEP:  18 TIME =     0.03 SECS, INTEGRAL =      0.57 TIME LEFT: 172799.42
 STEP:  19 TIME =     0.03 SECS, INTEGRAL =      0.60 TIME LEFT: 172799.39
 STEP:  20 TIME =     0.03 SECS, INTEGRAL =      0.63 TIME LEFT: 172799.36
 STEP:  21 TIME =     0.03 SECS, INTEGRAL =      0.66 TIME LEFT: 172799.33
 STEP:  22 TIME =     0.03 SECS, INTEGRAL =      0.70 TIME LEFT: 172799.29
 STEP:  23 TIME =     0.03 SECS, INTEGRAL =      0.73 TIME LEFT: 172799.26
 STEP:  24 TIME =     0.03 SECS, INTEGRAL =      0.76 TIME LEFT: 172799.23
 STEP:  25 TIME =     0.04 SECS, INTEGRAL =      0.80 TIME LEFT: 172799.19
 STEP:  26 TIME =     0.03 SECS, INTEGRAL =      0.83 TIME LEFT: 172799.16
 STEP:  27 TIME =     0.03 SECS, INTEGRAL =      0.86 TIME LEFT: 172799.13
 STEP:  28 TIME =     0.03 SECS, INTEGRAL =      0.89 TIME LEFT: 172799.10
 STEP:  29 TIME =     0.03 SECS, INTEGRAL =      0.92 TIME LEFT: 172799.07
 STEP:  30 TIME =     0.03 SECS, INTEGRAL =      0.96 TIME LEFT: 172799.03
 STEP:  31 TIME =     0.03 SECS, INTEGRAL =      0.99 TIME LEFT: 172799.00
 STEP:  32 TIME =     0.03 SECS, INTEGRAL =      1.02 TIME LEFT: 172798.97
 STEP:  33 TIME =     0.03 SECS, INTEGRAL =      1.05 TIME LEFT: 172798.94
 STEP:  34 TIME =     0.03 SECS, INTEGRAL =      1.08 TIME LEFT: 172798.91
 STEP:  35 TIME =     0.03 SECS, INTEGRAL =      1.12 TIME LEFT: 172798.87
 STEP:  36 TIME =     0.04 SECS, INTEGRAL =      1.15 TIME LEFT: 172798.84
 STEP:  37 TIME =     0.03 SECS, INTEGRAL =      1.18 TIME LEFT: 172798.81
 STEP:  38 TIME =     0.03 SECS, INTEGRAL =      1.21 TIME LEFT: 172798.78
 STEP:  39 TIME =     0.03 SECS, INTEGRAL =      1.25 TIME LEFT: 172798.74
 STEP:  40 TIME =     0.03 SECS, INTEGRAL =      1.28 TIME LEFT: 172798.71
 STEP:  41 TIME =     0.03 SECS, INTEGRAL =      1.31 TIME LEFT: 172798.68
 STEP:  42 TIME =     0.03 SECS, INTEGRAL =      1.34 TIME LEFT: 172798.65
 STEP:  43 TIME =     0.04 SECS, INTEGRAL =      1.39 TIME LEFT: 172798.60
 STEP:  44 TIME =     0.03 SECS, INTEGRAL =      1.42 TIME LEFT: 172798.57
 STEP:  45 TIME =     0.04 SECS, INTEGRAL =      1.45 TIME LEFT: 172798.54
 STEP:  46 TIME =     0.04 SECS, INTEGRAL =      1.49 TIME LEFT: 172798.50
 STEP:  47 TIME =     0.03 SECS, INTEGRAL =      1.52 TIME LEFT: 172798.47
 STEP:  48 TIME =     0.03 SECS, INTEGRAL =      1.56 TIME LEFT: 172798.43
 STEP:  49 TIME =     0.03 SECS, INTEGRAL =      1.59 TIME LEFT: 172798.40
 STEP:  50 TIME =     0.03 SECS, INTEGRAL =      1.62 TIME LEFT: 172798.37
 STEP:  51 TIME =     0.03 SECS, INTEGRAL =      1.65 TIME LEFT: 172798.34
 STEP:  52 TIME =     0.03 SECS, INTEGRAL =      1.69 TIME LEFT: 172798.30
 STEP:  53 TIME =     0.03 SECS, INTEGRAL =      1.72 TIME LEFT: 172798.27
 STEP:  54 TIME =     0.04 SECS, INTEGRAL =      1.76 TIME LEFT: 172798.23
 STEP:  55 TIME =     0.04 SECS, INTEGRAL =      1.80 TIME LEFT: 172798.19
 STEP:  56 TIME =     0.03 SECS, INTEGRAL =      1.83 TIME LEFT: 172798.16
 STEP:  57 TIME =     0.04 SECS, INTEGRAL =      1.87 TIME LEFT: 172798.12
 STEP:  58 TIME =     0.05 SECS, INTEGRAL =      1.92 TIME LEFT: 172798.07
 STEP:  59 TIME =     0.04 SECS, INTEGRAL =      1.96 TIME LEFT: 172798.03
 STEP:  60 TIME =     0.04 SECS, INTEGRAL =      2.00 TIME LEFT: 172797.99
 STEP:  61 TIME =     0.03 SECS, INTEGRAL =      2.03 TIME LEFT: 172797.96
 STEP:  62 TIME =     0.03 SECS, INTEGRAL =      2.07 TIME LEFT: 172797.92
 STEP:  63 TIME =     0.03 SECS, INTEGRAL =      2.10 TIME LEFT: 172797.89
 STEP:  64 TIME =     0.04 SECS, INTEGRAL =      2.14 TIME LEFT: 172797.85
 STEP:  65 TIME =     0.04 SECS, INTEGRAL =      2.17 TIME LEFT: 172797.82
 STEP:  66 TIME =     0.03 SECS, INTEGRAL =      2.21 TIME LEFT: 172797.78

(To convert to Hartree/Bohr^2, multiply by (10^(-21) x N x a0^2)/(4.184 x 627.51) = 0.0642)


           FORCE MATRIX IN MILLIDYNES/ANGSTROM


                  C  1       C  2       C  3       C  4       C  5       C  6
 ------------------------------------------------------------------------------
     C    1  15.183670
     C    2   0.008224  14.737099
     C    3   4.546841   0.151583  18.481310
     C    4   4.069451   0.001637   0.614128  17.827496
     C    5   4.068571   0.001609   0.613889   1.090574  17.827074
     C    6   0.048736   5.329780   1.031464   0.006527   0.006895  17.967169
     C    7   0.620211   0.853218   5.248344   0.049022   0.048857  10.302509
     C    8   1.201479   0.001062   0.055960   9.760132   1.576705   0.003418
     C    9   1.202197   0.000805   0.056088   1.575961   9.760196   0.003408
     C   10   0.825644   0.017134  10.347032   0.033168   0.033354   0.163228
     H   11   4.195322   0.001479   0.451693   0.381680   0.381758   0.007522
     H   12   0.000875   4.700838   0.020148   0.000523   0.000676   0.437666
     H   13   0.000852   4.700578   0.020192   0.000672   0.000534   0.437625
     H   14   0.000805   4.728244   0.002945   0.000423   0.000428   0.481471
     H   15   0.403879   0.000515   0.010640   5.089082   0.043253   0.001563
     H   16   0.403985   0.000542   0.010562   0.043196   5.089200   0.001563
     H   17   0.001836   0.423548   0.091809   0.001252   0.001242   4.601982
     H   18   0.116752   0.000365   0.017279   0.446371   0.049952   0.000985
     H   19   0.116684   0.000342   0.017233   0.049873   0.446346   0.001025
     H   20   0.044417   0.082203   0.446676   0.009347   0.009190   0.463765
     H   21   0.084654   0.005518   0.475010   0.010996   0.011083   0.011390
     H   22   0.125944   0.006809   0.472278   0.017681   0.017750   0.094421


                  C  7       C  8       C  9       C 10       H 11       H 12
 ------------------------------------------------------------------------------
     C    7  18.334234
     C    8   0.018023  18.269819
     C    9   0.017666   5.109259  18.270676
     C   10   1.016514   0.010450   0.010462  17.822091
     H   11   0.042769   0.055137   0.055197   0.062793   4.663890
     H   12   0.036803   0.000271   0.000365   0.001767   0.000189   5.419061
     H   13   0.036708   0.000375   0.000288   0.001791   0.000183   0.576321
     H   14   0.038259   0.000197   0.000192   0.001156   0.000130   0.563568
     H   15   0.003311   0.442601   0.102183   0.003109   0.011225   0.000197
     H   16   0.003293   0.102246   0.442574   0.003054   0.011275   0.000166
     H   17   0.474877   0.000545   0.000596   0.095232   0.000475   0.022274
     H   18   0.001014   5.069134   0.420320   0.002046   0.015295   0.000119
     H   19   0.001000   0.420330   5.069338   0.002041   0.015278   0.000130
     H   20   4.748721   0.008435   0.008387   0.043940   0.001821   0.009361
     H   21   0.121243   0.003389   0.003299   5.118376   0.029821   0.000902
     H   22   0.091804   0.003565   0.003577   4.918431   0.002671   0.000858


                  H 13       H 14       H 15       H 16       H 17       H 18
 ------------------------------------------------------------------------------
     H   13   5.418744
     H   14   0.563551   5.449192
     H   15   0.000184   0.000212   5.484691
     H   16   0.000194   0.000219   0.010254   5.484670
     H   17   0.022143   0.040692   0.000562   0.000571   4.992468
     H   18   0.000132   0.000137   0.042761   0.005532   0.000185   5.459525
     H   19   0.000099   0.000127   0.005541   0.042763   0.000218   0.009513
     H   20   0.009386   0.028929   0.003065   0.003066   0.104800   0.001718
     H   21   0.000914   0.000440   0.001125   0.001110   0.006716   0.000654
     H   22   0.000873   0.000812   0.000873   0.000882   0.067787   0.000993


                  H 19       H 20       H 21       H 22
 ------------------------------------------------------
     H   19   5.459671
     H   20   0.001712   5.110726
     H   21   0.000634   0.006955   5.490955
     H   22   0.000988   0.003762   0.387401   5.296207


          HEAT OF FORMATION =      59.177597 KCALS/MOLE

          ZERO POINT ENERGY     117.031 KCAL/MOL


           NORMAL COORDINATE ANALYSIS (Total motion = 1 Angstrom)


   Root No.       1         2         3         4         5         6         7         8

                 1 A       2 A       3 A       4 A       5 A       6 A       7 A       8 A   

                  27.0      66.4      89.4     119.5     171.1     216.0     240.3     348.5
  
           1   -0.0001   -0.0002   -0.0219    0.0003    0.0000    0.0251   -0.0001   -0.0114
           2    0.0000    0.0002    0.0167   -0.0002    0.0000   -0.0128    0.0000    0.0000
           3   -0.0230    0.0009   -0.0001   -0.0082    0.0154   -0.0001   -0.0389    0.0000
           4    0.0000   -0.0005   -0.0370    0.0004    0.0000   -0.0189    0.0000    0.0289
           5    0.0000   -0.0007   -0.0547    0.0006    0.0000   -0.0413    0.0001   -0.0224
           6   -0.0256   -0.0167    0.0005    0.0112   -0.0416   -0.0001   -0.0235    0.0000
           7    0.0000   -0.0002   -0.0211    0.0002    0.0000   -0.0020    0.0000    0.0080
           8    0.0000    0.0002    0.0168   -0.0002    0.0000    0.0272   -0.0001   -0.0135
           9    0.0033    0.0192   -0.0007   -0.0139    0.0126    0.0000   -0.0005    0.0000
          10   -0.0344   -0.0213    0.0047    0.0128   -0.0173    0.0302    0.0260   -0.0429
          11    0.0239   -0.0012    0.0135    0.0043   -0.0079   -0.0149    0.0196    0.0046
          12   -0.0065   -0.0022    0.0003   -0.0033    0.0073   -0.0008   -0.0219   -0.0004
          13    0.0344    0.0215    0.0032   -0.0128    0.0173    0.0301   -0.0262   -0.0428
          14   -0.0238    0.0015    0.0133   -0.0047    0.0079   -0.0151   -0.0196    0.0046
          15   -0.0065   -0.0022   -0.0003   -0.0033    0.0073    0.0006   -0.0219    0.0004
          16    0.0000   -0.0002   -0.0192    0.0003    0.0000    0.0130   -0.0001    0.0453
          17    0.0000   -0.0002   -0.0218    0.0003    0.0001    0.0206   -0.0001    0.0211
          18    0.0011   -0.0308    0.0012    0.0268    0.0578    0.0001    0.0302    0.0000
          19    0.0000   -0.0003   -0.0305    0.0004    0.0000    0.0029    0.0000    0.0365
          20   -0.0001    0.0001    0.0010    0.0000    0.0000    0.0416   -0.0001    0.0310
          21   -0.0225    0.0440   -0.0016   -0.0354    0.0164    0.0001    0.0564    0.0000
          22   -0.0212   -0.0129    0.0676    0.0080   -0.0134   -0.0205    0.0261    0.0101
          23    0.0148   -0.0008    0.0053    0.0026   -0.0046   -0.0087    0.0111   -0.0026
          24    0.0143   -0.0068    0.0003    0.0036   -0.0043   -0.0001    0.0042    0.0000
          25    0.0213    0.0144    0.0666   -0.0096    0.0134   -0.0206   -0.0260    0.0101
          26   -0.0148    0.0008    0.0052   -0.0028    0.0046   -0.0088   -0.0111   -0.0026
          27    0.0142   -0.0068    0.0001    0.0036   -0.0043    0.0002    0.0042   -0.0001
          28    0.0000   -0.0002   -0.0103    0.0001    0.0000   -0.0310    0.0002   -0.0376
          29    0.0000    0.0002    0.0166   -0.0001   -0.0001    0.0257    0.0000   -0.0151
          30    0.0515    0.0069    0.0001    0.0145   -0.0446    0.0001    0.0145    0.0000
          31   -0.0001   -0.0003   -0.0259    0.0003    0.0000    0.0068    0.0000    0.0048
          32    0.0001    0.0000    0.0094   -0.0002    0.0000   -0.0363    0.0001    0.0233
          33   -0.0634   -0.0141    0.0003   -0.0026    0.0114   -0.0002   -0.0461   -0.0001
          34   -0.0016    0.0495   -0.0291    0.0837    0.0654   -0.0051    0.0290    0.0401
          35   -0.0359    0.1037   -0.0697    0.1210   -0.0243   -0.0733   -0.0299   -0.0459
          36   -0.0133   -0.0828   -0.0001   -0.0824   -0.0782    0.0004   -0.0338   -0.0002
          37    0.0016   -0.0504   -0.0309   -0.0832   -0.0655   -0.0050   -0.0292    0.0399
          38    0.0361   -0.1060   -0.0707   -0.1203    0.0243   -0.0720    0.0304   -0.0458
          39   -0.0136   -0.0820   -0.0002   -0.0814   -0.0782    0.0001   -0.0340    0.0003
          40    0.0000   -0.0007   -0.0651    0.0008    0.0002   -0.0735    0.0003   -0.0091
          41   -0.0001   -0.0002   -0.0519    0.0011   -0.0001   -0.0362    0.0000   -0.0190
          42   -0.0701    0.1188    0.0013    0.1703   -0.0641   -0.0008   -0.0579   -0.0001
          43   -0.0638   -0.0410   -0.0174    0.0254   -0.0344    0.0590    0.0569   -0.0943
          44    0.0448   -0.0024    0.0172    0.0084   -0.0155   -0.0196    0.0384    0.0112
          45   -0.0118   -0.0006    0.0004   -0.0054    0.0108   -0.0009   -0.0300    0.0004
          46    0.0637    0.0408   -0.0202   -0.0248    0.0344    0.0588   -0.0573   -0.0944
          47   -0.0447    0.0027    0.0169   -0.0089    0.0154   -0.0199   -0.0383    0.0111
          48   -0.0119   -0.0006   -0.0005   -0.0054    0.0108    0.0007   -0.0300   -0.0004
          49   -0.0001    0.0000    0.0038    0.0001    0.0000    0.0443   -0.0002    0.0660
          50    0.0001   -0.0004   -0.0230    0.0005    0.0002    0.0177   -0.0001    0.0185
          51    0.0423   -0.1076    0.0039    0.0843    0.1333    0.0002    0.0169   -0.0001
          52   -0.0379   -0.0241    0.1098    0.0156   -0.0271   -0.0495    0.0587    0.0323
          53    0.0268   -0.0014   -0.0004    0.0048   -0.0082   -0.0045    0.0196   -0.0055
          54    0.0290   -0.0101    0.0002    0.0085   -0.0125    0.0004    0.0236    0.0001
          55    0.0382    0.0264    0.1081   -0.0183    0.0270   -0.0497   -0.0584    0.0323
          56   -0.0269    0.0014   -0.0006   -0.0049    0.0083   -0.0047   -0.0196   -0.0056
          57    0.0289   -0.0101    0.0004    0.0085   -0.0125   -0.0001    0.0236   -0.0001
          58   -0.0001   -0.0005   -0.0481    0.0005    0.0000   -0.0008    0.0000    0.0521
          59   -0.0002    0.0003    0.0015   -0.0001   -0.0001    0.0408    0.0000    0.0295
          60   -0.0639    0.1238   -0.0045   -0.0987   -0.0466    0.0001    0.0930    0.0002
          61    0.0001   -0.0001   -0.0058    0.0000    0.0000   -0.0436    0.0003   -0.0595
          62    0.0001    0.0003    0.0238   -0.0002   -0.0001    0.0054    0.0000   -0.0494
          63    0.0712   -0.0112    0.0008    0.0353   -0.0748   -0.0001   -0.0271    0.0001
          64    0.0001   -0.0001   -0.0047    0.0000    0.0000   -0.0426    0.0002   -0.0607
          65    0.0000    0.0002    0.0077    0.0000   -0.0001    0.0423   -0.0001    0.0179
          66    0.0739    0.0109    0.0001    0.0213   -0.0611    0.0002    0.0691    0.0001


   Root No.       9        10        11        12        13        14        15        16

                 9 A      10 A      11 A      12 A      13 A      14 A      15 A      16 A   

                 395.4     474.6     485.0     606.3     612.5     639.3     745.6     807.2
  
           1   -0.0058   -0.0062   -0.0001   -0.0002    0.0607   -0.0001   -0.0077    0.0000
           2   -0.0057    0.0023    0.0000    0.0000   -0.0045    0.0000    0.0316    0.0000
           3    0.0001    0.0000    0.0024   -0.0081   -0.0001    0.0077    0.0000   -0.0067
           4   -0.0289    0.0551    0.0003    0.0001   -0.0249    0.0000   -0.0082    0.0000
           5   -0.0018    0.0020    0.0000    0.0000    0.0058    0.0000    0.0024    0.0000
           6    0.0000    0.0000    0.0021    0.0009    0.0000   -0.0004    0.0000    0.0012
           7   -0.0045   -0.0189   -0.0001   -0.0002    0.0410    0.0000    0.0279    0.0000
           8    0.0083    0.0509    0.0002    0.0000    0.0204   -0.0001    0.0098    0.0000
           9    0.0000   -0.0002    0.0298    0.0810    0.0002   -0.0608    0.0000   -0.0104
          10   -0.0244   -0.0137   -0.0386    0.0105   -0.0131   -0.0093   -0.0133   -0.0343
          11   -0.0186   -0.0171    0.0039    0.0060   -0.0020   -0.0118   -0.0037   -0.0075
          12   -0.0050   -0.0076    0.0012   -0.0092   -0.0033    0.0147   -0.0268    0.0002
          13   -0.0244   -0.0140    0.0385   -0.0104   -0.0131    0.0094   -0.0133    0.0343
          14   -0.0185   -0.0170   -0.0040   -0.0060   -0.0020    0.0118   -0.0038    0.0075
          15    0.0051    0.0077    0.0013   -0.0093    0.0033    0.0146    0.0268    0.0002
          16   -0.0011    0.0158    0.0001    0.0001   -0.0181    0.0000   -0.0018    0.0000
          17    0.0446   -0.0543   -0.0002    0.0000   -0.0044    0.0000    0.0039    0.0000
          18   -0.0001    0.0001   -0.0073   -0.0236   -0.0001   -0.0005    0.0000    0.0019
          19    0.0047   -0.0231   -0.0001    0.0000    0.0010    0.0000    0.0111    0.0000
          20    0.0309    0.0180    0.0001    0.0001   -0.0279    0.0000   -0.0189    0.0000
          21    0.0000    0.0000   -0.0090   -0.0078    0.0000   -0.0033    0.0000   -0.0014
          22    0.0009   -0.0022    0.0522   -0.0074    0.0082    0.0061   -0.0137   -0.0269
          23   -0.0246   -0.0227   -0.0076    0.0066   -0.0067   -0.0116   -0.0156   -0.0133
          24   -0.0008   -0.0012   -0.0016   -0.0007   -0.0007    0.0042   -0.0033    0.0116
          25    0.0009   -0.0016   -0.0522    0.0074    0.0082   -0.0061   -0.0137    0.0269
          26   -0.0246   -0.0227    0.0074   -0.0066   -0.0068    0.0117   -0.0156    0.0133
          27    0.0008    0.0012   -0.0015   -0.0007    0.0007    0.0042    0.0033    0.0116
          28    0.0755   -0.0001    0.0000    0.0000   -0.0053    0.0000    0.0019    0.0000
          29    0.0130    0.0553    0.0002   -0.0001    0.0224    0.0000    0.0130    0.0000
          30    0.0000    0.0000   -0.0072   -0.0063    0.0000    0.0065    0.0000   -0.0009
          31    0.0027   -0.0174   -0.0002   -0.0003    0.0692    0.0000    0.0215    0.0000
          32    0.0048   -0.0134    0.0000   -0.0001    0.0094    0.0000    0.0707    0.0001
          33    0.0001    0.0003   -0.0572   -0.0213   -0.0001    0.0316    0.0001   -0.0705
          34   -0.0171    0.0393   -0.0099   -0.0387   -0.0290    0.0046   -0.0063    0.0078
          35   -0.0305    0.0450    0.0074    0.0248    0.0092   -0.0029   -0.0053   -0.0044
          36    0.0006   -0.0017    0.0068    0.0202    0.0012   -0.0027    0.0008   -0.0029
          37   -0.0173    0.0394    0.0103    0.0391   -0.0287   -0.0046   -0.0064   -0.0078
          38   -0.0303    0.0449   -0.0070   -0.0249    0.0090    0.0029   -0.0052    0.0044
          39   -0.0005    0.0015    0.0068    0.0203   -0.0011   -0.0027   -0.0007   -0.0029
          40   -0.0781    0.1278    0.0006    0.0001   -0.0238    0.0000   -0.0224    0.0000
          41    0.0025   -0.0037    0.0000    0.0001    0.0056    0.0000    0.0034    0.0000
          42   -0.0001   -0.0001    0.0103    0.0296    0.0001   -0.0038    0.0000   -0.0041
          43   -0.0554   -0.0345   -0.0925    0.0551   -0.1367   -0.0620    0.1098    0.2278
          44   -0.0212   -0.0235    0.0086    0.0101    0.0093   -0.0170   -0.0351   -0.0333
          45   -0.0023   -0.0042    0.0028   -0.0132    0.0002    0.0193   -0.0238   -0.0070
          46   -0.0554   -0.0353    0.0922   -0.0542   -0.1369    0.0623    0.1100   -0.2277
          47   -0.0211   -0.0234   -0.0089   -0.0102    0.0092    0.0170   -0.0352    0.0333
          48    0.0024    0.0043    0.0028   -0.0131   -0.0001    0.0193    0.0237   -0.0068
          49    0.0202    0.0258    0.0002    0.0002   -0.0430    0.0001   -0.0189    0.0000
          50    0.0438   -0.0527   -0.0002    0.0001   -0.0037    0.0000    0.0039    0.0000
          51    0.0000   -0.0001    0.0089    0.0470    0.0003    0.0061    0.0000   -0.0134
          52    0.0099    0.0000    0.1835   -0.0249   -0.0482    0.0179    0.1252    0.1156
          53   -0.0245   -0.0207   -0.0264    0.0153    0.0020   -0.0243   -0.0211   -0.0431
          54    0.0016    0.0026   -0.0031    0.0087    0.0012   -0.0120    0.0169   -0.0038
          55    0.0100    0.0018   -0.1834    0.0252   -0.0481   -0.0178    0.1253   -0.1153
          56   -0.0244   -0.0209    0.0262   -0.0154    0.0019    0.0243   -0.0212    0.0431
          57   -0.0017   -0.0027   -0.0030    0.0086   -0.0011   -0.0119   -0.0170   -0.0036
          58    0.0243   -0.0758   -0.0003    0.0001   -0.0165    0.0000    0.0077    0.0000
          59    0.0298    0.0212    0.0000   -0.0002   -0.0268    0.0001   -0.0185    0.0000
          60    0.0000    0.0002   -0.0424   -0.1332   -0.0005    0.0261    0.0000    0.0077
          61    0.1214    0.0161    0.0001    0.0002   -0.0437    0.0001   -0.0365    0.0000
          62    0.0847    0.0815    0.0004    0.0000   -0.0373   -0.0001   -0.0458    0.0000
          63   -0.0001    0.0001   -0.0109   -0.2309   -0.0010   -0.2430    0.0000    0.0026
          64    0.1199    0.0175    0.0001    0.0001   -0.0453    0.0000   -0.0405    0.0000
          65   -0.0494    0.0297    0.0001   -0.0002    0.0803    0.0001    0.0743    0.0000
          66    0.0001    0.0002   -0.0447    0.0841    0.0004    0.3289    0.0000    0.0186


   Root No.      17        18        19        20        21        22        23        24

                17 A      18 A      19 A      20 A      21 A      22 A      23 A      24 A   

                 821.8     832.3     877.8     928.7     935.9     955.2     970.1     970.5
  
           1    0.0000    0.0424    0.0000    0.0000   -0.0278    0.0015    0.0259   -0.0020
           2    0.0001   -0.0515    0.0000    0.0000    0.0009   -0.0006   -0.0098    0.0008
           3    0.0495    0.0000    0.0009    0.0000    0.0000    0.0000    0.0004    0.0070
           4    0.0000   -0.0037    0.0000    0.0001    0.0079   -0.0249   -0.0005    0.0000
           5    0.0000   -0.0005    0.0000    0.0001    0.0063   -0.0190    0.0023   -0.0002
           6    0.0022    0.0000   -0.0286    0.0010    0.0000    0.0000    0.0000   -0.0003
           7    0.0000    0.0008    0.0000    0.0000    0.0073    0.0062    0.0023   -0.0002
           8    0.0000    0.0062    0.0000    0.0001    0.0096   -0.0061    0.0010   -0.0001
           9   -0.0097    0.0000   -0.0234    0.0232    0.0000    0.0000    0.0001    0.0022
          10   -0.0082   -0.0204   -0.0017    0.0002   -0.0110   -0.0089   -0.0309    0.0160
          11    0.0454    0.0007    0.0005   -0.0001   -0.0073    0.0005    0.0056    0.0013
          12    0.0392    0.0498    0.0033   -0.0031    0.0308    0.0021   -0.0031   -0.0196
          13    0.0083   -0.0205    0.0017   -0.0002   -0.0110   -0.0089   -0.0323   -0.0110
          14   -0.0455    0.0007   -0.0005    0.0001   -0.0072    0.0005    0.0055   -0.0021
          15    0.0393   -0.0497    0.0034   -0.0032   -0.0308   -0.0021    0.0010   -0.0199
          16    0.0000   -0.0027    0.0000    0.0000    0.0005    0.0021   -0.0001    0.0000
          17    0.0000   -0.0062    0.0000    0.0000    0.0049   -0.0064   -0.0015    0.0001
          18    0.0029    0.0000   -0.0226   -0.0165    0.0000    0.0000    0.0000    0.0002
          19    0.0000   -0.0059    0.0000    0.0000    0.0054   -0.0040    0.0030   -0.0002
          20    0.0000    0.0071    0.0000   -0.0002   -0.0155    0.0290   -0.0050    0.0004
          21   -0.0051    0.0000    0.0427   -0.0638    0.0001   -0.0001    0.0000   -0.0001
          22    0.0004   -0.0179   -0.0013    0.0000    0.0123    0.0071    0.0179   -0.0429
          23    0.0752    0.0214    0.0016   -0.0011    0.0037   -0.0007   -0.0030    0.0080
          24   -0.0638    0.0048   -0.0016    0.0012   -0.0010    0.0001    0.0014    0.0016
          25   -0.0005   -0.0179    0.0013    0.0000    0.0124    0.0071    0.0222    0.0397
          26   -0.0752    0.0213   -0.0016    0.0011    0.0037   -0.0007   -0.0038   -0.0075
          27   -0.0639   -0.0049   -0.0016    0.0012    0.0010   -0.0001   -0.0013    0.0018
          28    0.0000    0.0007    0.0000    0.0000    0.0210    0.0176   -0.0259    0.0020
          29    0.0000    0.0083    0.0000    0.0001    0.0174   -0.0099    0.0017   -0.0001
          30    0.0006    0.0000   -0.0089    0.0043    0.0000    0.0000    0.0003    0.0048
          31    0.0000    0.0368    0.0000   -0.0002   -0.0441    0.0146    0.0674   -0.0051
          32    0.0001   -0.0598    0.0001   -0.0002   -0.0236    0.0173    0.0470   -0.0037
          33    0.0094    0.0000    0.0046   -0.0133    0.0001    0.0001    0.0142    0.2665
          34    0.0134   -0.0103   -0.1468   -0.0024    0.0275   -0.0822    0.0027   -0.0013
          35   -0.0076    0.0133    0.0817    0.0025   -0.0358    0.1026   -0.0069    0.0011
          36   -0.0048    0.0002    0.0481    0.0019   -0.0003    0.0013    0.0005    0.0003
          37   -0.0135   -0.0099    0.1473    0.0029    0.0272   -0.0815    0.0026    0.0009
          38    0.0076    0.0131   -0.0819   -0.0032   -0.0357    0.1022   -0.0068   -0.0001
          39   -0.0048   -0.0002    0.0482    0.0020    0.0004   -0.0015   -0.0005    0.0004
          40    0.0000    0.0156   -0.0003   -0.0004   -0.0539    0.1530   -0.0170    0.0013
          41    0.0000   -0.0019    0.0003    0.0001    0.0111   -0.0329    0.0037   -0.0003
          42   -0.0066    0.0001    0.0657    0.0039    0.0000    0.0001    0.0000    0.0004
          43    0.0771    0.0459    0.0036    0.0072    0.0536    0.0428    0.1364   -0.0818
          44   -0.0570    0.0021   -0.0060    0.0034   -0.0527   -0.0080    0.0022    0.0322
          45    0.0698    0.0461    0.0052   -0.0047    0.0427    0.0019   -0.0118   -0.0239
          46   -0.0772    0.0459   -0.0035   -0.0074    0.0537    0.0428    0.1438    0.0595
          47    0.0568    0.0023    0.0060   -0.0034   -0.0527   -0.0081   -0.0012   -0.0322
          48    0.0701   -0.0459    0.0053   -0.0048   -0.0428   -0.0020    0.0091   -0.0256
          49    0.0000    0.0018    0.0000   -0.0002   -0.0253    0.0833   -0.0185    0.0014
          50    0.0000   -0.0060    0.0005    0.0006    0.0050   -0.0091   -0.0002    0.0000
          51   -0.0143    0.0002    0.2249    0.3067   -0.0002    0.0003    0.0001    0.0012
          52    0.0613    0.1999    0.0093   -0.0035   -0.0785   -0.0368   -0.0801    0.1882
          53    0.0891   -0.0389   -0.0014    0.0014   -0.0184    0.0027    0.0159    0.0038
          54   -0.0330   -0.0420   -0.0040    0.0043   -0.0518   -0.0037    0.0099    0.0415
          55   -0.0618    0.1998   -0.0097    0.0036   -0.0786   -0.0369   -0.0991   -0.1739
          56   -0.0889   -0.0391    0.0014   -0.0014   -0.0185    0.0027    0.0154   -0.0064
          57   -0.0333    0.0416   -0.0040    0.0044    0.0519    0.0038   -0.0054    0.0428
          58    0.0000   -0.0155    0.0000    0.0001   -0.0003    0.0187   -0.0043    0.0003
          59    0.0001    0.0078   -0.0002    0.0008   -0.0154    0.0285   -0.0049    0.0004
          60    0.0262   -0.0002   -0.0678    0.4419   -0.0002    0.0003    0.0001    0.0021
          61    0.0000    0.0130    0.0000    0.0000   -0.0385   -0.0306    0.0441   -0.0034
          62   -0.0001    0.0273    0.0001    0.0000   -0.0748   -0.0871    0.1128   -0.0087
          63   -0.0173    0.0000    0.0860   -0.0497    0.0000   -0.0001   -0.0011   -0.0195
          64    0.0000    0.0134    0.0000    0.0000   -0.0453   -0.0255    0.0416   -0.0032
          65    0.0000   -0.0090    0.0000    0.0001    0.1145    0.0505   -0.0949    0.0073
          66    0.0417    0.0000    0.0227   -0.0271   -0.0001   -0.0001   -0.0010   -0.0189


   Root No.      25        26        27        28        29        30        31        32

                25 A      26 A      27 A      28 A      29 A      30 A      31 A      32 A   

                1009.0    1011.9    1014.5    1036.8    1050.0    1081.7    1089.5    1123.6
  
           1    0.0072    0.0000    0.0000    0.0000   -0.0219    0.0000   -0.0025   -0.0287
           2   -0.0283   -0.0001    0.0000    0.0000   -0.0101    0.0000    0.0023    0.0020
           3   -0.0001    0.0061    0.0102    0.0020    0.0000   -0.0057    0.0000    0.0000
           4    0.0095    0.0000    0.0000    0.0000   -0.0143    0.0000    0.0001   -0.0006
           5    0.0062    0.0000    0.0000   -0.0001   -0.0148    0.0000    0.0009   -0.0014
           6   -0.0001    0.0199   -0.0089   -0.0330    0.0000   -0.0005    0.0000    0.0000
           7   -0.0061    0.0000    0.0000    0.0000    0.0043    0.0000    0.0013    0.0026
           8    0.0001    0.0000    0.0000    0.0000    0.0135    0.0000   -0.0008   -0.0007
           9   -0.0001    0.0188   -0.0091    0.0230   -0.0001    0.0037    0.0000    0.0000
          10   -0.0094   -0.0083   -0.0284    0.0025    0.0000   -0.0022    0.0029    0.0120
          11    0.0078    0.0020    0.0054   -0.0004    0.0003    0.0092   -0.0002   -0.0150
          12   -0.0115   -0.0097   -0.0160   -0.0028    0.0027    0.0194   -0.0097    0.0351
          13   -0.0095    0.0082    0.0284   -0.0025    0.0001    0.0022    0.0029    0.0120
          14    0.0077   -0.0019   -0.0054    0.0004    0.0003   -0.0093   -0.0001   -0.0150
          15    0.0116   -0.0096   -0.0160   -0.0028   -0.0027    0.0195    0.0096   -0.0351
          16   -0.0035    0.0000    0.0000    0.0000    0.0077    0.0000    0.0001    0.0007
          17   -0.0022   -0.0001    0.0000    0.0001    0.0126    0.0000   -0.0010    0.0013
          18    0.0001   -0.0244    0.0109    0.0531    0.0000    0.0011    0.0000    0.0000
          19   -0.0116    0.0000    0.0000    0.0000    0.0341    0.0000   -0.0013    0.0026
          20    0.0077    0.0000    0.0000   -0.0001   -0.0380    0.0000    0.0022   -0.0029
          21    0.0000    0.0048   -0.0022   -0.0318    0.0000   -0.0015    0.0000    0.0000
          22    0.0025    0.0081    0.0272   -0.0020   -0.0012    0.0017   -0.0014   -0.0042
          23   -0.0050   -0.0009   -0.0029    0.0000   -0.0025    0.0021   -0.0040   -0.0140
          24    0.0116    0.0008    0.0008    0.0003    0.0068   -0.0029   -0.0076    0.0310
          25    0.0026   -0.0080   -0.0272    0.0020   -0.0012   -0.0017   -0.0014   -0.0042
          26   -0.0050    0.0009    0.0029    0.0000   -0.0025   -0.0021   -0.0040   -0.0140
          27   -0.0116    0.0007    0.0009    0.0003   -0.0068   -0.0028    0.0076   -0.0310
          28    0.0224    0.0001    0.0000    0.0000   -0.0143    0.0000   -0.0002   -0.0020
          29   -0.0014    0.0000    0.0000    0.0000    0.0290    0.0000   -0.0013    0.0099
          30    0.0002   -0.0446    0.0161   -0.0290    0.0000   -0.0026    0.0000    0.0000
          31   -0.0445   -0.0003    0.0002    0.0001   -0.1058    0.0001    0.0218    0.1526
          32   -0.0963   -0.0007    0.0000    0.0001   -0.1237    0.0001    0.0365    0.2455
          33   -0.0003    0.0869    0.2240   -0.0130    0.0002    0.0822   -0.0004    0.0000
          34    0.0270    0.0755   -0.0335   -0.1205   -0.0441   -0.0016    0.0006   -0.0025
          35   -0.0276   -0.0400    0.0177    0.0632    0.0419    0.0008   -0.0007    0.0024
          36   -0.0012   -0.0197    0.0087    0.0303    0.0020    0.0004    0.0001    0.0000
          37    0.0275   -0.0755    0.0338    0.1209   -0.0436    0.0017    0.0006   -0.0025
          38   -0.0278    0.0399   -0.0179   -0.0634    0.0416   -0.0008   -0.0007    0.0024
          39    0.0014   -0.0197    0.0088    0.0304   -0.0021    0.0004   -0.0001    0.0000
          40   -0.0386    0.0000   -0.0002   -0.0002    0.0756   -0.0001   -0.0043    0.0056
          41    0.0102   -0.0001    0.0001    0.0002   -0.0231    0.0000    0.0014   -0.0020
          42    0.0001   -0.0256    0.0113    0.0387    0.0001    0.0005    0.0000    0.0000
          43    0.0423    0.0214    0.0743   -0.0051    0.0010    0.0302    0.0125   -0.0099
          44    0.1160    0.0051    0.0037    0.0005    0.0643    0.2019    0.1618    0.1225
          45   -0.0504   -0.0124   -0.0212   -0.0027   -0.0183   -0.0456   -0.0651   -0.0068
          46    0.0426   -0.0210   -0.0745    0.0052    0.0009   -0.0302    0.0128   -0.0099
          47    0.1158   -0.0039   -0.0037   -0.0007    0.0642   -0.2009    0.1632    0.1225
          48    0.0506   -0.0119   -0.0212   -0.0028    0.0184   -0.0455    0.0657    0.0070
          49   -0.0081    0.0001   -0.0001   -0.0001    0.0013    0.0000    0.0012   -0.0066
          50   -0.0024    0.0001   -0.0001   -0.0003    0.0127    0.0000   -0.0010    0.0013
          51   -0.0002    0.0515   -0.0228   -0.1511   -0.0002   -0.0030    0.0000    0.0000
          52   -0.0032   -0.0234   -0.0823    0.0060    0.0008   -0.0157   -0.0174   -0.0013
          53    0.0349    0.0194    0.0394    0.0042    0.0053   -0.1072   -0.1448    0.0173
          54    0.0700    0.0249    0.0420    0.0083    0.0191   -0.1722   -0.2227    0.0827
          55   -0.0036    0.0235    0.0824   -0.0061    0.0009    0.0155   -0.0174   -0.0013
          56    0.0352   -0.0192   -0.0395   -0.0042    0.0053    0.1064   -0.1461    0.0175
          57   -0.0701    0.0242    0.0420    0.0084   -0.0191   -0.1704    0.2238   -0.0828
          58   -0.0357    0.0000   -0.0002    0.0000    0.1571   -0.0001   -0.0134    0.0046
          59    0.0092    0.0000    0.0001    0.0002   -0.0459    0.0000    0.0030   -0.0030
          60    0.0000   -0.0139    0.0083    0.0783    0.0000    0.0044    0.0000    0.0000
          61   -0.0303   -0.0002    0.0000    0.0000    0.0280    0.0000   -0.0003    0.0077
          62   -0.0862   -0.0003   -0.0002    0.0001    0.0994    0.0000   -0.0012    0.0302
          63   -0.0006    0.1727   -0.0637    0.0926   -0.0002    0.0097    0.0000    0.0000
          64   -0.0239   -0.0001    0.0000    0.0000    0.0053    0.0000   -0.0005   -0.0196
          65    0.0653    0.0005    0.0000    0.0000    0.0043    0.0000   -0.0010    0.0377
          66   -0.0007    0.1856   -0.0576    0.1293   -0.0002    0.0080    0.0000    0.0000


   Root No.      33        34        35        36        37        38        39        40

                33 A      34 A      35 A      36 A      37 A      38 A      39 A      40 A   

                1167.4    1203.0    1203.2    1247.0    1298.2    1310.9    1355.7    1387.2
  
           1    0.0169    0.0000    0.0053    0.0035   -0.0156    0.0001    0.0155   -0.0144
           2   -0.0069    0.0000   -0.0047    0.0035   -0.0537   -0.0002    0.0391   -0.0146
           3    0.0000    0.0469    0.0007    0.0000   -0.0002    0.1354   -0.0001    0.0000
           4    0.0234    0.0001   -0.0111    0.0073    0.0005    0.0000   -0.0072   -0.0505
           5   -0.0208   -0.0005    0.0389   -0.0097   -0.0021    0.0000    0.0052   -0.0077
           6    0.0001    0.0000   -0.0001    0.0000    0.0000   -0.0001    0.0000    0.0000
           7   -0.0269    0.0002   -0.0143    0.0048   -0.0206    0.0000    0.0235    0.0147
           8   -0.0031    0.0000    0.0003    0.0008   -0.0160   -0.0001   -0.0227    0.0029
           9    0.0000   -0.0097   -0.0002    0.0000    0.0000   -0.0151    0.0000    0.0000
          10   -0.0010    0.0002    0.0000   -0.0007    0.0038    0.0077   -0.0021    0.0009
          11    0.0028   -0.0210    0.0008   -0.0005    0.0062    0.0407    0.0001   -0.0039
          12   -0.0074    0.0007   -0.0030    0.0019   -0.0195   -0.0731    0.0081   -0.0003
          13   -0.0010   -0.0002    0.0000   -0.0007    0.0038   -0.0078   -0.0021    0.0009
          14    0.0027    0.0210    0.0014   -0.0005    0.0062   -0.0406    0.0001   -0.0039
          15    0.0074    0.0006    0.0030   -0.0018    0.0196   -0.0730   -0.0080    0.0003
          16   -0.0329    0.0000    0.0000   -0.0320    0.0134    0.0000   -0.0110    0.0088
          17    0.0210    0.0005   -0.0388    0.0547    0.0041    0.0000   -0.0127   -0.0175
          18    0.0000   -0.0006    0.0001   -0.0001    0.0000   -0.0004    0.0000    0.0000
          19   -0.0263    0.0002   -0.0160   -0.0132    0.0146    0.0000   -0.0158    0.0081
          20   -0.0007    0.0001   -0.0052   -0.0407   -0.0109    0.0000    0.0244    0.0095
          21    0.0000    0.0021    0.0000    0.0001    0.0000    0.0030    0.0000    0.0000
          22    0.0010   -0.0026    0.0003   -0.0001    0.0014   -0.0007   -0.0009    0.0003
          23    0.0031   -0.0107    0.0014   -0.0012    0.0137    0.0022   -0.0086    0.0041
          24   -0.0058   -0.0212   -0.0028    0.0015   -0.0236    0.0296    0.0217   -0.0183
          25    0.0010    0.0025    0.0004   -0.0001    0.0015    0.0008   -0.0009    0.0003
          26    0.0031    0.0107    0.0017   -0.0012    0.0136   -0.0022   -0.0086    0.0040
          27    0.0058   -0.0213    0.0022   -0.0016    0.0236    0.0297   -0.0217    0.0183
          28    0.0103    0.0000    0.0004   -0.0048    0.0077    0.0000   -0.0038   -0.0019
          29    0.0040   -0.0001    0.0070    0.0009    0.0032    0.0000   -0.0324    0.0053
          30    0.0000    0.0028    0.0000    0.0000   -0.0001    0.0043    0.0000    0.0000
          31    0.0628   -0.0004    0.0301   -0.0057    0.0761    0.0001   -0.0709    0.0075
          32    0.0560   -0.0002    0.0293   -0.0097    0.0692    0.0001   -0.0785    0.0143
          33    0.0000   -0.1167   -0.0017    0.0001    0.0001   -0.1410    0.0001    0.0000
          34    0.0656    0.0000   -0.0017    0.0855   -0.0304   -0.0004    0.0440    0.2108
          35   -0.0395    0.0003   -0.0211   -0.0324    0.0211    0.0003   -0.0156    0.1072
          36   -0.0179   -0.0001    0.0109   -0.0356    0.0108    0.0000   -0.0232   -0.1877
          37    0.0656    0.0001   -0.0018    0.0856   -0.0304    0.0004    0.0440    0.2111
          38   -0.0394    0.0002   -0.0211   -0.0322    0.0210   -0.0003   -0.0155    0.1093
          39    0.0180    0.0001   -0.0108    0.0356   -0.0108    0.0000    0.0233    0.1866
          40    0.1146    0.0018   -0.1495    0.1435   -0.0242    0.0000    0.0173   -0.0370
          41   -0.0341   -0.0006    0.0531   -0.0261    0.0026    0.0000    0.0013    0.0027
          42   -0.0001    0.0000    0.0001   -0.0001    0.0001   -0.0002    0.0000    0.0008
          43    0.0017    0.0189    0.0001    0.0022   -0.0085   -0.0105    0.0037   -0.0009
          44   -0.0192    0.1818   -0.0042    0.0034   -0.0276   -0.0410    0.0011    0.0132
          45   -0.0009   -0.0677   -0.0016    0.0006   -0.0099   -0.0449    0.0091   -0.0068
          46    0.0017   -0.0190   -0.0005    0.0022   -0.0085    0.0105    0.0037   -0.0010
          47   -0.0192   -0.1816   -0.0095    0.0034   -0.0278    0.0409    0.0011    0.0132
          48    0.0009   -0.0680   -0.0004   -0.0006    0.0100   -0.0448   -0.0090    0.0068
          49   -0.0895   -0.0039    0.3239    0.2847    0.0071    0.0002   -0.0069   -0.0271
          50    0.0226    0.0007   -0.0553    0.0442    0.0035    0.0000   -0.0152   -0.0178
          51    0.0000    0.0024    0.0001   -0.0002    0.0000    0.0022    0.0000    0.0001
          52    0.0012    0.0119    0.0006    0.0006    0.0021   -0.0126   -0.0021    0.0015
          53   -0.0001    0.0877    0.0026   -0.0014    0.0261   -0.0956   -0.0262    0.0220
          54   -0.0117    0.1297   -0.0014    0.0018   -0.0104   -0.1205   -0.0007    0.0063
          55    0.0012   -0.0117    0.0002    0.0006    0.0021    0.0125   -0.0020    0.0015
          56   -0.0001   -0.0880    0.0000   -0.0015    0.0257    0.0959   -0.0263    0.0220
          57    0.0116    0.1294    0.0052   -0.0017    0.0109   -0.1203    0.0009   -0.0063
          58    0.2262   -0.0026    0.2322   -0.1746   -0.0786   -0.0003    0.0246    0.0163
          59   -0.0154    0.0003   -0.0224   -0.0341   -0.0066    0.0000    0.0236    0.0100
          60    0.0000   -0.0044   -0.0001    0.0001    0.0001   -0.0045    0.0000    0.0000
          61   -0.0076    0.0001   -0.0079    0.0062    0.0794    0.0005    0.1256   -0.0108
          62   -0.0223    0.0000   -0.0036    0.0196    0.1320    0.0008    0.1851   -0.0106
          63    0.0000   -0.0119   -0.0002    0.0000   -0.0001   -0.0200   -0.0002    0.0000
          64   -0.0192    0.0001   -0.0108   -0.0020   -0.1092   -0.0006   -0.1245    0.0183
          65    0.0483   -0.0002    0.0194   -0.0057    0.1867    0.0010    0.1568   -0.0245
          66   -0.0001    0.0028    0.0000    0.0000   -0.0002    0.0134   -0.0002    0.0000


   Root No.      41        42        43        44        45        46        47        48

                41 A      42 A      43 A      44 A      45 A      46 A      47 A      48 A   

                1394.6    1404.9    1417.6    1479.6    1727.8    1786.8    1852.3    1869.4
  
           1    0.0001   -0.0105   -0.0185   -0.0616   -0.0052    0.0000   -0.0196   -0.0024
           2    0.0001    0.0050   -0.0338   -0.0619   -0.0178    0.0000   -0.0273   -0.0060
           3    0.0001    0.0000    0.0000    0.0000    0.0000   -0.0006    0.0000    0.0000
           4    0.0003   -0.0161   -0.0385    0.0499   -0.0001    0.0000    0.0015   -0.0374
           5   -0.0004    0.0251    0.0313   -0.0235    0.0000    0.0000   -0.0018    0.0126
           6   -0.0435   -0.0002   -0.0001    0.0000    0.0000    0.0000    0.0000    0.0000
           7   -0.0002    0.0286    0.0105    0.1252   -0.0001    0.0000   -0.0133    0.0371
           8    0.0000   -0.0002    0.0033    0.0040    0.0048    0.0000    0.2461    0.0182
           9   -0.0001    0.0000    0.0000    0.0000    0.0000    0.0032   -0.0002    0.0000
          10    0.0000   -0.0016    0.0038    0.0056    0.0185    0.0167   -0.0023    0.0001
          11    0.0001   -0.0192    0.0170    0.0086    0.1315    0.1228   -0.0048   -0.0004
          12   -0.0001    0.0128   -0.0160   -0.0131    0.0419    0.0281   -0.0012   -0.0003
          13    0.0000   -0.0016    0.0038    0.0056    0.0185   -0.0167   -0.0022    0.0002
          14    0.0000   -0.0192    0.0170    0.0086    0.1315   -0.1229   -0.0048   -0.0003
          15    0.0000   -0.0128    0.0160    0.0131   -0.0417    0.0280    0.0012    0.0003
          16   -0.0001   -0.0048    0.0095   -0.0548    0.0001    0.0000   -0.0151    0.2248
          17    0.0002   -0.0127   -0.0175    0.0075    0.0000    0.0000   -0.0001    0.0647
          18   -0.0007    0.0000    0.0000    0.0000    0.0000    0.0000    0.0000   -0.0002
          19   -0.0001   -0.0024    0.0137   -0.0505    0.0002    0.0000    0.0336   -0.2204
          20   -0.0001    0.0154    0.0082    0.0308   -0.0002    0.0000   -0.0207   -0.0682
          21   -0.0003    0.0000    0.0000   -0.0001    0.0000   -0.0001    0.0000    0.0002
          22    0.0000    0.0003    0.0001    0.0003   -0.0156   -0.0171    0.0006    0.0001
          23    0.0000    0.0037    0.0025    0.0086   -0.1161   -0.1258    0.0049    0.0008
          24    0.0002   -0.0536    0.0355    0.0059   -0.0550   -0.0482    0.0008    0.0001
          25    0.0000    0.0004    0.0001    0.0003   -0.0156    0.0170    0.0006    0.0001
          26    0.0000    0.0036    0.0026    0.0086   -0.1161    0.1259    0.0048    0.0007
          27   -0.0002    0.0537   -0.0355   -0.0059    0.0548   -0.0480   -0.0008   -0.0001
          28    0.0000   -0.0044   -0.0004   -0.0150    0.0005    0.0000    0.0081   -0.0033
          29    0.0000   -0.0033    0.0082    0.0040   -0.0045    0.0000   -0.1956   -0.0223
          30    0.0000    0.0000    0.0000    0.0000    0.0000   -0.0002    0.0001    0.0000
          31    0.0000   -0.0157    0.0207   -0.0067    0.0066    0.0000    0.0323    0.0048
          32   -0.0001   -0.0039    0.0196    0.0077    0.0092    0.0000    0.0485   -0.0014
          33   -0.0001    0.0000    0.0000    0.0000    0.0000    0.0323    0.0000    0.0000
          34    0.0190   -0.0061    0.0336   -0.0304    0.0001    0.0000    0.0002   -0.0207
          35   -0.2537   -0.1195   -0.1223    0.0513    0.0000    0.0000    0.0015    0.0045
          36    0.0530    0.0403    0.0075    0.0219   -0.0001    0.0000   -0.0013   -0.0008
          37   -0.0200   -0.0064    0.0335   -0.0305    0.0001    0.0000    0.0002   -0.0206
          38    0.2555   -0.1183   -0.1215    0.0509    0.0000    0.0000    0.0015    0.0045
          39    0.0509   -0.0393   -0.0067   -0.0222    0.0001    0.0000    0.0013    0.0009
          40   -0.0005    0.1280    0.1570   -0.0989    0.0001    0.0000   -0.0035    0.0499
          41    0.0014   -0.0042   -0.0045    0.0004    0.0000    0.0000   -0.0015    0.0026
          42    0.4282    0.0010    0.0005   -0.0001    0.0000    0.0000    0.0000    0.0000
          43    0.0001    0.0068   -0.0105   -0.0117   -0.0010   -0.0003   -0.0004   -0.0002
          44   -0.0002    0.0667   -0.0595   -0.0307   -0.0022   -0.0015   -0.0015   -0.0005
          45    0.0000   -0.0175    0.0102   -0.0006    0.1132    0.0945   -0.0040   -0.0006
          46   -0.0001    0.0068   -0.0105   -0.0118   -0.0011    0.0004   -0.0003   -0.0002
          47   -0.0002    0.0667   -0.0595   -0.0307   -0.0020    0.0014   -0.0015   -0.0005
          48   -0.0001    0.0176   -0.0103    0.0005   -0.1132    0.0945    0.0039    0.0005
          49    0.0001   -0.0087   -0.0189    0.0249   -0.0004    0.0000    0.0071   -0.0769
          50    0.0002   -0.0133   -0.0175    0.0054    0.0000    0.0000   -0.0026    0.1110
          51   -0.0023    0.0000    0.0000    0.0000    0.0000   -0.0001    0.0000   -0.0002
          52    0.0000    0.0069   -0.0066   -0.0050   -0.0103   -0.0048    0.0007    0.0002
          53   -0.0003    0.0612   -0.0379   -0.0005   -0.0795   -0.0454    0.0050    0.0009
          54   -0.0001    0.0297   -0.0256   -0.0122    0.0469    0.1138   -0.0022   -0.0004
          55   -0.0001    0.0069   -0.0065   -0.0050   -0.0103    0.0049    0.0007    0.0001
          56   -0.0002    0.0612   -0.0380   -0.0005   -0.0794    0.0452    0.0050    0.0009
          57    0.0001   -0.0296    0.0256    0.0122   -0.0470    0.1139    0.0021    0.0003
          58   -0.0001    0.0126   -0.0064    0.0633    0.0027    0.0000    0.0564    0.0713
          59   -0.0001    0.0166    0.0110    0.0270   -0.0006    0.0000   -0.0167   -0.1234
          60    0.0013    0.0000    0.0000    0.0000    0.0000   -0.0002    0.0000    0.0003
          61    0.0000    0.0110   -0.0134    0.0148    0.0035    0.0000    0.1473    0.0228
          62    0.0000    0.0204   -0.0138    0.0458   -0.0010    0.0000   -0.0285    0.0115
          63    0.0000    0.0000    0.0000    0.0000    0.0000    0.0016    0.0001    0.0000
          64   -0.0001    0.0016    0.0184    0.0366   -0.0035    0.0000   -0.1437   -0.0182
          65    0.0001   -0.0110   -0.0193   -0.0682    0.0007    0.0000   -0.0175   -0.0060
          66    0.0000    0.0000    0.0000    0.0001    0.0000   -0.0013    0.0000    0.0000


   Root No.      49        50        51        52        53        54        55        56

                49 A      50 A      51 A      52 A      53 A      54 A      55 A      56 A   

                2876.3    2984.9    3028.7    3068.3    3075.1    3086.4    3132.2    3134.8
  
           1   -0.0583   -0.0001    0.0008    0.0000    0.0000    0.0000    0.0000    0.0001
           2    0.0440    0.0002   -0.0003    0.0000    0.0000    0.0006    0.0000    0.0004
           3    0.0001    0.0000    0.0000    0.0000    0.0000    0.0000   -0.0002    0.0000
           4    0.0000    0.0016   -0.0011   -0.0001   -0.0218    0.0020    0.0000    0.0000
           5    0.0000    0.0035   -0.0018   -0.0002   -0.0418    0.0038    0.0000    0.0000
           6    0.0000    0.0000    0.0000   -0.0577    0.0002   -0.0001    0.0000    0.0000
           7   -0.0008   -0.0006   -0.0006    0.0000   -0.0001   -0.0004    0.0000    0.0000
[...]
 FREQ.      1355.69        C 10 --  H 21          +16.8% ( 53.2%)     1.3%
 T-DIPOLE    0.0253        C 10 --  H 22          +14.2% ( 49.0%)     3.4%
 TRAVEL      0.0958        C  1 --  C  3           +9.2% ( 39.3%)    18.8%
 RED. MASS   0.4615        C  3 --  C  7           +9.0% ( 39.0%)    87.8%
 EFF. MASS   5.4240

 VIBRATION   40   40A       ATOM PAIR        ENERGY CONTRIBUTION    RADIAL
 FREQ.      1387.16        C  2 --  H 13          +29.4% ( 57.9%)     3.9%
 T-DIPOLE    0.1051        C  2 --  H 12          +29.4% ( 57.9%)     4.0%
 TRAVEL      0.1207        C  2 --  C  6          +10.3% ( 34.3%)    88.8%
 RED. MASS   0.5016        C  2 --  H 14           +6.8% ( 27.9%)     9.6%
 EFF. MASS   3.3376

 VIBRATION   41   41A       ATOM PAIR        ENERGY CONTRIBUTION    RADIAL
 FREQ.      1394.65        C  2 --  H 14          +54.0% ( 63.5%)     0.0%
 T-DIPOLE    0.0640        C  2 --  H 13          +20.6% ( 39.2%)    11.5%
 TRAVEL      0.1758        C  2 --  H 12          +20.4% ( 39.0%)    11.5%
 RED. MASS   0.4221        C  2 --  C  6           +5.1% ( 19.5%)     0.0%
 EFF. MASS   1.5642

 VIBRATION   42   42A       ATOM PAIR        ENERGY CONTRIBUTION    RADIAL
 FREQ.      1404.94        C  8 --  C  9          +19.6% ( 64.4%)   100.0%
 T-DIPOLE    0.2029        C  4 --  C  9           +8.0% ( 41.2%)    99.3%
 TRAVEL      0.0785        C  5 --  C  8           +8.0% ( 41.2%)    99.3%
 RED. MASS   1.0484        C  5 --  C  9           +7.7% ( 40.5%)     0.0%
 EFF. MASS   7.7983

 VIBRATION   43   43A       ATOM PAIR        ENERGY CONTRIBUTION    RADIAL
 FREQ.      1417.59        C  2 --  H 14          +11.0% ( 47.6%)     6.9%
 T-DIPOLE    0.1657        C  2 --  H 12           +9.3% ( 43.7%)     1.8%
 TRAVEL      0.0811        C  2 --  H 13           +9.2% ( 43.6%)     1.8%
 RED. MASS   0.7527        C  8 --  C  9           +8.8% ( 42.6%)   100.0%
 EFF. MASS   7.2402

 VIBRATION   44   44A       ATOM PAIR        ENERGY CONTRIBUTION    RADIAL
 FREQ.      1479.59        C  1 --  C  3          +22.8% ( 73.8%)    94.4%
 T-DIPOLE    0.2774        C  3 --  C  7          +19.3% ( 67.9%)    87.1%
 TRAVEL      0.0641        C  3 --  C 10          +12.2% ( 54.0%)     0.1%
 RED. MASS   2.9753        C  2 --  C  6           +7.2% ( 41.6%)    95.4%
 EFF. MASS  11.0999

 VIBRATION   45   45A       ATOM PAIR        ENERGY CONTRIBUTION    RADIAL
 FREQ.      1727.75        C  4 --  C  8          +18.2% ( 72.7%)    99.9%
 T-DIPOLE    0.3198        C  5 --  C  9          +18.2% ( 72.7%)    99.9%
 TRAVEL      0.0570        C  4 --  C  9          +10.7% ( 55.7%)    26.0%
 RED. MASS   2.7109        C  5 --  C  8          +10.7% ( 55.7%)    26.0%
 EFF. MASS  12.0261

 VIBRATION   46   46A       ATOM PAIR        ENERGY CONTRIBUTION    RADIAL
 FREQ.      1786.78        C  5 --  C  9          +17.9% ( 70.1%)    99.8%
 T-DIPOLE    0.3298        C  4 --  C  8          +17.9% ( 70.1%)    99.8%
 TRAVEL      0.0565        C  8 --  C  9          +12.2% ( 57.9%)     0.0%
 RED. MASS   2.6870        C  4 --  C  9          +10.9% ( 54.7%)    65.5%
 EFF. MASS  11.8015        C  5 --  C  8          +10.9% ( 54.7%)    65.5%

 VIBRATION   47   47A       ATOM PAIR        ENERGY CONTRIBUTION    RADIAL
 FREQ.      1852.26        C  3 --  C 10          +44.0% ( 98.1%)   100.0%
 T-DIPOLE    0.2389        C  3 --  C  7          +17.6% ( 62.0%)    40.8%
 TRAVEL      0.0554        C  1 --  C  3          +17.2% ( 61.4%)    31.9%
 RED. MASS   5.4847        C 10 --  H 22           +9.8% ( 46.4%)    10.1%
 EFF. MASS  11.8423

 VIBRATION   48   48A       ATOM PAIR        ENERGY CONTRIBUTION    RADIAL
 FREQ.      1869.37        C  6 --  C  7          +43.1% ( 96.8%)    96.3%
 T-DIPOLE    0.7321        C  2 --  C  6          +14.5% ( 56.2%)    58.4%
 TRAVEL      0.0553        C  3 --  C  7          +14.1% ( 55.3%)    44.3%
 RED. MASS   5.2639        C  6 --  H 17          +13.4% ( 54.1%)     2.7%
 EFF. MASS  11.7886        C  7 --  H 20          +13.0% ( 53.3%)     3.9%

 VIBRATION   49   49A       ATOM PAIR        ENERGY CONTRIBUTION    RADIAL
 FREQ.      2876.28        C  1 --  H 11          +96.8% (100.0%)   100.0%
 T-DIPOLE    0.2114        C  1 --  C  3           +1.0% ( 10.4%)    11.5%
 TRAVEL      0.1275        C  1 --  C  4           +1.0% ( 10.4%)     9.7%
 RED. MASS   0.9295        C  1 --  C  5           +1.0% ( 10.4%)     9.7%
 EFF. MASS   1.4425

 VIBRATION   50   50A       ATOM PAIR        ENERGY CONTRIBUTION    RADIAL
 FREQ.      2984.86        C  6 --  H 17          +94.3% ( 98.7%)    99.9%
 T-DIPOLE    0.2659        C 10 --  H 22           +2.5% ( 15.9%)    99.6%
 TRAVEL      0.1224        C  6 --  C  7           +1.4% ( 12.1%)    35.8%
 RED. MASS   0.8795        C  2 --  C  6           +1.3% ( 11.7%)    14.5%
 EFF. MASS   1.5087

 VIBRATION   51   51A       ATOM PAIR        ENERGY CONTRIBUTION    RADIAL
 FREQ.      3028.70        C  7 --  H 20          +96.9% ( 99.9%)   100.0%
 T-DIPOLE    0.3209        C  6 --  C  7           +1.6% ( 12.8%)    38.9%
 TRAVEL      0.1207        C  3 --  C  7           +1.5% ( 12.2%)    15.5%
 RED. MASS   0.9279
 EFF. MASS   1.5271

 VIBRATION   52   52A       ATOM PAIR        ENERGY CONTRIBUTION    RADIAL
 FREQ.      3068.33        C  2 --  H 13          +49.1% ( 72.3%)    97.0%
 T-DIPOLE    0.0309        C  2 --  H 12          +49.0% ( 72.2%)    97.0%
 TRAVEL      0.1210        C  2 --  C  6           +1.0% ( 10.2%)     0.0%
 RED. MASS   0.5093        C  2 --  H 14           +0.9% (  9.9%)     0.0%
 EFF. MASS   1.5010

 VIBRATION   53   53A       ATOM PAIR        ENERGY CONTRIBUTION    RADIAL
 FREQ.      3075.11        C  2 --  H 14          +62.8% ( 81.7%)    98.8%
 T-DIPOLE    0.0636        C  2 --  H 13          +17.7% ( 43.4%)    85.1%
 TRAVEL      0.1205        C  2 --  H 12          +17.6% ( 43.3%)    85.1%
 RED. MASS   0.4861        C  2 --  C  6           +1.0% ( 10.4%)     0.0%
 EFF. MASS   1.5097

 VIBRATION   54   54A       ATOM PAIR        ENERGY CONTRIBUTION    RADIAL
 FREQ.      3086.39        C 10 --  H 22          +93.9% ( 97.7%)    99.8%
 T-DIPOLE    0.2204        C  6 --  H 17           +2.3% ( 15.3%)   100.0%
 TRAVEL      0.1219        C 10 --  H 21           +1.8% ( 13.7%)     1.8%
 RED. MASS   0.8535        C  3 --  C 10           +1.4% ( 11.7%)    48.6%
 EFF. MASS   1.4707

 VIBRATION   55   55A       ATOM PAIR        ENERGY CONTRIBUTION    RADIAL
 FREQ.      3132.24        C  8 --  H 18          +38.0% ( 63.2%)   100.0%
 T-DIPOLE    0.0733        C  9 --  H 19          +37.0% ( 62.4%)   100.0%
 TRAVEL      0.1201        C  4 --  H 15          +10.5% ( 33.2%)   100.0%
 RED. MASS   0.3085        C  5 --  H 16          +10.1% ( 32.5%)   100.0%
 EFF. MASS   1.4916

 VIBRATION   56   56A       ATOM PAIR        ENERGY CONTRIBUTION    RADIAL
 FREQ.      3134.82        C  9 --  H 19          +29.7% ( 55.7%)   100.0%
 T-DIPOLE    0.5209        C  8 --  H 18          +28.7% ( 54.9%)   100.0%
 TRAVEL      0.1208        C  5 --  H 16          +19.0% ( 44.6%)   100.0%
 RED. MASS   0.2439        C  4 --  H 15          +18.5% ( 44.0%)   100.0%
 EFF. MASS   1.4743

 VIBRATION   57   57A       ATOM PAIR        ENERGY CONTRIBUTION    RADIAL
 FREQ.      3145.97        C 10 --  H 21          +96.1% ( 99.5%)   100.0%
 T-DIPOLE    0.3026        C 10 --  H 22           +2.4% ( 15.6%)    42.9%
 TRAVEL      0.1185        C  3 --  C 10           +1.4% ( 12.2%)    34.8%
 RED. MASS   0.9168
 EFF. MASS   1.5258

 VIBRATION   58   58A       ATOM PAIR        ENERGY CONTRIBUTION    RADIAL
 FREQ.      3147.78        C  4 --  H 15          +37.2% ( 62.7%)   100.0%
 T-DIPOLE    0.5962        C  5 --  H 16          +37.1% ( 62.6%)   100.0%
 TRAVEL      0.1161        C  9 --  H 19          +10.1% ( 32.7%)    99.8%
 RED. MASS   0.3090        C  8 --  H 18          +10.0% ( 32.6%)    99.8%
 EFF. MASS   1.5889

 VIBRATION   59   59A       ATOM PAIR        ENERGY CONTRIBUTION    RADIAL
 FREQ.      3157.08        C  5 --  H 16          +28.6% ( 55.0%)    99.9%
 T-DIPOLE    0.1854        C  4 --  H 15          +28.5% ( 55.0%)    99.9%
 TRAVEL      0.1122        C  9 --  H 19          +18.2% ( 43.9%)   100.0%
 RED. MASS   0.2459        C  8 --  H 18          +18.1% ( 43.8%)   100.0%
 EFF. MASS   1.6959

 VIBRATION   60   60A       ATOM PAIR        ENERGY CONTRIBUTION    RADIAL
 FREQ.      3168.03        C  2 --  H 14          +35.2% ( 57.1%)    97.3%
 T-DIPOLE    0.0811        C  2 --  H 12          +32.3% ( 54.7%)    97.0%
 TRAVEL      0.1367        C  2 --  H 13          +32.2% ( 54.7%)    97.0%
 RED. MASS   0.3275        C  2 --  C  6           +0.3% (  5.4%)   100.0%
 EFF. MASS   1.1394

 SYMMETRY NUMBER FOR POINT-GROUP C1  =  1


          SYSTEM IS A GROUND STATE


    NULL



          MOLECULE IS NOT LINEAR

          THERE ARE 60 GENUINE VIBRATIONS IN THIS SYSTEM
          THIS THERMODYNAMICS CALCULATION IS LIMITED TO
          MOLECULES WHICH HAVE NO INTERNAL ROTATIONS




                    CALCULATED THERMODYNAMIC PROPERTIES
                                          *
   TEMP. (K)   PARTITION FUNCTION   H.O.F.    ENTHALPY  HEAT CAPACITY ENTROPY
                                   KCAL/MOL   CAL/MOLE    CAL/K/MOL  CAL/K/MOL


 298.00  VIB.     0.2012D+04                  4615.0275    31.6463    30.6026
         ROT.     0.7362D+06                   888.2813     2.9808    29.8266
         INT.     0.1481D+10                  5503.3088    34.6271    60.4292
         TRA.     0.1470D+28                  1480.4688     4.9680    40.5480
         TOT.                       59.178    6983.7777    39.5951   100.9772

 200.00  VIB.     0.1553D+03                  2095.6578    20.0838    20.5042
         ROT.     0.4048D+06                   596.1620     2.9808    28.6379
         INT.     0.6286D+08                  2691.8198    23.0646    49.1421
         TRA.     0.8080D+27                   993.6033     4.9680    38.5668
         TOT.                       55.879    3685.4230    28.0326    87.7089

 210.00  VIB.     0.2020D+03                  2301.8386    21.1579    21.5099
         ROT.     0.4355D+06                   625.9700     2.9808    28.7834
         INT.     0.8799D+08                  2927.8087    24.1387    50.2933
         TRA.     0.8694D+27                  1043.2834     4.9680    38.8092
         TOT.                       56.165    3971.0921    29.1067    89.1025

 220.00  VIB.     0.2626D+03                  2518.9223    22.2640    22.5196
         ROT.     0.4670D+06                   655.7781     2.9808    28.9220
         INT.     0.1226D+09                  3174.7004    25.2448    51.4416
         TRA.     0.9322D+27                  1092.9636     4.9680    39.0403
         TOT.                       56.461    4267.6640    30.2129    90.4820

 230.00  VIB.     0.3411D+03                  2747.2183    23.3999    23.5342
         ROT.     0.4992D+06                   685.5862     2.9808    29.0545
         INT.     0.1703D+09                  3432.8045    26.3807    52.5888
         TRA.     0.9965D+27                  1142.6437     4.9680    39.2612
         TOT.                       56.769    4575.4483    31.3487    91.8499

 240.00  VIB.     0.4429D+03                  2987.0088    24.5624    24.5546
         ROT.     0.5321D+06                   715.3943     2.9808    29.1814
         INT.     0.2357D+09                  3702.4031    27.5432    53.7360
         TRA.     0.1062D+28                  1192.3239     4.9680    39.4726
         TOT.                       57.089    4894.7270    32.5112    93.2086

 250.00  VIB.     0.5749D+03                  3238.5433    25.7481    25.5812
         ROT.     0.5657D+06                   745.2024     2.9808    29.3031
         INT.     0.3252D+09                  3983.7458    28.7289    54.8843
         TRA.     0.1129D+28                  1242.0041     4.9680    39.6754
         TOT.                       57.420    5225.7498    33.6969    94.5597

 260.00  VIB.     0.7461D+03                  3502.0362    26.9534    26.6145
         ROT.     0.6000D+06                   775.0105     2.9808    29.4200
         INT.     0.4477D+09                  4277.0467    29.9342    56.0345
         TRA.     0.1198D+28                  1291.6842     4.9680    39.8703
         TOT.                       57.763    5568.7309    34.9022    95.9048

 270.00  VIB.     0.9684D+03                  3777.6643    28.1745    27.6546
         ROT.     0.6350D+06                   804.8186     2.9808    29.5325
         INT.     0.6149D+09                  4582.4829    31.1553    57.1871
         TRA.     0.1267D+28                  1341.3644     4.9680    40.0578
         TOT.                       58.118    5923.8473    36.1234    97.2448

 280.00  VIB.     0.1257D+04                  4065.5670    29.4077    28.7015
         ROT.     0.6706D+06                   834.6267     2.9808    29.6409
         INT.     0.8429D+09                  4900.1938    32.3885    58.3424
         TRA.     0.1338D+28                  1391.0445     4.9680    40.2384
         TOT.                       58.485    6291.2383    37.3565    98.5808

 290.00  VIB.     0.1632D+04                  4365.8467    30.6493    29.7551
         ROT.     0.7068D+06                   864.4348     2.9808    29.7455
         INT.     0.1153D+10                  5230.2815    33.6301    59.5006
         TRA.     0.1411D+28                  1440.7247     4.9680    40.4128
         TOT.                       58.865    6671.0062    38.5981    99.9134

 300.00  VIB.     0.2120D+04                  4678.5696    31.8958    30.8152
         ROT.     0.7437D+06                   894.2429     2.9808    29.8465
         INT.     0.1576D+10                  5572.8125    34.8766    60.6617
         TRA.     0.1484D+28                  1490.4049     4.9680    40.5812
         TOT.                       59.257    7063.2174    39.8446   101.2429

 310.00  VIB.     0.2754D+04                  5003.7680    33.1439    31.8814
         ROT.     0.7812D+06                   924.0510     2.9808    29.9443
         INT.     0.2151D+10                  5927.8190    36.1247    61.8256
         TRA.     0.1559D+28                  1540.0850     4.9680    40.7441
         TOT.                       59.662    7467.9041    41.0927   102.5697

 320.00  VIB.     0.3580D+04                  5341.4425    34.3905    32.9533
         ROT.     0.8193D+06                   953.8591     2.9808    30.0389
         INT.     0.2933D+10                  6295.3016    37.3713    62.9923
         TRA.     0.1635D+28                  1589.7652     4.9680    40.9018
         TOT.                       60.079    7885.0668    42.3393   103.8941

 330.00  VIB.     0.4655D+04                  5691.5642    35.6329    34.0306
         ROT.     0.8580D+06                   983.6672     2.9808    30.1306
         INT.     0.3994D+10                  6675.2315    38.6137    64.1613
         TRA.     0.1713D+28                  1639.4454     4.9680    41.0547
         TOT.                       60.508    8314.6768    43.5817   105.2160

 340.00  VIB.     0.6057D+04                  6054.0778    36.8685    35.1127
         ROT.     0.8973D+06                  1013.4753     2.9808    30.2196
         INT.     0.5435D+10                  7067.5531    39.8493    65.3324
         TRA.     0.1791D+28                  1689.1255     4.9680    41.2030
         TOT.                       60.950    8756.6786    44.8173   106.5354

 350.00  VIB.     0.7886D+04                  6428.9036    38.0950    36.1992
         ROT.     0.9371D+06                  1043.2834     2.9808    30.3060
         INT.     0.7390D+10                  7472.1871    41.0758    66.5052
         TRA.     0.1871D+28                  1738.8057     4.9680    41.3470
         TOT.                       61.405    9210.9927    46.0438   107.8522

 360.00  VIB.     0.1027D+05                  6815.9411    39.3105    37.2894
         ROT.     0.9776D+06                  1073.0915     2.9808    30.3900
         INT.     0.1004D+11                  7889.0327    42.2913    67.6794
         TRA.     0.1951D+28                  1788.4859     4.9680    41.4870
         TOT.                       61.871    9677.5185    47.2593   109.1664

 370.00  VIB.     0.1339D+05                  7215.0710    40.5132    38.3829
         ROT.     0.1019D+07                  1102.8996     2.9808    30.4717
         INT.     0.1364D+11                  8317.9706    43.4940    68.8546
         TRA.     0.2033D+28                  1838.1660     4.9680    41.6231
         TOT.                       62.350   10156.1366    48.4620   110.4777

 380.00  VIB.     0.1746D+05                  7626.1576    41.7016    39.4791
         ROT.     0.1060D+07                  1132.7077     2.9808    30.5512
         INT.     0.1851D+11                  8758.8653    44.6824    70.0303
         TRA.     0.2116D+28                  1887.8462     4.9680    41.7556
         TOT.                       62.841   10646.7114    49.6505   111.7859

 390.00  VIB.     0.2278D+05                  8049.0517    42.8745    40.5776
         ROT.     0.1102D+07                  1162.5158     2.9808    30.6286
         INT.     0.2511D+11                  9211.5675    45.8553    71.2062
         TRA.     0.2200D+28                  1937.5263     4.9680    41.8846
         TOT.                       63.343   11149.0939    50.8233   113.0908

 400.00  VIB.     0.2974D+05                  8483.5927    44.0308    41.6777
         ROT.     0.1145D+07                  1192.3239     2.9808    30.7041
         INT.     0.3405D+11                  9675.9166    47.0116    72.3817
         TRA.     0.2285D+28                  1987.2065     4.9680    42.0104
         TOT.                       63.857   11663.1231    51.9797   114.3921

   *: NOTE: HEATS OF FORMATION ARE RELATIVE TO THE
            ELEMENTS IN THEIR STANDARD STATE AT 298K
              (=  Standard Enthalpy of Formation).

            Hvib:  Zero-point energy is not included.
                   frequencies of less than zero cm-1 are not included.
            Hrot = (3/2)RT
            Htra = (3/2)RT + pV = (5/2)RT

            Heat capacity is Cp, not Cv

           For more information, see: HTTP://OpenMOPAC.net/Manual/thermochemistry.html


           FORCE CONSTANT IN CARTESIAN COORDINATES (Millidynes/A)

    ATOM   CHEMICAL       X               Y               Z
   NUMBER   SYMBOL  FORCE CONSTANT  FORCE CONSTANT  FORCE CONSTANT

      1       C        8.473742       10.151286        7.416415
      2       C        8.957262        8.593500        7.927764
      3       C       10.136826       15.205415        2.735671
      4       C        2.601425       12.493985       11.518592
      5       C        2.600683       12.503055       11.509314
      6       C       14.294769       10.264758        2.363816
      7       C       14.256960       10.929966        2.210668
      8       C        2.417774       14.865165       10.046563
      9       C        2.417573       14.864402       10.048467
     10       C        9.349232       15.034901        1.934505
     11       H        3.212381        2.070929        0.577317
     12       H        1.911544        0.993715        3.744008
     13       H        1.901869        0.980575        3.766139
     14       H        0.819112        5.286897        0.654749
     15       H        0.355188        1.158396        4.944875
     16       H        0.354826        1.162894        4.940770
     17       H        0.822595        4.903708        0.374386
     18       H        0.414013        3.920904        2.117420
     19       H        0.414465        3.913960        2.124122
     20       H        0.798280        5.023310        0.346400
     21       H        4.136756        1.995892        0.325705
     22       H        3.839964        2.129561        0.351306



 TOTAL CPU TIME:             3.38 SECONDS

 == MOPAC DONE ==
