 *******************************************************************************
 ** Site#: 14399           For non-commercial use only        Version 13.159M **
 *******************************************************************************
 ** Cite this work as: MOPAC2012, James J. P. Stewart, Stewart Computational  **
 ** Chemistry, Version 13.159M web: HTTP://OpenMOPAC.net  Days remaining:   6 **
 *******************************************************************************
 **                                                                           **
 **                                MOPAC2012                                  **
 **                                                                           **
 *******************************************************************************

                            PM3 CALCULATION RESULTS


 *******************************************************************************
 *  CALCULATION DONE:                                Mon Jun  2 11:13:10 2014  *
 *  PM3      - The PM3 Hamiltonian to be used
 *  PRECISE  - CRITERIA TO BE INCREASED BY 100 TIMES
 *  NOSYM    - POINT-GROUP SYMMETRY SET TO C1
 *  T=       - A TIME OF 172800.0 SECONDS REQUESTED
 *  DUMP=N   - RESTART FILE WRITTEN EVERY  7200.000 SECONDS
 *******************************************************************************
pm3  precise nosym
 InChI=1S/C10H14/c1-2-3-4-7-10-8-5-6-9-10/h2,5-6,8-10H,1,3-4,7H2

   ATOM   CHEMICAL          X               Y               Z
  NUMBER   SYMBOL      (ANGSTROMS)     (ANGSTROMS)     (ANGSTROMS)
 
     1       C         -1.64550000  *  -0.45560000  *   0.58880000  *
     2       C         -0.29010000  *   0.26450000  *   0.60450000  *
     3       C          0.78350000  *  -0.44700000  *  -0.22690000  *
     4       C          2.14050000  *   0.25750000  *  -0.14710000  *
     5       C         -2.35520000  *  -0.36370000  *  -0.72920000  *
     6       C         -2.64520000  *   0.22860000  *   1.47100000  *
     7       C          3.19560000  *  -0.43620000  *  -0.96260000  *
     8       C         -3.51470000  *   0.25980000  *  -0.60700000  *
     9       C         -3.69750000  *   0.63390000  *   0.78060000  *
    10       C          4.44600000  *   0.02730000  *  -1.02140000  *
    11       H         -1.54010000  *  -1.52010000  *   0.90230000  *
    12       H         -0.40820000  *   1.31500000  *   0.24620000  *
    13       H          0.06420000  *   0.31820000  *   1.66110000  *
    14       H          0.46230000  *  -0.48710000  *  -1.29370000  *
    15       H          0.89390000  *  -1.49580000  *   0.13690000  *
    16       H          2.47700000  *   0.29420000  *   0.91550000  *
    17       H          2.03500000  *   1.30510000  *  -0.51480000  *
    18       H         -1.98560000  *  -0.76400000  *  -1.66780000  *
    19       H         -2.53320000  *   0.37320000  *   2.54100000  *
    20       H          2.95000000  *  -1.33800000  *  -1.52340000  *
    21       H         -4.21380000  *   0.44580000  *  -1.41560000  *
    22       H         -4.55650000  *   1.15150000  *   1.19440000  *
    23       H          4.74390000  *   0.92410000  *  -0.48020000  *
    24       H          5.19390000  *  -0.49130000  *  -1.61830000  *
 


          CARTESIAN COORDINATES 

    NO.       ATOM         X         Y         Z

     1         C       -1.6455   -0.4556    0.5888
     2         C       -0.2901    0.2645    0.6045
     3         C        0.7835   -0.4470   -0.2269
     4         C        2.1405    0.2575   -0.1471
     5         C       -2.3552   -0.3637   -0.7292
     6         C       -2.6452    0.2286    1.4710
     7         C        3.1956   -0.4362   -0.9626
     8         C       -3.5147    0.2598   -0.6070
     9         C       -3.6975    0.6339    0.7806
    10         C        4.4460    0.0273   -1.0214
    11         H       -1.5401   -1.5201    0.9023
    12         H       -0.4082    1.3150    0.2462
    13         H        0.0642    0.3182    1.6611
    14         H        0.4623   -0.4871   -1.2937
    15         H        0.8939   -1.4958    0.1369
    16         H        2.4770    0.2942    0.9155
    17         H        2.0350    1.3051   -0.5148
    18         H       -1.9856   -0.7640   -1.6678
    19         H       -2.5332    0.3732    2.5410
    20         H        2.9500   -1.3380   -1.5234
    21         H       -4.2138    0.4458   -1.4156
    22         H       -4.5565    1.1515    1.1944
    23         H        4.7439    0.9241   -0.4802
    24         H        5.1939   -0.4913   -1.6183

  H: (PM3): J. J. P. STEWART, J. COMP. CHEM. 10, 209 (1989).
  C: (PM3): J. J. P. STEWART, J. COMP. CHEM. 10, 209 (1989).

           Empirical Formula: C10 H14  =    24 atoms



      MOLECULAR POINT GROUP   :   C1  


      RHF CALCULATION, NO. OF DOUBLY OCCUPIED LEVELS =   27

      Geometry optimization using EF

          DIAGONAL MATRIX USED AS START HESSIAN

 CYCLE:     1 TIME:   0.011 TIME LEFT:  2.00D  GRAD.:   109.933 HEAT: 40.98787
 CYCLE:     2 TIME:   0.023 TIME LEFT:  2.00D  GRAD.:    72.157 HEAT: 39.46288
 CYCLE:     3 TIME:   0.008 TIME LEFT:  2.00D  GRAD.:    34.175 HEAT: 38.18719
 CYCLE:     4 TIME:   0.015 TIME LEFT:  2.00D  GRAD.:    53.100 HEAT: 38.14135
 CYCLE:     5 TIME:   0.008 TIME LEFT:  2.00D  GRAD.:    38.659 HEAT: 37.70442
 CYCLE:     6 TIME:   0.015 TIME LEFT:  2.00D  GRAD.:    25.764 HEAT: 37.39189
 CYCLE:     7 TIME:   0.008 TIME LEFT:  2.00D  GRAD.:    20.334 HEAT: 37.15914
 CYCLE:     8 TIME:   0.012 TIME LEFT:  2.00D  GRAD.:    35.817 HEAT: 37.09495
 CYCLE:     9 TIME:   0.020 TIME LEFT:  2.00D  GRAD.:    31.802 HEAT: 37.00763
 CYCLE:    10 TIME:   0.010 TIME LEFT:  2.00D  GRAD.:    35.121 HEAT: 36.99505
 CYCLE:    11 TIME:   0.009 TIME LEFT:  2.00D  GRAD.:    19.125 HEAT: 36.84815
 CYCLE:    12 TIME:   0.016 TIME LEFT:  2.00D  GRAD.:    18.132 HEAT: 36.78091
 CYCLE:    13 TIME:   0.015 TIME LEFT:  2.00D  GRAD.:     7.812 HEAT: 36.72326
 CYCLE:    14 TIME:   0.014 TIME LEFT:  2.00D  GRAD.:     5.269 HEAT: 36.70556
 CYCLE:    15 TIME:   0.009 TIME LEFT:  2.00D  GRAD.:     5.107 HEAT: 36.68440
 CYCLE:    16 TIME:   0.010 TIME LEFT:  2.00D  GRAD.:     5.702 HEAT: 36.65861
 CYCLE:    17 TIME:   0.009 TIME LEFT:  2.00D  GRAD.:     7.993 HEAT: 36.62985
 CYCLE:    18 TIME:   0.009 TIME LEFT:  2.00D  GRAD.:     7.388 HEAT: 36.59609
 CYCLE:    19 TIME:   0.015 TIME LEFT:  2.00D  GRAD.:     9.949 HEAT: 36.58550
 CYCLE:    20 TIME:   0.010 TIME LEFT:  2.00D  GRAD.:     8.179 HEAT: 36.56750
 CYCLE:    21 TIME:   0.014 TIME LEFT:  2.00D  GRAD.:     6.633 HEAT: 36.55702
 CYCLE:    22 TIME:   0.008 TIME LEFT:  2.00D  GRAD.:     3.707 HEAT: 36.54344
 CYCLE:    23 TIME:   0.014 TIME LEFT:  2.00D  GRAD.:     4.539 HEAT: 36.54144
 CYCLE:    24 TIME:   0.008 TIME LEFT:  2.00D  GRAD.:     1.818 HEAT: 36.53310
 CYCLE:    25 TIME:   0.008 TIME LEFT:  2.00D  GRAD.:     2.674 HEAT: 36.53121
 CYCLE:    26 TIME:   0.008 TIME LEFT:  2.00D  GRAD.:     2.565 HEAT: 36.52912
 CYCLE:    27 TIME:   0.008 TIME LEFT:  2.00D  GRAD.:     2.496 HEAT: 36.52813
 CYCLE:    28 TIME:   0.008 TIME LEFT:  2.00D  GRAD.:     2.900 HEAT: 36.52752
 CYCLE:    29 TIME:   0.007 TIME LEFT:  2.00D  GRAD.:     1.742 HEAT: 36.52449
 CYCLE:    30 TIME:   0.008 TIME LEFT:  2.00D  GRAD.:     1.901 HEAT: 36.52289
 CYCLE:    31 TIME:   0.008 TIME LEFT:  2.00D  GRAD.:     1.606 HEAT: 36.51977
 CYCLE:    32 TIME:   0.008 TIME LEFT:  2.00D  GRAD.:     1.612 HEAT: 36.51451
 CYCLE:    33 TIME:   0.008 TIME LEFT:  2.00D  GRAD.:     2.419 HEAT: 36.51008
 CYCLE:    34 TIME:   0.008 TIME LEFT:  2.00D  GRAD.:     2.399 HEAT: 36.50638
 CYCLE:    35 TIME:   0.008 TIME LEFT:  2.00D  GRAD.:     1.834 HEAT: 36.50142
 CYCLE:    36 TIME:   0.008 TIME LEFT:  2.00D  GRAD.:     2.350 HEAT: 36.49444
 CYCLE:    37 TIME:   0.008 TIME LEFT:  2.00D  GRAD.:     2.238 HEAT: 36.48894
 CYCLE:    38 TIME:   0.008 TIME LEFT:  2.00D  GRAD.:     1.639 HEAT: 36.48399
 CYCLE:    39 TIME:   0.008 TIME LEFT:  2.00D  GRAD.:     1.498 HEAT: 36.47780
 CYCLE:    40 TIME:   0.008 TIME LEFT:  2.00D  GRAD.:     1.254 HEAT: 36.47514
 CYCLE:    41 TIME:   0.008 TIME LEFT:  2.00D  GRAD.:     0.907 HEAT: 36.47355
 CYCLE:    42 TIME:   0.008 TIME LEFT:  2.00D  GRAD.:     0.994 HEAT: 36.47230
 CYCLE:    43 TIME:   0.008 TIME LEFT:  2.00D  GRAD.:     1.029 HEAT: 36.47073
 CYCLE:    44 TIME:   0.008 TIME LEFT:  2.00D  GRAD.:     0.849 HEAT: 36.46877
 CYCLE:    45 TIME:   0.008 TIME LEFT:  2.00D  GRAD.:     0.683 HEAT: 36.46755
 CYCLE:    46 TIME:   0.008 TIME LEFT:  2.00D  GRAD.:     0.696 HEAT: 36.46632
 CYCLE:    47 TIME:   0.008 TIME LEFT:  2.00D  GRAD.:     0.632 HEAT: 36.46546
 CYCLE:    48 TIME:   0.008 TIME LEFT:  2.00D  GRAD.:     0.425 HEAT: 36.46488
 CYCLE:    49 TIME:   0.008 TIME LEFT:  2.00D  GRAD.:     0.427 HEAT: 36.46439
 CYCLE:    50 TIME:   0.008 TIME LEFT:  2.00D  GRAD.:     0.534 HEAT: 36.46388
 CYCLE:    51 TIME:   0.008 TIME LEFT:  2.00D  GRAD.:     0.554 HEAT: 36.46329
 CYCLE:    52 TIME:   0.008 TIME LEFT:  2.00D  GRAD.:     0.493 HEAT: 36.46263
 CYCLE:    53 TIME:   0.008 TIME LEFT:  2.00D  GRAD.:     0.548 HEAT: 36.46183
 CYCLE:    54 TIME:   0.008 TIME LEFT:  2.00D  GRAD.:     0.603 HEAT: 36.46108
 CYCLE:    55 TIME:   0.008 TIME LEFT:  2.00D  GRAD.:     0.555 HEAT: 36.46032
 CYCLE:    56 TIME:   0.008 TIME LEFT:  2.00D  GRAD.:     0.461 HEAT: 36.45980
 CYCLE:    57 TIME:   0.008 TIME LEFT:  2.00D  GRAD.:     0.479 HEAT: 36.45927
 CYCLE:    58 TIME:   0.008 TIME LEFT:  2.00D  GRAD.:     0.577 HEAT: 36.45868
 CYCLE:    59 TIME:   0.008 TIME LEFT:  2.00D  GRAD.:     0.660 HEAT: 36.45789
 CYCLE:    60 TIME:   0.008 TIME LEFT:  2.00D  GRAD.:     0.682 HEAT: 36.45668
 CYCLE:    61 TIME:   0.009 TIME LEFT:  2.00D  GRAD.:     0.646 HEAT: 36.45577
 CYCLE:    62 TIME:   0.008 TIME LEFT:  2.00D  GRAD.:     0.920 HEAT: 36.45387
 CYCLE:    63 TIME:   0.008 TIME LEFT:  2.00D  GRAD.:     0.689 HEAT: 36.45308
 CYCLE:    64 TIME:   0.008 TIME LEFT:  2.00D  GRAD.:     1.117 HEAT: 36.45127
 CYCLE:    65 TIME:   0.008 TIME LEFT:  2.00D  GRAD.:     0.649 HEAT: 36.45038
 CYCLE:    66 TIME:   0.008 TIME LEFT:  2.00D  GRAD.:     0.419 HEAT: 36.44923
 CYCLE:    67 TIME:   0.008 TIME LEFT:  2.00D  GRAD.:     0.416 HEAT: 36.44865
 CYCLE:    68 TIME:   0.008 TIME LEFT:  2.00D  GRAD.:     0.482 HEAT: 36.44803
 CYCLE:    69 TIME:   0.008 TIME LEFT:  2.00D  GRAD.:     0.321 HEAT: 36.44776
 CYCLE:    70 TIME:   0.008 TIME LEFT:  2.00D  GRAD.:     0.279 HEAT: 36.44750
 CYCLE:    71 TIME:   0.008 TIME LEFT:  2.00D  GRAD.:     0.281 HEAT: 36.44706
 CYCLE:    72 TIME:   0.008 TIME LEFT:  2.00D  GRAD.:     0.274 HEAT: 36.44683
 CYCLE:    73 TIME:   0.008 TIME LEFT:  2.00D  GRAD.:     0.287 HEAT: 36.44656
 CYCLE:    74 TIME:   0.007 TIME LEFT:  2.00D  GRAD.:     0.262 HEAT: 36.44640
 CYCLE:    75 TIME:   0.008 TIME LEFT:  2.00D  GRAD.:     0.354 HEAT: 36.44593
 CYCLE:    76 TIME:   0.008 TIME LEFT:  2.00D  GRAD.:     0.238 HEAT: 36.44580
 CYCLE:    77 TIME:   0.008 TIME LEFT:  2.00D  GRAD.:     0.173 HEAT: 36.44563
 CYCLE:    78 TIME:   0.007 TIME LEFT:  2.00D  GRAD.:     0.167 HEAT: 36.44554
 CYCLE:    79 TIME:   0.008 TIME LEFT:  2.00D  GRAD.:     0.142 HEAT: 36.44539
 CYCLE:    80 TIME:   0.008 TIME LEFT:  2.00D  GRAD.:     0.126 HEAT: 36.44535
 CYCLE:    81 TIME:   0.007 TIME LEFT:  2.00D  GRAD.:     0.104 HEAT: 36.44531
 CYCLE:    82 TIME:   0.008 TIME LEFT:  2.00D  GRAD.:     0.092 HEAT: 36.44527
 CYCLE:    83 TIME:   0.007 TIME LEFT:  2.00D  GRAD.:     0.064 HEAT: 36.44526
 CYCLE:    84 TIME:   0.008 TIME LEFT:  2.00D  GRAD.:     0.069 HEAT: 36.44524
 CYCLE:    85 TIME:   0.008 TIME LEFT:  2.00D  GRAD.:     0.052 HEAT: 36.44524
 CYCLE:    86 TIME:   0.007 TIME LEFT:  2.00D  GRAD.:     0.043 HEAT: 36.44523

     RMS GRADIENT =  0.04325  IS LESS THAN CUTOFF =  0.05000



 -------------------------------------------------------------------------------
pm3  precise nosym
 InChI=1S/C10H14/c1-2-3-4-7-10-8-5-6-9-10/h2,5-6,8-10H,1,3-4,7H2



     GEOMETRY OPTIMISED USING EIGENVECTOR FOLLOWING (EF).     
     SCF FIELD WAS ACHIEVED                                   


                              PM3 CALCULATION
                                                       MOPAC2012 (Version: 13.159M)
                                                       Mon Jun  2 11:13:10 2014
                                                       No. of days left =   6




          FINAL HEAT OF FORMATION =         36.44523 KCAL/MOL =     152.48684 KJ/MOL


          TOTAL ENERGY            =      -1399.48124 EV
          ELECTRONIC ENERGY       =      -7465.19451 EV  POINT GROUP:     C1  
          CORE-CORE REPULSION     =       6065.71327 EV
          COSMO AREA              =        200.83 SQUARE ANGSTROMS
          COSMO VOLUME            =        199.89 CUBIC ANGSTROMS

          GRADIENT NORM           =          0.04325
          IONIZATION POTENTIAL    =          9.262387 EV
          HOMO LUMO ENERGIES (EV) =         -9.262  0.286
          NO. OF FILLED LEVELS    =         27
          MOLECULAR WEIGHT        =        134.221

          MOLECULAR DIMENSIONS (Angstroms)

            Atom       Atom       Distance
            H    24    H    22    10.33550
            H    21    H    19     4.28012
            H    11    H    23     3.36950


          SCF CALCULATIONS        =         98
          COMPUTATION TIME        =          0.795 SECONDS




   ATOM   CHEMICAL          X               Y               Z
  NUMBER   SYMBOL      (ANGSTROMS)     (ANGSTROMS)     (ANGSTROMS)
 
     1       C         -1.61897738  *  -0.41543154  *   0.53276520  *
     2       C         -0.27657103  *   0.30046502  *   0.56606947  *
     3       C          0.79136757  *  -0.46294235  *  -0.20172908  *
     4       C          2.12275184  *   0.27166831  *  -0.16554122  *
     5       C         -2.33725985  *  -0.28540749  *  -0.79045841  *
     6       C         -2.61234230  *   0.18943247  *   1.49800407  *
     7       C          3.18598472  *  -0.46258157  *  -0.90558708  *
     8       C         -3.55217474  *   0.27122340  *  -0.59548282  *
     9       C         -3.72365889  *   0.56690370  *   0.83002914  *
    10       C          4.42841984  *  -0.00470332  *  -1.00967641  *
    11       H         -1.48837176  *  -1.49770943  *   0.77418225  *
    12       H         -0.38448732  *   1.32377690  *   0.15520569  *
    13       H          0.03858817  *   0.43107033  *   1.62104270  *
    14       H          0.46878721  *  -0.61208045  *  -1.25213335  *
    15       H          0.90900929  *  -1.48136833  *   0.22038851  *
    16       H          2.44206741  *   0.42590774  *   0.88539129  *
    17       H          2.00675909  *   1.28797847  *  -0.59429354  *
    18       H         -1.89227076  *  -0.61021966  *  -1.72889849  *
    19       H         -2.40702850  *   0.27897455  *   2.56255492  *
    20       H          2.89738926  *  -1.41362244  *  -1.36961294  *
    21       H         -4.31154908  *   0.48454570  *  -1.34511694  *
    22       H         -4.62288979  *   1.02056125  *   1.24192101  *
    23       H          4.75453945  *   0.93155685  *  -0.56555866  *
    24       H          5.20629552  *  -0.53693738  *  -1.54802883  *

           Empirical Formula: C10 H14  =    24 atoms



      MOLECULAR POINT GROUP   :   C1  


                  EIGENVALUES  
 -40.95483 -37.19614 -32.35348 -27.76122 -27.26515 -23.57528 -21.39101 -19.78780
 -18.93905 -18.65263 -17.92655 -16.32128 -15.96691 -15.58461 -14.45792 -14.12326
 -13.95660 -13.69534 -13.21775 -12.83777 -12.52934 -12.34731 -12.03202 -11.53895
 -11.04877 -10.07667  -9.26239   0.28609   1.12871   1.99478   3.11957   3.32375
   3.40063   3.53242   3.65901   3.69319   3.83781   3.89807   3.94809   4.00482
   4.08281   4.23418   4.32162   4.39978   4.51774   4.65515   4.87317   4.89063
   4.96391   5.58896   5.75142   5.77553   5.81474   6.12982


              NET ATOMIC CHARGES AND DIPOLE CONTRIBUTIONS

  ATOM NO.   TYPE          CHARGE      No. of ELECS.   s-Pop       p-Pop       
    1          C          -0.035991        4.0360     1.16589     2.87010
    2          C          -0.075529        4.0755     1.15709     2.91844
    3          C          -0.104466        4.1045     1.16370     2.94076
    4          C          -0.069241        4.0692     1.14963     2.91961
    5          C          -0.157922        4.1579     1.20961     2.94831
    6          C          -0.159988        4.1600     1.21017     2.94982
    7          C          -0.136718        4.1367     1.19652     2.94020
    8          C          -0.119081        4.1191     1.19255     2.92653
    9          C          -0.117928        4.1179     1.19247     2.92545
   10          C          -0.173085        4.1731     1.18219     2.99089
   11          H           0.091709        0.9083     0.90829
   12          H           0.059456        0.9405     0.94054
   13          H           0.052487        0.9475     0.94751
   14          H           0.054551        0.9454     0.94545
   15          H           0.051773        0.9482     0.94823
   16          H           0.057637        0.9424     0.94236
   17          H           0.058835        0.9412     0.94116
   18          H           0.117958        0.8820     0.88204
   19          H           0.116881        0.8831     0.88312
   20          H           0.099364        0.9006     0.90064
   21          H           0.113834        0.8862     0.88617
   22          H           0.113815        0.8862     0.88619
   23          H           0.081085        0.9189     0.91891
   24          H           0.080564        0.9194     0.91944
 DIPOLE           X         Y         Z       TOTAL
 POINT-CHG.     0.202    -0.099     0.139     0.265
 HYBRID        -0.023    -0.042     0.005     0.048
 SUM            0.179    -0.141     0.145     0.270


          ATOMIC ORBITAL ELECTRON POPULATIONS

    Atom      s        px        py        pz   
    1  C   1.16589   0.94716   0.99283   0.93011
    2  C   1.15709   0.92614   0.98871   1.00358
    3  C   1.16370   0.94769   0.98577   1.00730
    4  C   1.14963   0.93899   0.98273   0.99789
    5  C   1.20961   0.97006   1.00474   0.97351
    6  C   1.21017   0.96740   1.00145   0.98097
    7  C   1.19652   0.95783   0.99231   0.99006
    8  C   1.19255   0.97144   0.99821   0.95688
    9  C   1.19247   0.97823   1.00218   0.94504
   10  C   1.18219   0.96384   1.00890   1.01816
   11  H   0.90829
   12  H   0.94054
   13  H   0.94751
   14  H   0.94545
   15  H   0.94823
   16  H   0.94236
   17  H   0.94116
   18  H   0.88204
   19  H   0.88312
   20  H   0.90064
   21  H   0.88617
   22  H   0.88619
   23  H   0.91891
   24  H   0.91944
 *******************************************************************************
 ** Site#: 14399           For non-commercial use only        Version 13.159M **
 *******************************************************************************
 ** Cite this work as: MOPAC2012, James J. P. Stewart, Stewart Computational  **
 ** Chemistry, Version 13.159M web: HTTP://OpenMOPAC.net  Days remaining:   6 **
 *******************************************************************************
 **                                                                           **
 **                                MOPAC2012                                  **
 **                                                                           **
 *******************************************************************************

                            PM3 CALCULATION RESULTS


 *******************************************************************************
 *  CALCULATION DONE:                                Mon Jun  2 11:13:10 2014  *
 *  PM3      - The PM3 Hamiltonian to be used
 *  OLDGEO   - PREVIOUS GEOMETRY TO BE USED
 *  PRECISE  - CRITERIA TO BE INCREASED BY 100 TIMES
 *  NOSYM    - POINT-GROUP SYMMETRY SET TO C1
 *  T=       - A TIME OF 172800.0 SECONDS REQUESTED
 *  DUMP=N   - RESTART FILE WRITTEN EVERY  7200.000 SECONDS
 *  THERMO   - THERMODYNAMIC QUANTITIES TO BE CALCULATED
 *******************************************************************************
oldgeo thermo nosym precise  pm3

   ATOM   CHEMICAL          X               Y               Z
  NUMBER   SYMBOL      (ANGSTROMS)     (ANGSTROMS)     (ANGSTROMS)
 
     1       C         -1.61897738  *  -0.41543154  *   0.53276520  *
     2       C         -0.27657103  *   0.30046502  *   0.56606947  *
     3       C          0.79136757  *  -0.46294235  *  -0.20172908  *
     4       C          2.12275184  *   0.27166831  *  -0.16554122  *
     5       C         -2.33725985  *  -0.28540749  *  -0.79045841  *
     6       C         -2.61234230  *   0.18943247  *   1.49800407  *
     7       C          3.18598472  *  -0.46258157  *  -0.90558708  *
     8       C         -3.55217474  *   0.27122340  *  -0.59548282  *
     9       C         -3.72365889  *   0.56690370  *   0.83002914  *
    10       C          4.42841984  *  -0.00470332  *  -1.00967641  *
    11       H         -1.48837176  *  -1.49770943  *   0.77418225  *
    12       H         -0.38448732  *   1.32377690  *   0.15520569  *
    13       H          0.03858817  *   0.43107033  *   1.62104270  *
    14       H          0.46878721  *  -0.61208045  *  -1.25213335  *
    15       H          0.90900929  *  -1.48136833  *   0.22038851  *
    16       H          2.44206741  *   0.42590774  *   0.88539129  *
    17       H          2.00675909  *   1.28797847  *  -0.59429354  *
    18       H         -1.89227076  *  -0.61021966  *  -1.72889849  *
    19       H         -2.40702850  *   0.27897455  *   2.56255492  *
    20       H          2.89738926  *  -1.41362244  *  -1.36961294  *
    21       H         -4.31154908  *   0.48454570  *  -1.34511694  *
    22       H         -4.62288979  *   1.02056125  *   1.24192101  *
    23       H          4.75453945  *   0.93155685  *  -0.56555866  *
    24       H          5.20629552  *  -0.53693738  *  -1.54802883  *
 


          CARTESIAN COORDINATES 

    NO.       ATOM         X         Y         Z

     1         C       -1.6190   -0.4154    0.5328
     2         C       -0.2766    0.3005    0.5661
     3         C        0.7914   -0.4629   -0.2017
     4         C        2.1228    0.2717   -0.1655
     5         C       -2.3373   -0.2854   -0.7905
     6         C       -2.6123    0.1894    1.4980
     7         C        3.1860   -0.4626   -0.9056
     8         C       -3.5522    0.2712   -0.5955
     9         C       -3.7237    0.5669    0.8300
    10         C        4.4284   -0.0047   -1.0097
    11         H       -1.4884   -1.4977    0.7742
    12         H       -0.3845    1.3238    0.1552
    13         H        0.0386    0.4311    1.6210
    14         H        0.4688   -0.6121   -1.2521
    15         H        0.9090   -1.4814    0.2204
    16         H        2.4421    0.4259    0.8854
    17         H        2.0068    1.2880   -0.5943
    18         H       -1.8923   -0.6102   -1.7289
    19         H       -2.4070    0.2790    2.5626
    20         H        2.8974   -1.4136   -1.3696
    21         H       -4.3115    0.4845   -1.3451
    22         H       -4.6229    1.0206    1.2419
    23         H        4.7545    0.9316   -0.5656
    24         H        5.2063   -0.5369   -1.5480

  H: (PM3): J. J. P. STEWART, J. COMP. CHEM. 10, 209 (1989).
  C: (PM3): J. J. P. STEWART, J. COMP. CHEM. 10, 209 (1989).

           Empirical Formula: C10 H14  =    24 atoms



      MOLECULAR POINT GROUP   :   C1  


      RHF CALCULATION, NO. OF DOUBLY OCCUPIED LEVELS =   27



          HEAT OF FORMATION =      36.445231 KCALS/MOLE


          INTERNAL COORDINATE DERIVATIVES

   NUMBER  ATOM       BOND         ANGLE      DIHEDRAL

     1       C      0.000364    -0.002329     0.006325
     2       C      0.007991     0.000545    -0.004581
     3       C     -0.001841    -0.007256     0.006125
     4       C     -0.001982    -0.001029     0.005019
     5       C     -0.000405     0.005853    -0.005960
     6       C      0.004274     0.000974    -0.002638
     7       C     -0.000446    -0.000562    -0.003845
     8       C     -0.009800    -0.006128    -0.010215
     9       C     -0.001388     0.009829     0.011316
    10       C      0.000691     0.000855     0.001126
    11       H      0.006915     0.000278    -0.001215
    12       H      0.016963    -0.001659    -0.006707
    13       H     -0.004658     0.008619    -0.006644
    14       H      0.002044    -0.009714     0.006508
    15       H     -0.000907    -0.000096     0.006408
    16       H      0.002240     0.001929    -0.000349
    17       H      0.004746     0.003149     0.004799
    18       H      0.006110    -0.003704    -0.000360
    19       H     -0.009976    -0.010176     0.006487
    20       H     -0.011354    -0.004480    -0.003347
    21       H     -0.006323     0.001484    -0.000481
    22       H     -0.007418     0.005183    -0.003255
    23       H      0.006119     0.004864    -0.002496
    24       H     -0.001958     0.003571    -0.002020


          GRADIENT NORM =   0.04780


          TIME FOR SCF CALCULATION =    0.01

          TIME FOR DERIVATIVES     =    0.01

          MOLECULAR WEIGHT =  134.22



          ROTATIONAL CONSTANTS IN CM(-1)

          A =    0.16957779   B =    0.01558623   C =    0.01487812



           PRINCIPAL MOMENTS OF INERTIA IN UNITS OF 10**(-40)*GRAM-CM**2

          A =      165.0734   B =     1795.9937   C =     1881.4720


          ORIENTATION OF MOLECULE IN FORCE CALCULATION

    NO.       ATOM         X         Y         Z

     1          C      -1.3505   -0.5427   -0.3494
     2          C       0.1712   -0.5427   -0.3494
     3          C       0.7374    0.8688   -0.3494
     4          C       2.2583    0.8491   -0.3398
     5          C      -1.9519   -0.1954    0.9928
     6          C      -1.9211   -1.9176   -0.6108
     7          C       2.8346    2.2221   -0.3473
     8          C      -2.7575   -1.1986    1.4032
     9          C      -2.7385   -2.2714    0.4043
    10          C       4.1437    2.4460   -0.3365
    11          H      -1.7392    0.1661   -1.1196
    12          H       0.5485   -1.1056    0.5272
    13          H       0.5338   -1.0942   -1.2403
    14          H       0.3597    1.4283    0.5304
    15          H       0.3713    1.4259   -1.2353
    16          H       2.6355    0.2843   -1.2167
    17          H       2.6247    0.2979    0.5502
    18          H      -1.7327    0.7395    1.5047
    19          H      -1.6746   -2.4887   -1.5033
    20          H       2.1224    3.0562   -0.3624
    21          H      -3.3435   -1.2458    2.3190
    22          H      -3.3093   -3.1922    0.5059
    23          H       4.8816    1.6488   -0.3213
    24          H       4.5678    3.4452   -0.3421


    FIRST DERIVATIVES WILL BE USED IN THE CALCULATION OF SECOND DERIVATIVES

          ESTIMATED TIME TO COMPLETE CALCULATION =        3.25 SECONDS

    FOR POINT-GROUP C1   THERE ARE   1 UNIQUE SYMMETRY FUNCTIONS.

 STEP:   1 TIME =     0.04 SECS, INTEGRAL =      0.04 TIME LEFT: 172799.95
 STEP:   2 TIME =     0.04 SECS, INTEGRAL =      0.07 TIME LEFT: 172799.92
 STEP:   3 TIME =     0.04 SECS, INTEGRAL =      0.11 TIME LEFT: 172799.88
 STEP:   4 TIME =     0.04 SECS, INTEGRAL =      0.14 TIME LEFT: 172799.85
 STEP:   5 TIME =     0.04 SECS, INTEGRAL =      0.18 TIME LEFT: 172799.81
 STEP:   6 TIME =     0.03 SECS, INTEGRAL =      0.21 TIME LEFT: 172799.78
 STEP:   7 TIME =     0.04 SECS, INTEGRAL =      0.25 TIME LEFT: 172799.74
 STEP:   8 TIME =     0.04 SECS, INTEGRAL =      0.28 TIME LEFT: 172799.71
 STEP:   9 TIME =     0.03 SECS, INTEGRAL =      0.32 TIME LEFT: 172799.67
 STEP:  10 TIME =     0.03 SECS, INTEGRAL =      0.35 TIME LEFT: 172799.64
 STEP:  11 TIME =     0.04 SECS, INTEGRAL =      0.39 TIME LEFT: 172799.60
 STEP:  12 TIME =     0.04 SECS, INTEGRAL =      0.42 TIME LEFT: 172799.57
 STEP:  13 TIME =     0.04 SECS, INTEGRAL =      0.46 TIME LEFT: 172799.53
 STEP:  14 TIME =     0.04 SECS, INTEGRAL =      0.49 TIME LEFT: 172799.49
 STEP:  15 TIME =     0.04 SECS, INTEGRAL =      0.53 TIME LEFT: 172799.46
 STEP:  16 TIME =     0.04 SECS, INTEGRAL =      0.57 TIME LEFT: 172799.42
 STEP:  17 TIME =     0.04 SECS, INTEGRAL =      0.60 TIME LEFT: 172799.39
 STEP:  18 TIME =     0.04 SECS, INTEGRAL =      0.64 TIME LEFT: 172799.35
 STEP:  19 TIME =     0.04 SECS, INTEGRAL =      0.67 TIME LEFT: 172799.32
 STEP:  20 TIME =     0.04 SECS, INTEGRAL =      0.71 TIME LEFT: 172799.28
 STEP:  21 TIME =     0.04 SECS, INTEGRAL =      0.75 TIME LEFT: 172799.24
 STEP:  22 TIME =     0.04 SECS, INTEGRAL =      0.78 TIME LEFT: 172799.21
 STEP:  23 TIME =     0.04 SECS, INTEGRAL =      0.82 TIME LEFT: 172799.17
 STEP:  24 TIME =     0.04 SECS, INTEGRAL =      0.85 TIME LEFT: 172799.13
 STEP:  25 TIME =     0.04 SECS, INTEGRAL =      0.89 TIME LEFT: 172799.10
 STEP:  26 TIME =     0.04 SECS, INTEGRAL =      0.93 TIME LEFT: 172799.06
 STEP:  27 TIME =     0.04 SECS, INTEGRAL =      0.96 TIME LEFT: 172799.03
 STEP:  28 TIME =     0.04 SECS, INTEGRAL =      1.00 TIME LEFT: 172798.99
 STEP:  29 TIME =     0.03 SECS, INTEGRAL =      1.03 TIME LEFT: 172798.96
 STEP:  30 TIME =     0.04 SECS, INTEGRAL =      1.07 TIME LEFT: 172798.92
 STEP:  31 TIME =     0.04 SECS, INTEGRAL =      1.11 TIME LEFT: 172798.88
 STEP:  32 TIME =     0.04 SECS, INTEGRAL =      1.14 TIME LEFT: 172798.84
 STEP:  33 TIME =     0.04 SECS, INTEGRAL =      1.18 TIME LEFT: 172798.81
 STEP:  34 TIME =     0.04 SECS, INTEGRAL =      1.22 TIME LEFT: 172798.77
 STEP:  35 TIME =     0.04 SECS, INTEGRAL =      1.25 TIME LEFT: 172798.74
 STEP:  36 TIME =     0.04 SECS, INTEGRAL =      1.29 TIME LEFT: 172798.70
 STEP:  37 TIME =     0.04 SECS, INTEGRAL =      1.33 TIME LEFT: 172798.66
 STEP:  38 TIME =     0.04 SECS, INTEGRAL =      1.37 TIME LEFT: 172798.62
 STEP:  39 TIME =     0.04 SECS, INTEGRAL =      1.40 TIME LEFT: 172798.59
 STEP:  40 TIME =     0.04 SECS, INTEGRAL =      1.44 TIME LEFT: 172798.55
 STEP:  41 TIME =     0.04 SECS, INTEGRAL =      1.47 TIME LEFT: 172798.52
 STEP:  42 TIME =     0.04 SECS, INTEGRAL =      1.51 TIME LEFT: 172798.48
 STEP:  43 TIME =     0.04 SECS, INTEGRAL =      1.54 TIME LEFT: 172798.44
 STEP:  44 TIME =     0.04 SECS, INTEGRAL =      1.58 TIME LEFT: 172798.41
 STEP:  45 TIME =     0.04 SECS, INTEGRAL =      1.62 TIME LEFT: 172798.37
 STEP:  46 TIME =     0.04 SECS, INTEGRAL =      1.65 TIME LEFT: 172798.34
 STEP:  47 TIME =     0.04 SECS, INTEGRAL =      1.69 TIME LEFT: 172798.30
 STEP:  48 TIME =     0.04 SECS, INTEGRAL =      1.72 TIME LEFT: 172798.27
 STEP:  49 TIME =     0.04 SECS, INTEGRAL =      1.76 TIME LEFT: 172798.23
 STEP:  50 TIME =     0.04 SECS, INTEGRAL =      1.79 TIME LEFT: 172798.19
 STEP:  51 TIME =     0.04 SECS, INTEGRAL =      1.83 TIME LEFT: 172798.16
 STEP:  52 TIME =     0.04 SECS, INTEGRAL =      1.87 TIME LEFT: 172798.12
 STEP:  53 TIME =     0.04 SECS, INTEGRAL =      1.90 TIME LEFT: 172798.09
 STEP:  54 TIME =     0.04 SECS, INTEGRAL =      1.94 TIME LEFT: 172798.05
 STEP:  55 TIME =     0.04 SECS, INTEGRAL =      1.98 TIME LEFT: 172798.01
 STEP:  56 TIME =     0.04 SECS, INTEGRAL =      2.01 TIME LEFT: 172797.98
 STEP:  57 TIME =     0.03 SECS, INTEGRAL =      2.05 TIME LEFT: 172797.94
 STEP:  58 TIME =     0.04 SECS, INTEGRAL =      2.08 TIME LEFT: 172797.91
 STEP:  59 TIME =     0.04 SECS, INTEGRAL =      2.12 TIME LEFT: 172797.87
 STEP:  60 TIME =     0.04 SECS, INTEGRAL =      2.16 TIME LEFT: 172797.83
 STEP:  61 TIME =     0.04 SECS, INTEGRAL =      2.20 TIME LEFT: 172797.79
 STEP:  62 TIME =     0.04 SECS, INTEGRAL =      2.23 TIME LEFT: 172797.76
 STEP:  63 TIME =     0.04 SECS, INTEGRAL =      2.27 TIME LEFT: 172797.72
 STEP:  64 TIME =     0.04 SECS, INTEGRAL =      2.30 TIME LEFT: 172797.68
 STEP:  65 TIME =     0.03 SECS, INTEGRAL =      2.34 TIME LEFT: 172797.65
 STEP:  66 TIME =     0.04 SECS, INTEGRAL =      2.38 TIME LEFT: 172797.61
 STEP:  67 TIME =     0.04 SECS, INTEGRAL =      2.41 TIME LEFT: 172797.58
 STEP:  68 TIME =     0.03 SECS, INTEGRAL =      2.45 TIME LEFT: 172797.54
 STEP:  69 TIME =     0.04 SECS, INTEGRAL =      2.48 TIME LEFT: 172797.50
 STEP:  70 TIME =     0.04 SECS, INTEGRAL =      2.52 TIME LEFT: 172797.47
 STEP:  71 TIME =     0.03 SECS, INTEGRAL =      2.55 TIME LEFT: 172797.43
 STEP:  72 TIME =     0.04 SECS, INTEGRAL =      2.59 TIME LEFT: 172797.40

(To convert to Hartree/Bohr^2, multiply by (10^(-21) x N x a0^2)/(4.184 x 627.51) = 0.0642)


           FORCE MATRIX IN MILLIDYNES/ANGSTROM


                  C  1       C  2       C  3       C  4       C  5       C  6
 ------------------------------------------------------------------------------
     C    1  14.864546
     C    2   4.040918  14.322055
     C    3   0.630095   4.166200  14.350851
     C    4   0.053588   0.643662   4.173104  14.654282
     C    5   4.124972   0.594842   0.041766   0.004497  17.896469
     C    6   4.123489   0.609283   0.047199   0.009851   1.095212  17.914393
     C    7   0.010169   0.053411   0.683645   4.911679   0.001915   0.002220
     C    8   1.206088   0.052714   0.009006   0.001870   9.792489   1.573560
     C    9   1.203517   0.049242   0.008819   0.002663   1.571654   9.796010
     C   10   0.003199   0.010332   0.053866   0.842234   0.001724   0.001723
     H   11   4.217128   0.446277   0.037234   0.002686   0.387196   0.385800
     H   12   0.441924   4.469621   0.443331   0.030735   0.022089   0.011967
     H   13   0.438476   4.436261   0.443681   0.029121   0.044184   0.039401
     H   14   0.024703   0.443917   4.431234   0.443392   0.011817   0.001211
     H   15   0.027943   0.443962   4.438828   0.443166   0.002930   0.001140
     H   16   0.002053   0.030421   0.444396   4.411837   0.000653   0.000906
     H   17   0.001713   0.029822   0.444179   4.414174   0.000770   0.000943
     H   18   0.403547   0.008746   0.013332   0.001735   5.061530   0.042426
     H   19   0.403493   0.014017   0.001876   0.000790   0.041701   5.075160
     H   20   0.000742   0.002483   0.058433   0.438179   0.000682   0.000475
     H   21   0.112063   0.015919   0.000637   0.000340   0.446586   0.049296
     H   22   0.112458   0.016030   0.002527   0.000741   0.049225   0.446755
     H   23   0.000570   0.000884   0.001515   0.096402   0.000388   0.000375
     H   24   0.000467   0.001384   0.006731   0.131274   0.000631   0.000332


                  C  7       C  8       C  9       C 10       H 11       H 12
 ------------------------------------------------------------------------------
     C    7  18.177306
     C    8   0.001444  18.324912
     C    9   0.000991   5.152902  18.327802
     C   10  11.048511   0.001069   0.000516  18.023553
     H   11   0.000945   0.051754   0.051327   0.000530   4.700285
     H   12   0.001757   0.005406   0.004522   0.000865   0.042241   5.076658
     H   13   0.001643   0.007163   0.005704   0.000930   0.018003   0.563700
     H   14   0.027418   0.001329   0.000638   0.002253   0.002583   0.023335
     H   15   0.028321   0.001087   0.000673   0.002179   0.027068   0.044944
     H   16   0.422047   0.000539   0.000343   0.031744   0.000426   0.001677
     H   17   0.422329   0.000479   0.000442   0.031770   0.000447   0.023352
     H   18   0.000673   0.442383   0.100097   0.000642   0.010987   0.002802
     H   19   0.000368   0.099952   0.443312   0.000243   0.011309   0.001937
     H   20   4.791040   0.000268   0.000318   0.453530   0.000319   0.000605
     H   21   0.000397   5.070665   0.419430   0.000369   0.014246   0.000874
     H   22   0.000406   0.418890   5.071003   0.000304   0.014380   0.000445
     H   23   0.493137   0.000364   0.000199   5.084997   0.000148   0.000149
     H   24   0.463952   0.000386   0.000232   5.114320   0.000135   0.000153


                  H 13       H 14       H 15       H 16       H 17       H 18
 ------------------------------------------------------------------------------
     H   13   5.048020
     H   14   0.045666   5.053702
     H   15   0.025045   0.569799   5.061655
     H   16   0.022650   0.045315   0.024014   5.016933
     H   17   0.001548   0.024566   0.045433   0.570403   5.018746
     H   18   0.001749   0.021233   0.000744   0.000642   0.000425   5.461816
     H   19   0.012972   0.000614   0.000513   0.000297   0.000157   0.010249
     H   20   0.000613   0.020396   0.021707   0.022670   0.022727   0.000513
     H   21   0.002601   0.000445   0.000157   0.000151   0.000110   0.040998
     H   22   0.000672   0.000157   0.000205   0.000116   0.000092   0.005326
     H   23   0.000208   0.000458   0.000474   0.012242   0.012259   0.000157
     H   24   0.000130   0.000417   0.000409   0.012628   0.012540   0.000112


                  H 19       H 20       H 21       H 22       H 23       H 24
 ------------------------------------------------------------------------------
     H   19   5.475361
     H   20   0.000163   5.164470
     H   21   0.005317   0.000127   5.461061
     H   22   0.041258   0.000094   0.009638   5.461193
     H   23   0.000112   0.121575   0.000102   0.000104   5.477164
     H   24   0.000111   0.082488   0.000137   0.000064   0.422280   5.502622


          HEAT OF FORMATION =      36.445231 KCALS/MOLE

          ZERO POINT ENERGY     131.046 KCAL/MOL


           NORMAL COORDINATE ANALYSIS (Total motion = 1 Angstrom)


   Root No.       1         2         3         4         5         6         7         8

                 1 A       2 A       3 A       4 A       5 A       6 A       7 A       8 A   

                  10.6      62.4      85.8     106.1     122.7     194.4     257.1     311.4
  
           1   -0.0013    0.0064    0.0028    0.0192   -0.0015   -0.0134   -0.0180    0.0215
           2   -0.0025    0.0041   -0.0076   -0.0124   -0.0011    0.0263    0.0130    0.0223
           3   -0.0004    0.0199   -0.0090    0.0115   -0.0157   -0.0139    0.0141    0.0246
           4   -0.0014    0.0064    0.0026    0.0198   -0.0015   -0.0115   -0.0149    0.0117
           5   -0.0018    0.0046   -0.0041   -0.0333   -0.0083   -0.0100    0.0122    0.0007
           6   -0.0115    0.0455   -0.0018    0.0045   -0.0282    0.0329   -0.0327   -0.0149
           7   -0.0017    0.0068    0.0009    0.0196    0.0005    0.0092    0.0247   -0.0099
           8   -0.0017    0.0045   -0.0035   -0.0332   -0.0095   -0.0216   -0.0047   -0.0018
           9   -0.0090    0.0397    0.0378   -0.0100    0.0438    0.0034   -0.0104   -0.0054
          10   -0.0014    0.0072    0.0014    0.0194    0.0003    0.0086    0.0298   -0.0187
          11   -0.0014    0.0036   -0.0015   -0.0108   -0.0062   -0.0277   -0.0203   -0.0250
          12   -0.0571   -0.0106   -0.0286   -0.0076    0.0355   -0.0051    0.0011   -0.0002
          13    0.0064   -0.0180   -0.0074    0.0280    0.0134   -0.0164   -0.0337    0.0134
          14    0.0036   -0.0120    0.0117   -0.0086    0.0055    0.0217   -0.0010    0.0100
          15    0.0014    0.0129   -0.0187    0.0145   -0.0107   -0.0138    0.0119    0.0241
          16   -0.0029    0.0101    0.0086   -0.0193   -0.0099   -0.0077    0.0071    0.0529
          17   -0.0036    0.0079   -0.0136    0.0071    0.0006    0.0258    0.0006    0.0187
          18    0.0090   -0.0079    0.0088   -0.0030   -0.0060   -0.0203    0.0146    0.0083
          19   -0.0023    0.0086   -0.0019   -0.0147   -0.0078   -0.0127    0.0192   -0.0393
          20   -0.0009    0.0029    0.0002    0.0045   -0.0030   -0.0185   -0.0139   -0.0222
          21   -0.0343   -0.0434    0.0243    0.0074   -0.0251    0.0014    0.0000   -0.0001
          22    0.0073   -0.0280   -0.0077   -0.0097    0.0163    0.0287   -0.0314   -0.0139
          23    0.0063   -0.0156    0.0161    0.0151    0.0087   -0.0057   -0.0090    0.0149
          24    0.0097   -0.0154   -0.0086   -0.0016    0.0022    0.0067   -0.0001   -0.0167
          25    0.0017   -0.0104    0.0026   -0.0408    0.0015    0.0345    0.0056    0.0282
          26    0.0017   -0.0033    0.0002    0.0258    0.0058   -0.0029   -0.0151    0.0134
          27    0.0145   -0.0283    0.0088   -0.0136    0.0051    0.0031    0.0078   -0.0152
          28   -0.0035    0.0085   -0.0021   -0.0217   -0.0099   -0.0191    0.0108   -0.0408
          29    0.0008    0.0021    0.0028    0.0442    0.0077    0.0149    0.0347   -0.0252
          30    0.0790   -0.0158   -0.0118   -0.0008   -0.0039    0.0007   -0.0001   -0.0003
          31   -0.0070    0.0188    0.0053    0.0290   -0.0040    0.0153   -0.0363    0.0080
          32   -0.0060    0.0129   -0.0204    0.0023   -0.0006    0.0336    0.0123    0.0309
          33   -0.0009    0.0215   -0.0221    0.0192   -0.0138   -0.0198    0.0227    0.0382
          34    0.0056   -0.0061    0.0007    0.0199    0.0043   -0.0509    0.0061    0.0362
          35   -0.0060    0.0130   -0.0265   -0.0277   -0.0563    0.0123   -0.0227   -0.0197
          36   -0.0173    0.0561   -0.0155    0.0077   -0.0617    0.0644   -0.0645   -0.0385
          37   -0.0085    0.0196    0.0058    0.0122   -0.0119    0.0065   -0.0543   -0.0142
          38    0.0026   -0.0036    0.0195   -0.0428    0.0378   -0.0474    0.0351    0.0197
          39   -0.0172    0.0557   -0.0153    0.0078   -0.0610    0.0636   -0.0637   -0.0384
          40    0.0257    0.0343    0.0375    0.0139    0.0065    0.0176    0.0293   -0.0124
          41   -0.0143   -0.0022   -0.0436   -0.0268   -0.0527   -0.0013   -0.0099   -0.0071
          42    0.0107    0.0556    0.0789   -0.0160    0.0738   -0.0055   -0.0051   -0.0027
          43   -0.0294   -0.0205   -0.0369    0.0170   -0.0057    0.0112    0.0411   -0.0069
          44    0.0109    0.0116    0.0362   -0.0443    0.0344   -0.0344    0.0143    0.0040
          45    0.0103    0.0552    0.0784   -0.0162    0.0736   -0.0060   -0.0053   -0.0035
          46   -0.0289   -0.0225   -0.0351    0.0316   -0.0029    0.0062    0.0352   -0.0163
          47    0.0308   -0.0009    0.0499    0.0046   -0.0365   -0.0191   -0.0247   -0.0276
          48   -0.0898   -0.0207   -0.0775   -0.0118    0.0535   -0.0113    0.0069    0.0022
          49    0.0271    0.0365    0.0406    0.0285    0.0076    0.0162    0.0213   -0.0227
          50   -0.0337    0.0075   -0.0523   -0.0112    0.0275   -0.0320   -0.0164   -0.0240
          51   -0.0889   -0.0204   -0.0763   -0.0118    0.0530   -0.0113    0.0065    0.0024
          52    0.0101   -0.0246   -0.0140    0.0588    0.0191   -0.0411   -0.0546    0.0116
          53    0.0055   -0.0190    0.0202   -0.0227    0.0072    0.0334    0.0023    0.0004
          54   -0.0037    0.0285   -0.0314    0.0272   -0.0161   -0.0246    0.0145    0.0423
          55   -0.0074    0.0270    0.0164   -0.0303   -0.0228   -0.0254    0.0293    0.0980
          56   -0.0079    0.0184   -0.0269    0.0065   -0.0024    0.0420    0.0011    0.0182
          57    0.0105   -0.0100    0.0195   -0.0056   -0.0076   -0.0356    0.0203    0.0208
          58   -0.0018    0.0097   -0.0044   -0.0374   -0.0128   -0.0290    0.0014   -0.0436
          59   -0.0021    0.0029   -0.0006   -0.0141   -0.0084   -0.0317   -0.0280   -0.0258
          60   -0.1215   -0.0949    0.0940    0.0263   -0.0921    0.0068   -0.0004    0.0009
          61    0.0114   -0.0454   -0.0141   -0.0166    0.0267    0.0523   -0.0511   -0.0552
          62    0.0110   -0.0263    0.0292    0.0252    0.0134   -0.0254   -0.0118    0.0145
          63    0.0126   -0.0271   -0.0119   -0.0055    0.0091    0.0207   -0.0127   -0.0432
          64    0.0016   -0.0139    0.0045   -0.0738    0.0001    0.0630    0.0288    0.0405
          65    0.0025   -0.0036    0.0002    0.0446    0.0078   -0.0192   -0.0296    0.0045
          66    0.0215   -0.0510    0.0195   -0.0279    0.0147    0.0152    0.0070   -0.0286
          67   -0.0040    0.0074    0.0004    0.0031   -0.0039    0.0028    0.0454   -0.0456
          68    0.0020    0.0021    0.0038    0.0670    0.0145    0.0353    0.0673   -0.0297
          69    0.1681    0.0352   -0.0799   -0.0194    0.0620   -0.0047    0.0005   -0.0012
          70   -0.0041    0.0094   -0.0046   -0.0529   -0.0178   -0.0469   -0.0322   -0.0374
          71    0.0011    0.0016    0.0041    0.0576    0.0108    0.0268    0.0534   -0.0271
          72    0.0905   -0.0424    0.0243    0.0106   -0.0509    0.0054   -0.0011    0.0005


   Root No.       9        10        11        12        13        14        15        16

                 9 A      10 A      11 A      12 A      13 A      14 A      15 A      16 A   

                 394.3     499.7     526.5     550.3     573.3     750.1     769.4     807.8
  
           1    0.0013   -0.0033   -0.0057    0.0414   -0.0022    0.0110    0.0011   -0.0010
           2    0.0089    0.0038   -0.0030   -0.0223    0.0008    0.0212    0.0033   -0.0089
           3    0.0118   -0.0012   -0.0125    0.0239   -0.0014   -0.0265   -0.0009    0.0242
           4    0.0078   -0.0004   -0.0025    0.0459   -0.0025    0.0286    0.0047   -0.0019
           5   -0.0378    0.0179    0.0273    0.0101   -0.0004   -0.0067   -0.0011    0.0005
           6   -0.0106   -0.0034    0.0044   -0.0041    0.0026   -0.0137    0.0115    0.0124
           7    0.0097    0.0312    0.0293    0.0004   -0.0003   -0.0005    0.0001    0.0003
           8   -0.0360    0.0005    0.0138    0.0299   -0.0012    0.0053    0.0024    0.0021
           9   -0.0034   -0.0012    0.0023   -0.0032    0.0069   -0.0075    0.0162   -0.0095
          10    0.0065    0.0270    0.0267   -0.0036    0.0001   -0.0055   -0.0008    0.0016
          11    0.0308   -0.0048   -0.0082   -0.0098    0.0003    0.0019    0.0003   -0.0008
          12   -0.0005    0.0001    0.0008   -0.0009   -0.0055   -0.0035    0.0119   -0.0166
          13   -0.0209   -0.0224    0.0214   -0.0276    0.0019   -0.0132   -0.0043   -0.0085
          14    0.0082    0.0071   -0.0180    0.0051   -0.0003   -0.0223    0.0015    0.0300
          15    0.0046   -0.0098    0.0017   -0.0135    0.0003   -0.0150   -0.0082    0.0005
          16   -0.0092    0.0158   -0.0243   -0.0295    0.0010   -0.0083   -0.0071   -0.0081
          17    0.0185   -0.0100   -0.0031    0.0127   -0.0009    0.0270    0.0032   -0.0119
          18   -0.0044    0.0147   -0.0077   -0.0077    0.0000    0.0170    0.0006   -0.0052
          19   -0.0064   -0.0254   -0.0224   -0.0066    0.0009   -0.0003   -0.0001   -0.0002
          20    0.0408    0.0168    0.0111   -0.0168    0.0003   -0.0056   -0.0010    0.0005
          21   -0.0006   -0.0007    0.0000   -0.0020   -0.0475    0.0028   -0.0076    0.0064
          22   -0.0132    0.0206   -0.0204    0.0000   -0.0002   -0.0216   -0.0040    0.0031
          23   -0.0009   -0.0177    0.0103   -0.0094    0.0010   -0.0099    0.0016    0.0109
          24    0.0001    0.0166   -0.0124    0.0094   -0.0010    0.0119   -0.0060   -0.0268
          25    0.0172   -0.0277    0.0107    0.0013    0.0003   -0.0157   -0.0076   -0.0068
          26   -0.0070    0.0100   -0.0163   -0.0093    0.0003    0.0038   -0.0021   -0.0123
          27    0.0073   -0.0132    0.0178    0.0114   -0.0003    0.0080   -0.0010   -0.0080
          28    0.0050   -0.0215   -0.0205   -0.0109    0.0005   -0.0016   -0.0005   -0.0002
          29   -0.0172   -0.0180   -0.0144   -0.0041    0.0006   -0.0022   -0.0004    0.0002
          30    0.0003    0.0001   -0.0002    0.0006    0.0125    0.0003   -0.0011    0.0017
          31    0.0193   -0.0092   -0.0152    0.0701   -0.0028    0.0520    0.0267    0.0115
          32    0.0271   -0.0215    0.0075   -0.0136    0.0003    0.0363    0.0073   -0.0223
          33    0.0192   -0.0211    0.0027    0.0143   -0.0014   -0.0323   -0.0101    0.0052
          34    0.0147   -0.0003   -0.0189    0.1039   -0.0055    0.0015    0.0336    0.0446
          35   -0.0596    0.0104    0.0426    0.0050   -0.0032    0.0363   -0.0659   -0.0132
          36   -0.0288   -0.0083    0.0221   -0.0335    0.0021    0.0268   -0.0453   -0.0173
          37   -0.0213   -0.0091    0.0170    0.0313   -0.0015    0.0688   -0.0225   -0.0427
          38   -0.0294    0.0196    0.0144    0.0456    0.0012   -0.0452    0.0661    0.0195
          39   -0.0277   -0.0085    0.0212   -0.0328    0.0021    0.0279   -0.0437   -0.0167
          40   -0.0074    0.0419    0.0479   -0.0029    0.0146    0.0102   -0.0551    0.0511
          41   -0.0506    0.0063    0.0271    0.0273   -0.0128   -0.0460    0.0850   -0.0171
          42   -0.0012    0.0000    0.0021   -0.0033    0.0216    0.0314   -0.0637    0.0263
          43   -0.0021    0.0430    0.0446    0.0023   -0.0150   -0.0282    0.0562   -0.0452
          44   -0.0398    0.0091    0.0227    0.0311    0.0108    0.0463   -0.0800    0.0259
          45   -0.0013   -0.0010    0.0014   -0.0031    0.0214    0.0312   -0.0625    0.0260
          46    0.0274    0.0428    0.0355   -0.0103    0.0235    0.0084   -0.0494    0.0460
          47    0.0413    0.0026   -0.0012   -0.0221   -0.1072   -0.0135    0.0388   -0.0462
          48    0.0015    0.0022    0.0001    0.0038    0.0767    0.0129   -0.0362    0.0342
          49    0.0229    0.0402    0.0383   -0.0154   -0.0238   -0.0276    0.0465   -0.0431
          50    0.0440    0.0055   -0.0034   -0.0104    0.1093    0.0128   -0.0400    0.0452
          51    0.0012    0.0011   -0.0011    0.0041    0.0746    0.0134   -0.0348    0.0326
          52   -0.0519   -0.0505    0.0698   -0.1165    0.0079    0.0368    0.0482    0.0846
          53    0.0188    0.0215   -0.0403    0.0526   -0.0032   -0.0609   -0.0292   -0.0260
          54   -0.0018   -0.0242    0.0220   -0.0625    0.0031    0.0335    0.0255    0.0641
          55   -0.0209    0.0452   -0.0577   -0.1228    0.0050    0.0709    0.0340    0.0020
          56    0.0342   -0.0260    0.0023    0.0573   -0.0031   -0.0349   -0.0186    0.0069
          57   -0.0178    0.0330   -0.0201   -0.0617    0.0024    0.0786    0.0259   -0.0145
          58    0.0063   -0.0306   -0.0293   -0.0106   -0.0002    0.0013    0.0002   -0.0012
          59    0.0495    0.0111    0.0045   -0.0193    0.0016   -0.0039   -0.0008    0.0002
          60   -0.0002    0.0004   -0.0010    0.0047    0.0800    0.0054   -0.0201    0.0338
          61   -0.0328    0.0829   -0.0640   -0.0174    0.0001    0.0577    0.0565    0.1093
          62   -0.0008   -0.0530    0.0481    0.0043    0.0012   -0.0355   -0.0238   -0.0574
          63   -0.0124    0.0547   -0.0384   -0.0008   -0.0008    0.0617    0.0312    0.0371
          64    0.0488   -0.0874    0.0597   -0.0125    0.0021    0.0777    0.0466    0.0428
          65   -0.0257    0.0425   -0.0424   -0.0022   -0.0006   -0.0518   -0.0320   -0.0366
          66    0.0151   -0.0529    0.0586   -0.0002    0.0017    0.0288    0.0335    0.0529
          67   -0.0435   -0.0619   -0.0534    0.0014    0.0019    0.0084    0.0012   -0.0023
          68   -0.0633   -0.0565   -0.0457    0.0077   -0.0018    0.0077    0.0007   -0.0011
          69   -0.0002   -0.0013    0.0010   -0.0085   -0.1829    0.0097   -0.0285    0.0334
          70    0.0666    0.0257    0.0170   -0.0293   -0.0012   -0.0153   -0.0030    0.0024
          71   -0.0441   -0.0393   -0.0315    0.0037    0.0029    0.0037    0.0009   -0.0012
          72    0.0019    0.0028   -0.0014    0.0133    0.2951   -0.0156    0.0451   -0.0490


   Root No.      17        18        19        20        21        22        23        24

                17 A      18 A      19 A      20 A      21 A      22 A      23 A      24 A   

                 813.9     824.4     862.5     922.4     931.1     960.2     979.6     983.3
  
           1   -0.0013   -0.0051   -0.0007    0.0001    0.0054    0.0056    0.0009   -0.0014
           2    0.0004   -0.0517    0.0088   -0.0016   -0.0020   -0.0026   -0.0016    0.0098
           3    0.0144    0.0004   -0.0130    0.0007    0.0017    0.0038    0.0115   -0.0129
           4   -0.0017   -0.0054   -0.0033    0.0049   -0.0030   -0.0131   -0.0069    0.0130
           5    0.0009    0.0018    0.0005   -0.0006   -0.0039    0.0066    0.0000   -0.0036
           6    0.0039    0.0033    0.0218   -0.0185   -0.0023    0.0005    0.0065   -0.0100
           7    0.0008    0.0001   -0.0002    0.0014   -0.0213    0.0000    0.0006    0.0005
           8    0.0041    0.0048   -0.0015    0.0004    0.0058   -0.0083    0.0007    0.0038
           9   -0.0013   -0.0014    0.0068    0.0120    0.0001    0.0029   -0.0072    0.0144
          10    0.0017    0.0071   -0.0012    0.0003    0.0017   -0.0011   -0.0007   -0.0004
          11   -0.0008   -0.0037    0.0003    0.0024   -0.0368    0.0019    0.0005   -0.0009
          12   -0.0027   -0.0045   -0.0254    0.0037    0.0020   -0.0029    0.0080   -0.0161
          13    0.0297   -0.0228    0.0051   -0.0008    0.0022    0.0279    0.0080    0.0059
          14    0.0043   -0.0166   -0.0192    0.0082   -0.0032   -0.0262   -0.0179    0.0041
          15    0.0130    0.0188   -0.0126    0.0105   -0.0040   -0.0049   -0.0188    0.0204
          16   -0.0353    0.0055    0.0029    0.0002    0.0020    0.0275   -0.0098   -0.0039
          17    0.0039   -0.0193    0.0089   -0.0051    0.0077    0.0041    0.0014   -0.0127
          18   -0.0122   -0.0714    0.0051   -0.0004    0.0060    0.0241   -0.0124   -0.0049
          19   -0.0003   -0.0004    0.0002   -0.0004    0.0110   -0.0004   -0.0003    0.0005
          20    0.0002    0.0023    0.0003   -0.0013    0.0073    0.0014    0.0008   -0.0016
          21    0.0010    0.0014    0.0009   -0.0282   -0.0035    0.0024   -0.0039    0.0073
          22    0.0310   -0.0312   -0.0004   -0.0015   -0.0019   -0.0217   -0.0205   -0.0113
          23   -0.0063    0.0161   -0.0059    0.0024    0.0000    0.0104    0.0140    0.0060
          24   -0.0140    0.0588    0.0114   -0.0055   -0.0010   -0.0087   -0.0088   -0.0149
          25   -0.0305    0.0313    0.0023   -0.0014   -0.0021   -0.0220    0.0227    0.0087
          26   -0.0100    0.0780    0.0025   -0.0003   -0.0009    0.0088   -0.0148   -0.0024
          27   -0.0140   -0.0162    0.0055   -0.0017   -0.0001   -0.0116    0.0154    0.0075
          28   -0.0005   -0.0003    0.0003   -0.0007    0.0089    0.0007    0.0000   -0.0005
          29    0.0001    0.0017    0.0001   -0.0035    0.0539   -0.0031   -0.0010    0.0028
          30    0.0002    0.0005    0.0028   -0.0054   -0.0016    0.0016   -0.0058    0.0134
          31   -0.0030   -0.0166    0.0202   -0.0215    0.0143   -0.0553    0.0036   -0.0183
          32    0.0427   -0.0303    0.0162   -0.0066   -0.0032   -0.0119    0.1298    0.0442
          33    0.0541    0.0261   -0.0173    0.0079   -0.0046    0.0245    0.1298    0.0292
          34    0.0098    0.0209    0.0132   -0.0253    0.0037   -0.0382    0.0263   -0.0459
          35    0.0064    0.0011   -0.0817    0.0411    0.0080   -0.0034    0.0148   -0.0202
          36    0.0025   -0.0089   -0.0410    0.0227    0.0030    0.0053    0.0019    0.0047
          37   -0.0085    0.0029   -0.0325    0.0429    0.0022   -0.0159   -0.0516    0.0804
          38    0.0006    0.0257    0.0771   -0.0402   -0.0090    0.0037   -0.0168    0.0133
          39    0.0017   -0.0089   -0.0403    0.0228    0.0028    0.0014   -0.0005    0.0072
          40    0.0097    0.0187    0.0308   -0.0622   -0.0296    0.0070    0.0086   -0.0139
          41    0.0002    0.0118    0.0524    0.0032    0.0025    0.0043   -0.0194    0.0430
          42    0.0053    0.0020   -0.0150   -0.0183   -0.0017   -0.0022    0.0099   -0.0181
          43   -0.0038   -0.0042   -0.0282    0.0593   -0.0141   -0.0047    0.0066    0.0016
          44    0.0107    0.0074   -0.0533   -0.0071    0.0123   -0.0218    0.0308   -0.0439
          45    0.0052    0.0026   -0.0153   -0.0177    0.0014   -0.0038    0.0098   -0.0175
          46    0.0076    0.0201    0.0327   -0.0622   -0.0432    0.0090   -0.0072    0.0007
          47   -0.0086   -0.0146   -0.0651   -0.0172   -0.0685    0.0004    0.0185   -0.0445
          48    0.0052    0.0087    0.0335   -0.0116    0.0027    0.0027   -0.0066    0.0127
          49   -0.0053   -0.0013   -0.0367    0.0672   -0.0253   -0.0012    0.0059   -0.0122
          50    0.0063    0.0089    0.0661    0.0255   -0.0697    0.0115   -0.0174    0.0356
          51    0.0049    0.0072    0.0322   -0.0105   -0.0072    0.0032   -0.0061    0.0120
          52   -0.1577    0.0085   -0.0008   -0.0219   -0.0020   -0.0902    0.0093   -0.0788
          53    0.1028    0.0161   -0.0070    0.0082    0.0004    0.0633    0.0122    0.0170
          54   -0.0861   -0.0553   -0.0331    0.0198   -0.0091   -0.1183   -0.0738    0.0329
          55    0.1820    0.0595    0.0066   -0.0157    0.0019   -0.0953    0.0642   -0.0333
          56   -0.0926   -0.1155   -0.0024    0.0002    0.0192    0.1049   -0.0225   -0.0511
          57    0.1095    0.0034    0.0136   -0.0082   -0.0014   -0.0740    0.0234    0.0119
          58   -0.0011   -0.0046    0.0002    0.0000   -0.0493    0.0053    0.0028   -0.0040
          59   -0.0003   -0.0013    0.0020    0.0038   -0.0448    0.0060    0.0038   -0.0063
          60    0.0063    0.0103    0.0906    0.2269    0.0254   -0.0125    0.0192   -0.0362
          61   -0.0436    0.0008   -0.0450    0.0176    0.0139    0.1203    0.1082    0.0436
          62    0.0469   -0.0709    0.0440   -0.0299    0.0038   -0.0121    0.0177   -0.0771
          63   -0.0595    0.0762   -0.0147    0.0053    0.0091    0.0803    0.0729    0.0165
          64    0.0914    0.1476   -0.0208    0.0056    0.0126    0.1219   -0.1050   -0.0548
          65   -0.0743    0.0160    0.0132   -0.0031   -0.0109   -0.0755    0.0568    0.0380
          66    0.0924    0.0630   -0.0297    0.0152   -0.0091    0.0272   -0.0526    0.0228
          67   -0.0024   -0.0103    0.0006    0.0090   -0.1720    0.0130    0.0034   -0.0095
          68   -0.0017   -0.0078    0.0014    0.0088   -0.1200    0.0085    0.0030   -0.0074
          69    0.0056    0.0089    0.0616    0.1477    0.0177   -0.0117    0.0311   -0.0675
          70    0.0017    0.0123    0.0002   -0.0159    0.2513   -0.0139   -0.0049    0.0119
          71   -0.0010   -0.0040   -0.0002    0.0030   -0.0517    0.0033    0.0014   -0.0031
          72   -0.0078   -0.0123   -0.0643   -0.0117    0.0043   -0.0071    0.0270   -0.0610


   Root No.      25        26        27        28        29        30        31        32

                25 A      26 A      27 A      28 A      29 A      30 A      31 A      32 A   

                1007.8    1020.4    1034.2    1068.5    1084.2    1091.1    1096.6    1115.3
  
           1   -0.0003    0.0028   -0.0019    0.0034   -0.0017   -0.0030    0.0042   -0.0242
           2    0.0150    0.0162   -0.0047   -0.0006    0.0054   -0.0005   -0.0064    0.0043
           3   -0.0140   -0.0016    0.0080    0.0024    0.0005    0.0000    0.0049   -0.0128
           4    0.0039   -0.0020    0.0125   -0.0081    0.0061   -0.0029   -0.0129    0.0037
           5   -0.0011    0.0001   -0.0020    0.0012    0.0110   -0.0095   -0.0166   -0.0173
           6    0.0117    0.0059   -0.0137   -0.0071    0.0040   -0.0038   -0.0099    0.0035
           7    0.0016    0.0026    0.0000   -0.0001   -0.0078    0.0068    0.0141   -0.0264
           8    0.0015   -0.0002    0.0006   -0.0008   -0.0099    0.0076    0.0164    0.0194
           9   -0.0106   -0.0048    0.0120    0.0139   -0.0014    0.0008    0.0044   -0.0032
          10   -0.0020   -0.0043    0.0002   -0.0006    0.0061   -0.0054   -0.0093    0.0289
          11    0.0003    0.0003    0.0003   -0.0010    0.0004   -0.0004   -0.0016   -0.0002
          12    0.0084    0.0024   -0.0086   -0.0257   -0.0002   -0.0008   -0.0035   -0.0014
          13    0.0057   -0.0096   -0.0174    0.0016   -0.0014    0.0015   -0.0028    0.0023
          14   -0.0023   -0.0052    0.0079   -0.0023   -0.0154   -0.0064    0.0017    0.0081
          15    0.0121   -0.0140   -0.0148   -0.0007   -0.0054   -0.0022    0.0088    0.0182
          16    0.0052    0.0174    0.0055    0.0001    0.0009    0.0030    0.0018    0.0060
          17   -0.0146   -0.0258   -0.0055    0.0002   -0.0030    0.0020   -0.0100   -0.0174
          18    0.0004    0.0005    0.0004   -0.0007   -0.0143    0.0038   -0.0070    0.0010
          19    0.0003    0.0003    0.0003   -0.0007    0.0008   -0.0007   -0.0017    0.0006
          20   -0.0009   -0.0001   -0.0017    0.0020   -0.0032    0.0025    0.0067   -0.0053
          21    0.0037   -0.0061    0.0107    0.0381    0.0002    0.0012   -0.0027    0.0010
          22   -0.0024    0.0134    0.0119   -0.0004   -0.0022   -0.0033   -0.0019   -0.0039
          23   -0.0012   -0.0087   -0.0041    0.0001    0.0002   -0.0038    0.0050    0.0084
          24   -0.0077    0.0040    0.0093   -0.0005   -0.0007    0.0008    0.0080    0.0124
          25   -0.0014   -0.0138   -0.0104    0.0015    0.0030   -0.0031   -0.0014   -0.0072
          26    0.0075    0.0144   -0.0011    0.0013    0.0027    0.0002   -0.0070   -0.0128
          27    0.0012   -0.0065   -0.0059    0.0002    0.0022    0.0038   -0.0048   -0.0071
          28    0.0001    0.0000   -0.0001    0.0006    0.0009   -0.0008   -0.0014   -0.0006
          29    0.0011    0.0016    0.0009   -0.0007   -0.0002    0.0004   -0.0002   -0.0048
          30   -0.0293    0.0141   -0.0146   -0.0257   -0.0001   -0.0006    0.0011   -0.0004
          31    0.0374    0.0538   -0.1036    0.0497   -0.0424    0.0534    0.1164    0.0939
          32    0.0315    0.1321    0.0683   -0.0023   -0.0571    0.0084    0.0123    0.0670
          33   -0.0167    0.0795    0.1266   -0.0230   -0.0367   -0.0208   -0.0332   -0.0138
          34   -0.0006    0.0360   -0.0598    0.0308    0.0346   -0.0245   -0.1051    0.0441
          35   -0.0426    0.0135   -0.0117    0.0488    0.0207   -0.0176   -0.0568   -0.0097
          36   -0.0141   -0.0020    0.0121    0.0068   -0.0019    0.0001    0.0038   -0.0102
          37   -0.0033   -0.0683    0.0993   -0.0561    0.0134   -0.0009    0.0143    0.0521
          38    0.0319   -0.0286    0.0128   -0.0489    0.0268   -0.0188   -0.0250    0.0209
          39   -0.0124   -0.0029    0.0132    0.0047   -0.0032    0.0024    0.0062   -0.0004
          40    0.0381   -0.0204    0.0128   -0.0547   -0.0455    0.0309    0.0459   -0.0712
          41   -0.0068   -0.0307    0.0446    0.0015   -0.0400    0.0271    0.0515   -0.0053
          42    0.0113    0.0053   -0.0112   -0.0120    0.0016   -0.0015   -0.0047   -0.0065
          43   -0.0391    0.0322   -0.0280    0.0688   -0.0334    0.0335    0.0787   -0.0317
          44    0.0074    0.0343   -0.0532    0.0053   -0.0248    0.0240    0.0485    0.0355
          45    0.0106    0.0046   -0.0108   -0.0118    0.0000   -0.0002   -0.0026    0.0083
          46    0.0464   -0.0453    0.0337   -0.0695    0.0255   -0.0264   -0.0102    0.0797
          47    0.0505   -0.0170   -0.0026   -0.1090    0.0142   -0.0170   -0.0132    0.0298
          48   -0.0028   -0.0046    0.0082    0.0143   -0.0005    0.0006    0.0032    0.0019
          49   -0.0598    0.0235   -0.0361    0.0683    0.0261   -0.0184   -0.0799    0.0823
          50   -0.0560    0.0095    0.0020    0.1072    0.0149   -0.0081   -0.0427    0.0369
          51   -0.0022   -0.0038    0.0082    0.0129    0.0004   -0.0001    0.0005   -0.0015
          52   -0.0672   -0.0024    0.0678   -0.0114   -0.0991    0.0696   -0.0384    0.0265
          53    0.0024   -0.0340   -0.0172   -0.0054   -0.0536    0.0315   -0.0128    0.0370
          54    0.0340    0.0353   -0.0045    0.0103    0.1033   -0.1007    0.0510   -0.0418
          55   -0.0690   -0.0866    0.0146   -0.0052    0.0883    0.0973    0.0357    0.0233
          56   -0.0473   -0.0344    0.0368   -0.0103    0.0893    0.1341    0.0365    0.0562
          57    0.0013   -0.0221   -0.0242    0.0045   -0.0506   -0.0550   -0.0288   -0.0428
          58   -0.0007    0.0026   -0.0038    0.0054   -0.0172    0.0148    0.0317   -0.0467
          59   -0.0018    0.0023   -0.0059    0.0048   -0.0189    0.0159    0.0359   -0.0460
          60   -0.0041    0.0157   -0.0288   -0.0969   -0.0007   -0.0028    0.0044   -0.0030
          61   -0.0005   -0.0320   -0.0199    0.0049    0.0488   -0.0592    0.0395   -0.0016
          62   -0.0479    0.0399    0.0580    0.0095    0.1205   -0.1530    0.1141    0.0226
          63   -0.0085   -0.0227   -0.0081    0.0033    0.0382   -0.0418    0.0405    0.0156
          64   -0.0085    0.0223    0.0184    0.0021   -0.0572   -0.0755    0.0088    0.0109
          65    0.0170    0.0031   -0.0161    0.0004    0.0543    0.0639   -0.0157   -0.0288
          66    0.0520    0.0981    0.0217   -0.0058    0.1313    0.1810   -0.0254   -0.0416
          67   -0.0057   -0.0027   -0.0052    0.0025   -0.0012    0.0005    0.0044   -0.0001
          68   -0.0017   -0.0022   -0.0027    0.0031   -0.0025    0.0018    0.0058   -0.0046
          69    0.1155   -0.0515    0.0495    0.0764    0.0001    0.0017   -0.0029    0.0010
          70    0.0039    0.0054    0.0039   -0.0026    0.0028   -0.0017   -0.0067   -0.0122
          71    0.0002   -0.0011   -0.0006    0.0014   -0.0013    0.0010    0.0026   -0.0009
          72    0.1235   -0.0562    0.0546    0.0842    0.0002    0.0018   -0.0040    0.0008


   Root No.      33        34        35        36        37        38        39        40

                33 A      34 A      35 A      36 A      37 A      38 A      39 A      40 A   

                1121.3    1142.6    1151.0    1151.9    1171.1    1199.2    1213.2    1241.3
  
           1    0.0340    0.0078   -0.0019    0.0117   -0.0089   -0.0061   -0.0001    0.0115
           2   -0.0194   -0.0061    0.0072   -0.0074   -0.0022   -0.0115   -0.0188    0.0068
           3    0.0165    0.0053   -0.0012    0.0011   -0.0095   -0.0079   -0.0153   -0.0027
           4   -0.0376   -0.0104   -0.0029   -0.0087    0.0019   -0.0077   -0.0040    0.0136
           5    0.0223   -0.0338    0.0132    0.0159   -0.0042   -0.0123    0.0050    0.0146
           6   -0.0154   -0.0068   -0.0278    0.0056    0.0040    0.0036    0.0026   -0.0001
           7   -0.0282   -0.0176    0.0001   -0.0025   -0.0246   -0.0057    0.0108    0.0056
           8   -0.0168    0.0393   -0.0181   -0.0164   -0.0061   -0.0048   -0.0009    0.0098
           9    0.0145   -0.0040    0.0163   -0.0347    0.0003   -0.0006    0.0006    0.0008
          10    0.0144    0.0277   -0.0098   -0.0058    0.0119   -0.0180    0.0037    0.0070
          11   -0.0077   -0.0039   -0.0001   -0.0032   -0.0446   -0.0005    0.0085   -0.0042
          12   -0.0091    0.0107    0.0099    0.0179    0.0001   -0.0001    0.0007    0.0002
          13   -0.0024    0.0003   -0.0012   -0.0027    0.0014    0.0034    0.0088    0.0024
          14   -0.0029   -0.0066    0.0021    0.0038    0.0017    0.0005    0.0046    0.0026
          15   -0.0146   -0.0136    0.0109    0.0035    0.0002   -0.0067   -0.0131   -0.0027
          16   -0.0017    0.0028    0.0010   -0.0017    0.0018    0.0003   -0.0078   -0.0074
          17    0.0157    0.0144   -0.0113   -0.0008    0.0013    0.0039   -0.0106   -0.0157
          18    0.0065    0.0055   -0.0049   -0.0002    0.0041    0.0069    0.0068   -0.0052
          19   -0.0008   -0.0016    0.0006   -0.0005   -0.0127    0.0019    0.0011    0.0005
          20    0.0050    0.0058   -0.0022    0.0023    0.0503   -0.0224    0.0075   -0.0184
          21   -0.0041    0.0006   -0.0032    0.0061   -0.0010    0.0001   -0.0003    0.0001
          22    0.0059    0.0045   -0.0037    0.0003    0.0015    0.0039    0.0051   -0.0017
          23   -0.0063   -0.0063    0.0023    0.0008    0.0013    0.0023    0.0139    0.0086
          24   -0.0098   -0.0112    0.0069    0.0016   -0.0011   -0.0037    0.0055    0.0107
          25    0.0031    0.0047   -0.0022   -0.0017   -0.0011   -0.0002   -0.0046   -0.0037
          26    0.0095    0.0132   -0.0080   -0.0032    0.0017    0.0078    0.0086   -0.0041
          27    0.0063    0.0044   -0.0045    0.0003    0.0015    0.0060    0.0140    0.0032
          28    0.0041   -0.0009    0.0010    0.0017    0.0064   -0.0071    0.0047   -0.0141
          29   -0.0040   -0.0073    0.0027    0.0009   -0.0103    0.0112   -0.0053    0.0091
          30    0.0013    0.0002    0.0013   -0.0013    0.0002   -0.0002    0.0002   -0.0002
          31    0.1352   -0.0504    0.1044    0.0605   -0.0233   -0.0225    0.0106   -0.0007
          32    0.0351   -0.0265    0.0294    0.0274    0.0190    0.0166    0.0507    0.0046
          33    0.0132    0.0155   -0.0358    0.0084    0.0169    0.0263    0.0428    0.0013
          34   -0.0987   -0.0407    0.0890   -0.1025    0.0952    0.0642    0.0170   -0.0777
          35    0.0409   -0.0474    0.1378   -0.0542    0.0439    0.0247    0.0166   -0.0416
          36    0.0226   -0.0030    0.0116   -0.0010   -0.0045   -0.0032    0.0005    0.0022
          37    0.0223   -0.0671   -0.0302    0.1031    0.0547    0.0383   -0.0302   -0.0913
          38    0.0395   -0.0955   -0.0597    0.1175    0.0377    0.0246   -0.0007   -0.0513
          39    0.0000    0.0080    0.0053   -0.0129   -0.0012   -0.0008   -0.0045   -0.0014
          40   -0.0750    0.0716    0.1485    0.0866   -0.0101    0.0799   -0.0040   -0.0836
          41   -0.0112    0.1089    0.1120   -0.0363    0.0096    0.0490   -0.0149   -0.0424
          42   -0.0090   -0.0095   -0.0025    0.0149   -0.0041    0.0016    0.0031   -0.0040
          43    0.0070   -0.1033   -0.1243   -0.0800   -0.0021    0.0847   -0.0219   -0.0915
          44   -0.0274    0.0086   -0.1455    0.0020    0.0143    0.0551   -0.0283   -0.0502
          45   -0.0077    0.0115   -0.0122    0.0074    0.0048    0.0001   -0.0029    0.0029
          46    0.1528   -0.0095   -0.0051   -0.1364    0.0025    0.0648   -0.0508    0.0314
          47    0.0594   -0.0149    0.0229   -0.0483   -0.1023    0.0690   -0.0236    0.0059
          48    0.0084    0.0025   -0.0014   -0.0107    0.0286   -0.0079   -0.0018    0.0031
          49   -0.0011    0.0929    0.0090    0.1484   -0.0081    0.0632   -0.0515    0.0307
          50    0.0014    0.0090   -0.0017    0.0554   -0.1087    0.0681   -0.0264    0.0051
          51    0.0025   -0.0084    0.0026   -0.0106   -0.0266    0.0076    0.0018   -0.0025
          52   -0.0037   -0.0428    0.0096    0.0012   -0.0189   -0.0455   -0.0760   -0.0047
          53   -0.0271   -0.0332    0.0163    0.0004   -0.0053   -0.0218   -0.0361   -0.0023
          54    0.0281    0.0500   -0.0183    0.0085    0.0211    0.0527    0.0956    0.0109
          55   -0.0147   -0.0175    0.0058    0.0088    0.0034    0.0158    0.0699    0.0339
          56   -0.0275   -0.0186    0.0054    0.0072    0.0164    0.0313    0.0909    0.0275
          57    0.0322    0.0222   -0.0153   -0.0024   -0.0049   -0.0059   -0.0375   -0.0229
          58   -0.0145   -0.0251    0.0098    0.0124    0.1126    0.0867   -0.0781    0.1593
          59   -0.0072   -0.0139    0.0057    0.0128    0.1569    0.0479   -0.0582    0.1129
          60    0.0057    0.0025    0.0116   -0.0071    0.0001    0.0004    0.0003    0.0008
          61   -0.0111    0.0044    0.0067    0.0019   -0.0041   -0.0088   -0.0368   -0.0189
          62   -0.0490   -0.0077    0.0308    0.0041   -0.0103   -0.0306   -0.0950   -0.0365
          63   -0.0236   -0.0124    0.0158    0.0030   -0.0054   -0.0140   -0.0266   -0.0015
          64   -0.0041   -0.0022   -0.0049    0.0010    0.0041    0.0141    0.0398    0.0123
          65    0.0172    0.0210   -0.0066   -0.0057   -0.0026   -0.0037   -0.0299   -0.0193
          66    0.0289    0.0260   -0.0002   -0.0042   -0.0100   -0.0258   -0.0909   -0.0365
          67    0.0193    0.0112   -0.0019    0.0058    0.0798   -0.0396    0.0149   -0.0549
          68    0.0096    0.0043   -0.0004    0.0046    0.0583   -0.0189    0.0040   -0.0265
          69   -0.0028   -0.0002   -0.0032    0.0028    0.0000   -0.0003   -0.0001   -0.0003
          70   -0.0048   -0.0249    0.0111    0.0064   -0.0173    0.0256   -0.0127   -0.0065
          71    0.0002    0.0025   -0.0014   -0.0006    0.0040   -0.0032    0.0019    0.0046
          72   -0.0049    0.0010   -0.0018    0.0058   -0.0004    0.0002   -0.0001   -0.0002


   Root No.      41        42        43        44        45        46        47        48

                41 A      42 A      43 A      44 A      45 A      46 A      47 A      48 A   

                1286.9    1327.9    1338.4    1374.8    1388.4    1394.5    1414.0    1417.5
  
           1    0.0217   -0.0263   -0.0390   -0.0222    0.0215   -0.0247    0.0042   -0.0274
           2    0.0202   -0.0258    0.0638   -0.0145    0.0131   -0.0072   -0.0043   -0.0129
           3   -0.0036   -0.0011    0.0900    0.0020   -0.0009    0.0030   -0.0037    0.0146
           4    0.0162   -0.0026    0.0000    0.0131   -0.0179    0.0384   -0.0121    0.0071
           5    0.0099   -0.0029   -0.0104    0.0165   -0.0228   -0.0118    0.0214   -0.0109
           6    0.0018   -0.0011   -0.0143   -0.0009    0.0007   -0.0015    0.0006   -0.0021
           7   -0.0139    0.0289    0.0037   -0.0015    0.0004    0.0065    0.0270    0.0285
           8   -0.0054    0.0173    0.0038    0.0134   -0.0013   -0.0114   -0.0293    0.0145
           9    0.0000    0.0002    0.0002    0.0001    0.0000    0.0003    0.0002    0.0002
          10   -0.0216    0.0004    0.0022   -0.0284    0.0089   -0.0143   -0.0204   -0.0328
          11   -0.0188    0.0017    0.0016    0.0106    0.0477   -0.0039    0.0071   -0.0235
          12   -0.0002    0.0001    0.0001   -0.0002   -0.0004   -0.0001   -0.0002    0.0001
          13    0.0003   -0.0010    0.0224   -0.0010    0.0024   -0.0034   -0.0016    0.0150
          14    0.0028   -0.0010   -0.0313   -0.0017    0.0015   -0.0027    0.0010   -0.0022
          15   -0.0002    0.0037   -0.0578    0.0026   -0.0050    0.0066    0.0030   -0.0246
          16   -0.0076    0.0065   -0.0148    0.0011    0.0006   -0.0028   -0.0008    0.0147
          17   -0.0178    0.0167   -0.0448    0.0047   -0.0016   -0.0042    0.0008    0.0245
          18   -0.0089    0.0092   -0.0142    0.0047   -0.0044    0.0040    0.0006    0.0006
          19   -0.0113   -0.0186   -0.0025    0.0022   -0.0033    0.0012    0.0010    0.0014
          20    0.0115   -0.0168   -0.0028    0.0017   -0.0245    0.0049    0.0000    0.0145
          21   -0.0002    0.0000    0.0002    0.0000    0.0002    0.0000    0.0000   -0.0001
          22   -0.0040    0.0041    0.0054    0.0032   -0.0033    0.0035    0.0002   -0.0004
          23    0.0081   -0.0087    0.0055   -0.0089    0.0125   -0.0185   -0.0023    0.0368
          24    0.0140   -0.0147   -0.0059   -0.0137    0.0171   -0.0230   -0.0024    0.0335
          25   -0.0044    0.0040    0.0047    0.0026   -0.0024    0.0029   -0.0002    0.0011
          26   -0.0092    0.0101    0.0316    0.0125   -0.0163    0.0239    0.0015   -0.0358
          27   -0.0001    0.0017    0.0213    0.0067   -0.0105    0.0164    0.0020   -0.0346
          28    0.0071   -0.0178   -0.0033    0.0059   -0.0172    0.0057    0.0039    0.0134
          29   -0.0030    0.0004   -0.0001    0.0012    0.0008    0.0004    0.0011    0.0007
          30    0.0001   -0.0002    0.0000    0.0000   -0.0002    0.0001    0.0000    0.0001
          31   -0.0452    0.0460    0.0601    0.0337   -0.0323    0.0240    0.0040    0.0237
          32   -0.0167    0.0225   -0.0698    0.0136   -0.0143    0.0068    0.0051   -0.0013
          33   -0.0036    0.0074   -0.0815    0.0008   -0.0002   -0.0067    0.0046   -0.0005
          34   -0.0511    0.0144    0.0131   -0.0025    0.0009   -0.1074    0.0564   -0.0240
          35   -0.0351   -0.0045   -0.0092   -0.0652    0.0805    0.1002   -0.0798    0.0317
          36    0.0021   -0.0094   -0.0153   -0.0413    0.0518    0.1151   -0.0813    0.0331
          37   -0.0661    0.0169    0.1605    0.0023   -0.0020   -0.1044    0.0528   -0.0061
          38   -0.0380   -0.0059    0.0123   -0.0665    0.0823    0.1000   -0.0818    0.0339
          39   -0.0020    0.0080    0.0353    0.0401   -0.0502   -0.1110    0.0783   -0.0293
          40    0.0399   -0.0597   -0.0086    0.0451    0.0028   -0.0285   -0.0983   -0.0415
          41    0.0256   -0.0374    0.0048   -0.0777    0.0124    0.0626    0.1351   -0.0115
          42    0.0041   -0.0029   -0.0058    0.0679   -0.0071   -0.0531   -0.1360   -0.0113
          43    0.0467   -0.0663   -0.0140    0.0433    0.0053   -0.0300   -0.0997   -0.0464
          44    0.0299   -0.0418   -0.0017   -0.0801    0.0143    0.0608    0.1360   -0.0150
          45   -0.0031    0.0020    0.0032   -0.0672    0.0072    0.0520    0.1343    0.0103
          46    0.0623   -0.0199   -0.0101    0.1006    0.0344    0.0311    0.0426    0.0464
          47    0.0354    0.0309   -0.0046   -0.0806   -0.1163   -0.0129   -0.0374    0.0208
          48    0.0020   -0.0242   -0.0016    0.0983    0.0995    0.0219    0.0477    0.0049
          49    0.0602   -0.0193   -0.0039    0.1020    0.0350    0.0314    0.0433    0.0475
          50    0.0349    0.0311   -0.0008   -0.0821   -0.1181   -0.0131   -0.0383    0.0210
          51   -0.0017    0.0234    0.0010   -0.0958   -0.0974   -0.0213   -0.0467   -0.0047
          52    0.0035   -0.0028   -0.0210    0.0013   -0.0062    0.0125    0.0017   -0.0494
          53    0.0029   -0.0002   -0.0439    0.0011   -0.0042    0.0069    0.0025   -0.0289
          54    0.0006    0.0006   -0.0202   -0.0055    0.0110   -0.0198   -0.0012    0.0518
          55    0.0230   -0.0128    0.0008    0.0013   -0.0070    0.0137    0.0036   -0.0500
          56    0.0092    0.0026   -0.0200    0.0099   -0.0155    0.0225    0.0044   -0.0515
          57   -0.0196    0.0145   -0.0236    0.0026    0.0013   -0.0074   -0.0005    0.0315
          58   -0.0601    0.0287    0.0062   -0.0208    0.0201   -0.0146   -0.0155   -0.0259
          59   -0.0280    0.0232    0.0045   -0.0172   -0.0055   -0.0078   -0.0132   -0.0074
          60   -0.0004    0.0002   -0.0002    0.0000    0.0002   -0.0001    0.0000   -0.0002
          61   -0.0159    0.0160   -0.0230    0.0126   -0.0159    0.0210    0.0031   -0.0352
          62   -0.0235    0.0235   -0.0724    0.0162   -0.0212    0.0286    0.0044   -0.0523
          63    0.0066   -0.0074   -0.0307   -0.0082    0.0093   -0.0120   -0.0004    0.0088
          64    0.0030    0.0003    0.0508    0.0085   -0.0126    0.0202    0.0014   -0.0360
          65   -0.0176    0.0153   -0.0067    0.0090   -0.0092    0.0111    0.0003   -0.0053
          66   -0.0189    0.0106   -0.0928   -0.0080    0.0146   -0.0264   -0.0010    0.0523
          67    0.1055    0.1329    0.0172   -0.0114    0.0296   -0.0081   -0.0045   -0.0137
          68    0.0818    0.1307    0.0178   -0.0143    0.0414   -0.0119   -0.0067   -0.0233
          69    0.0002    0.0000    0.0000    0.0000   -0.0002    0.0000    0.0000    0.0001
          70    0.1035    0.1925    0.0259   -0.0163    0.0701   -0.0168   -0.0051   -0.0349
          71   -0.0385   -0.0814   -0.0115    0.0101   -0.0350    0.0096    0.0048    0.0210
          72    0.0013    0.0025    0.0003   -0.0002    0.0010   -0.0002   -0.0001   -0.0005


   Root No.      49        50        51        52        53        54        55        56

                49 A      50 A      51 A      52 A      53 A      54 A      55 A      56 A   

                1433.6    1732.3    1789.5    1859.2    2887.2    2935.6    2948.1    2958.5
  
           1    0.0396    0.0115    0.0001   -0.0001   -0.0219   -0.0003   -0.0005   -0.0003
           2    0.0192    0.0085    0.0005    0.0000    0.0422    0.0006    0.0010    0.0006
           3   -0.0109   -0.0085    0.0003    0.0000   -0.0458   -0.0007   -0.0011   -0.0009
           4   -0.0430    0.0023   -0.0006    0.0010   -0.0005    0.0001    0.0003    0.0005
[...]
 EFF. MASS   5.8670

 VIBRATION   46   46A       ATOM PAIR        ENERGY CONTRIBUTION    RADIAL
 FREQ.      1394.50        C  2 --  H 12          +16.6% ( 50.8%)     3.7%
 T-DIPOLE    0.1617        C  2 --  H 13          +15.9% ( 49.6%)     4.5%
 TRAVEL      0.0984        C  1 --  C  2          +10.1% ( 39.7%)    99.0%
 RED. MASS   0.4864        C  8 --  C  9          +10.0% ( 39.5%)   100.0%
 EFF. MASS   4.9961

 VIBRATION   47   47A       ATOM PAIR        ENERGY CONTRIBUTION    RADIAL
 FREQ.      1414.01        C  3 --  H 15          +24.2% ( 51.2%)     5.2%
 T-DIPOLE    0.0180        C  3 --  H 14          +24.2% ( 51.2%)     5.2%
 TRAVEL      0.1269        C  3 --  C  4          +10.2% ( 33.2%)    64.2%
 RED. MASS   0.3563        C  2 --  C  3          +10.1% ( 33.1%)    25.8%
 EFF. MASS   2.9631

 VIBRATION   48   48A       ATOM PAIR        ENERGY CONTRIBUTION    RADIAL
 FREQ.      1417.51        C  8 --  C  9          +14.6% ( 60.5%)   100.0%
 T-DIPOLE    0.2473        C  5 --  C  9           +6.7% ( 40.8%)    99.9%
 TRAVEL      0.0712        C  6 --  C  8           +6.6% ( 40.7%)    99.9%
 RED. MASS   1.1242        C  5 --  C  8           +6.4% ( 39.9%)     0.1%
 EFF. MASS   9.3728

 VIBRATION   49   49A       ATOM PAIR        ENERGY CONTRIBUTION    RADIAL
 FREQ.      1433.57        C  2 --  C  3          +12.8% ( 55.5%)    74.9%
 T-DIPOLE    0.0913        C  1 --  C  2          +10.8% ( 51.0%)    70.5%
 TRAVEL      0.0719        C  3 --  C  4          +10.4% ( 50.2%)    62.8%
 RED. MASS   1.3722        C  3 --  H 14           +7.0% ( 41.1%)     0.1%
 EFF. MASS   9.0886

 VIBRATION   50   50A       ATOM PAIR        ENERGY CONTRIBUTION    RADIAL
 FREQ.      1732.31        C  5 --  C  8          +18.3% ( 72.9%)    99.9%
 T-DIPOLE    0.3996        C  6 --  C  9          +18.1% ( 72.5%)    99.9%
 TRAVEL      0.0569        C  6 --  C  8          +10.7% ( 55.7%)    25.8%
 RED. MASS   2.7213        C  5 --  C  9          +10.7% ( 55.7%)    26.0%
 EFF. MASS  12.0237

 VIBRATION   51   51A       ATOM PAIR        ENERGY CONTRIBUTION    RADIAL
 FREQ.      1789.53        C  6 --  C  9          +18.0% ( 70.3%)    99.8%
 T-DIPOLE    0.3046        C  5 --  C  8          +17.8% ( 69.9%)    99.8%
 TRAVEL      0.0565        C  8 --  C  9          +12.1% ( 57.7%)     0.0%
 RED. MASS   2.6859        C  6 --  C  8          +10.9% ( 54.7%)    67.0%
 EFF. MASS  11.7985        C  5 --  C  9          +10.9% ( 54.7%)    65.2%

 VIBRATION   52   52A       ATOM PAIR        ENERGY CONTRIBUTION    RADIAL
 FREQ.      1859.15        C  7 --  C 10          +45.3% ( 99.4%)    99.0%
 T-DIPOLE    0.2146        C  4 --  C  7          +16.7% ( 60.4%)    52.4%
 TRAVEL      0.0554        C  7 --  H 20          +15.5% ( 58.0%)     3.9%
 RED. MASS   5.3067        C 10 --  H 23          +11.0% ( 48.9%)    10.8%
 EFF. MASS  11.8028        C 10 --  H 24          +10.8% ( 48.4%)    12.9%

 VIBRATION   53   53A       ATOM PAIR        ENERGY CONTRIBUTION    RADIAL
 FREQ.      2887.19        C  1 --  H 11          +96.5% ( 99.8%)   100.0%
 T-DIPOLE    0.2001        C  1 --  C  2           +1.0% ( 10.3%)     9.6%
 TRAVEL      0.1275        C  1 --  C  6           +1.0% ( 10.2%)    10.5%
 RED. MASS   0.9215        C  1 --  C  5           +1.0% ( 10.2%)    10.5%
 EFF. MASS   1.4360

 VIBRATION   54   54A       ATOM PAIR        ENERGY CONTRIBUTION    RADIAL
 FREQ.      2935.65        C  4 --  H 16          +33.3% ( 60.1%)    96.4%
 T-DIPOLE    0.0276        C  4 --  H 17          +32.9% ( 59.7%)    96.4%
 TRAVEL      0.1217        C  3 --  H 14          +13.3% ( 37.9%)    96.4%
 RED. MASS   0.2767        C  3 --  H 15          +12.6% ( 37.0%)    96.1%
 EFF. MASS   1.5504

 VIBRATION   55   55A       ATOM PAIR        ENERGY CONTRIBUTION    RADIAL
 FREQ.      2948.06        C  2 --  H 13          +21.6% ( 48.2%)    97.0%
 T-DIPOLE    0.0208        C  2 --  H 12          +17.1% ( 43.0%)    95.6%
 TRAVEL      0.1219        C  3 --  H 14          +15.9% ( 41.5%)    96.6%
 RED. MASS   0.1762        C  3 --  H 15          +15.2% ( 40.4%)    96.3%
 EFF. MASS   1.5400        C  4 --  H 16          +13.9% ( 38.7%)    96.6%
                           C  4 --  H 17          +13.8% ( 38.5%)    96.6%

 VIBRATION   56   56A       ATOM PAIR        ENERGY CONTRIBUTION    RADIAL
 FREQ.      2958.51        C  2 --  H 13          +30.0% ( 56.6%)    97.2%
 T-DIPOLE    0.0401        C  2 --  H 12          +23.5% ( 50.2%)    95.9%
 TRAVEL      0.1221        C  3 --  H 14          +20.9% ( 47.3%)    96.8%
 RED. MASS   0.2473        C  3 --  H 15          +19.9% ( 46.1%)    96.5%
 EFF. MASS   1.5283

 VIBRATION   57   57A       ATOM PAIR        ENERGY CONTRIBUTION    RADIAL
 FREQ.      3020.16        C  4 --  H 17          +46.8% ( 67.5%)    97.8%
 T-DIPOLE    0.0487        C  4 --  H 16          +46.2% ( 67.0%)    97.8%
 TRAVEL      0.1320        C  7 --  H 20           +1.9% ( 13.7%)    99.7%
 RED. MASS   0.4323        C  3 --  H 15           +1.4% ( 11.8%)    98.1%
 EFF. MASS   1.2821

 VIBRATION   58   58A       ATOM PAIR        ENERGY CONTRIBUTION    RADIAL
 FREQ.      3028.81        C  3 --  H 15          +34.4% ( 57.7%)    97.9%
 T-DIPOLE    0.0164        C  3 --  H 14          +32.7% ( 56.4%)    97.6%
 TRAVEL      0.1322        C  2 --  H 12          +15.7% ( 39.1%)    98.4%
 RED. MASS   0.2636        C  2 --  H 13          +12.2% ( 34.5%)    97.0%
 EFF. MASS   1.2731

 VIBRATION   59   59A       ATOM PAIR        ENERGY CONTRIBUTION    RADIAL
 FREQ.      3031.63        C  2 --  H 12          +39.5% ( 61.9%)    98.3%
 T-DIPOLE    0.0574        C  2 --  H 13          +30.6% ( 54.4%)    96.8%
 TRAVEL      0.1325        C  3 --  H 15          +14.9% ( 38.0%)    97.9%
 RED. MASS   0.2873        C  3 --  H 14          +13.9% ( 36.7%)    97.5%
 EFF. MASS   1.2678

 VIBRATION   60   60A       ATOM PAIR        ENERGY CONTRIBUTION    RADIAL
 FREQ.      3042.01        C  7 --  H 20          +94.6% ( 98.5%)   100.0%
 T-DIPOLE    0.2586        C  7 --  C 10           +1.4% ( 12.0%)    30.1%
 TRAVEL      0.1217        C  4 --  C  7           +1.3% ( 11.5%)    14.2%
 RED. MASS   0.8772        C  4 --  H 17           +0.9% (  9.8%)    97.6%
 EFF. MASS   1.4958

 VIBRATION   61   61A       ATOM PAIR        ENERGY CONTRIBUTION    RADIAL
 FREQ.      3130.38        C  8 --  H 21          +44.0% ( 68.0%)   100.0%
 T-DIPOLE    0.2635        C  5 --  H 18          +39.6% ( 64.4%)   100.0%
 TRAVEL      0.1207        C  9 --  H 22           +8.8% ( 30.5%)   100.0%
 RED. MASS   0.3643        C  6 --  H 19           +3.3% ( 18.7%)   100.0%
 EFF. MASS   1.4778

 VIBRATION   62   62A       ATOM PAIR        ENERGY CONTRIBUTION    RADIAL
 FREQ.      3132.86        C  9 --  H 22          +50.1% ( 72.5%)   100.0%
 T-DIPOLE    0.4532        C  6 --  H 19          +32.7% ( 58.5%)   100.0%
 TRAVEL      0.1208        C  5 --  H 18          +10.1% ( 32.5%)   100.0%
 RED. MASS   0.3734        C  8 --  H 21           +3.0% ( 17.8%)    99.9%
 EFF. MASS   1.4748

 VIBRATION   63   63A       ATOM PAIR        ENERGY CONTRIBUTION    RADIAL
 FREQ.      3139.10        C 10 --  H 23          +92.0% ( 97.6%)    99.9%
 T-DIPOLE    0.1960        C 10 --  H 24           +6.6% ( 26.2%)    70.9%
 TRAVEL      0.1182        C  7 --  C 10           +1.3% ( 11.7%)    22.1%
 RED. MASS   0.8565
 EFF. MASS   1.5367

 VIBRATION   64   64A       ATOM PAIR        ENERGY CONTRIBUTION    RADIAL
 FREQ.      3144.10        C  5 --  H 18          +29.2% ( 55.6%)    99.9%
 T-DIPOLE    0.5443        C  6 --  H 19          +28.4% ( 54.8%)   100.0%
 TRAVEL      0.1158        C  8 --  H 21          +26.9% ( 53.3%)    99.9%
 RED. MASS   0.2598        C  9 --  H 22           +9.9% ( 32.3%)    99.8%
 EFF. MASS   1.6007

 VIBRATION   65   65A       ATOM PAIR        ENERGY CONTRIBUTION    RADIAL
 FREQ.      3149.23        C 10 --  H 24          +92.0% ( 96.6%)    99.6%
 T-DIPOLE    0.2635        C 10 --  H 23           +5.6% ( 23.9%)    39.9%
 TRAVEL      0.1209        C  7 --  C 10           +1.6% ( 12.7%)    72.9%
 RED. MASS   0.8222        C  7 --  H 20           +0.7% (  8.7%)    94.7%
 EFF. MASS   1.4653

 VIBRATION   66   66A       ATOM PAIR        ENERGY CONTRIBUTION    RADIAL
 FREQ.      3154.54        C  6 --  H 19          +30.3% ( 56.7%)    99.9%
 T-DIPOLE    0.2283        C  9 --  H 22          +26.1% ( 52.6%)   100.0%
 TRAVEL      0.1121        C  8 --  H 21          +20.9% ( 47.1%)   100.0%
 RED. MASS   0.2470        C  5 --  H 18          +16.0% ( 41.2%)    99.9%
 EFF. MASS   1.7002

 SYMMETRY NUMBER FOR POINT-GROUP C1  =  1


          SYSTEM IS A GROUND STATE


    NULL



          MOLECULE IS NOT LINEAR

          THERE ARE 66 GENUINE VIBRATIONS IN THIS SYSTEM
          THIS THERMODYNAMICS CALCULATION IS LIMITED TO
          MOLECULES WHICH HAVE NO INTERNAL ROTATIONS




                    CALCULATED THERMODYNAMIC PROPERTIES
                                          *
   TEMP. (K)   PARTITION FUNCTION   H.O.F.    ENTHALPY  HEAT CAPACITY ENTROPY
                                   KCAL/MOL   CAL/MOLE    CAL/K/MOL  CAL/K/MOL


 298.00  VIB.     0.7884D+04                  4774.0110    32.6182    33.8505
         ROT.     0.8425D+06                   888.2813     2.9808    30.0946
         INT.     0.6642D+10                  5662.2924    35.5990    63.9450
         TRA.     0.1503D+28                  1480.4688     4.9680    40.5931
         TOT.                       36.445    7142.7612    40.5670   104.5381

 200.00  VIB.     0.5492D+03                  2202.9365    20.3416    23.5510
         ROT.     0.4632D+06                   596.1620     2.9808    28.9059
         INT.     0.2544D+09                  2799.0985    23.3225    52.4569
         TRA.     0.8266D+27                   993.6033     4.9680    38.6119
         TOT.                       33.095    3792.7017    28.2905    91.0688

 210.00  VIB.     0.7239D+03                  2411.7920    21.4371    24.5698
         ROT.     0.4984D+06                   625.9700     2.9808    29.0513
         INT.     0.3608D+09                  3037.7620    24.4179    53.6211
         TRA.     0.8893D+27                  1043.2834     4.9680    38.8543
         TOT.                       33.384    4081.0454    29.3859    92.4754

 220.00  VIB.     0.9525D+03                  2631.8282    22.5775    25.5932
         ROT.     0.5344D+06                   655.7781     2.9808    29.1900
         INT.     0.5090D+09                  3287.6063    25.5583    54.7832
         TRA.     0.9536D+27                  1092.9636     4.9680    39.0854
         TOT.                       33.683    4380.5699    30.5263    93.8686

 230.00  VIB.     0.1251D+04                  2863.4827    23.7603    26.6228
         ROT.     0.5713D+06                   685.5862     2.9808    29.3225
         INT.     0.7149D+09                  3549.0689    26.7411    55.9452
         TRA.     0.1019D+28                  1142.6437     4.9680    39.3063
         TOT.                       33.994    4691.7127    31.7091    95.2515

 240.00  VIB.     0.1642D+04                  3107.1635    24.9821    27.6597
         ROT.     0.6089D+06                   715.3943     2.9808    29.4493
         INT.     0.1000D+10                  3822.5578    27.9629    57.1090
         TRA.     0.1087D+28                  1192.3239     4.9680    39.5177
         TOT.                       34.317    5014.8817    32.9309    96.6267

 250.00  VIB.     0.2154D+04                  3363.2417    26.2390    28.7049
         ROT.     0.6474D+06                   745.2024     2.9808    29.5710
         INT.     0.1394D+10                  4108.4442    29.2199    58.2759
         TRA.     0.1155D+28                  1242.0041     4.9680    39.7205
         TOT.                       34.653    5350.4482    34.1879    97.9964

 260.00  VIB.     0.2823D+04                  3632.0468    27.5267    29.7590
         ROT.     0.6866D+06                   775.0105     2.9808    29.6879
         INT.     0.1938D+10                  4407.0573    30.5075    59.4469
         TRA.     0.1225D+28                  1291.6842     4.9680    39.9154
         TOT.                       35.001    5698.7415    35.4755    99.3623

 270.00  VIB.     0.3699D+04                  3913.8629    28.8405    30.8224
         ROT.     0.7266D+06                   804.8186     2.9808    29.8004
         INT.     0.2688D+10                  4718.6815    31.8213    60.6228
         TRA.     0.1297D+28                  1341.3644     4.9680    40.1029
         TOT.                       35.363    6060.0459    36.7893   100.7257

 280.00  VIB.     0.4846D+04                  4208.9277    30.1757    31.8953
         ROT.     0.7673D+06                   834.6267     2.9808    29.9088
         INT.     0.3719D+10                  5043.5544    33.1565    61.8042
         TRA.     0.1369D+28                  1391.0445     4.9680    40.2835
         TOT.                       35.737    6434.5990    38.1245   102.0877

 290.00  VIB.     0.6350D+04                  4517.4321    31.5276    32.9778
         ROT.     0.8088D+06                   864.4348     2.9808    30.0134
         INT.     0.5136D+10                  5381.8670    34.5084    62.9912
         TRA.     0.1443D+28                  1440.7247     4.9680    40.4579
         TOT.                       36.125    6822.5917    39.4765   103.4491

 300.00  VIB.     0.8322D+04                  4839.5210    32.8918    34.0696
         ROT.     0.8510D+06                   894.2429     2.9808    30.1145
         INT.     0.7082D+10                  5733.7640    35.8726    64.1841
         TRA.     0.1518D+28                  1490.4049     4.9680    40.6263
         TOT.                       36.527    7224.1688    40.8406   104.8104

 310.00  VIB.     0.1091D+05                  5175.2950    34.2640    35.1704
         ROT.     0.8939D+06                   924.0510     2.9808    30.2122
         INT.     0.9753D+10                  6099.3461    37.2448    65.3827
         TRA.     0.1595D+28                  1540.0850     4.9680    40.7892
         TOT.                       36.942    7639.4311    42.2128   106.1719

 320.00  VIB.     0.1431D+05                  5524.8131    35.6400    36.2800
         ROT.     0.9375D+06                   953.8591     2.9808    30.3069
         INT.     0.1342D+11                  6478.6722    38.6208    66.5869
         TRA.     0.1673D+28                  1589.7652     4.9680    40.9469
         TOT.                       37.371    8068.4374    43.5888   107.5338

 330.00  VIB.     0.1878D+05                  5888.0952    37.0162    37.3978
         ROT.     0.9818D+06                   983.6672     2.9808    30.3986
         INT.     0.1844D+11                  6871.7624    39.9970    67.7964
         TRA.     0.1752D+28                  1639.4454     4.9680    41.0998
         TOT.                       37.814    8511.2078    44.9650   108.8962

 340.00  VIB.     0.2466D+05                  6265.1256    38.3891    38.5232
         ROT.     0.1027D+07                  1013.4753     2.9808    30.4876
         INT.     0.2532D+11                  7278.6009    41.3699    69.0108
         TRA.     0.1832D+28                  1689.1255     4.9680    41.2481
         TOT.                       38.270    8967.7264    46.3379   110.2589

 350.00  VIB.     0.3240D+05                  6655.8560    39.7557    39.6558
         ROT.     0.1072D+07                  1043.2834     2.9808    30.5740
         INT.     0.3475D+11                  7699.1394    42.7365    70.2297
         TRA.     0.1914D+28                  1738.8057     4.9680    41.3921
         TOT.                       38.740    9437.9451    47.7045   111.6219

 360.00  VIB.     0.4260D+05                  7060.2091    41.1132    40.7948
         ROT.     0.1119D+07                  1073.0915     2.9808    30.6580
         INT.     0.4766D+11                  8133.3006    44.0940    71.4527
         TRA.     0.1996D+28                  1788.4859     4.9680    41.5321
         TOT.                       39.224    9921.7865    49.0620   112.9848

 370.00  VIB.     0.5606D+05                  7478.0819    42.4593    41.9396
         ROT.     0.1166D+07                  1102.8996     2.9808    30.7396
         INT.     0.6535D+11                  8580.9815    45.4401    72.6792
         TRA.     0.2080D+28                  1838.1660     4.9680    41.6682
         TOT.                       39.722   10419.1476    50.4081   114.3474

 380.00  VIB.     0.7383D+05                  7909.3488    43.7917    43.0896
         ROT.     0.1213D+07                  1132.7077     2.9808    30.8191
         INT.     0.8957D+11                  9042.0565    46.7725    73.9088
         TRA.     0.2165D+28                  1887.8462     4.9680    41.8007
         TOT.                       40.232   10929.9027    51.7405   115.7095

 390.00  VIB.     0.9729D+05                  8353.8648    45.1088    44.2442
         ROT.     0.1261D+07                  1162.5158     2.9808    30.8966
         INT.     0.1227D+12                  9516.3806    48.0896    75.1408
         TRA.     0.2251D+28                  1937.5263     4.9680    41.9297
         TOT.                       40.756   11453.9069    53.0576   117.0705

 400.00  VIB.     0.1283D+06                  8811.4681    46.4090    45.4027
         ROT.     0.1310D+07                  1192.3239     2.9808    30.9720
         INT.     0.1681D+12                 10003.7920    49.3898    76.3747
         TRA.     0.2338D+28                  1987.2065     4.9680    42.0555
         TOT.                       41.293   11990.9985    54.3578   118.4302

   *: NOTE: HEATS OF FORMATION ARE RELATIVE TO THE
            ELEMENTS IN THEIR STANDARD STATE AT 298K
              (=  Standard Enthalpy of Formation).

            Hvib:  Zero-point energy is not included.
                   frequencies of less than zero cm-1 are not included.
            Hrot = (3/2)RT
            Htra = (3/2)RT + pV = (5/2)RT

            Heat capacity is Cp, not Cv

           For more information, see: HTTP://OpenMOPAC.net/Manual/thermochemistry.html


           FORCE CONSTANT IN CARTESIAN COORDINATES (Millidynes/A)

    ATOM   CHEMICAL       X               Y               Z
   NUMBER   SYMBOL  FORCE CONSTANT  FORCE CONSTANT  FORCE CONSTANT

      1       C        8.779909        8.431174        8.361168
      2       C        8.319209        8.254472        8.232517
      3       C        8.350399        8.352975        8.151404
      4       C        8.560818        8.893062        7.880427
      5       C        6.696112       12.470061        7.605094
      6       C        6.811355        7.901028       12.076699
      7       C       15.363340        9.288681        2.383850
      8       C        7.452509        9.800482       10.210399
      9       C        7.439532       10.395150        9.629341
     10       C       15.209157        9.302719        1.974064
     11       H        1.162085        2.218471        2.510359
     12       H        1.185971        1.751195        3.469441
     13       H        1.156440        1.700867        3.531573
     14       H        1.194885        1.728581        3.473638
     15       H        1.170601        1.724933        3.517894
     16       H        1.189156        1.679880        3.430156
     17       H        1.161617        1.629580        3.510629
     18       H        0.674026        4.100510        1.679920
     19       H        0.720787        1.953010        3.788540
     20       H        2.578555        3.324009        0.347759
     21       H        1.856160        0.645089        3.961570
     22       H        1.785879        4.013740        0.661638
     23       H        2.854110        3.258390        0.343138
     24       H        1.399447        4.745873        0.336083



 TOTAL CPU TIME:             3.42 SECONDS

 == MOPAC DONE ==
