 *******************************************************************************
 ** Site#: 14399           For non-commercial use only        Version 13.159M **
 *******************************************************************************
 ** Cite this work as: MOPAC2012, James J. P. Stewart, Stewart Computational  **
 ** Chemistry, Version 13.159M web: HTTP://OpenMOPAC.net  Days remaining:   6 **
 *******************************************************************************
 **                                                                           **
 **                                MOPAC2012                                  **
 **                                                                           **
 *******************************************************************************

                            PM3 CALCULATION RESULTS


 *******************************************************************************
 *  CALCULATION DONE:                                Mon Jun  2 11:13:58 2014  *
 *  PM3      - The PM3 Hamiltonian to be used
 *  PRECISE  - CRITERIA TO BE INCREASED BY 100 TIMES
 *  NOSYM    - POINT-GROUP SYMMETRY SET TO C1
 *  T=       - A TIME OF 172800.0 SECONDS REQUESTED
 *  DUMP=N   - RESTART FILE WRITTEN EVERY  7200.000 SECONDS
 *******************************************************************************
pm3  precise nosym
 InChI=1S/C10H12/c1-2-6-9(5-1)10-7-3-4-8-10/h1-6,9-10H,7-8H2

   ATOM   CHEMICAL          X               Y               Z
  NUMBER   SYMBOL      (ANGSTROMS)     (ANGSTROMS)     (ANGSTROMS)
 
     1       C         -0.41980000  *  -0.04400000  *   0.27850000  *
     2       C          0.73070000  *   0.08050000  *  -0.73780000  *
     3       C         -1.39670000  *   1.14210000  *   0.26310000  *
     4       C         -1.29120000  *  -1.29480000  *   0.08400000  *
     5       C          1.62670000  *   1.25100000  *  -0.45940000  *
     6       C          1.72570000  *  -1.03670000  *  -0.62750000  *
     7       C         -2.72630000  *   0.50660000  *   0.45750000  *
     8       C         -2.66920000  *  -0.81110000  *   0.36070000  *
     9       C          2.86840000  *   0.86230000  *  -0.22570000  *
    10       C          2.93090000  *  -0.58090000  *  -0.33170000  *
    11       H          0.01250000  *  -0.10100000  *   1.30860000  *
    12       H          0.34180000  *   0.14030000  *  -1.78090000  *
    13       H         -1.41120000  *   1.68960000  *  -0.70790000  *
    14       H         -1.18010000  *   1.86140000  *   1.08620000  *
    15       H         -1.00830000  *  -2.10520000  *   0.79480000  *
    16       H         -1.26470000  *  -1.69390000  *  -0.95650000  *
    17       H          1.31030000  *   2.28930000  *  -0.45450000  *
    18       H          1.49980000  *  -2.08790000  *  -0.77610000  *
    19       H         -3.65270000  *   1.05860000  *   0.60350000  *
    20       H         -3.54380000  *  -1.45610000  *   0.41880000  *
    21       H          3.69980000  *   1.52260000  *  -0.00260000  *
    22       H          3.81740000  *  -1.19280000  *  -0.20210000  *
 


          CARTESIAN COORDINATES 

    NO.       ATOM         X         Y         Z

     1         C       -0.4198   -0.0440    0.2785
     2         C        0.7307    0.0805   -0.7378
     3         C       -1.3967    1.1421    0.2631
     4         C       -1.2912   -1.2948    0.0840
     5         C        1.6267    1.2510   -0.4594
     6         C        1.7257   -1.0367   -0.6275
     7         C       -2.7263    0.5066    0.4575
     8         C       -2.6692   -0.8111    0.3607
     9         C        2.8684    0.8623   -0.2257
    10         C        2.9309   -0.5809   -0.3317
    11         H        0.0125   -0.1010    1.3086
    12         H        0.3418    0.1403   -1.7809
    13         H       -1.4112    1.6896   -0.7079
    14         H       -1.1801    1.8614    1.0862
    15         H       -1.0083   -2.1052    0.7948
    16         H       -1.2647   -1.6939   -0.9565
    17         H        1.3103    2.2893   -0.4545
    18         H        1.4998   -2.0879   -0.7761
    19         H       -3.6527    1.0586    0.6035
    20         H       -3.5438   -1.4561    0.4188
    21         H        3.6998    1.5226   -0.0026
    22         H        3.8174   -1.1928   -0.2021

  H: (PM3): J. J. P. STEWART, J. COMP. CHEM. 10, 209 (1989).
  C: (PM3): J. J. P. STEWART, J. COMP. CHEM. 10, 209 (1989).

           Empirical Formula: C10 H12  =    22 atoms



      MOLECULAR POINT GROUP   :   C1  


      RHF CALCULATION, NO. OF DOUBLY OCCUPIED LEVELS =   26

      Geometry optimization using EF

          DIAGONAL MATRIX USED AS START HESSIAN

 CYCLE:     1 TIME:   0.009 TIME LEFT:  2.00D  GRAD.:   116.977 HEAT: 48.84668
 CYCLE:     2 TIME:   0.020 TIME LEFT:  2.00D  GRAD.:    63.972 HEAT: 46.95683
 CYCLE:     3 TIME:   0.007 TIME LEFT:  2.00D  GRAD.:    43.311 HEAT: 45.84772
 CYCLE:     4 TIME:   0.013 TIME LEFT:  2.00D  GRAD.:    47.604 HEAT: 45.45359
 CYCLE:     5 TIME:   0.007 TIME LEFT:  2.00D  GRAD.:    38.458 HEAT: 45.09622
 CYCLE:     6 TIME:   0.007 TIME LEFT:  2.00D  GRAD.:    34.820 HEAT: 44.68271
 CYCLE:     7 TIME:   0.013 TIME LEFT:  2.00D  GRAD.:    25.915 HEAT: 44.44849
 CYCLE:     8 TIME:   0.013 TIME LEFT:  2.00D  GRAD.:    18.757 HEAT: 44.27975
 CYCLE:     9 TIME:   0.007 TIME LEFT:  2.00D  GRAD.:    19.406 HEAT: 44.16850
 CYCLE:    10 TIME:   0.014 TIME LEFT:  2.00D  GRAD.:    19.674 HEAT: 44.11522
 CYCLE:    11 TIME:   0.007 TIME LEFT:  2.00D  GRAD.:    17.899 HEAT: 44.05082
 CYCLE:    12 TIME:   0.013 TIME LEFT:  2.00D  GRAD.:     9.463 HEAT: 43.98171
 CYCLE:    13 TIME:   0.007 TIME LEFT:  2.00D  GRAD.:    10.710 HEAT: 43.95306
 CYCLE:    14 TIME:   0.007 TIME LEFT:  2.00D  GRAD.:    12.448 HEAT: 43.92339
 CYCLE:    15 TIME:   0.007 TIME LEFT:  2.00D  GRAD.:     9.517 HEAT: 43.87696
 CYCLE:    16 TIME:   0.007 TIME LEFT:  2.00D  GRAD.:     8.281 HEAT: 43.85030
 CYCLE:    17 TIME:   0.007 TIME LEFT:  2.00D  GRAD.:    12.823 HEAT: 43.84310
 CYCLE:    18 TIME:   0.007 TIME LEFT:  2.00D  GRAD.:    12.118 HEAT: 43.82681
 CYCLE:    19 TIME:   0.007 TIME LEFT:  2.00D  GRAD.:    12.760 HEAT: 43.82548
 CYCLE:    20 TIME:   0.013 TIME LEFT:  2.00D  GRAD.:     6.426 HEAT: 43.78612
 CYCLE:    21 TIME:   0.012 TIME LEFT:  2.00D  GRAD.:     4.996 HEAT: 43.77805
 CYCLE:    22 TIME:   0.007 TIME LEFT:  2.00D  GRAD.:     3.095 HEAT: 43.76787
 CYCLE:    23 TIME:   0.007 TIME LEFT:  2.00D  GRAD.:     4.367 HEAT: 43.75818
 CYCLE:    24 TIME:   0.007 TIME LEFT:  2.00D  GRAD.:     3.469 HEAT: 43.74268
 CYCLE:    25 TIME:   0.007 TIME LEFT:  2.00D  GRAD.:     2.804 HEAT: 43.72488
 CYCLE:    26 TIME:   0.007 TIME LEFT:  2.00D  GRAD.:     5.708 HEAT: 43.70971
 CYCLE:    27 TIME:   0.007 TIME LEFT:  2.00D  GRAD.:     4.823 HEAT: 43.69508
 CYCLE:    28 TIME:   0.007 TIME LEFT:  2.00D  GRAD.:     3.466 HEAT: 43.67447
 CYCLE:    29 TIME:   0.007 TIME LEFT:  2.00D  GRAD.:     4.599 HEAT: 43.61877
 CYCLE:    30 TIME:   0.007 TIME LEFT:  2.00D  GRAD.:     4.391 HEAT: 43.57946
 CYCLE:    31 TIME:   0.007 TIME LEFT:  2.00D  GRAD.:     4.413 HEAT: 43.54001
 CYCLE:    32 TIME:   0.007 TIME LEFT:  2.00D  GRAD.:     6.277 HEAT: 43.50670
 CYCLE:    33 TIME:   0.007 TIME LEFT:  2.00D  GRAD.:     5.362 HEAT: 43.46956
 CYCLE:    34 TIME:   0.007 TIME LEFT:  2.00D  GRAD.:     4.023 HEAT: 43.42331
 CYCLE:    35 TIME:   0.007 TIME LEFT:  2.00D  GRAD.:     4.286 HEAT: 43.39914
 CYCLE:    36 TIME:   0.007 TIME LEFT:  2.00D  GRAD.:     2.737 HEAT: 43.38483
 CYCLE:    37 TIME:   0.007 TIME LEFT:  2.00D  GRAD.:     2.845 HEAT: 43.37334
 CYCLE:    38 TIME:   0.007 TIME LEFT:  2.00D  GRAD.:     2.179 HEAT: 43.36482
 CYCLE:    39 TIME:   0.007 TIME LEFT:  2.00D  GRAD.:     1.531 HEAT: 43.36139
 CYCLE:    40 TIME:   0.007 TIME LEFT:  2.00D  GRAD.:     1.132 HEAT: 43.35947
 CYCLE:    41 TIME:   0.007 TIME LEFT:  2.00D  GRAD.:     0.793 HEAT: 43.35802
 CYCLE:    42 TIME:   0.007 TIME LEFT:  2.00D  GRAD.:     0.485 HEAT: 43.35752
 CYCLE:    43 TIME:   0.007 TIME LEFT:  2.00D  GRAD.:     0.329 HEAT: 43.35728
 CYCLE:    44 TIME:   0.007 TIME LEFT:  2.00D  GRAD.:     0.288 HEAT: 43.35699
 CYCLE:    45 TIME:   0.007 TIME LEFT:  2.00D  GRAD.:     0.272 HEAT: 43.35683
 CYCLE:    46 TIME:   0.007 TIME LEFT:  2.00D  GRAD.:     0.296 HEAT: 43.35674
 CYCLE:    47 TIME:   0.007 TIME LEFT:  2.00D  GRAD.:     0.197 HEAT: 43.35665
 CYCLE:    48 TIME:   0.007 TIME LEFT:  2.00D  GRAD.:     0.246 HEAT: 43.35654
 CYCLE:    49 TIME:   0.007 TIME LEFT:  2.00D  GRAD.:     0.304 HEAT: 43.35638
 CYCLE:    50 TIME:   0.007 TIME LEFT:  2.00D  GRAD.:     0.314 HEAT: 43.35624
 CYCLE:    51 TIME:   0.007 TIME LEFT:  2.00D  GRAD.:     0.231 HEAT: 43.35614
 CYCLE:    52 TIME:   0.007 TIME LEFT:  2.00D  GRAD.:     0.165 HEAT: 43.35609
 CYCLE:    53 TIME:   0.007 TIME LEFT:  2.00D  GRAD.:     0.125 HEAT: 43.35606
 CYCLE:    54 TIME:   0.007 TIME LEFT:  2.00D  GRAD.:     0.089 HEAT: 43.35601
 CYCLE:    55 TIME:   0.007 TIME LEFT:  2.00D  GRAD.:     0.057 HEAT: 43.35599
 CYCLE:    56 TIME:   0.007 TIME LEFT:  2.00D  GRAD.:     0.035 HEAT: 43.35598

     RMS GRADIENT =  0.03505  IS LESS THAN CUTOFF =  0.05000



 -------------------------------------------------------------------------------
pm3  precise nosym
 InChI=1S/C10H12/c1-2-6-9(5-1)10-7-3-4-8-10/h1-6,9-10H,7-8H2



     GEOMETRY OPTIMISED USING EIGENVECTOR FOLLOWING (EF).     
     SCF FIELD WAS ACHIEVED                                   


                              PM3 CALCULATION
                                                       MOPAC2012 (Version: 13.159M)
                                                       Mon Jun  2 11:13:58 2014
                                                       No. of days left =   6




          FINAL HEAT OF FORMATION =         43.35598 KCAL/MOL =     181.40143 KJ/MOL


          TOTAL ENERGY            =      -1368.51621 EV
          ELECTRONIC ENERGY       =      -7477.15337 EV  POINT GROUP:     C1  
          CORE-CORE REPULSION     =       6108.63717 EV
          COSMO AREA              =        178.71 SQUARE ANGSTROMS
          COSMO VOLUME            =        183.96 CUBIC ANGSTROMS

          GRADIENT NORM           =          0.03505
          IONIZATION POTENTIAL    =          9.267542 EV
          HOMO LUMO ENERGIES (EV) =         -9.268  0.284
          NO. OF FILLED LEVELS    =         26
          MOLECULAR WEIGHT        =        132.205

          MOLECULAR DIMENSIONS (Angstroms)

            Atom       Atom       Distance
            H    20    H    21     7.86908
            H    18    H    14     5.00210
            H    12    H    15     2.98507


          SCF CALCULATIONS        =         66
          COMPUTATION TIME        =          0.453 SECONDS




   ATOM   CHEMICAL          X               Y               Z
  NUMBER   SYMBOL      (ANGSTROMS)     (ANGSTROMS)     (ANGSTROMS)
 
     1       C         -0.39131698  *  -0.05212090  *   0.41512838  *
     2       C          0.69595703  *   0.07303703  *  -0.64826471  *
     3       C         -1.37537350  *   1.13980892  *   0.38824371  *
     4       C         -1.26817443  *  -1.30857424  *   0.20982669  *
     5       C          1.58800867  *   1.27616056  *  -0.43886514  *
     6       C          1.68841684  *  -1.06752216  *  -0.61260560  *
     7       C         -2.73336624  *   0.52615052  *   0.28145822  *
     8       C         -2.67499580  *  -0.80630538  *   0.18426315  *
     9       C          2.87446829  *   0.87866331  *  -0.33668217  *
    10       C          2.93702349  *  -0.58144279  *  -0.44488531  *
    11       H          0.10323523  *  -0.10311917  *   1.41243242  *
    12       H          0.23825188  *   0.12876472  *  -1.66547063  *
    13       H         -1.19014628  *   1.82009104  *  -0.46522724  *
    14       H         -1.29082840  *   1.76060401  *   1.29880882  *
    15       H         -1.12437195  *  -2.04475611  *   1.02162955  *
    16       H         -1.02972824  *  -1.83968848  *  -0.73175663  *
    17       H          1.19540175  *   2.28991271  *  -0.38942941  *
    18       H          1.38380529  *  -2.10717872  *  -0.71559763  *
    19       H         -3.63307291  *   1.14063578  *   0.28456193  *
    20       H         -3.51774303  *  -1.49071996  *   0.09259636  *
    21       H          3.75274755  *   1.50570487  *  -0.19685985  *
    22       H          3.86633585  *  -1.14520594  *  -0.39316883  *

           Empirical Formula: C10 H12  =    22 atoms



      MOLECULAR POINT GROUP   :   C1  


                  EIGENVALUES  
 -41.87096 -37.46392 -29.32542 -28.67797 -26.84096 -24.54902 -20.30337 -19.20122
 -18.92271 -18.13091 -17.76540 -17.56441 -15.45616 -14.45344 -14.01024 -13.84841
 -13.54546 -13.50380 -13.24365 -12.62215 -12.53724 -12.12981 -12.01689 -11.02751
  -9.60969  -9.26754   0.28424   1.07075   1.99362   3.20839   3.22697   3.42339
   3.53494   3.62399   3.67387   3.80040   3.90451   3.95773   4.11738   4.21306
   4.30298   4.35883   4.42791   4.48914   4.63987   5.00957   5.20151   5.53285
   5.76420   5.77115   5.94194   6.12908


              NET ATOMIC CHARGES AND DIPOLE CONTRIBUTIONS

  ATOM NO.   TYPE          CHARGE      No. of ELECS.   s-Pop       p-Pop       
    1          C          -0.053424        4.0534     1.18064     2.87279
    2          C          -0.032030        4.0320     1.16778     2.86425
    3          C          -0.070177        4.0702     1.15785     2.91233
    4          C          -0.070192        4.0702     1.15784     2.91235
    5          C          -0.159766        4.1598     1.21002     2.94974
    6          C          -0.159757        4.1598     1.21002     2.94974
    7          C          -0.155075        4.1551     1.20189     2.95318
    8          C          -0.155068        4.1551     1.20189     2.95318
    9          C          -0.118443        4.1184     1.19239     2.92605
   10          C          -0.118437        4.1184     1.19239     2.92605
   11          H           0.072379        0.9276     0.92762
   12          H           0.094673        0.9053     0.90533
   13          H           0.061146        0.9389     0.93885
   14          H           0.058194        0.9418     0.94181
   15          H           0.058194        0.9418     0.94181
   16          H           0.061171        0.9388     0.93883
   17          H           0.117883        0.8821     0.88212
   18          H           0.117893        0.8821     0.88211
   19          H           0.111514        0.8885     0.88849
   20          H           0.111506        0.8885     0.88849
   21          H           0.113905        0.8861     0.88610
   22          H           0.113910        0.8861     0.88609
 DIPOLE           X         Y         Z       TOTAL
 POINT-CHG.    -0.291    -0.011    -0.020     0.292
 HYBRID         0.017     0.007    -0.078     0.080
 SUM           -0.274    -0.005    -0.098     0.291


          ATOMIC ORBITAL ELECTRON POPULATIONS

    Atom      s        px        py        pz   
    1  C   1.18064   0.93902   0.94869   0.98508
    2  C   1.16778   0.95219   0.92566   0.98640
    3  C   1.15785   0.93188   0.96634   1.01410
    4  C   1.15784   0.93325   0.96537   1.01373
    5  C   1.21002   0.95876   0.97847   1.01252
    6  C   1.21002   0.95707   0.97895   1.01372
    7  C   1.20189   0.97570   0.96246   1.01503
    8  C   1.20189   0.97348   0.96460   1.01510
    9  C   1.19239   0.96660   0.95085   1.00860
   10  C   1.19239   0.96947   0.94851   1.00807
   11  H   0.92762
   12  H   0.90533
   13  H   0.93885
   14  H   0.94181
   15  H   0.94181
   16  H   0.93883
   17  H   0.88212
   18  H   0.88211
   19  H   0.88849
   20  H   0.88849
   21  H   0.88610
   22  H   0.88609
 *******************************************************************************
 ** Site#: 14399           For non-commercial use only        Version 13.159M **
 *******************************************************************************
 ** Cite this work as: MOPAC2012, James J. P. Stewart, Stewart Computational  **
 ** Chemistry, Version 13.159M web: HTTP://OpenMOPAC.net  Days remaining:   6 **
 *******************************************************************************
 **                                                                           **
 **                                MOPAC2012                                  **
 **                                                                           **
 *******************************************************************************

                            PM3 CALCULATION RESULTS


 *******************************************************************************
 *  CALCULATION DONE:                                Mon Jun  2 11:13:58 2014  *
 *  PM3      - The PM3 Hamiltonian to be used
 *  OLDGEO   - PREVIOUS GEOMETRY TO BE USED
 *  PRECISE  - CRITERIA TO BE INCREASED BY 100 TIMES
 *  NOSYM    - POINT-GROUP SYMMETRY SET TO C1
 *  T=       - A TIME OF 172800.0 SECONDS REQUESTED
 *  DUMP=N   - RESTART FILE WRITTEN EVERY  7200.000 SECONDS
 *  THERMO   - THERMODYNAMIC QUANTITIES TO BE CALCULATED
 *******************************************************************************
oldgeo thermo nosym precise  pm3

   ATOM   CHEMICAL          X               Y               Z
  NUMBER   SYMBOL      (ANGSTROMS)     (ANGSTROMS)     (ANGSTROMS)
 
     1       C         -0.39131698  *  -0.05212090  *   0.41512838  *
     2       C          0.69595703  *   0.07303703  *  -0.64826471  *
     3       C         -1.37537350  *   1.13980892  *   0.38824371  *
     4       C         -1.26817443  *  -1.30857424  *   0.20982669  *
     5       C          1.58800867  *   1.27616056  *  -0.43886514  *
     6       C          1.68841684  *  -1.06752216  *  -0.61260560  *
     7       C         -2.73336624  *   0.52615052  *   0.28145822  *
     8       C         -2.67499580  *  -0.80630538  *   0.18426315  *
     9       C          2.87446829  *   0.87866331  *  -0.33668217  *
    10       C          2.93702349  *  -0.58144279  *  -0.44488531  *
    11       H          0.10323523  *  -0.10311917  *   1.41243242  *
    12       H          0.23825188  *   0.12876472  *  -1.66547063  *
    13       H         -1.19014628  *   1.82009104  *  -0.46522724  *
    14       H         -1.29082840  *   1.76060401  *   1.29880882  *
    15       H         -1.12437195  *  -2.04475611  *   1.02162955  *
    16       H         -1.02972824  *  -1.83968848  *  -0.73175663  *
    17       H          1.19540175  *   2.28991271  *  -0.38942941  *
    18       H          1.38380529  *  -2.10717872  *  -0.71559763  *
    19       H         -3.63307291  *   1.14063578  *   0.28456193  *
    20       H         -3.51774303  *  -1.49071996  *   0.09259636  *
    21       H          3.75274755  *   1.50570487  *  -0.19685985  *
    22       H          3.86633585  *  -1.14520594  *  -0.39316883  *
 


          CARTESIAN COORDINATES 

    NO.       ATOM         X         Y         Z

     1         C       -0.3913   -0.0521    0.4151
     2         C        0.6960    0.0730   -0.6483
     3         C       -1.3754    1.1398    0.3882
     4         C       -1.2682   -1.3086    0.2098
     5         C        1.5880    1.2762   -0.4389
     6         C        1.6884   -1.0675   -0.6126
     7         C       -2.7334    0.5262    0.2815
     8         C       -2.6750   -0.8063    0.1843
     9         C        2.8745    0.8787   -0.3367
    10         C        2.9370   -0.5814   -0.4449
    11         H        0.1032   -0.1031    1.4124
    12         H        0.2383    0.1288   -1.6655
    13         H       -1.1901    1.8201   -0.4652
    14         H       -1.2908    1.7606    1.2988
    15         H       -1.1244   -2.0448    1.0216
    16         H       -1.0297   -1.8397   -0.7318
    17         H        1.1954    2.2899   -0.3894
    18         H        1.3838   -2.1072   -0.7156
    19         H       -3.6331    1.1406    0.2846
    20         H       -3.5177   -1.4907    0.0926
    21         H        3.7527    1.5057   -0.1969
    22         H        3.8663   -1.1452   -0.3932

  H: (PM3): J. J. P. STEWART, J. COMP. CHEM. 10, 209 (1989).
  C: (PM3): J. J. P. STEWART, J. COMP. CHEM. 10, 209 (1989).

           Empirical Formula: C10 H12  =    22 atoms



      MOLECULAR POINT GROUP   :   C1  


      RHF CALCULATION, NO. OF DOUBLY OCCUPIED LEVELS =   26



          HEAT OF FORMATION =      43.355983 KCALS/MOLE


          INTERNAL COORDINATE DERIVATIVES

   NUMBER  ATOM       BOND         ANGLE      DIHEDRAL

     1       C     -0.002530     0.000889     0.002547
     2       C      0.005357    -0.004771     0.006196
     3       C     -0.004252    -0.000225     0.003218
     4       C      0.000057     0.002692    -0.004829
     5       C     -0.006611    -0.006428     0.001937
     6       C     -0.002484    -0.001416    -0.001888
     7       C     -0.002014     0.008127     0.002816
     8       C      0.006202     0.001535     0.003802
     9       C      0.006569    -0.013703    -0.006706
    10       C      0.003163     0.006467     0.003324
    11       H     -0.000013     0.004054     0.003275
    12       H     -0.007124     0.005503    -0.003821
    13       H     -0.007598     0.000052    -0.012564
    14       H      0.000662     0.002531     0.002490
    15       H      0.000413     0.001371    -0.003540
    16       H      0.001602    -0.009182     0.002772
    17       H     -0.000151    -0.000255     0.004634
    18       H     -0.000861     0.007260    -0.006439
    19       H     -0.001774    -0.001738    -0.006016
    20       H      0.009479    -0.002167     0.006945
    21       H      0.001397     0.004566    -0.003399
    22       H      0.000509    -0.005162     0.005248


          GRADIENT NORM =   0.03983


          TIME FOR SCF CALCULATION =    0.01

          TIME FOR DERIVATIVES     =    0.00

          MOLECULAR WEIGHT =  132.20



          ROTATIONAL CONSTANTS IN CM(-1)

          A =    0.12081348   B =    0.02880061   C =    0.02428591



           PRINCIPAL MOMENTS OF INERTIA IN UNITS OF 10**(-40)*GRAM-CM**2

          A =      231.7024   B =      971.9507   C =     1152.6345


          ORIENTATION OF MOLECULE IN FORCE CALCULATION

    NO.       ATOM         X         Y         Z

     1          C      -0.7188   -0.0057    0.0108
     2          C       0.8072   -0.0057    0.0108
     3          C      -1.3034    1.4254    0.0108
     4          C      -1.3035   -0.6842   -1.2491
     5          C       1.3956    0.6194    1.2559
     6          C       1.3960   -1.3982    0.0467
     7          C      -2.2469    1.4646   -1.1470
     8          C      -2.2469    0.3166   -1.8327
     9          C       2.2084   -0.2661    1.8712
    10          C       2.2086   -1.5231    1.1179
    11          H      -1.0655   -0.5486    0.9200
    12          H       1.1945    0.5328   -0.8877
    13          H      -0.5209    2.2004   -0.1015
    14          H      -1.8268    1.6534    0.9572
    15          H      -1.8271   -1.6255   -1.0009
    16          H      -0.5210   -0.9532   -1.9845
    17          H       1.1645    1.6384    1.5601
    18          H       1.1654   -2.1469   -0.7087
    19          H      -2.8397    2.3529   -1.3631
    20          H      -2.8396    0.0856   -2.7172
    21          H       2.7882   -0.1136    2.7793
    22          H       2.7885   -2.3958    1.4117


    FIRST DERIVATIVES WILL BE USED IN THE CALCULATION OF SECOND DERIVATIVES

          ESTIMATED TIME TO COMPLETE CALCULATION =        2.62 SECONDS

    FOR POINT-GROUP C1   THERE ARE   1 UNIQUE SYMMETRY FUNCTIONS.

 STEP:   1 TIME =     0.03 SECS, INTEGRAL =      0.03 TIME LEFT: 172799.96
 STEP:   2 TIME =     0.03 SECS, INTEGRAL =      0.07 TIME LEFT: 172799.92
 STEP:   3 TIME =     0.03 SECS, INTEGRAL =      0.10 TIME LEFT: 172799.89
 STEP:   4 TIME =     0.03 SECS, INTEGRAL =      0.13 TIME LEFT: 172799.86
 STEP:   5 TIME =     0.03 SECS, INTEGRAL =      0.16 TIME LEFT: 172799.83
 STEP:   6 TIME =     0.04 SECS, INTEGRAL =      0.20 TIME LEFT: 172799.79
 STEP:   7 TIME =     0.03 SECS, INTEGRAL =      0.23 TIME LEFT: 172799.76
 STEP:   8 TIME =     0.03 SECS, INTEGRAL =      0.26 TIME LEFT: 172799.73
 STEP:   9 TIME =     0.03 SECS, INTEGRAL =      0.30 TIME LEFT: 172799.69
 STEP:  10 TIME =     0.03 SECS, INTEGRAL =      0.33 TIME LEFT: 172799.66
 STEP:  11 TIME =     0.03 SECS, INTEGRAL =      0.36 TIME LEFT: 172799.63
 STEP:  12 TIME =     0.03 SECS, INTEGRAL =      0.39 TIME LEFT: 172799.60
 STEP:  13 TIME =     0.03 SECS, INTEGRAL =      0.42 TIME LEFT: 172799.57
 STEP:  14 TIME =     0.03 SECS, INTEGRAL =      0.46 TIME LEFT: 172799.53
 STEP:  15 TIME =     0.03 SECS, INTEGRAL =      0.49 TIME LEFT: 172799.50
 STEP:  16 TIME =     0.03 SECS, INTEGRAL =      0.52 TIME LEFT: 172799.47
 STEP:  17 TIME =     0.03 SECS, INTEGRAL =      0.55 TIME LEFT: 172799.44
 STEP:  18 TIME =     0.03 SECS, INTEGRAL =      0.59 TIME LEFT: 172799.40
 STEP:  19 TIME =     0.03 SECS, INTEGRAL =      0.62 TIME LEFT: 172799.37
 STEP:  20 TIME =     0.03 SECS, INTEGRAL =      0.65 TIME LEFT: 172799.34
 STEP:  21 TIME =     0.03 SECS, INTEGRAL =      0.68 TIME LEFT: 172799.31
 STEP:  22 TIME =     0.03 SECS, INTEGRAL =      0.72 TIME LEFT: 172799.27
 STEP:  23 TIME =     0.03 SECS, INTEGRAL =      0.75 TIME LEFT: 172799.24
 STEP:  24 TIME =     0.03 SECS, INTEGRAL =      0.78 TIME LEFT: 172799.21
 STEP:  25 TIME =     0.03 SECS, INTEGRAL =      0.81 TIME LEFT: 172799.18
 STEP:  26 TIME =     0.03 SECS, INTEGRAL =      0.85 TIME LEFT: 172799.14
 STEP:  27 TIME =     0.03 SECS, INTEGRAL =      0.88 TIME LEFT: 172799.11
 STEP:  28 TIME =     0.03 SECS, INTEGRAL =      0.91 TIME LEFT: 172799.08
 STEP:  29 TIME =     0.03 SECS, INTEGRAL =      0.94 TIME LEFT: 172799.05
 STEP:  30 TIME =     0.03 SECS, INTEGRAL =      0.98 TIME LEFT: 172799.02
 STEP:  31 TIME =     0.03 SECS, INTEGRAL =      1.01 TIME LEFT: 172798.98
 STEP:  32 TIME =     0.03 SECS, INTEGRAL =      1.04 TIME LEFT: 172798.95
 STEP:  33 TIME =     0.04 SECS, INTEGRAL =      1.08 TIME LEFT: 172798.91
 STEP:  34 TIME =     0.03 SECS, INTEGRAL =      1.11 TIME LEFT: 172798.88
 STEP:  35 TIME =     0.03 SECS, INTEGRAL =      1.14 TIME LEFT: 172798.85
 STEP:  36 TIME =     0.03 SECS, INTEGRAL =      1.17 TIME LEFT: 172798.82
 STEP:  37 TIME =     0.03 SECS, INTEGRAL =      1.21 TIME LEFT: 172798.79
 STEP:  38 TIME =     0.03 SECS, INTEGRAL =      1.24 TIME LEFT: 172798.75
 STEP:  39 TIME =     0.03 SECS, INTEGRAL =      1.27 TIME LEFT: 172798.72
 STEP:  40 TIME =     0.03 SECS, INTEGRAL =      1.30 TIME LEFT: 172798.69
 STEP:  41 TIME =     0.04 SECS, INTEGRAL =      1.34 TIME LEFT: 172798.65
 STEP:  42 TIME =     0.03 SECS, INTEGRAL =      1.37 TIME LEFT: 172798.62
 STEP:  43 TIME =     0.04 SECS, INTEGRAL =      1.41 TIME LEFT: 172798.58
 STEP:  44 TIME =     0.03 SECS, INTEGRAL =      1.44 TIME LEFT: 172798.55
 STEP:  45 TIME =     0.03 SECS, INTEGRAL =      1.47 TIME LEFT: 172798.52
 STEP:  46 TIME =     0.03 SECS, INTEGRAL =      1.51 TIME LEFT: 172798.48
 STEP:  47 TIME =     0.03 SECS, INTEGRAL =      1.54 TIME LEFT: 172798.45
 STEP:  48 TIME =     0.03 SECS, INTEGRAL =      1.57 TIME LEFT: 172798.42
 STEP:  49 TIME =     0.03 SECS, INTEGRAL =      1.60 TIME LEFT: 172798.39
 STEP:  50 TIME =     0.03 SECS, INTEGRAL =      1.63 TIME LEFT: 172798.36
 STEP:  51 TIME =     0.03 SECS, INTEGRAL =      1.67 TIME LEFT: 172798.32
 STEP:  52 TIME =     0.03 SECS, INTEGRAL =      1.70 TIME LEFT: 172798.29
 STEP:  53 TIME =     0.03 SECS, INTEGRAL =      1.73 TIME LEFT: 172798.26
 STEP:  54 TIME =     0.03 SECS, INTEGRAL =      1.76 TIME LEFT: 172798.23
 STEP:  55 TIME =     0.03 SECS, INTEGRAL =      1.80 TIME LEFT: 172798.19
 STEP:  56 TIME =     0.03 SECS, INTEGRAL =      1.83 TIME LEFT: 172798.16
 STEP:  57 TIME =     0.03 SECS, INTEGRAL =      1.87 TIME LEFT: 172798.12
 STEP:  58 TIME =     0.03 SECS, INTEGRAL =      1.90 TIME LEFT: 172798.09
 STEP:  59 TIME =     0.03 SECS, INTEGRAL =      1.93 TIME LEFT: 172798.06
 STEP:  60 TIME =     0.03 SECS, INTEGRAL =      1.96 TIME LEFT: 172798.03
 STEP:  61 TIME =     0.03 SECS, INTEGRAL =      2.00 TIME LEFT: 172797.99
 STEP:  62 TIME =     0.03 SECS, INTEGRAL =      2.03 TIME LEFT: 172797.96
 STEP:  63 TIME =     0.03 SECS, INTEGRAL =      2.06 TIME LEFT: 172797.93
 STEP:  64 TIME =     0.03 SECS, INTEGRAL =      2.09 TIME LEFT: 172797.90
 STEP:  65 TIME =     0.03 SECS, INTEGRAL =      2.12 TIME LEFT: 172797.87
 STEP:  66 TIME =     0.03 SECS, INTEGRAL =      2.16 TIME LEFT: 172797.83

(To convert to Hartree/Bohr^2, multiply by (10^(-21) x N x a0^2)/(4.184 x 627.51) = 0.0642)


           FORCE MATRIX IN MILLIDYNES/ANGSTROM


                  C  1       C  2       C  3       C  4       C  5       C  6
 ------------------------------------------------------------------------------
     C    1  14.149029
     C    2   3.887754  14.836129
     C    3   3.456474   0.573115  14.611241
     C    4   3.457371   0.573260   0.724907  14.612761
     C    5   0.583957   4.087193   0.056509   0.046437  17.891586
     C    6   0.583352   4.086476   0.046428   0.056806   1.100366  17.885690
     C    7   0.855429   0.034744   4.763166   1.188236   0.003589   0.006758
     C    8   0.855013   0.034878   1.188702   4.765959   0.007175   0.003665
     C    9   0.049171   1.198281   0.008505   0.008854   9.798052   1.577923
     C   10   0.049494   1.199364   0.008838   0.008721   1.576378   9.793941
     H   11   4.328331   0.427939   0.422681   0.422409   0.018422   0.018235
     H   12   0.449195   4.212368   0.021293   0.020987   0.386283   0.386678
     H   13   0.446327   0.057838   4.468297   0.024369   0.016322   0.002262
     H   14   0.435360   0.025156   4.533170   0.031068   0.002222   0.004448
     H   15   0.435444   0.025195   0.031204   4.532872   0.004482   0.002256
     H   16   0.446330   0.057779   0.024292   4.468213   0.002293   0.016677
     H   17   0.010272   0.403456   0.011062   0.001898   5.059754   0.042704
     H   18   0.010286   0.403302   0.001890   0.011131   0.042328   5.059169
     H   19   0.042267   0.003932   0.412217   0.113699   0.001376   0.001101
     H   20   0.042376   0.004097   0.113927   0.412111   0.000976   0.001375
     H   21   0.015509   0.112462   0.000876   0.002393   0.446584   0.049541
     H   22   0.015568   0.112480   0.002388   0.000802   0.049166   0.446727


                  C  7       C  8       C  9       C 10       H 11       H 12
 ------------------------------------------------------------------------------
     C    7  18.407354
     C    8  10.599772  18.410713
     C    9   0.002384   0.002438  18.335045
     C   10   0.002017   0.001628   5.168415  18.331070
     H   11   0.023493   0.023738   0.005611   0.005513   4.773186
     H   12   0.002195   0.002235   0.051009   0.050836   0.042004   4.696937
     H   13   0.425926   0.036903   0.001514   0.001199   0.027969   0.024098
     H   14   0.431411   0.039195   0.000844   0.001128   0.029243   0.001519
     H   15   0.039268   0.430928   0.001262   0.000772   0.029356   0.001497
     H   16   0.036794   0.426093   0.001272   0.001633   0.027925   0.023813
     H   17   0.001789   0.001372   0.442388   0.099987   0.002213   0.011075
     H   18   0.001484   0.001730   0.100266   0.442922   0.002246   0.011176
     H   19   5.022964   0.450290   0.001055   0.000617   0.002414   0.000589
     H   20   0.450664   5.023730   0.000631   0.001169   0.002420   0.000631
     H   21   0.000611   0.000860   5.070651   0.419670   0.000582   0.013920
     H   22   0.000777   0.000553   0.419347   5.070316   0.000608   0.014261


                  H 13       H 14       H 15       H 16       H 17       H 18
 ------------------------------------------------------------------------------
     H   13   5.091188
     H   14   0.570976   5.136595
     H   15   0.003666   0.001148   5.136273
     H   16   0.001412   0.003640   0.570988   5.091208
     H   17   0.024803   0.001725   0.000269   0.000597   5.461292
     H   18   0.000597   0.000278   0.001733   0.024931   0.010310   5.460363
     H   19   0.014194   0.015455   0.014974   0.015343   0.000573   0.000439
     H   20   0.015547   0.014856   0.015489   0.014209   0.000427   0.000542
     H   21   0.000392   0.000298   0.000258   0.000231   0.041369   0.005380
     H   22   0.000203   0.000291   0.000309   0.000344   0.005284   0.041535


                  H 19       H 20       H 21       H 22
 ------------------------------------------------------
     H   19   5.419098
     H   20   0.046658   5.419534
     H   21   0.000249   0.000275   5.460902
     H   22   0.000244   0.000269   0.009488   5.460611


          HEAT OF FORMATION =      43.355983 KCALS/MOLE

          ZERO POINT ENERGY     119.117 KCAL/MOL


           NORMAL COORDINATE ANALYSIS (Total motion = 1 Angstrom)


   Root No.       1         2         3         4         5         6         7         8

                 1 A       2 A       3 A       4 A       5 A       6 A       7 A       8 A   

                  87.7      90.0     163.2     183.9     352.6     366.8     403.1     471.0
  
           1   -0.0061   -0.0187   -0.0212    0.0007   -0.0120    0.0000    0.0002    0.0396
           2    0.0169   -0.0195    0.0023    0.0192   -0.0138   -0.0133   -0.0255    0.0212
           3    0.0195    0.0169   -0.0029    0.0113    0.0231   -0.0077   -0.0155   -0.0354
           4   -0.0059   -0.0181   -0.0227    0.0007   -0.0252   -0.0002    0.0002    0.0270
           5    0.0192   -0.0104   -0.0212    0.0218   -0.0003    0.0122    0.0251    0.0125
           6    0.0143    0.0022    0.0366    0.0118    0.0006    0.0073    0.0149   -0.0209
           7   -0.0031   -0.0233    0.0008   -0.0355    0.0387    0.0004    0.0261    0.0015
           8    0.0186   -0.0211    0.0122    0.0027    0.0034   -0.0158   -0.0221    0.0009
           9   -0.0176    0.0320   -0.0220    0.0087    0.0070    0.0060   -0.0098    0.0082
          10   -0.0111   -0.0201    0.0024    0.0358    0.0384    0.0004   -0.0265    0.0014
          11   -0.0161   -0.0104    0.0140    0.0086   -0.0080   -0.0023   -0.0192   -0.0077
          12    0.0398    0.0121   -0.0213   -0.0012    0.0005   -0.0167   -0.0148    0.0032
          13   -0.0078   -0.0032   -0.0115    0.0392   -0.0343    0.0057    0.0113   -0.0349
          14   -0.0125    0.0056   -0.0179    0.0090    0.0093    0.0060    0.0115   -0.0079
          15    0.0313   -0.0130    0.0293   -0.0013   -0.0064    0.0106    0.0252    0.0186
          16    0.0042   -0.0079   -0.0134   -0.0387   -0.0343   -0.0064   -0.0111   -0.0353
          17    0.0226   -0.0060   -0.0171    0.0038    0.0012    0.0122    0.0276   -0.0128
          18   -0.0272    0.0068    0.0301    0.0074   -0.0112    0.0001   -0.0016    0.0161
          19    0.0138    0.0336   -0.0145   -0.0201    0.0277    0.0430   -0.0005    0.0043
          20   -0.0020    0.0145    0.0057   -0.0176   -0.0112    0.0156   -0.0089   -0.0041
          21   -0.0323   -0.0127   -0.0104   -0.0061    0.0197   -0.0265    0.0152    0.0075
          22    0.0089    0.0355   -0.0136    0.0202    0.0286   -0.0425    0.0004    0.0043
          23   -0.0210    0.0210    0.0058   -0.0142   -0.0115   -0.0160    0.0092   -0.0046
          24   -0.0003   -0.0234   -0.0105   -0.0119    0.0184    0.0267   -0.0153    0.0071
          25    0.0001    0.0151    0.0454    0.0274   -0.0190    0.0098    0.0240    0.0027
          26   -0.0245    0.0184    0.0058   -0.0117    0.0142    0.0016    0.0036    0.0070
          27    0.0037   -0.0188   -0.0107   -0.0143   -0.0225   -0.0003   -0.0010   -0.0111
          28    0.0086    0.0118    0.0442   -0.0296   -0.0190   -0.0101   -0.0238    0.0036
          29   -0.0021    0.0110    0.0059   -0.0185    0.0131    0.0007    0.0007    0.0068
          30   -0.0336   -0.0061   -0.0105   -0.0030   -0.0232    0.0011    0.0038   -0.0120
          31   -0.0025   -0.0077   -0.0573    0.0014   -0.0307   -0.0002    0.0003    0.0686
          32    0.0412   -0.0296    0.0083    0.0107   -0.0101   -0.0289   -0.0347    0.0151
          33    0.0352    0.0147   -0.0134    0.0065    0.0171   -0.0171   -0.0209   -0.0252
          34   -0.0106   -0.0324   -0.0031    0.0004   -0.0364   -0.0003    0.0003    0.0802
          35    0.0448   -0.0160   -0.0243    0.0163    0.0022    0.0230    0.0476    0.0013
          36    0.0276   -0.0074    0.0411    0.0085   -0.0038    0.0136    0.0284   -0.0029
          37    0.0003   -0.0210    0.0124   -0.0521    0.0612    0.0029    0.0387   -0.0295
          38    0.0149   -0.0140   -0.0033    0.0217   -0.0247   -0.0074   -0.0393    0.0375
          39   -0.0184    0.0986   -0.0510    0.0280   -0.0441    0.0897   -0.0556    0.0558
          40   -0.0184   -0.0744    0.0206   -0.0586    0.0762   -0.0629    0.0738   -0.0236
          41    0.0375   -0.0546    0.0409   -0.0165    0.0567   -0.0575    0.0060   -0.0652
          42   -0.0306    0.0120   -0.0183    0.0007    0.0141   -0.0177    0.0090    0.0115
          43   -0.0288   -0.0699    0.0229    0.0589    0.0738    0.0640   -0.0746   -0.0238
          44    0.0016    0.0177   -0.0035   -0.0073   -0.0382   -0.0432    0.0111    0.0208
          45    0.0699    0.0141   -0.0451   -0.0134   -0.0422   -0.0426    0.0017    0.0630
          46   -0.0126   -0.0160    0.0146    0.0518    0.0608   -0.0018   -0.0394   -0.0297
          47   -0.0545   -0.0582    0.0478    0.0341    0.0479    0.0760   -0.0683   -0.0671
          48    0.0524    0.0342   -0.0209    0.0059    0.0019   -0.0490   -0.0083   -0.0065
          49   -0.0163   -0.0048   -0.0373    0.0770   -0.0510    0.0158    0.0262   -0.1072
          50   -0.0232    0.0066   -0.0292    0.0182    0.0036    0.0066    0.0112   -0.0383
          51    0.0608   -0.0171    0.0475   -0.0040    0.0004    0.0161    0.0371    0.0660
          52    0.0101   -0.0148   -0.0412   -0.0757   -0.0510   -0.0172   -0.0264   -0.1089
          53    0.0413   -0.0161   -0.0277    0.0060   -0.0020    0.0171    0.0377   -0.0407
          54   -0.0476    0.0189    0.0491    0.0163   -0.0030   -0.0015   -0.0072    0.0662
          55    0.0270    0.0650   -0.0229   -0.0407    0.0184    0.1053   -0.0075   -0.0018
          56   -0.0011    0.0310    0.0018   -0.0327   -0.0169    0.0479   -0.0061   -0.0079
          57   -0.0649   -0.0311   -0.0035   -0.0111    0.0222   -0.0649    0.0459    0.0089
          58    0.0171    0.0690   -0.0212    0.0408    0.0206   -0.1055    0.0073   -0.0017
          59   -0.0389    0.0445    0.0012   -0.0258   -0.0104   -0.0347    0.0376   -0.0038
          60   -0.0012   -0.0520   -0.0043   -0.0227    0.0236    0.0739   -0.0273    0.0110
          61    0.0007    0.0297    0.0814    0.0541   -0.0092    0.0252    0.0627    0.0036
          62   -0.0471    0.0324    0.0211   -0.0230    0.0159   -0.0018   -0.0032    0.0057
          63    0.0071   -0.0305   -0.0362   -0.0294   -0.0293   -0.0095   -0.0244   -0.0116
          64    0.0167    0.0235    0.0791   -0.0580   -0.0092   -0.0253   -0.0627    0.0063
          65   -0.0061    0.0184    0.0204   -0.0378    0.0183   -0.0089   -0.0232    0.0087
          66   -0.0613   -0.0074   -0.0363   -0.0043   -0.0279    0.0023    0.0091   -0.0123


   Root No.       9        10        11        12        13        14        15        16

                 9 A      10 A      11 A      12 A      13 A      14 A      15 A      16 A   

                 512.3     681.0     742.6     761.4     773.6     811.0     823.9     826.0
  
           1   -0.0004    0.0097    0.0198    0.0126    0.0002    0.0002   -0.0005    0.0050
           2   -0.0075   -0.0212   -0.0074    0.0063   -0.0426    0.0025   -0.0001    0.0035
           3   -0.0039    0.0355    0.0126   -0.0106   -0.0254    0.0013    0.0007   -0.0058
           4   -0.0002    0.0235    0.0056    0.0054    0.0000    0.0000   -0.0003    0.0031
           5    0.0123    0.0104   -0.0135   -0.0060    0.0018    0.0032   -0.0411   -0.0284
           6    0.0075   -0.0174    0.0224    0.0100    0.0014    0.0027   -0.0299    0.0438
           7    0.0079   -0.0051    0.0104   -0.0051   -0.0321    0.0033    0.0026    0.0002
           8   -0.0118   -0.0350   -0.0243   -0.0045   -0.0138    0.0044    0.0037    0.0082
           9   -0.0015   -0.0134   -0.0171    0.0040   -0.0461    0.0037   -0.0018    0.0002
          10   -0.0080   -0.0051    0.0102   -0.0051    0.0323   -0.0032   -0.0026    0.0000
          11   -0.0067    0.0285    0.0266   -0.0013   -0.0468    0.0054    0.0008   -0.0041
          12   -0.0097    0.0244    0.0133    0.0057    0.0099    0.0022    0.0052   -0.0068
          13    0.0391   -0.0013   -0.0084   -0.0071   -0.0020   -0.0311    0.0200    0.0152
          14    0.0203   -0.0005    0.0177    0.0079    0.0012   -0.0077   -0.0593    0.0410
          15   -0.0089    0.0006    0.0113    0.0094    0.0034    0.0128    0.0137    0.0136
          16   -0.0383   -0.0010   -0.0088   -0.0076    0.0019    0.0313   -0.0223    0.0134
          17    0.0022   -0.0003   -0.0184   -0.0121    0.0032    0.0070   -0.0104   -0.0323
          18    0.0217    0.0007   -0.0102   -0.0024   -0.0007   -0.0135   -0.0534   -0.0338
          19    0.0046   -0.0147   -0.0022   -0.0104   -0.0493    0.0037   -0.0014   -0.0051
          20   -0.0044    0.0063    0.0063   -0.0046    0.0842   -0.0071    0.0003   -0.0026
          21    0.0027   -0.0136   -0.0129    0.0078   -0.0138    0.0011   -0.0012    0.0045
          22   -0.0047   -0.0148   -0.0022   -0.0106    0.0492   -0.0039    0.0023   -0.0050
          23    0.0003    0.0089    0.0083   -0.0047    0.0278   -0.0025   -0.0004   -0.0028
          24   -0.0053   -0.0119   -0.0120    0.0077    0.0806   -0.0067    0.0000    0.0044
          25   -0.0331    0.0044   -0.0139   -0.0097   -0.0034   -0.0265    0.0441    0.0028
          26   -0.0191    0.0022    0.0059    0.0015   -0.0026   -0.0099    0.0222    0.0170
          27    0.0322   -0.0034   -0.0047    0.0005    0.0013    0.0015    0.0896   -0.0149
          28    0.0330    0.0045   -0.0142   -0.0100    0.0031    0.0258   -0.0442   -0.0007
          29    0.0192    0.0019    0.0016   -0.0009   -0.0001   -0.0034    0.0881    0.0116
          30   -0.0318   -0.0035   -0.0074   -0.0011   -0.0030   -0.0096   -0.0188   -0.0234
          31   -0.0005    0.0597    0.0263    0.0217    0.0002   -0.0003    0.0039   -0.0470
          32   -0.0156   -0.0294   -0.0092    0.0042   -0.0304    0.0046    0.0178    0.0128
          33   -0.0088    0.0491    0.0157   -0.0076   -0.0181    0.0024    0.0130   -0.0197
          34   -0.0008    0.0059    0.0293    0.0467    0.0001    0.0005   -0.0019    0.0190
          35   -0.0230    0.0132   -0.0182   -0.0142    0.0182    0.0560   -0.0067   -0.0305
          36   -0.0139   -0.0216    0.0294    0.0226    0.0113    0.0345   -0.0100    0.0494
          37    0.0135    0.0136    0.0039   -0.0141   -0.0074   -0.0010   -0.0020   -0.0147
          38   -0.0176   -0.0611   -0.0130   -0.0011   -0.0415    0.0095    0.0104    0.0242
          39   -0.0076   -0.0760    0.0296   -0.0440   -0.0495    0.0087    0.0216    0.0143
          40    0.0167    0.0272   -0.0311    0.0401   -0.0031   -0.0016   -0.0162   -0.0073
          41   -0.0057    0.0203   -0.0590    0.0027   -0.0383    0.0031   -0.0139   -0.0162
          42    0.0018   -0.0112   -0.0310    0.0261   -0.0269    0.0015   -0.0074    0.0027
          43   -0.0164    0.0271   -0.0311    0.0401    0.0027    0.0018    0.0171   -0.0057
          44   -0.0015    0.0004    0.0552   -0.0241   -0.0411    0.0032   -0.0138    0.0040
          45   -0.0071   -0.0231    0.0370    0.0102   -0.0203    0.0031   -0.0114    0.0146
          46   -0.0129    0.0136    0.0039   -0.0143    0.0072    0.0005    0.0046   -0.0146
          47   -0.0137    0.0959   -0.0195    0.0393   -0.0636    0.0119    0.0277   -0.0217
          48   -0.0117    0.0177    0.0256   -0.0202   -0.0130    0.0038    0.0015   -0.0147
          49    0.1042   -0.0739    0.0415    0.0492    0.0412    0.1794    0.0218   -0.0475
          50    0.0440   -0.0313    0.0434    0.0352    0.0190    0.0817   -0.0257    0.0203
          51   -0.0396    0.0490   -0.0365   -0.0395   -0.0238   -0.1266   -0.1021    0.0375
          52   -0.1019   -0.0747    0.0431    0.0511   -0.0403   -0.1785   -0.0154   -0.0475
          53   -0.0132   -0.0287    0.0123    0.0188   -0.0117   -0.0727   -0.0949   -0.0492
          54    0.0561    0.0513   -0.0567   -0.0511    0.0269    0.1298    0.0268    0.0006
          55    0.0090    0.0402   -0.0708    0.1096   -0.0596    0.0005   -0.0210    0.0285
          56    0.0006    0.0405   -0.0184    0.0524    0.0675   -0.0084   -0.0104    0.0112
          57    0.0113   -0.0225    0.0745   -0.0868   -0.0571    0.0049    0.0089   -0.0318
          58   -0.0091    0.0404   -0.0707    0.1096    0.0598    0.0010    0.0158    0.0302
          59    0.0103    0.0003   -0.0563    0.0510   -0.0184    0.0008   -0.0011    0.0227
          60   -0.0050   -0.0464    0.0510   -0.0873    0.0862   -0.0109   -0.0089   -0.0260
          61   -0.1257   -0.0405    0.0493    0.0630    0.0104    0.0817    0.1001   -0.1168
          62   -0.0745   -0.0169    0.0131    0.0209   -0.0007    0.0511    0.0078   -0.0880
          63    0.1008    0.0284   -0.0465   -0.0492   -0.0078   -0.0782    0.0581    0.0792
          64    0.1247   -0.0407    0.0498    0.0636   -0.0093   -0.0795   -0.0803   -0.1223
          65    0.0530   -0.0172    0.0352    0.0340   -0.0065   -0.0431    0.0591   -0.0235
          66   -0.1127    0.0290   -0.0345   -0.0429    0.0025    0.0812   -0.0392    0.1120


   Root No.      17        18        19        20        21        22        23        24

                17 A      18 A      19 A      20 A      21 A      22 A      23 A      24 A   

                 869.1     903.9     957.9     981.7     993.9     996.5    1008.3    1014.3
  
           1    0.0000   -0.0033   -0.0019    0.0001    0.0001    0.0004   -0.0145    0.0003
           2   -0.0011   -0.0059   -0.0059   -0.0034    0.0104   -0.0131    0.0120    0.0164
           3   -0.0007    0.0100    0.0099   -0.0025    0.0078    0.0208   -0.0196    0.0105
           4   -0.0003    0.0277    0.0018   -0.0001    0.0004    0.0071   -0.0137    0.0002
           5    0.0010    0.0046   -0.0006    0.0047    0.0014    0.0121    0.0118    0.0042
           6    0.0006   -0.0077    0.0010    0.0032   -0.0004   -0.0201   -0.0195    0.0028
           7    0.0266   -0.0231    0.0098    0.0022    0.0082    0.0103    0.0007   -0.0206
           8    0.0056    0.0191    0.0073    0.0038   -0.0073    0.0149   -0.0136   -0.0212
           9   -0.0255    0.0179   -0.0088    0.0005   -0.0205   -0.0105    0.0037   -0.0102
          10   -0.0261   -0.0234    0.0098   -0.0026   -0.0072    0.0106    0.0011    0.0208
          11   -0.0193   -0.0252    0.0044    0.0021   -0.0211    0.0040    0.0025   -0.0190
          12    0.0171   -0.0081   -0.0106    0.0038    0.0015   -0.0181    0.0134   -0.0145
          13   -0.0002    0.0039    0.0200   -0.0149    0.0005   -0.0127    0.0029    0.0003
          14    0.0044    0.0201    0.0145   -0.0172    0.0001   -0.0016    0.0086   -0.0054
          15    0.0004    0.0164   -0.0069    0.0000   -0.0005    0.0168    0.0136   -0.0045
          16    0.0001    0.0039    0.0201    0.0148   -0.0018   -0.0126    0.0029   -0.0006
          17    0.0030   -0.0239   -0.0008   -0.0078   -0.0016   -0.0144   -0.0163   -0.0063
          18    0.0039   -0.0099   -0.0160   -0.0151    0.0013    0.0092   -0.0011   -0.0026
          19    0.0024    0.0120   -0.0079   -0.0003   -0.0219   -0.0094    0.0014    0.0203
          20    0.0040    0.0039   -0.0041   -0.0015   -0.0125   -0.0071    0.0053    0.0051
          21    0.0001   -0.0070    0.0059    0.0005    0.0274    0.0085   -0.0041    0.0031
          22   -0.0027    0.0120   -0.0078    0.0007    0.0208   -0.0108    0.0011   -0.0205
          23    0.0019    0.0044   -0.0033   -0.0001    0.0176   -0.0055    0.0014    0.0051
          24    0.0037   -0.0067    0.0063   -0.0019   -0.0228    0.0119   -0.0068    0.0034
          25   -0.0013   -0.0084   -0.0165    0.0324   -0.0021    0.0055   -0.0022   -0.0004
          26   -0.0007    0.0011   -0.0062    0.0160   -0.0012   -0.0002   -0.0077    0.0000
          27   -0.0046    0.0004    0.0099   -0.0247    0.0006   -0.0089   -0.0083    0.0008
          28    0.0015   -0.0084   -0.0170   -0.0322    0.0027    0.0052   -0.0021    0.0005
          29   -0.0044   -0.0009   -0.0060   -0.0143    0.0006    0.0078    0.0110    0.0005
          30    0.0016   -0.0008    0.0106    0.0257   -0.0018   -0.0037    0.0029   -0.0005
          31   -0.0005    0.0464   -0.0440    0.0001    0.0016    0.0267   -0.0317    0.0006
          32    0.0551   -0.0125    0.0014   -0.0088    0.1091   -0.0208    0.0155    0.0728
          33    0.0326    0.0221   -0.0022   -0.0057    0.0672    0.0244   -0.0233    0.0443
          34   -0.0008    0.0649   -0.0695    0.0009   -0.0012   -0.0327   -0.0611    0.0000
          35    0.0008   -0.0035    0.0131    0.1820    0.0128    0.0213    0.0216    0.0355
          36    0.0002    0.0056   -0.0211    0.1099    0.0058   -0.0301   -0.0334    0.0214
          37    0.0005    0.0068   -0.0008   -0.0108   -0.0578    0.0251    0.0145   -0.0133
          38    0.0470   -0.0178    0.0231    0.0169    0.0595    0.0079   -0.0265   -0.0351
          39    0.1089   -0.0426    0.0376   -0.0012   -0.0048    0.0544   -0.0008   -0.0655
          40   -0.0726   -0.0034   -0.0348    0.0092   -0.0065   -0.0806    0.0593   -0.0619
          41   -0.0940    0.1092   -0.0178   -0.0068   -0.0850    0.0326   -0.0375    0.0682
          42   -0.0529    0.0055   -0.0263    0.0070   -0.0078   -0.0644    0.0422   -0.0549
          43    0.0726   -0.0021   -0.0353   -0.0066   -0.0019   -0.0824    0.0611    0.0594
          44   -0.0901   -0.0582    0.0319    0.0013   -0.0426    0.0451   -0.0202   -0.0147
          45   -0.0562   -0.0945    0.0030   -0.0080   -0.0771   -0.0558    0.0548    0.0845
          46   -0.0004    0.0070   -0.0007    0.0100    0.0600    0.0212    0.0152    0.0125
          47    0.1175    0.0479   -0.0443    0.0091    0.0192   -0.0523    0.0117   -0.0756
          48   -0.0102   -0.0047   -0.0022    0.0149    0.0561    0.0155    0.0233   -0.0010
          49    0.0003   -0.0032   -0.0848    0.0518   -0.0051    0.0876    0.0757   -0.0091
          50    0.0006    0.0136   -0.0352    0.0175    0.0000    0.0212   -0.0013   -0.0046
          51    0.0137    0.0338    0.0805   -0.0651   -0.0043    0.0153    0.0996   -0.0140
          52   -0.0003   -0.0033   -0.0848   -0.0525    0.0132    0.0866    0.0759    0.0080
          53    0.0130   -0.0361   -0.0544   -0.0473   -0.0049   -0.0241   -0.0876   -0.0125
          54   -0.0058    0.0040    0.0690    0.0449    0.0001   -0.0111    0.0482    0.0011
          55   -0.1004   -0.0655    0.0259    0.0033    0.1421    0.0201    0.0035    0.0197
          56   -0.0412   -0.0431    0.0107   -0.0013    0.0820   -0.0005    0.0172    0.0398
          57    0.0957    0.0095   -0.0265   -0.0082   -0.0371   -0.0466    0.0399    0.1399
          58    0.1023   -0.0641    0.0253   -0.0045   -0.1397    0.0307    0.0017   -0.0193
          59    0.0645    0.0138    0.0176   -0.0090    0.0126    0.0385   -0.0400    0.1448
          60   -0.0828    0.0412   -0.0215    0.0038    0.0868   -0.0277    0.0039   -0.0320
          61   -0.0073    0.0507    0.0887   -0.1541    0.0066   -0.0148    0.0261   -0.0047
          62   -0.0028   -0.0177    0.0175   -0.0199    0.0017   -0.0451   -0.0806    0.0180
          63   -0.0005   -0.0338   -0.0610    0.1000   -0.0054    0.0120   -0.0133    0.0004
          64    0.0069    0.0509    0.0908    0.1530   -0.0084   -0.0126    0.0264    0.0040
          65   -0.0023    0.0380    0.0462    0.0771   -0.0035    0.0121    0.0500    0.0076
          66   -0.0026   -0.0007   -0.0460   -0.0667    0.0080    0.0453    0.0651    0.0144


   Root No.      25        26        27        28        29        30        31        32

                25 A      26 A      27 A      28 A      29 A      30 A      31 A      32 A   

                1028.4    1052.6    1075.6    1091.3    1092.4    1103.6    1115.2    1120.4
  
           1    0.0002   -0.0267    0.0000    0.0005    0.0043   -0.0037   -0.0053    0.0002
           2   -0.0046    0.0103   -0.0027    0.0098   -0.0035   -0.0045   -0.0041    0.0141
           3   -0.0028   -0.0170   -0.0013    0.0061    0.0036    0.0078    0.0072    0.0085
           4    0.0001    0.0066    0.0001   -0.0003   -0.0019    0.0002    0.0277   -0.0005
           5    0.0126    0.0014    0.0017    0.0035   -0.0018   -0.0009    0.0064   -0.0023
           6    0.0079   -0.0021    0.0010    0.0024    0.0022    0.0018   -0.0106   -0.0010
           7    0.0038    0.0039    0.0050   -0.0030    0.0030    0.0092    0.0043    0.0022
           8    0.0039   -0.0079    0.0021   -0.0081    0.0058    0.0056    0.0109   -0.0196
           9    0.0013    0.0027   -0.0018    0.0027    0.0037    0.0065    0.0112    0.0101
          10   -0.0041    0.0041   -0.0048    0.0031    0.0025    0.0094    0.0043   -0.0022
          11    0.0028    0.0012   -0.0009   -0.0021   -0.0055   -0.0084   -0.0151   -0.0005
          12    0.0029    0.0080    0.0025   -0.0087   -0.0016   -0.0020   -0.0049   -0.0222
          13    0.0218    0.0040    0.0021    0.0008    0.0010   -0.0008   -0.0046   -0.0007
          14   -0.0077    0.0001   -0.0085   -0.0115    0.0085   -0.0048    0.0075    0.0037
          15   -0.0276   -0.0078   -0.0024    0.0014    0.0054   -0.0052    0.0165   -0.0018
          16   -0.0215    0.0039   -0.0022   -0.0005    0.0012   -0.0009   -0.0046    0.0009
          17   -0.0278    0.0065   -0.0063   -0.0058   -0.0076    0.0066   -0.0180    0.0008
          18    0.0059   -0.0039   -0.0065   -0.0115   -0.0027    0.0014    0.0011    0.0041
          19    0.0018   -0.0087   -0.0170    0.0072   -0.0063   -0.0127   -0.0138   -0.0057
          20    0.0012    0.0007   -0.0065    0.0056    0.0039    0.0076    0.0118    0.0044
          21   -0.0038    0.0044    0.0125   -0.0101   -0.0051   -0.0100   -0.0093   -0.0046
          22   -0.0016   -0.0089    0.0166   -0.0075   -0.0054   -0.0132   -0.0137    0.0057
          23   -0.0026   -0.0042    0.0080   -0.0059    0.0036    0.0048    0.0026   -0.0019
          24    0.0026    0.0016   -0.0120    0.0091   -0.0073   -0.0108   -0.0147    0.0060
          25   -0.0203   -0.0022    0.0002    0.0025   -0.0016   -0.0002    0.0059   -0.0019
          26   -0.0073   -0.0005    0.0011    0.0010    0.0063   -0.0029    0.0111    0.0005
          27    0.0136   -0.0003    0.0011    0.0005    0.0024   -0.0019    0.0110   -0.0010
          28    0.0202   -0.0021   -0.0002   -0.0028   -0.0010   -0.0003    0.0059    0.0017
          29    0.0082    0.0006    0.0014    0.0001   -0.0052    0.0030   -0.0149   -0.0002
          30   -0.0128    0.0002    0.0003   -0.0001   -0.0046    0.0017   -0.0046    0.0010
          31   -0.0005   -0.0525    0.0005    0.0028    0.0375    0.0381   -0.0843    0.0032
          32   -0.0364    0.0155   -0.0170    0.0626   -0.0150   -0.0117    0.0118    0.1862
          33   -0.0221   -0.0243   -0.0096    0.0385    0.0097    0.0206   -0.0144    0.1124
          34   -0.0009    0.1815    0.0002   -0.0031   -0.0260    0.0256   -0.0890    0.0008
          35    0.2338   -0.0307   -0.0063   -0.0587    0.0082   -0.0068    0.0282    0.0501
          36    0.1400    0.0533   -0.0037   -0.0360   -0.0012    0.0089   -0.0472    0.0310
          37   -0.0140    0.1003    0.0766   -0.0238    0.0154    0.0481    0.0238    0.0728
          38    0.0219   -0.0933   -0.0604    0.0094   -0.0034   -0.0246   -0.0008   -0.0829
          39   -0.0024    0.0751    0.0600   -0.0218    0.0228    0.0623    0.0516    0.0497
          40    0.0228   -0.0316   -0.0714    0.0650    0.0305    0.0623    0.0383    0.0332
          41   -0.0173    0.0404    0.0689   -0.0539   -0.0144   -0.0425    0.0022    0.0017
          42    0.0168   -0.0275   -0.0602    0.0519    0.0238    0.0482    0.0345    0.0238
          43   -0.0213   -0.0325    0.0728   -0.0613    0.0407    0.0587    0.0373   -0.0327
          44    0.0057    0.0053   -0.0209    0.0184   -0.0174   -0.0212   -0.0310    0.0216
          45   -0.0220   -0.0494    0.0905   -0.0691    0.0348    0.0562    0.0136   -0.0094
          46    0.0123    0.1007   -0.0752    0.0233    0.0136    0.0502    0.0228   -0.0730
          47    0.0094   -0.0226    0.0229   -0.0153   -0.0161   -0.0439   -0.0451    0.0045
          48    0.0185    0.1179   -0.0803    0.0176    0.0135    0.0534    0.0236   -0.0969
          49   -0.0605   -0.0001    0.0524    0.0792    0.0545   -0.0247   -0.0353   -0.0281
          50   -0.0394   -0.0098   -0.0184   -0.0210   -0.0021   -0.0019    0.0290    0.0061
          51    0.0175    0.0222    0.0664    0.0890    0.0830   -0.0336   -0.0731   -0.0286
          52    0.0576    0.0000   -0.0510   -0.0677    0.0700   -0.0271   -0.0351    0.0293
          53   -0.0023   -0.0148    0.0484    0.0541   -0.0853    0.0324    0.0505   -0.0241
          54   -0.0431    0.0185   -0.0467   -0.0519    0.0531   -0.0160   -0.0597    0.0209
          55   -0.0166    0.0308    0.0281   -0.0246   -0.0276   -0.0611    0.0247   -0.0341
          56   -0.0128    0.0330    0.0118   -0.0124   -0.0204   -0.0487    0.0568   -0.0285
          57   -0.0098    0.0293   -0.0359    0.0046   -0.0483   -0.1101    0.0620   -0.0566
          58    0.0160    0.0309   -0.0297    0.0220   -0.0312   -0.0594    0.0253    0.0332
          59   -0.0154   -0.0407   -0.0229    0.0023    0.0533    0.1207   -0.0829   -0.0619
          60   -0.0061   -0.0155    0.0271   -0.0131   -0.0033   -0.0105   -0.0205    0.0019
          61    0.0323   -0.0080   -0.0286   -0.0479   -0.0580    0.0218   -0.0005    0.0139
          62    0.0961    0.0310    0.0799    0.1214    0.1589   -0.0618    0.0276   -0.0376
          63   -0.0379   -0.0023    0.0063    0.0125    0.0123   -0.0061    0.0133   -0.0049
          64   -0.0314   -0.0079    0.0275    0.0372   -0.0675    0.0234   -0.0005   -0.0143
          65    0.0120   -0.0120    0.0413    0.0524   -0.0986    0.0366   -0.0248   -0.0218
          66    0.1016   -0.0269    0.0642    0.0761   -0.1524    0.0545   -0.0183   -0.0309


   Root No.      33        34        35        36        37        38        39        40

                33 A      34 A      35 A      36 A      37 A      38 A      39 A      40 A   

                1126.2    1154.9    1201.9    1221.0    1233.9    1253.6    1327.5    1343.5
  
           1    0.0116   -0.0053    0.0001    0.0589   -0.0001    0.0001    0.0001   -0.0148
           2   -0.0026   -0.0210   -0.0284    0.0018    0.0375    0.0346   -0.0299   -0.0038
           3    0.0040    0.0352   -0.0169   -0.0027    0.0224    0.0206   -0.0178    0.0066
           4   -0.0261    0.0136    0.0001    0.0174    0.0000    0.0000    0.0001    0.0497
           5   -0.0100    0.0040   -0.0318   -0.0167   -0.0014    0.0010    0.0954   -0.0137
           6    0.0166   -0.0066   -0.0189    0.0281   -0.0009    0.0006    0.0572    0.0224
           7    0.0046    0.0050   -0.0083   -0.0035   -0.0018    0.0199   -0.0096   -0.0335
           8    0.0225    0.0131    0.0111   -0.0040   -0.0026   -0.0273    0.0106    0.0240
           9    0.0092    0.0010    0.0035    0.0186   -0.0090    0.0060   -0.0084   -0.0317
          10    0.0047    0.0050    0.0083   -0.0036    0.0019   -0.0200    0.0093   -0.0334
          11   -0.0188   -0.0071    0.0082   -0.0146   -0.0092   -0.0077   -0.0022    0.0165
          12   -0.0150   -0.0111    0.0082    0.0124    0.0020   -0.0269    0.0131   -0.0361
          13    0.0033   -0.0034   -0.0053   -0.0079   -0.0075   -0.0062   -0.0197   -0.0044
          14   -0.0047   -0.0084    0.0080   -0.0186   -0.0035   -0.0039   -0.0359   -0.0101
          15   -0.0111   -0.0090   -0.0096   -0.0189   -0.0114   -0.0091   -0.0468   -0.0063
          16    0.0033   -0.0033    0.0052   -0.0079    0.0075    0.0062    0.0197   -0.0045
          17    0.0120    0.0118   -0.0045    0.0255   -0.0118   -0.0098   -0.0581    0.0106
          18   -0.0011    0.0032    0.0117    0.0074    0.0023    0.0008   -0.0096    0.0060
          19   -0.0141   -0.0045    0.0062   -0.0103   -0.0121    0.0038    0.0117    0.0179
          20    0.0115    0.0055   -0.0025    0.0067   -0.0028    0.0118   -0.0032   -0.0108
          21   -0.0083   -0.0065    0.0024   -0.0100   -0.0148    0.0113    0.0136    0.0166
          22   -0.0142   -0.0045   -0.0063   -0.0101    0.0120   -0.0037   -0.0115    0.0178
          23    0.0020    0.0032    0.0010    0.0055   -0.0144    0.0155    0.0104   -0.0095
          24   -0.0143   -0.0079   -0.0034   -0.0106    0.0045    0.0050   -0.0092    0.0173
          25   -0.0035   -0.0038   -0.0057   -0.0086   -0.0024   -0.0018    0.0004   -0.0063
          26   -0.0061   -0.0070    0.0146   -0.0124    0.0100    0.0078    0.0177   -0.0140
          27   -0.0054   -0.0103    0.0034   -0.0198    0.0021    0.0015    0.0098   -0.0183
          28   -0.0035   -0.0038    0.0057   -0.0086    0.0025    0.0018   -0.0003   -0.0063
          29    0.0076    0.0124    0.0099    0.0232    0.0065    0.0051    0.0171    0.0227
          30    0.0028    0.0013    0.0112    0.0016    0.0078    0.0062    0.0110    0.0037
          31    0.2357   -0.1238   -0.0006   -0.1308    0.0002    0.0000    0.0001    0.0286
          32   -0.0417   -0.0022    0.0760    0.0338   -0.1018   -0.0587    0.0532   -0.0104
          33    0.0661    0.0036    0.0451   -0.0574   -0.0607   -0.0351    0.0318    0.0170
          34   -0.0012    0.1586   -0.0001   -0.1038    0.0000   -0.0002   -0.0004   -0.0692
          35   -0.0150   -0.0240    0.0752    0.0069    0.0234    0.0086   -0.1033    0.0087
          36    0.0246    0.0400    0.0451   -0.0123    0.0140    0.0051   -0.0620   -0.0140
          37    0.0130   -0.0646   -0.0237    0.0255    0.0503   -0.0447    0.0065    0.0657
          38    0.0206    0.0798    0.0236   -0.0311   -0.0455    0.0238    0.0006   -0.0743
          39    0.0356   -0.0097   -0.0119    0.0170    0.0421   -0.0727    0.0235    0.0068
          40    0.0170    0.0325   -0.0036   -0.0171    0.0490   -0.0626    0.0169    0.0376
          41    0.0253   -0.0454    0.0258    0.0884   -0.0446   -0.0049    0.0081   -0.0998
          42    0.0163    0.0319    0.0029   -0.0101    0.0298   -0.0474    0.0079    0.0343
          43    0.0181    0.0325    0.0036   -0.0174   -0.0488    0.0624   -0.0166    0.0373
          44   -0.0271   -0.0067    0.0145   -0.0331    0.0050   -0.0441    0.0108    0.0171
          45   -0.0141    0.0547    0.0209   -0.0829   -0.0532    0.0178    0.0039    0.1037
          46    0.0148   -0.0643    0.0239    0.0250   -0.0506    0.0450   -0.0060    0.0654
          47   -0.0413   -0.0295    0.0005    0.0002    0.0155   -0.0527    0.0210    0.0290
          48    0.0010   -0.0745    0.0267    0.0348   -0.0604    0.0558   -0.0100    0.0684
          49    0.0017    0.0390    0.0878    0.0375    0.0310    0.0297    0.0142    0.0103
          50   -0.0168   -0.0142   -0.0128   -0.0265   -0.0094   -0.0089   -0.0396   -0.0102
          51    0.0254    0.0382    0.1270    0.0331    0.0369    0.0336   -0.0093   -0.0019
          52    0.0013    0.0391   -0.0875    0.0380   -0.0311   -0.0298   -0.0142    0.0103
          53   -0.0140   -0.0272    0.1059   -0.0173    0.0282    0.0254   -0.0268    0.0067
          54    0.0264    0.0308   -0.0710    0.0395   -0.0259   -0.0237   -0.0305    0.0081
          55    0.0488    0.0088    0.0041   -0.0144    0.0310   -0.0482   -0.0046    0.0282
          56    0.0827    0.0243   -0.0023    0.0058    0.0451   -0.0474   -0.0225   -0.0019
          57    0.1008    0.0290    0.0079   -0.0087    0.0631   -0.0875   -0.0195    0.0332
          58    0.0474    0.0088   -0.0043   -0.0148   -0.0305    0.0477    0.0047    0.0282
          59   -0.1268   -0.0374    0.0060    0.0056    0.0765   -0.0991   -0.0280   -0.0282
          60   -0.0246   -0.0075   -0.0058   -0.0090    0.0095    0.0001   -0.0104    0.0173
          61    0.0026   -0.0035    0.0369   -0.0088    0.0240    0.0166    0.0407   -0.0145
          62   -0.0242   -0.0090   -0.0929   -0.0173   -0.0612   -0.0425   -0.0923    0.0082
          63   -0.0068   -0.0113   -0.0052   -0.0219   -0.0026   -0.0017    0.0027   -0.0201
          64    0.0028   -0.0035   -0.0373   -0.0085   -0.0242   -0.0168   -0.0412   -0.0144
          65    0.0178    0.0142   -0.0485    0.0278   -0.0315   -0.0216   -0.0414    0.0140
          66    0.0187    0.0025   -0.0796    0.0054   -0.0529   -0.0368   -0.0829   -0.0165


   Root No.      41        42        43        44        45        46        47        48

                41 A      42 A      43 A      44 A      45 A      46 A      47 A      48 A   

                1371.8    1396.3    1404.4    1412.2    1424.4    1732.6    1790.0    1831.0
  
           1    0.0000    0.0579    0.0075    0.0001   -0.0468   -0.0025    0.0000   -0.0074
           2   -0.0063   -0.0115   -0.0012   -0.0145    0.0084    0.0007   -0.0037    0.0030
           3   -0.0037    0.0196    0.0016   -0.0086   -0.0140   -0.0011   -0.0022   -0.0051
           4    0.0000   -0.0422   -0.0048    0.0000    0.0589   -0.0113    0.0000    0.0016
           5    0.0091    0.0070    0.0012    0.0116   -0.0178    0.0061    0.0007   -0.0001
           6    0.0055   -0.0119   -0.0017    0.0069    0.0298   -0.0101    0.0003    0.0001
           7    0.0240   -0.0281    0.0124    0.0225    0.0126    0.0000   -0.0002    0.0072
           8   -0.0251    0.0136    0.0238    0.0146   -0.0104   -0.0003    0.0006    0.0099
           9    0.0166   -0.0209    0.0295    0.0367    0.0055   -0.0003    0.0000    0.0149
          10   -0.0241   -0.0279    0.0118   -0.0230    0.0126    0.0000    0.0002    0.0072
          11    0.0028    0.0115   -0.0362    0.0403    0.0000    0.0004    0.0003   -0.0179
          12   -0.0301   -0.0219   -0.0071   -0.0045    0.0118    0.0001    0.0006   -0.0015
          13   -0.0015   -0.0068   -0.0019   -0.0013   -0.0201    0.0870    0.0792    0.0001
          14   -0.0029    0.0032    0.0000   -0.0032   -0.0113   -0.0900   -0.0729    0.0000
          15   -0.0036   -0.0115   -0.0027   -0.0043   -0.0313    0.0670    0.0674    0.0001
          16    0.0015   -0.0068   -0.0019    0.0012   -0.0200    0.0873   -0.0788    0.0001
          17   -0.0046    0.0087    0.0022   -0.0053    0.0329   -0.0168    0.0250   -0.0001
          18   -0.0009   -0.0083   -0.0013   -0.0008   -0.0048    0.1114   -0.0956    0.0001
          19   -0.0266    0.0083   -0.0087   -0.0227   -0.0017    0.0001    0.0000   -0.0176
          20    0.0049   -0.0059    0.0069   -0.0022    0.0016    0.0000   -0.0001   -0.1886
          21   -0.0313    0.0065   -0.0067   -0.0299   -0.0012    0.0002    0.0000   -0.1342
          22    0.0266    0.0081   -0.0081    0.0230   -0.0017    0.0001    0.0000   -0.0173
          23   -0.0253   -0.0026    0.0020   -0.0274    0.0003   -0.0002    0.0000    0.2079
          24    0.0192    0.0082   -0.0090    0.0126   -0.0020    0.0001    0.0000    0.1020
          25    0.0001    0.0058    0.0008    0.0001   -0.0022   -0.0760   -0.0806   -0.0001
          26    0.0012    0.0429    0.0087    0.0012    0.0511    0.0959    0.0910    0.0000
          27    0.0008    0.0346    0.0064    0.0009    0.0267   -0.0498   -0.0588   -0.0001
          28   -0.0001    0.0058    0.0008    0.0000   -0.0023   -0.0764    0.0802   -0.0001
          29    0.0013   -0.0507   -0.0097    0.0012   -0.0476   -0.0012   -0.0090    0.0001
          30    0.0007   -0.0215   -0.0046    0.0006   -0.0324   -0.1085    0.1075   -0.0001
          31    0.0000   -0.0699   -0.0194    0.0001    0.0623    0.0019    0.0000    0.0033
          32    0.0225    0.0094    0.0041    0.0479   -0.0098    0.0001    0.0007    0.0021
          33    0.0135   -0.0164   -0.0055    0.0286    0.0162   -0.0003    0.0004   -0.0035
          34    0.0000    0.0495    0.0013    0.0001   -0.0544    0.0055    0.0000   -0.0009
          35   -0.0162   -0.0087    0.0006   -0.0072    0.0028   -0.0006   -0.0291    0.0004
          36   -0.0097    0.0149   -0.0011   -0.0042   -0.0049    0.0012   -0.0175   -0.0007
          37   -0.0845    0.0440    0.0688    0.0381   -0.0389   -0.0008   -0.0012    0.0222
          38    0.1054   -0.0473   -0.0810   -0.0415    0.0412    0.0007    0.0013   -0.0104
          39    0.0805    0.0442   -0.1614   -0.1277   -0.0043    0.0003   -0.0001    0.0216
          40    0.0360    0.0447   -0.1173   -0.0997   -0.0056    0.0003   -0.0001    0.0246
          41    0.1433   -0.0055   -0.1440   -0.0926    0.0182    0.0000    0.0005   -0.0099
          42   -0.0069    0.0248   -0.0184   -0.0181   -0.0093   -0.0001    0.0000    0.0245
          43   -0.0360    0.0437   -0.1148    0.1029   -0.0058    0.0004    0.0001    0.0245
          44    0.0620   -0.0188    0.0831   -0.0622   -0.0003    0.0001    0.0002   -0.0169
          45    0.1297    0.0171    0.1164   -0.0758   -0.0202   -0.0001    0.0004    0.0205
          46    0.0846    0.0443    0.0679   -0.0394   -0.0388   -0.0009    0.0013    0.0221
          47    0.1207   -0.0154    0.1771   -0.1364   -0.0154   -0.0006    0.0006   -0.0140
          48    0.0548    0.0624   -0.0047    0.0246   -0.0383   -0.0006    0.0012    0.0194
          49    0.0019    0.0241    0.0073    0.0005    0.0681   -0.0013   -0.0009   -0.0005
          50   -0.0033   -0.0032   -0.0013   -0.0036   -0.0239   -0.0985   -0.0800    0.0001
          51    0.0002    0.0405    0.0095   -0.0016    0.0750   -0.0595   -0.0490   -0.0007
          52   -0.0019    0.0241    0.0073   -0.0004    0.0682   -0.0012    0.0008   -0.0005
          53   -0.0014   -0.0342   -0.0078   -0.0032   -0.0550    0.0992   -0.0807    0.0005
          54   -0.0030    0.0220    0.0055   -0.0024    0.0565    0.0589   -0.0470   -0.0003
          55    0.0112    0.0131   -0.0049    0.0187   -0.0048    0.0000    0.0001    0.1100
          56    0.0494   -0.0009    0.0141    0.0457   -0.0022   -0.0001    0.0001   -0.1058
          57    0.0438    0.0168    0.0021    0.0506   -0.0074    0.0001    0.0004    0.0744
          58   -0.0108    0.0133   -0.0054   -0.0183   -0.0047    0.0000   -0.0001    0.1094
          59    0.0618   -0.0150   -0.0069    0.0662    0.0074    0.0000    0.0003   -0.0156
          60    0.0226    0.0086   -0.0109    0.0165   -0.0016    0.0002   -0.0001    0.1288
          61    0.0026    0.0392    0.0077    0.0024    0.0409   -0.0516   -0.0282    0.0000
          62   -0.0056   -0.0445   -0.0091   -0.0055   -0.0584   -0.0092   -0.0786    0.0002
          63    0.0004    0.0329    0.0058    0.0005    0.0192   -0.0782   -0.0885   -0.0002
          64   -0.0027    0.0393    0.0077   -0.0023    0.0411   -0.0516    0.0279   -0.0001
          65   -0.0023   -0.0079   -0.0009   -0.0021    0.0108    0.0740   -0.1150    0.0002
          66   -0.0052    0.0548    0.0106   -0.0049    0.0604   -0.0287   -0.0276   -0.0002


   Root No.      49        50        51        52        53        54        55        56

                49 A      50 A      51 A      52 A      53 A      54 A      55 A      56 A   

                2885.5    2907.2    2969.9    2971.3    3049.9    3050.9    3116.1    3129.7
  
           1   -0.0028    0.0164    0.0000   -0.0014    0.0000    0.0005    0.0000    0.0000
           2   -0.0057    0.0260    0.0001   -0.0021   -0.0007    0.0001    0.0001    0.0001
           3    0.0095   -0.0436    0.0002    0.0035   -0.0004   -0.0002    0.0000    0.0000
           4    0.0195    0.0041    0.0000    0.0003    0.0000    0.0001    0.0000    0.0000
           5    0.0290    0.0051    0.0003   -0.0001   -0.0001    0.0001    0.0000    0.0002
           6   -0.0485   -0.0085    0.0002    0.0002    0.0000   -0.0001    0.0000    0.0001
           7    0.0010   -0.0039    0.0222   -0.0223   -0.0018   -0.0018    0.0001   -0.0001
           8    0.0003   -0.0009    0.0108   -0.0109   -0.0147   -0.0148   -0.0002   -0.0001
           9   -0.0005    0.0031   -0.0163    0.0163   -0.0152   -0.0152   -0.0001   -0.0001
          10    0.0010   -0.0039   -0.0236   -0.0210    0.0018   -0.0017   -0.0001    0.0001
          11    0.0003   -0.0023   -0.0098   -0.0086   -0.0207    0.0201   -0.0002   -0.0001
          12   -0.0005    0.0022    0.0183    0.0163   -0.0058    0.0057   -0.0001   -0.0001
          13   -0.0004    0.0001    0.0000    0.0000    0.0001    0.0001    0.0000   -0.0037
          14   -0.0002    0.0000    0.0002   -0.0002   -0.0003   -0.0003    0.0001    0.0162
          15   -0.0009   -0.0001    0.0000   -0.0001    0.0000   -0.0001    0.0000    0.0047
          16   -0.0004    0.0001    0.0000    0.0000   -0.0001    0.0001    0.0000    0.0043
          17    0.0009    0.0001    0.0001    0.0001   -0.0002    0.0002    0.0001    0.0137
          18   -0.0003   -0.0001    0.0001    0.0001   -0.0002    0.0002    0.0001    0.0140
          19    0.0000    0.0001   -0.0001   -0.0002   -0.0005   -0.0007    0.0208    0.0000
          20    0.0000   -0.0001    0.0000   -0.0001    0.0005    0.0007   -0.0311    0.0000
          21    0.0000    0.0001    0.0001    0.0000   -0.0003   -0.0005    0.0076    0.0000
          22    0.0000    0.0001    0.0000   -0.0002    0.0005   -0.0007   -0.0206    0.0001
          23    0.0000    0.0000    0.0001    0.0000    0.0000    0.0001   -0.0079    0.0000
          24    0.0000    0.0001   -0.0001    0.0001    0.0006   -0.0009   -0.0306    0.0001
          25    0.0004    0.0001    0.0000    0.0000    0.0000    0.0000    0.0000   -0.0101
          26   -0.0003    0.0000    0.0000    0.0000    0.0000    0.0000    0.0000   -0.0028
          27    0.0002    0.0000    0.0000    0.0000    0.0000    0.0000    0.0000   -0.0159
          28    0.0004    0.0001    0.0000    0.0000    0.0000    0.0000    0.0000    0.0113
          29    0.0000    0.0000    0.0000    0.0000    0.0000    0.0000    0.0000   -0.0172
          30    0.0003    0.0000    0.0000    0.0000    0.0000    0.0000    0.0000    0.0057
          31    0.0414   -0.2007    0.0005    0.0134    0.0000   -0.0022    0.0000    0.0000
          32    0.0711   -0.3129   -0.0021    0.0253   -0.0012   -0.0040    0.0002    0.0000
          33   -0.1191    0.5239   -0.0032   -0.0421   -0.0008    0.0067    0.0001    0.0000
          34   -0.2527   -0.0477    0.0001    0.0012    0.0000   -0.0006    0.0000    0.0000
          35   -0.3530   -0.0611    0.0007    0.0001   -0.0003   -0.0011    0.0000    0.0009
          36    0.5895    0.1020    0.0003   -0.0002   -0.0002    0.0018    0.0000    0.0004
          37   -0.0053    0.0265   -0.1752    0.1767    0.1503    0.1475    0.0036    0.0018
          38   -0.0074    0.0227   -0.1768    0.1783    0.1396    0.1367    0.0018    0.0015
          39    0.0003   -0.0036    0.0239   -0.0239   -0.0346   -0.0339    0.0002   -0.0002
          40   -0.0025    0.0168   -0.0915    0.0915   -0.1305   -0.1283   -0.0015   -0.0005
          41    0.0005   -0.0048    0.0456   -0.0459    0.0413    0.0405    0.0001    0.0001
          42    0.0054   -0.0344    0.1722   -0.1724    0.2174    0.2139    0.0051    0.0007
          43   -0.0025    0.0170    0.0972    0.0862    0.1326   -0.1262    0.0014    0.0005
          44   -0.0049    0.0327    0.1839    0.1634    0.2143   -0.2041    0.0045    0.0008
          45    0.0021   -0.0121   -0.0441   -0.0389   -0.0677    0.0647   -0.0023   -0.0003
          46   -0.0051    0.0266    0.1860    0.1662   -0.1528    0.1452   -0.0035   -0.0021
          47    0.0032   -0.0077   -0.0668   -0.0599    0.0364   -0.0344    0.0010    0.0006
          48    0.0066   -0.0218   -0.1772   -0.1584    0.1416   -0.1343    0.0014    0.0017
          49   -0.0008    0.0000    0.0003   -0.0003   -0.0005   -0.0004    0.0003    0.0420
          50    0.0039    0.0007   -0.0018    0.0018    0.0029    0.0027   -0.0013   -0.1906
          51   -0.0003   -0.0001   -0.0007    0.0006    0.0010    0.0009   -0.0004   -0.0582
          52   -0.0008    0.0000   -0.0003   -0.0003    0.0005   -0.0004   -0.0002   -0.0488
          53   -0.0016   -0.0003   -0.0015   -0.0013    0.0022   -0.0021   -0.0007   -0.1640
          54   -0.0036   -0.0007   -0.0014   -0.0012    0.0021   -0.0020   -0.0007   -0.1633
          55   -0.0003    0.0011    0.0004   -0.0006    0.0018    0.0081   -0.2476    0.0004
          56    0.0003   -0.0015   -0.0001   -0.0005   -0.0035   -0.0131    0.3677   -0.0005
          57   -0.0001    0.0007   -0.0001    0.0006    0.0001    0.0022   -0.0923    0.0001
          58   -0.0003    0.0011   -0.0004   -0.0006   -0.0019    0.0081    0.2452   -0.0005
          59    0.0000    0.0001   -0.0002   -0.0003   -0.0016    0.0043    0.0921   -0.0002
          60   -0.0003    0.0016    0.0000    0.0007   -0.0034    0.0126    0.3640   -0.0008
          61    0.0028    0.0004    0.0000   -0.0001   -0.0001   -0.0003    0.0003    0.1181
          62    0.0006    0.0001    0.0000    0.0000    0.0000   -0.0001    0.0001    0.0312
          63    0.0028    0.0005    0.0000   -0.0001   -0.0002   -0.0005    0.0005    0.1851
          64    0.0027    0.0004    0.0000   -0.0001    0.0002   -0.0002   -0.0001   -0.1330
          65   -0.0027   -0.0005    0.0001    0.0001   -0.0002    0.0004    0.0002    0.2006
          66    0.0008    0.0001    0.0000    0.0000    0.0001   -0.0001   -0.0001   -0.0672


   Root No.      57        58        59        60

                57 A      58 A      59 A      60 A   

                3131.2    3135.3    3142.7    3153.2
  
           1    0.0000    0.0006    0.0000   -0.0001
           2    0.0000   -0.0004   -0.0001    0.0000
           3    0.0000    0.0007    0.0000    0.0000
           4   -0.0002    0.0000    0.0000    0.0005
           5    0.0000    0.0000    0.0000   -0.0005
           6   -0.0001    0.0000    0.0000    0.0009
           7    0.0001    0.0004    0.0001    0.0001
           8    0.0002    0.0014    0.0001    0.0001
           9    0.0000    0.0016    0.0000    0.0000
          10    0.0001    0.0004   -0.0001    0.0001
          11   -0.0001   -0.0021    0.0001   -0.0001
          12   -0.0001   -0.0005    0.0001   -0.0001
          13    0.0046    0.0001    0.0060    0.0058
          14   -0.0203   -0.0006   -0.0203   -0.0197
          15   -0.0061   -0.0002   -0.0041   -0.0039
          16    0.0041    0.0001   -0.0060    0.0058
          17    0.0134    0.0004   -0.0132    0.0125
          18    0.0135    0.0004   -0.0161    0.0153
          19    0.0003   -0.0194    0.0001    0.0001
          20   -0.0005    0.0344   -0.0001   -0.0001
          21    0.0000   -0.0039    0.0000    0.0000
          22    0.0003   -0.0196    0.0000    0.0001
          23    0.0002   -0.0130    0.0000    0.0001
          24    0.0004   -0.0324    0.0000    0.0001
          25    0.0101    0.0001   -0.0116   -0.0132
          26    0.0030    0.0001   -0.0005   -0.0017
          27    0.0160    0.0002   -0.0166   -0.0196
          28    0.0085    0.0002    0.0118   -0.0130
          29   -0.0132   -0.0003   -0.0153    0.0179
          30    0.0042    0.0001    0.0076   -0.0076
          31    0.0000    0.0007    0.0000    0.0001
          32   -0.0001    0.0010    0.0000   -0.0001
          33    0.0001   -0.0017    0.0000    0.0002
          34    0.0002    0.0001    0.0000    0.0013
          35    0.0003    0.0001   -0.0008    0.0019
          36   -0.0007   -0.0002   -0.0004   -0.0030
[...]
 TRAVEL      0.0696        C  2 --  H 12          +13.2% ( 59.7%)     0.0%
 RED. MASS   3.0052        C  1 --  C  2          +12.4% ( 58.0%)     0.0%
 EFF. MASS  10.4809

 VIBRATION   40   40A       ATOM PAIR        ENERGY CONTRIBUTION    RADIAL
 FREQ.      1343.53        C  3 --  C  7           +7.9% ( 43.3%)    81.1%
 T-DIPOLE    0.1635        C  4 --  C  8           +7.9% ( 43.2%)    81.0%
 TRAVEL      0.0756        C  2 --  H 12           +7.6% ( 42.4%)     0.4%
 RED. MASS   1.1812        C  1 --  C  2           +7.5% ( 42.2%)    92.3%
 EFF. MASS   8.7817

 VIBRATION   41   41A       ATOM PAIR        ENERGY CONTRIBUTION    RADIAL
 FREQ.      1371.82        C  4 --  C  8          +12.6% ( 43.6%)    84.8%
 T-DIPOLE    0.0662        C  3 --  C  7          +12.5% ( 43.5%)    84.8%
 TRAVEL      0.0942        C  7 --  C  8          +11.3% ( 41.2%)     0.0%
 RED. MASS   0.5969        C  4 --  H 16          +11.0% ( 40.7%)     0.3%
 EFF. MASS   5.5434        C  3 --  H 13          +11.0% ( 40.7%)     0.3%

 VIBRATION   42   42A       ATOM PAIR        ENERGY CONTRIBUTION    RADIAL
 FREQ.      1396.30        C  9 --  C 10          +13.6% ( 60.0%)   100.0%
 T-DIPOLE    0.5278        C  1 --  C  2          +10.2% ( 52.0%)    88.2%
 TRAVEL      0.0692        C  1 --  C  3           +7.7% ( 45.1%)    32.2%
 RED. MASS   1.4212        C  1 --  C  4           +7.7% ( 45.0%)    32.7%
 EFF. MASS  10.0724

 VIBRATION   43   43A       ATOM PAIR        ENERGY CONTRIBUTION    RADIAL
 FREQ.      1404.38        C  3 --  H 13          +17.6% ( 46.0%)     4.9%
 T-DIPOLE    0.0230        C  4 --  H 16          +16.8% ( 45.0%)     4.9%
 TRAVEL      0.1177        C  3 --  H 14          +16.3% ( 44.4%)     6.0%
 RED. MASS   0.3784        C  4 --  H 15          +15.7% ( 43.5%)     5.9%
 EFF. MASS   3.4684

 VIBRATION   44   44A       ATOM PAIR        ENERGY CONTRIBUTION    RADIAL
 FREQ.      1412.17        C  4 --  C  8          +13.3% ( 47.9%)    94.0%
 T-DIPOLE    0.0557        C  3 --  C  7          +12.8% ( 47.1%)    94.0%
 TRAVEL      0.0872        C  4 --  H 16          +10.3% ( 42.2%)     5.9%
 RED. MASS   0.7172        C  4 --  H 15          +10.0% ( 41.6%)     6.6%
 EFF. MASS   6.2847

 VIBRATION   45   45A       ATOM PAIR        ENERGY CONTRIBUTION    RADIAL
 FREQ.      1424.36        C  9 --  C 10          +12.4% ( 56.7%)   100.0%
 T-DIPOLE    0.0925        C  1 --  C  2          +10.9% ( 53.2%)    81.1%
 TRAVEL      0.0697        C  2 --  C  5           +8.9% ( 48.1%)    61.3%
 RED. MASS   1.4431        C  2 --  C  6           +8.9% ( 48.0%)    61.2%
 EFF. MASS   9.7533

 VIBRATION   46   46A       ATOM PAIR        ENERGY CONTRIBUTION    RADIAL
 FREQ.      1732.61        C  6 --  C 10          +18.3% ( 72.8%)    99.9%
 T-DIPOLE    0.3974        C  5 --  C  9          +18.1% ( 72.5%)    99.9%
 TRAVEL      0.0569        C  5 --  C 10          +10.7% ( 55.7%)    25.9%
 RED. MASS   2.7227        C  6 --  C  9          +10.7% ( 55.7%)    26.0%
 EFF. MASS  12.0251

 VIBRATION   47   47A       ATOM PAIR        ENERGY CONTRIBUTION    RADIAL
 FREQ.      1789.96        C  5 --  C  9          +18.0% ( 70.3%)    99.8%
 T-DIPOLE    0.3003        C  6 --  C 10          +17.8% ( 69.9%)    99.8%
 TRAVEL      0.0565        C  9 --  C 10          +12.1% ( 57.7%)     0.0%
 RED. MASS   2.6859        C  6 --  C  9          +10.9% ( 54.7%)    65.5%
 EFF. MASS  11.7986        C  5 --  C 10          +10.9% ( 54.7%)    66.8%

 VIBRATION   48   48A       ATOM PAIR        ENERGY CONTRIBUTION    RADIAL
 FREQ.      1831.00        C  7 --  C  8          +45.8% (100.0%)   100.0%
 T-DIPOLE    0.1009        C  4 --  C  8          +13.9% ( 55.2%)    25.6%
 TRAVEL      0.0557        C  3 --  C  7          +13.9% ( 55.1%)    25.5%
 RED. MASS   5.3829        C  8 --  H 20          +13.0% ( 53.2%)     9.7%
 EFF. MASS  11.8688        C  7 --  H 19          +13.0% ( 53.2%)     9.7%

 VIBRATION   49   49A       ATOM PAIR        ENERGY CONTRIBUTION    RADIAL
 FREQ.      2885.55        C  2 --  H 12          +93.2% ( 98.1%)   100.0%
 T-DIPOLE    0.1919        C  1 --  H 11           +3.7% ( 19.5%)    99.9%
 TRAVEL      0.1275        C  1 --  C  2           +1.1% ( 10.5%)     9.9%
 RED. MASS   0.8620        C  2 --  C  5           +1.0% ( 10.0%)    10.7%
 EFF. MASS   1.4371

 VIBRATION   50   50A       ATOM PAIR        ENERGY CONTRIBUTION    RADIAL
 FREQ.      2907.19        C  1 --  H 11          +91.9% ( 97.4%)   100.0%
 T-DIPOLE    0.1210        C  2 --  H 12           +3.6% ( 19.3%)    99.9%
 TRAVEL      0.1265        C  1 --  C  4           +1.0% ( 10.3%)     9.0%
 RED. MASS   0.8393        C  1 --  C  3           +1.0% ( 10.3%)     9.0%
 EFF. MASS   1.4498

 VIBRATION   51   51A       ATOM PAIR        ENERGY CONTRIBUTION    RADIAL
 FREQ.      2969.87        C  4 --  H 16          +31.1% ( 57.8%)    97.6%
 T-DIPOLE    0.0135        C  3 --  H 13          +27.6% ( 54.5%)    97.6%
 TRAVEL      0.1216        C  4 --  H 15          +20.7% ( 47.2%)    95.3%
 RED. MASS   0.2695        C  3 --  H 14          +18.4% ( 44.5%)    95.3%
 EFF. MASS   1.5363

 VIBRATION   52   52A       ATOM PAIR        ENERGY CONTRIBUTION    RADIAL
 FREQ.      2971.26        C  3 --  H 13          +30.9% ( 57.6%)    97.7%
 T-DIPOLE    0.0784        C  4 --  H 16          +27.4% ( 54.2%)    97.7%
 TRAVEL      0.1217        C  3 --  H 14          +20.3% ( 46.7%)    95.2%
 RED. MASS   0.2633        C  4 --  H 15          +18.0% ( 44.0%)    95.2%
 EFF. MASS   1.5314

 VIBRATION   53   53A       ATOM PAIR        ENERGY CONTRIBUTION    RADIAL
 FREQ.      3049.89        C  4 --  H 15          +30.5% ( 54.5%)    98.6%
 T-DIPOLE    0.1339        C  3 --  H 14          +29.6% ( 53.7%)    98.6%
 TRAVEL      0.1316        C  4 --  H 16          +19.6% ( 43.6%)    96.0%
 RED. MASS   0.2519        C  3 --  H 13          +18.9% ( 42.9%)    96.0%
 EFF. MASS   1.2774

 VIBRATION   54   54A       ATOM PAIR        ENERGY CONTRIBUTION    RADIAL
 FREQ.      3050.86        C  3 --  H 14          +30.5% ( 54.5%)    98.6%
 T-DIPOLE    0.0487        C  4 --  H 15          +29.6% ( 53.7%)    98.6%
 TRAVEL      0.1308        C  3 --  H 13          +19.4% ( 43.5%)    95.8%
 RED. MASS   0.2511        C  4 --  H 16          +18.8% ( 42.8%)    95.8%
 EFF. MASS   1.2928

 VIBRATION   55   55A       ATOM PAIR        ENERGY CONTRIBUTION    RADIAL
 FREQ.      3116.14        C  7 --  H 19          +49.2% ( 71.2%)   100.0%
 T-DIPOLE    0.3724        C  8 --  H 20          +48.2% ( 70.5%)   100.0%
 TRAVEL      0.1216        C  7 --  C  8           +1.1% ( 10.7%)     0.0%
 RED. MASS   0.4648        C  3 --  C  7           +0.7% (  8.7%)    27.4%
 EFF. MASS   1.4623

 VIBRATION   56   56A       ATOM PAIR        ENERGY CONTRIBUTION    RADIAL
 FREQ.      3129.74        C 10 --  H 22          +28.6% ( 54.8%)   100.0%
 T-DIPOLE    0.1947        C  6 --  H 18          +25.6% ( 51.8%)   100.0%
 TRAVEL      0.1207        C  9 --  H 21          +22.6% ( 48.7%)   100.0%
 RED. MASS   0.2376        C  5 --  H 17          +19.0% ( 44.6%)   100.0%
 EFF. MASS   1.4777

 VIBRATION   57   57A       ATOM PAIR        ENERGY CONTRIBUTION    RADIAL
 FREQ.      3131.17        C  5 --  H 17          +30.3% ( 56.3%)   100.0%
 T-DIPOLE    0.4929        C  6 --  H 18          +24.2% ( 50.3%)   100.0%
 TRAVEL      0.1210        C  9 --  H 21          +24.0% ( 50.1%)   100.0%
 RED. MASS   0.2407        C 10 --  H 22          +17.5% ( 42.7%)   100.0%
 EFF. MASS   1.4710

 VIBRATION   58   58A       ATOM PAIR        ENERGY CONTRIBUTION    RADIAL
 FREQ.      3135.31        C  8 --  H 20          +48.2% ( 70.7%)    99.9%
 T-DIPOLE    0.3587        C  7 --  H 19          +47.2% ( 70.0%)    99.9%
 TRAVEL      0.1141        C  7 --  C  8           +2.5% ( 16.1%)   100.0%
 RED. MASS   0.4652        C  4 --  C  8           +1.0% (  9.9%)    20.6%
 EFF. MASS   1.6523

 VIBRATION   59   59A       ATOM PAIR        ENERGY CONTRIBUTION    RADIAL
 FREQ.      3142.65        C  6 --  H 18          +25.3% ( 51.8%)    99.9%
 T-DIPOLE    0.5190        C  5 --  H 17          +25.1% ( 51.5%)    99.9%
 TRAVEL      0.1157        C 10 --  H 22          +22.5% ( 48.8%)    99.8%
 RED. MASS   0.2344        C  9 --  H 21          +21.4% ( 47.5%)    99.9%
 EFF. MASS   1.6031

 VIBRATION   60   60A       ATOM PAIR        ENERGY CONTRIBUTION    RADIAL
 FREQ.      3153.24        C  9 --  H 21          +26.9% ( 53.4%)   100.0%
 T-DIPOLE    0.2479        C 10 --  H 22          +26.2% ( 52.7%)    99.9%
 TRAVEL      0.1121        C  5 --  H 17          +20.5% ( 46.6%)    99.9%
 RED. MASS   0.2391        C  6 --  H 18          +19.7% ( 45.7%)    99.9%
 EFF. MASS   1.7017

 SYMMETRY NUMBER FOR POINT-GROUP C1  =  1


          SYSTEM IS A GROUND STATE


    NULL



          MOLECULE IS NOT LINEAR

          THERE ARE 60 GENUINE VIBRATIONS IN THIS SYSTEM
          THIS THERMODYNAMICS CALCULATION IS LIMITED TO
          MOLECULES WHICH HAVE NO INTERNAL ROTATIONS




                    CALCULATED THERMODYNAMIC PROPERTIES
                                          *
   TEMP. (K)   PARTITION FUNCTION   H.O.F.    ENTHALPY  HEAT CAPACITY ENTROPY
                                   KCAL/MOL   CAL/MOLE    CAL/K/MOL  CAL/K/MOL


 298.00  VIB.     0.7409D+02                  3459.8395    27.4646    20.1656
         ROT.     0.5747D+06                   888.2813     2.9808    29.3345
         INT.     0.4258D+08                  4348.1208    30.4454    49.5001
         TRA.     0.1470D+28                  1480.4688     4.9680    40.5480
         TOT.                       43.356    5828.5897    35.4134    90.0480

 200.00  VIB.     0.1212D+02                  1386.2588    15.3358    11.8886
         ROT.     0.3160D+06                   596.1620     2.9808    28.1458
         INT.     0.3829D+07                  1982.4207    18.3166    40.0344
         TRA.     0.8080D+27                   993.6033     4.9680    38.5668
         TOT.                       40.503    2976.0240    23.2846    78.6013

 210.00  VIB.     0.1444D+02                  1544.9728    16.4150    12.6628
         ROT.     0.3400D+06                   625.9700     2.9808    28.2913
         INT.     0.4909D+07                  2170.9428    19.3959    40.9540
         TRA.     0.8694D+27                  1043.2834     4.9680    38.8092
         TOT.                       40.742    3214.2262    24.3639    79.7632

 220.00  VIB.     0.1724D+02                  1714.7155    17.5410    13.4522
         ROT.     0.3646D+06                   655.7781     2.9808    28.4299
         INT.     0.6285D+07                  2370.4937    20.5219    41.8821
         TRA.     0.9322D+27                  1092.9636     4.9680    39.0403
         TOT.                       40.991    3463.4573    25.4899    80.9225

 230.00  VIB.     0.2063D+02                  1895.9387    18.7105    14.2576
         ROT.     0.3897D+06                   685.5862     2.9808    28.5624
         INT.     0.8038D+07                  2581.5249    21.6913    42.8200
         TRA.     0.9965D+27                  1142.6437     4.9680    39.2612
         TOT.                       41.252    3724.1687    26.6593    82.0812

 240.00  VIB.     0.2473D+02                  2089.0574    19.9194    15.0793
         ROT.     0.4154D+06                   715.3943     2.9808    28.6893
         INT.     0.1027D+08                  2804.4517    22.9002    43.7686
         TRA.     0.1062D+28                  1192.3239     4.9680    39.4726
         TOT.                       41.524    3996.7756    27.8683    83.2412

 250.00  VIB.     0.2971D+02                  2294.4439    21.1633    15.9176
         ROT.     0.4416D+06                   745.2024     2.9808    28.8110
         INT.     0.1312D+08                  3039.6463    24.1441    44.7285
         TRA.     0.1129D+28                  1242.0041     4.9680    39.6754
         TOT.                       41.809    4281.6504    29.1121    84.4040

 260.00  VIB.     0.3578D+02                  2512.4234    22.4372    16.7723
         ROT.     0.4684D+06                   775.0105     2.9808    28.9279
         INT.     0.1676D+08                  3287.4339    25.4180    45.7002
         TRA.     0.1198D+28                  1291.6842     4.9680    39.8703
         TOT.                       42.107    4579.1182    30.3860    85.5705

 270.00  VIB.     0.4319D+02                  2743.2716    23.7362    17.6434
         ROT.     0.4957D+06                   804.8186     2.9808    29.0404
         INT.     0.2141D+08                  3548.0902    26.7170    46.6838
         TRA.     0.1267D+28                  1341.3644     4.9680    40.0578
         TOT.                       42.417    4889.4546    31.6850    86.7415

 280.00  VIB.     0.5226D+02                  2987.2141    25.0552    18.5304
         ROT.     0.5235D+06                   834.6267     2.9808    29.1488
         INT.     0.2736D+08                  3821.8408    28.0360    47.6792
         TRA.     0.1338D+28                  1391.0445     4.9680    40.2384
         TOT.                       42.740    5212.8853    33.0041    87.9176

 290.00  VIB.     0.6338D+02                  3244.4269    26.3895    19.4329
         ROT.     0.5518D+06                   864.4348     2.9808    29.2534
         INT.     0.3497D+08                  4108.8617    29.3703    48.6863
         TRA.     0.1411D+28                  1440.7247     4.9680    40.4128
         TOT.                       43.077    5549.5864    34.3383    89.0990

 300.00  VIB.     0.7705D+02                  3515.0383    27.7342    20.3502
         ROT.     0.5805D+06                   894.2429     2.9808    29.3544
         INT.     0.4473D+08                  4409.2812    30.7150    49.7046
         TRA.     0.1484D+28                  1490.4049     4.9680    40.5812
         TOT.                       43.427    5899.6861    35.6830    90.2858

 310.00  VIB.     0.9390D+02                  3799.1311    29.0850    21.2816
         ROT.     0.6098D+06                   924.0510     2.9808    29.4522
         INT.     0.5726D+08                  4723.1821    32.0658    50.7338
         TRA.     0.1559D+28                  1540.0850     4.9680    40.7441
         TOT.                       43.791    6263.2672    37.0339    91.4779

 320.00  VIB.     0.1147D+03                  4096.7457    30.4379    22.2264
         ROT.     0.6395D+06                   953.8591     2.9808    29.5468
         INT.     0.7336D+08                  5050.6049    33.4187    51.7732
         TRA.     0.1635D+28                  1589.7652     4.9680    40.9018
         TOT.                       44.168    6640.3701    38.3867    92.6750

 330.00  VIB.     0.1405D+03                  4407.8835    31.7891    23.1837
         ROT.     0.6698D+06                   983.6672     2.9808    29.6385
         INT.     0.9407D+08                  5391.5507    34.7699    52.8222
         TRA.     0.1713D+28                  1639.4454     4.9680    41.0547
         TOT.                       44.558    7030.9961    39.7379    93.8769

 340.00  VIB.     0.1724D+03                  4732.5101    33.1352    24.1527
         ROT.     0.7004D+06                  1013.4753     2.9808    29.7275
         INT.     0.1207D+09                  5745.9855    36.1160    53.8802
         TRA.     0.1791D+28                  1689.1255     4.9680    41.2030
         TOT.                       44.963    7435.1110    41.0840    95.0832

 350.00  VIB.     0.2121D+03                  5070.5595    34.4731    25.1325
         ROT.     0.7316D+06                  1043.2834     2.9808    29.8139
         INT.     0.1551D+09                  6113.8429    37.4539    54.9464
         TRA.     0.1871D+28                  1738.8057     4.9680    41.3470
         TOT.                       45.380    7852.6486    42.4220    96.2935

 360.00  VIB.     0.2615D+03                  5421.9370    35.8004    26.1223
         ROT.     0.7631D+06                  1073.0915     2.9808    29.8979
         INT.     0.1995D+09                  6495.0285    38.7812    56.0202
         TRA.     0.1951D+28                  1788.4859     4.9680    41.4870
         TOT.                       45.811    8283.5144    43.7492    97.5072

 370.00  VIB.     0.3231D+03                  5786.5233    37.1145    27.1211
         ROT.     0.7952D+06                  1102.8996     2.9808    29.9796
         INT.     0.2569D+09                  6889.4229    40.0953    57.1007
         TRA.     0.2033D+28                  1838.1660     4.9680    41.6231
         TOT.                       46.255    8727.5889    45.0634    98.7238

 380.00  VIB.     0.4001D+03                  6164.1774    38.4136    28.1282
         ROT.     0.8276D+06                  1132.7077     2.9808    30.0591
         INT.     0.3311D+09                  7296.8851    41.3944    58.1873
         TRA.     0.2116D+28                  1887.8462     4.9680    41.7556
         TOT.                       46.712    9184.7313    46.3625    99.9428

 390.00  VIB.     0.4965D+03                  6554.7400    39.6960    29.1426
         ROT.     0.8605D+06                  1162.5158     2.9808    30.1365
         INT.     0.4272D+09                  7717.2558    42.6768    59.2791
         TRA.     0.2200D+28                  1937.5263     4.9680    41.8846
         TOT.                       47.182    9654.7821    47.6448   101.1637

 400.00  VIB.     0.6173D+03                  6958.0361    40.9601    30.1636
         ROT.     0.8938D+06                  1192.3239     2.9808    30.2120
         INT.     0.5517D+09                  8150.3600    43.9409    60.3756
         TRA.     0.2285D+28                  1987.2065     4.9680    42.0104
         TOT.                       47.665   10137.5665    48.9090   102.3860

   *: NOTE: HEATS OF FORMATION ARE RELATIVE TO THE
            ELEMENTS IN THEIR STANDARD STATE AT 298K
              (=  Standard Enthalpy of Formation).

            Hvib:  Zero-point energy is not included.
                   frequencies of less than zero cm-1 are not included.
            Hrot = (3/2)RT
            Htra = (3/2)RT + pV = (5/2)RT

            Heat capacity is Cp, not Cv

           For more information, see: HTTP://OpenMOPAC.net/Manual/thermochemistry.html


           FORCE CONSTANT IN CARTESIAN COORDINATES (Millidynes/A)

    ATOM   CHEMICAL       X               Y               Z
   NUMBER   SYMBOL  FORCE CONSTANT  FORCE CONSTANT  FORCE CONSTANT

      1       C        8.536069        7.538849        8.321825
      2       C        8.679053        8.157424        8.694528
      3       C        8.173194        7.993790        8.980026
      4       C        8.174338        9.423567        7.551779
      5       C        6.754552       12.726090        7.261832
      6       C        6.746842        8.692462       11.288852
      7       C        5.863088       13.782464        7.863733
      8       C        5.861264       12.010739        9.644234
      9       C        7.463766        9.808546       10.208547
     10       C        7.459091       10.322208        9.689334
     11       H        1.093263        1.647510        3.344175
     12       H        1.147565        1.538783        3.202461
     13       H        2.887944        2.800482        0.714725
     14       H        1.686165        0.863054        3.849106
     15       H        1.687095        3.755104        0.955927
     16       H        2.887769        0.883481        2.632232
     17       H        0.691210        4.783352        0.978361
     18       H        0.690068        2.914265        2.846236
     19       H        1.906183        3.745844        0.778693
     20       H        1.905325        0.869513        3.654726
     21       H        1.828109        0.757262        3.874967
     22       H        1.828225        3.697076        0.935864



 TOTAL CPU TIME:             2.64 SECONDS

 == MOPAC DONE ==
