 *******************************************************************************
 ** Site#: 14399           For non-commercial use only        Version 13.159M **
 *******************************************************************************
 ** Cite this work as: MOPAC2012, James J. P. Stewart, Stewart Computational  **
 ** Chemistry, Version 13.159M web: HTTP://OpenMOPAC.net  Days remaining:  93 **
 *******************************************************************************
 **                                                                           **
 **                                MOPAC2012                                  **
 **                                                                           **
 *******************************************************************************

                            PM3 CALCULATION RESULTS


 *******************************************************************************
 *  CALCULATION DONE:                                Fri Mar  7 15:10:39 2014  *
 *  PM3      - The PM3 Hamiltonian to be used
 *  PRECISE  - CRITERIA TO BE INCREASED BY 100 TIMES
 *  NOSYM    - POINT-GROUP SYMMETRY SET TO C1
 *  T=       - A TIME OF 172800.0 SECONDS REQUESTED
 *  DUMP=N   - RESTART FILE WRITTEN EVERY  7200.000 SECONDS
 *******************************************************************************
pm3  precise nosym
 InChI=1S/C12H20/c1-4-10-8-7-9-11(5-2)12(10)6-3/h6-8,10-12H,3-5,9H2,1-2H3

   ATOM   CHEMICAL          X               Y               Z
  NUMBER   SYMBOL      (ANGSTROMS)     (ANGSTROMS)     (ANGSTROMS)
 
     1       C         -1.21700000  *  -0.14040000  *  -0.31500000  *
     2       C          0.22040000  *   0.40430000  *  -0.11230000  *
     3       C          1.28030000  *  -0.54940000  *  -0.72840000  *
     4       C         -2.30480000  *   0.79350000  *   0.26410000  *
     5       C          2.74070000  *  -0.18920000  *  -0.38020000  *
     6       C         -1.33480000  *  -1.56320000  *   0.27460000  *
     7       C         -3.74260000  *   0.36220000  *  -0.01910000  *
     8       C          3.11820000  *  -0.28430000  *   1.09750000  *
     9       C          1.00830000  *  -2.01190000  *  -0.46060000  *
    10       C          0.38400000  *   1.78910000  *  -0.69940000  *
    11       C         -0.16790000  *  -2.46510000  *  -0.01220000  *
    12       C          0.71170000  *   2.85430000  *   0.03670000  *
    13       H         -1.39170000  *  -0.21770000  *  -1.41590000  *
    14       H          0.37740000  *   0.43480000  *   0.99230000  *
    15       H          1.20810000  *  -0.46810000  *  -1.83980000  *
    16       H         -2.20440000  *   1.81370000  *  -0.17210000  *
    17       H         -2.17020000  *   0.90690000  *   1.36510000  *
    18       H          3.42860000  *  -0.85380000  *  -0.95440000  *
    19       H          2.97770000  *   0.83960000  *  -0.73680000  *
    20       H         -2.23800000  *  -2.06140000  *  -0.14620000  *
    21       H         -1.45640000  *  -1.52930000  *   1.38200000  *
    22       H         -4.00280000  *  -0.57200000  *   0.52720000  *
    23       H         -3.90440000  *   0.20910000  *  -1.11040000  *
    24       H         -4.44910000  *   1.15010000  *   0.32820000  *
    25       H          2.88910000  *  -1.29180000  *   1.51220000  *
    26       H          2.59690000  *   0.49040000  *   1.70240000  *
    27       H          4.21150000  *  -0.10830000  *   1.21570000  *
    28       H          0.22770000  *   1.92380000  *  -1.76920000  *
    29       H         -0.28400000  *  -3.53180000  *   0.17490000  *
    30       H          1.78920000  *  -2.74080000  *  -0.67630000  *
    31       H          0.81740000  *   3.82990000  *  -0.43370000  *
    32       H          0.88070000  *   2.77690000  *   1.10930000  *
 


          CARTESIAN COORDINATES 

    NO.       ATOM         X         Y         Z

     1         C       -1.2170   -0.1404   -0.3150
     2         C        0.2204    0.4043   -0.1123
     3         C        1.2803   -0.5494   -0.7284
     4         C       -2.3048    0.7935    0.2641
     5         C        2.7407   -0.1892   -0.3802
     6         C       -1.3348   -1.5632    0.2746
     7         C       -3.7426    0.3622   -0.0191
     8         C        3.1182   -0.2843    1.0975
     9         C        1.0083   -2.0119   -0.4606
    10         C        0.3840    1.7891   -0.6994
    11         C       -0.1679   -2.4651   -0.0122
    12         C        0.7117    2.8543    0.0367
    13         H       -1.3917   -0.2177   -1.4159
    14         H        0.3774    0.4348    0.9923
    15         H        1.2081   -0.4681   -1.8398
    16         H       -2.2044    1.8137   -0.1721
    17         H       -2.1702    0.9069    1.3651
    18         H        3.4286   -0.8538   -0.9544
    19         H        2.9777    0.8396   -0.7368
    20         H       -2.2380   -2.0614   -0.1462
    21         H       -1.4564   -1.5293    1.3820
    22         H       -4.0028   -0.5720    0.5272
    23         H       -3.9044    0.2091   -1.1104
    24         H       -4.4491    1.1501    0.3282
    25         H        2.8891   -1.2918    1.5122
    26         H        2.5969    0.4904    1.7024
    27         H        4.2115   -0.1083    1.2157
    28         H        0.2277    1.9238   -1.7692
    29         H       -0.2840   -3.5318    0.1749
    30         H        1.7892   -2.7408   -0.6763
    31         H        0.8174    3.8299   -0.4337
    32         H        0.8807    2.7769    1.1093

  H: (PM3): J. J. P. STEWART, J. COMP. CHEM. 10, 209 (1989).
  C: (PM3): J. J. P. STEWART, J. COMP. CHEM. 10, 209 (1989).

           Empirical Formula: C12 H20  =    32 atoms



      MOLECULAR POINT GROUP   :   C1  


      RHF CALCULATION, NO. OF DOUBLY OCCUPIED LEVELS =   34

      Geometry optimization using EF

          DIAGONAL MATRIX USED AS START HESSIAN

 CYCLE:     1 TIME:   0.025 TIME LEFT:  2.00D  GRAD.:    59.564 HEAT: 1.512266
 CYCLE:     2 TIME:   0.036 TIME LEFT:  2.00D  GRAD.:    53.058 HEAT:0.2813533
 CYCLE:     3 TIME:   0.014 TIME LEFT:  2.00D  GRAD.:    83.088 HEAT:0.2371969
 CYCLE:     4 TIME:   0.014 TIME LEFT:  2.00D  GRAD.:    70.885 HEAT:-.3348078
 CYCLE:     5 TIME:   0.024 TIME LEFT:  2.00D  GRAD.:    39.186 HEAT:-1.258811
 CYCLE:     6 TIME:   0.024 TIME LEFT:  2.00D  GRAD.:    18.464 HEAT:-1.608673
 CYCLE:     7 TIME:   0.014 TIME LEFT:  2.00D  GRAD.:    21.970 HEAT:-1.844493
 CYCLE:     8 TIME:   0.014 TIME LEFT:  2.00D  GRAD.:    25.916 HEAT:-2.119310
 CYCLE:     9 TIME:   0.014 TIME LEFT:  2.00D  GRAD.:    30.569 HEAT:-2.286142
 CYCLE:    10 TIME:   0.024 TIME LEFT:  2.00D  GRAD.:    24.678 HEAT:-2.457091
 CYCLE:    11 TIME:   0.013 TIME LEFT:  2.00D  GRAD.:    28.173 HEAT:-2.464361
 CYCLE:    12 TIME:   0.013 TIME LEFT:  2.00D  GRAD.:    28.721 HEAT:-2.510681
 CYCLE:    13 TIME:   0.013 TIME LEFT:  2.00D  GRAD.:    29.362 HEAT:-2.546838
 CYCLE:    14 TIME:   0.013 TIME LEFT:  2.00D  GRAD.:    29.824 HEAT:-2.568789
 CYCLE:    15 TIME:   0.013 TIME LEFT:  2.00D  GRAD.:    28.414 HEAT:-2.615455
 CYCLE:    16 TIME:   0.014 TIME LEFT:  2.00D  GRAD.:    29.415 HEAT:-2.672268
 CYCLE:    17 TIME:   0.024 TIME LEFT:  2.00D  GRAD.:    12.229 HEAT:-2.867350
 CYCLE:    18 TIME:   0.024 TIME LEFT:  2.00D  GRAD.:     9.861 HEAT:-2.906323
 CYCLE:    19 TIME:   0.013 TIME LEFT:  2.00D  GRAD.:     8.435 HEAT:-2.938166
 CYCLE:    20 TIME:   0.013 TIME LEFT:  2.00D  GRAD.:    12.963 HEAT:-2.958184
 CYCLE:    21 TIME:   0.013 TIME LEFT:  2.00D  GRAD.:    11.481 HEAT:-3.010847
 CYCLE:    22 TIME:   0.013 TIME LEFT:  2.00D  GRAD.:     9.812 HEAT:-3.069936
 CYCLE:    23 TIME:   0.013 TIME LEFT:  2.00D  GRAD.:    15.659 HEAT:-3.092751
 CYCLE:    24 TIME:   0.013 TIME LEFT:  2.00D  GRAD.:    12.204 HEAT:-3.170089
 CYCLE:    25 TIME:   0.013 TIME LEFT:  2.00D  GRAD.:    16.376 HEAT:-3.176683
 CYCLE:    26 TIME:   0.014 TIME LEFT:  2.00D  GRAD.:    14.572 HEAT:-3.201066
 CYCLE:    27 TIME:   0.024 TIME LEFT:  2.00D  GRAD.:     9.991 HEAT:-3.248160
 CYCLE:    28 TIME:   0.013 TIME LEFT:  2.00D  GRAD.:    10.307 HEAT:-3.249445
 CYCLE:    29 TIME:   0.013 TIME LEFT:  2.00D  GRAD.:    10.526 HEAT:-3.259022
 CYCLE:    30 TIME:   0.014 TIME LEFT:  2.00D  GRAD.:     7.943 HEAT:-3.278607
 CYCLE:    31 TIME:   0.013 TIME LEFT:  2.00D  GRAD.:     4.681 HEAT:-3.299028
 CYCLE:    32 TIME:   0.013 TIME LEFT:  2.00D  GRAD.:     5.801 HEAT:-3.306608
 CYCLE:    33 TIME:   0.013 TIME LEFT:  2.00D  GRAD.:     3.642 HEAT:-3.323577
 CYCLE:    34 TIME:   0.013 TIME LEFT:  2.00D  GRAD.:     3.328 HEAT:-3.337838
 CYCLE:    35 TIME:   0.013 TIME LEFT:  2.00D  GRAD.:     3.556 HEAT:-3.356316
 CYCLE:    36 TIME:   0.013 TIME LEFT:  2.00D  GRAD.:     3.368 HEAT:-3.370165
 CYCLE:    37 TIME:   0.014 TIME LEFT:  2.00D  GRAD.:     4.019 HEAT:-3.376335
 CYCLE:    38 TIME:   0.013 TIME LEFT:  2.00D  GRAD.:     2.457 HEAT:-3.385695
 CYCLE:    39 TIME:   0.013 TIME LEFT:  2.00D  GRAD.:     3.356 HEAT:-3.396518
 CYCLE:    40 TIME:   0.013 TIME LEFT:  2.00D  GRAD.:     4.318 HEAT:-3.404303
 CYCLE:    41 TIME:   0.016 TIME LEFT:  2.00D  GRAD.:     3.056 HEAT:-3.412460
 CYCLE:    42 TIME:   0.014 TIME LEFT:  2.00D  GRAD.:     2.271 HEAT:-3.419030
 CYCLE:    43 TIME:   0.013 TIME LEFT:  2.00D  GRAD.:     3.240 HEAT:-3.427888
 CYCLE:    44 TIME:   0.014 TIME LEFT:  2.00D  GRAD.:     3.562 HEAT:-3.439497
 CYCLE:    45 TIME:   0.013 TIME LEFT:  2.00D  GRAD.:     2.774 HEAT:-3.450561
 CYCLE:    46 TIME:   0.013 TIME LEFT:  2.00D  GRAD.:     2.304 HEAT:-3.459003
 CYCLE:    47 TIME:   0.013 TIME LEFT:  2.00D  GRAD.:     3.493 HEAT:-3.470131
 CYCLE:    48 TIME:   0.013 TIME LEFT:  2.00D  GRAD.:     4.658 HEAT:-3.488518
 CYCLE:    49 TIME:   0.014 TIME LEFT:  2.00D  GRAD.:     3.277 HEAT:-3.505581
 CYCLE:    50 TIME:   0.013 TIME LEFT:  2.00D  GRAD.:     3.156 HEAT:-3.524342
 CYCLE:    51 TIME:   0.014 TIME LEFT:  2.00D  GRAD.:     4.836 HEAT:-3.545470
 CYCLE:    52 TIME:   0.013 TIME LEFT:  2.00D  GRAD.:     5.691 HEAT:-3.577344
 CYCLE:    53 TIME:   0.013 TIME LEFT:  2.00D  GRAD.:     4.872 HEAT:-3.618623
 CYCLE:    54 TIME:   0.013 TIME LEFT:  2.00D  GRAD.:     4.709 HEAT:-3.661648
 CYCLE:    55 TIME:   0.014 TIME LEFT:  2.00D  GRAD.:     7.575 HEAT:-3.698738
 CYCLE:    56 TIME:   0.013 TIME LEFT:  2.00D  GRAD.:    13.691 HEAT:-3.705500
 CYCLE:    57 TIME:   0.013 TIME LEFT:  2.00D  GRAD.:     5.935 HEAT:-3.798907
 CYCLE:    58 TIME:   0.013 TIME LEFT:  2.00D  GRAD.:     3.455 HEAT:-3.839376
 CYCLE:    59 TIME:   0.013 TIME LEFT:  2.00D  GRAD.:     4.811 HEAT:-3.881124
 CYCLE:    60 TIME:   0.013 TIME LEFT:  2.00D  GRAD.:     5.324 HEAT:-3.915294
 CYCLE:    61 TIME:   0.013 TIME LEFT:  2.00D  GRAD.:     3.987 HEAT:-3.950139
 CYCLE:    62 TIME:   0.013 TIME LEFT:  2.00D  GRAD.:     2.690 HEAT:-3.973333
 CYCLE:    63 TIME:   0.013 TIME LEFT:  2.00D  GRAD.:     3.016 HEAT:-3.985227
 CYCLE:    64 TIME:   0.013 TIME LEFT:  2.00D  GRAD.:     2.367 HEAT:-3.996158
 CYCLE:    65 TIME:   0.014 TIME LEFT:  2.00D  GRAD.:     1.759 HEAT:-4.004680
 CYCLE:    66 TIME:   0.014 TIME LEFT:  2.00D  GRAD.:     1.515 HEAT:-4.008790
 CYCLE:    67 TIME:   0.014 TIME LEFT:  2.00D  GRAD.:     1.326 HEAT:-4.011960
 CYCLE:    68 TIME:   0.014 TIME LEFT:  2.00D  GRAD.:     1.095 HEAT:-4.014644
 CYCLE:    69 TIME:   0.014 TIME LEFT:  2.00D  GRAD.:     0.899 HEAT:-4.017039
 CYCLE:    70 TIME:   0.013 TIME LEFT:  2.00D  GRAD.:     0.863 HEAT:-4.018608
 CYCLE:    71 TIME:   0.014 TIME LEFT:  2.00D  GRAD.:     0.759 HEAT:-4.020126
 CYCLE:    72 TIME:   0.014 TIME LEFT:  2.00D  GRAD.:     0.690 HEAT:-4.021443
 CYCLE:    73 TIME:   0.014 TIME LEFT:  2.00D  GRAD.:     0.737 HEAT:-4.023039
 CYCLE:    74 TIME:   0.014 TIME LEFT:  2.00D  GRAD.:     0.967 HEAT:-4.025338
 CYCLE:    75 TIME:   0.014 TIME LEFT:  2.00D  GRAD.:     1.183 HEAT:-4.028623
 CYCLE:    76 TIME:   0.014 TIME LEFT:  2.00D  GRAD.:     1.340 HEAT:-4.033278
 CYCLE:    77 TIME:   0.013 TIME LEFT:  2.00D  GRAD.:     1.082 HEAT:-4.035707
 CYCLE:    78 TIME:   0.013 TIME LEFT:  2.00D  GRAD.:     1.489 HEAT:-4.039791
 CYCLE:    79 TIME:   0.013 TIME LEFT:  2.00D  GRAD.:     1.050 HEAT:-4.041425
 CYCLE:    80 TIME:   0.014 TIME LEFT:  2.00D  GRAD.:     0.874 HEAT:-4.044632
 CYCLE:    81 TIME:   0.013 TIME LEFT:  2.00D  GRAD.:     0.817 HEAT:-4.045929
 CYCLE:    82 TIME:   0.014 TIME LEFT:  2.00D  GRAD.:     0.967 HEAT:-4.048582
 CYCLE:    83 TIME:   0.013 TIME LEFT:  2.00D  GRAD.:     0.718 HEAT:-4.049603
 CYCLE:    84 TIME:   0.013 TIME LEFT:  2.00D  GRAD.:     0.633 HEAT:-4.051768
 CYCLE:    85 TIME:   0.013 TIME LEFT:  2.00D  GRAD.:     0.657 HEAT:-4.052668
 CYCLE:    86 TIME:   0.013 TIME LEFT:  2.00D  GRAD.:     0.755 HEAT:-4.054158
 CYCLE:    87 TIME:   0.013 TIME LEFT:  2.00D  GRAD.:     0.761 HEAT:-4.055296
 CYCLE:    88 TIME:   0.014 TIME LEFT:  2.00D  GRAD.:     0.913 HEAT:-4.057925
 CYCLE:    89 TIME:   0.013 TIME LEFT:  2.00D  GRAD.:     0.736 HEAT:-4.059041
 CYCLE:    90 TIME:   0.014 TIME LEFT:  2.00D  GRAD.:     0.974 HEAT:-4.062364
 CYCLE:    91 TIME:   0.013 TIME LEFT:  2.00D  GRAD.:     0.629 HEAT:-4.063264
 CYCLE:    92 TIME:   0.013 TIME LEFT:  2.00D  GRAD.:     0.458 HEAT:-4.064177
 CYCLE:    93 TIME:   0.013 TIME LEFT:  2.00D  GRAD.:     0.545 HEAT:-4.064997
 CYCLE:    94 TIME:   0.013 TIME LEFT:  2.00D  GRAD.:     0.597 HEAT:-4.066023
 CYCLE:    95 TIME:   0.014 TIME LEFT:  2.00D  GRAD.:     0.508 HEAT:-4.067053
 CYCLE:    96 TIME:   0.013 TIME LEFT:  2.00D  GRAD.:     0.397 HEAT:-4.067447
 CYCLE:    97 TIME:   0.013 TIME LEFT:  2.00D  GRAD.:     0.453 HEAT:-4.067938
 CYCLE:    98 TIME:   0.013 TIME LEFT:  2.00D  GRAD.:     0.379 HEAT:-4.068194
 CYCLE:    99 TIME:   0.013 TIME LEFT:  2.00D  GRAD.:     0.562 HEAT:-4.069177
 CYCLE:   100 TIME:   0.013 TIME LEFT:  2.00D  GRAD.:     0.520 HEAT:-4.069608
 CYCLE:   101 TIME:   0.014 TIME LEFT:  2.00D  GRAD.:     0.815 HEAT:-4.071345
 CYCLE:   102 TIME:   0.014 TIME LEFT:  2.00D  GRAD.:     0.754 HEAT:-4.072244
 CYCLE:   103 TIME:   0.015 TIME LEFT:  2.00D  GRAD.:     0.660 HEAT:-4.075164
 CYCLE:   104 TIME:   0.014 TIME LEFT:  2.00D  GRAD.:     0.464 HEAT:-4.075689
 CYCLE:   105 TIME:   0.014 TIME LEFT:  2.00D  GRAD.:     0.454 HEAT:-4.076467
 CYCLE:   106 TIME:   0.014 TIME LEFT:  2.00D  GRAD.:     0.439 HEAT:-4.076865
 CYCLE:   107 TIME:   0.014 TIME LEFT:  2.00D  GRAD.:     0.489 HEAT:-4.077709
 CYCLE:   108 TIME:   0.013 TIME LEFT:  2.00D  GRAD.:     0.365 HEAT:-4.078004
 CYCLE:   109 TIME:   0.014 TIME LEFT:  2.00D  GRAD.:     0.390 HEAT:-4.078448
 CYCLE:   110 TIME:   0.013 TIME LEFT:  2.00D  GRAD.:     0.257 HEAT:-4.078634
 CYCLE:   111 TIME:   0.013 TIME LEFT:  2.00D  GRAD.:     0.224 HEAT:-4.078821
 CYCLE:   112 TIME:   0.013 TIME LEFT:  2.00D  GRAD.:     0.233 HEAT:-4.078987
 CYCLE:   113 TIME:   0.013 TIME LEFT:  2.00D  GRAD.:     0.227 HEAT:-4.079168
 CYCLE:   114 TIME:   0.013 TIME LEFT:  2.00D  GRAD.:     0.221 HEAT:-4.079316
 CYCLE:   115 TIME:   0.014 TIME LEFT:  2.00D  GRAD.:     0.224 HEAT:-4.079497
 CYCLE:   116 TIME:   0.013 TIME LEFT:  2.00D  GRAD.:     0.223 HEAT:-4.079611
 CYCLE:   117 TIME:   0.013 TIME LEFT:  2.00D  GRAD.:     0.228 HEAT:-4.079743
 CYCLE:   118 TIME:   0.014 TIME LEFT:  2.00D  GRAD.:     0.265 HEAT:-4.079878
 CYCLE:   119 TIME:   0.013 TIME LEFT:  2.00D  GRAD.:     0.256 HEAT:-4.080045
 CYCLE:   120 TIME:   0.013 TIME LEFT:  2.00D  GRAD.:     0.266 HEAT:-4.080283
 CYCLE:   121 TIME:   0.013 TIME LEFT:  2.00D  GRAD.:     0.210 HEAT:-4.080372
 CYCLE:   122 TIME:   0.013 TIME LEFT:  2.00D  GRAD.:     0.255 HEAT:-4.080554
 CYCLE:   123 TIME:   0.013 TIME LEFT:  2.00D  GRAD.:     0.182 HEAT:-4.080619
 CYCLE:   124 TIME:   0.013 TIME LEFT:  2.00D  GRAD.:     0.186 HEAT:-4.080732
 CYCLE:   125 TIME:   0.013 TIME LEFT:  2.00D  GRAD.:     0.206 HEAT:-4.080837
 CYCLE:   126 TIME:   0.014 TIME LEFT:  2.00D  GRAD.:     0.310 HEAT:-4.081173
 CYCLE:   127 TIME:   0.013 TIME LEFT:  2.00D  GRAD.:     0.291 HEAT:-4.081352
 CYCLE:   128 TIME:   0.014 TIME LEFT:  2.00D  GRAD.:     0.375 HEAT:-4.081790
 CYCLE:   129 TIME:   0.013 TIME LEFT:  2.00D  GRAD.:     0.347 HEAT:-4.082027
 CYCLE:   130 TIME:   0.014 TIME LEFT:  2.00D  GRAD.:     0.354 HEAT:-4.082581
 CYCLE:   131 TIME:   0.013 TIME LEFT:  2.00D  GRAD.:     0.248 HEAT:-4.082773
 CYCLE:   132 TIME:   0.013 TIME LEFT:  2.00D  GRAD.:     0.166 HEAT:-4.082983
 CYCLE:   133 TIME:   0.013 TIME LEFT:  2.00D  GRAD.:     0.174 HEAT:-4.083109
 CYCLE:   134 TIME:   0.013 TIME LEFT:  2.00D  GRAD.:     0.172 HEAT:-4.083254
 CYCLE:   135 TIME:   0.014 TIME LEFT:  2.00D  GRAD.:     0.165 HEAT:-4.083377
 CYCLE:   136 TIME:   0.014 TIME LEFT:  2.00D  GRAD.:     0.179 HEAT:-4.083461
 CYCLE:   137 TIME:   0.013 TIME LEFT:  2.00D  GRAD.:     0.134 HEAT:-4.083514
 CYCLE:   138 TIME:   0.014 TIME LEFT:  2.00D  GRAD.:     0.273 HEAT:-4.083447
 CYCLE:   139 TIME:   0.014 TIME LEFT:  2.00D  GRAD.:     0.116 HEAT:-4.083605
 CYCLE:   140 TIME:   0.013 TIME LEFT:  2.00D  GRAD.:     0.098 HEAT:-4.083629
 CYCLE:   141 TIME:   0.014 TIME LEFT:  2.00D  GRAD.:     0.135 HEAT:-4.083714
 CYCLE:   142 TIME:   0.013 TIME LEFT:  2.00D  GRAD.:     0.127 HEAT:-4.083745
 CYCLE:   143 TIME:   0.013 TIME LEFT:  2.00D  GRAD.:     0.184 HEAT:-4.083870
 CYCLE:   144 TIME:   0.014 TIME LEFT:  2.00D  GRAD.:     0.184 HEAT:-4.083957
 CYCLE:   145 TIME:   0.014 TIME LEFT:  2.00D  GRAD.:     0.297 HEAT:-4.084166
 CYCLE:   146 TIME:   0.013 TIME LEFT:  2.00D  GRAD.:     0.218 HEAT:-4.084279
 CYCLE:   147 TIME:   0.014 TIME LEFT:  2.00D  GRAD.:     0.371 HEAT:-4.084626
 CYCLE:   148 TIME:   0.013 TIME LEFT:  2.00D  GRAD.:     0.210 HEAT:-4.084791
 CYCLE:   149 TIME:   0.014 TIME LEFT:  2.00D  GRAD.:     0.132 HEAT:-4.084993
 CYCLE:   150 TIME:   0.013 TIME LEFT:  2.00D  GRAD.:     0.083 HEAT:-4.085034
 CYCLE:   151 TIME:   0.013 TIME LEFT:  2.00D  GRAD.:     0.094 HEAT:-4.085054
 CYCLE:   152 TIME:   0.013 TIME LEFT:  2.00D  GRAD.:     0.053 HEAT:-4.085065
 CYCLE:   153 TIME:   0.012 TIME LEFT:  2.00D  GRAD.:     0.038 HEAT:-4.085068

     RMS GRADIENT =  0.03804  IS LESS THAN CUTOFF =  0.05000



 -------------------------------------------------------------------------------
pm3  precise nosym
 InChI=1S/C12H20/c1-4-10-8-7-9-11(5-2)12(10)6-3/h6-8,10-12H,3-5,9H2,1-2H3



     GEOMETRY OPTIMISED USING EIGENVECTOR FOLLOWING (EF).     
     SCF FIELD WAS ACHIEVED                                   


                              PM3 CALCULATION
                                                       MOPAC2012 (Version: 13.159M)
                                                       Fri Mar  7 15:10:42 2014
                                                       No. of days left =  93




          FINAL HEAT OF FORMATION =         -4.08507 KCAL/MOL =     -17.09192 KJ/MOL


          TOTAL ENERGY            =      -1730.51571 EV
          ELECTRONIC ENERGY       =     -11470.60247 EV  POINT GROUP:     C1  
          CORE-CORE REPULSION     =       9740.08675 EV
          COSMO AREA              =        220.25 SQUARE ANGSTROMS
          COSMO VOLUME            =        245.44 CUBIC ANGSTROMS

          GRADIENT NORM           =          0.03804
          IONIZATION POTENTIAL    =          9.631425 EV
          HOMO LUMO ENERGIES (EV) =         -9.631  1.111
          NO. OF FILLED LEVELS    =         34
          MOLECULAR WEIGHT        =        164.290

          MOLECULAR DIMENSIONS (Angstroms)

            Atom       Atom       Distance
            H    24    H    18     8.11462
            H    31    H    29     7.42287
            H    27    H    23     3.92260


          SCF CALCULATIONS        =        162
          COMPUTATION TIME        =          2.168 SECONDS




   ATOM   CHEMICAL          X               Y               Z
  NUMBER   SYMBOL      (ANGSTROMS)     (ANGSTROMS)     (ANGSTROMS)
 
     1       C         -1.19309856  *  -0.17679382  *  -0.26721087  *
     2       C          0.22212046  *   0.40793543  *  -0.12167394  *
     3       C          1.27193532  *  -0.50604185  *  -0.78730100  *
     4       C         -2.23621324  *   0.74571589  *   0.36877700  *
     5       C          2.68316244  *  -0.13890977  *  -0.31326254  *
     6       C         -1.25017965  *  -1.56512198  *   0.37046302  *
     7       C         -3.64796155  *   0.39350303  *  -0.04427396  *
     8       C          2.87626040  *  -0.35011002  *   1.17215940  *
     9       C          1.00994666  *  -1.95805627  *  -0.56065086  *
    10       C          0.29721993  *   1.76393738  *  -0.75771318  *
    11       C         -0.12648944  *  -2.43577650  *  -0.05515835  *
    12       C          0.81716396  *   2.82200547  *  -0.14626837  *
    13       H         -1.41926789  *  -0.27373898  *  -1.35835785  *
    14       H          0.47225613  *   0.48170656  *   0.97307916  *
    15       H          1.22345294  *  -0.35089366  *  -1.89539886  *
    16       H         -2.02188350  *   1.79568066  *   0.08092946  *
    17       H         -2.14320857  *   0.71730855  *   1.47311371  *
    18       H          3.42983214  *  -0.72859156  *  -0.88030954  *
    19       H          2.87671840  *   0.92364946  *  -0.56649772  *
    20       H         -2.21520081  *  -2.05069652  *   0.12035429  *
    21       H         -1.22900825  *  -1.48688952  *   1.47752684  *
    22       H         -3.92357910  *  -0.62457464  *   0.26389781  *
    23       H         -3.77815283  *   0.44977059  *  -1.13337029  *
    24       H         -4.37501111  *   1.07960805  *   0.40886574  *
    25       H          2.82442615  *  -1.41379241  *   1.43947792  *
    26       H          2.08646344  *   0.16894050  *   1.74202732  *
    27       H          3.84591705  *   0.03304279  *   1.51145478  *
    28       H         -0.09717425  *   1.83497466  *  -1.77943595  *
    29       H         -0.26873911  *  -3.51343824  *   0.08284558  *
    30       H          1.82274068  *  -2.63564039  *  -0.84915551  *
    31       H          0.87735186  *   3.79889395  *  -0.61598012  *
    32       H          1.22089448  *   2.78664002  *   0.86257297  *

           Empirical Formula: C12 H20  =    32 atoms



      MOLECULAR POINT GROUP   :   C1  


                  EIGENVALUES  
 -42.60021 -36.42283 -33.94960 -32.18370 -27.99160 -27.93369 -23.94016 -22.81956
 -21.06757 -20.19803 -19.41000 -17.91321 -16.91459 -16.29631 -15.87913 -15.68210
 -14.99719 -14.73047 -14.52756 -14.23114 -14.09930 -13.62645 -13.48718 -12.86513
 -12.66043 -12.59178 -12.38310 -11.98966 -11.81308 -11.63330 -11.26233 -11.19676
 -10.17359  -9.63143   1.11121   1.17016   3.17527   3.40841   3.46451   3.56649
   3.63968   3.69717   3.84272   3.87190   3.95552   3.99268   4.02452   4.09035
   4.12816   4.18918   4.23615   4.28197   4.41375   4.47627   4.51152   4.56867
   4.71593   4.76004   4.94823   4.98543   5.05680   5.08970   5.16309   5.23101
   5.56851   5.82094   5.87314   6.01069


              NET ATOMIC CHARGES AND DIPOLE CONTRIBUTIONS

  ATOM NO.   TYPE          CHARGE      No. of ELECS.   s-Pop       p-Pop       
    1          C          -0.070278        4.0703     1.17980     2.89048
    2          C          -0.058184        4.0582     1.17522     2.88296
    3          C          -0.034396        4.0344     1.16755     2.86685
    4          C          -0.105570        4.1056     1.16283     2.94274
    5          C          -0.096767        4.0968     1.16133     2.93544
    6          C          -0.064116        4.0641     1.14993     2.91418
    7          C          -0.110945        4.1109     1.13876     2.97219
    8          C          -0.120081        4.1201     1.14047     2.97961
    9          C          -0.146398        4.1464     1.19571     2.95069
   10          C          -0.130763        4.1308     1.19787     2.93290
   11          C          -0.147470        4.1475     1.19312     2.95435
   12          C          -0.167217        4.1672     1.18350     2.98371
   13          H           0.068948        0.9311     0.93105
   14          H           0.082976        0.9170     0.91702
   15          H           0.068424        0.9316     0.93158
   16          H           0.058227        0.9418     0.94177
   17          H           0.051399        0.9486     0.94860
   18          H           0.049359        0.9506     0.95064
   19          H           0.054495        0.9455     0.94551
   20          H           0.057599        0.9424     0.94240
   21          H           0.059471        0.9405     0.94053
   22          H           0.038941        0.9611     0.96106
   23          H           0.038245        0.9618     0.96176
   24          H           0.037428        0.9626     0.96257
   25          H           0.042888        0.9571     0.95711
   26          H           0.044926        0.9551     0.95507
   27          H           0.038566        0.9614     0.96143
   28          H           0.099545        0.9005     0.90045
   29          H           0.097402        0.9026     0.90260
   30          H           0.100294        0.8997     0.89971
   31          H           0.079715        0.9203     0.92028
   32          H           0.083337        0.9167     0.91666
 DIPOLE           X         Y         Z       TOTAL
 POINT-CHG.    -0.088     0.105     0.028     0.140
 HYBRID         0.016    -0.038    -0.004     0.041
 SUM           -0.071     0.067     0.024     0.101


          ATOMIC ORBITAL ELECTRON POPULATIONS

    Atom      s        px        py        pz   
    1  C   1.17980   0.94101   0.94606   1.00340
    2  C   1.17522   0.94739   0.92917   1.00640
    3  C   1.16755   0.94546   0.92636   0.99502
    4  C   1.16283   0.94604   0.99514   1.00156
    5  C   1.16133   0.95554   1.01556   0.96434
    6  C   1.14993   0.96989   0.94770   0.99660
    7  C   1.13876   0.95939   1.00735   1.00544
    8  C   1.14047   1.00629   1.01408   0.95923
    9  C   1.19571   0.97578   0.96576   1.00914
   10  C   1.19787   0.98904   0.95276   0.99109
   11  C   1.19312   0.96219   0.98510   1.00706
   12  C   1.18350   1.00510   0.97519   1.00342
   13  H   0.93105
   14  H   0.91702
   15  H   0.93158
   16  H   0.94177
   17  H   0.94860
   18  H   0.95064
   19  H   0.94551
   20  H   0.94240
   21  H   0.94053
   22  H   0.96106
   23  H   0.96176
   24  H   0.96257
   25  H   0.95711
   26  H   0.95507
   27  H   0.96143
   28  H   0.90045
   29  H   0.90260
   30  H   0.89971
   31  H   0.92028
   32  H   0.91666
 *******************************************************************************
 ** Site#: 14399           For non-commercial use only        Version 13.159M **
 *******************************************************************************
 ** Cite this work as: MOPAC2012, James J. P. Stewart, Stewart Computational  **
 ** Chemistry, Version 13.159M web: HTTP://OpenMOPAC.net  Days remaining:  93 **
 *******************************************************************************
 **                                                                           **
 **                                MOPAC2012                                  **
 **                                                                           **
 *******************************************************************************

                            PM3 CALCULATION RESULTS


 *******************************************************************************
 *  CALCULATION DONE:                                Fri Mar  7 15:10:42 2014  *
 *  PM3      - The PM3 Hamiltonian to be used
 *  OLDGEO   - PREVIOUS GEOMETRY TO BE USED
 *  PRECISE  - CRITERIA TO BE INCREASED BY 100 TIMES
 *  NOSYM    - POINT-GROUP SYMMETRY SET TO C1
 *  T=       - A TIME OF 172800.0 SECONDS REQUESTED
 *  DUMP=N   - RESTART FILE WRITTEN EVERY  7200.000 SECONDS
 *  THERMO   - THERMODYNAMIC QUANTITIES TO BE CALCULATED
 *******************************************************************************
oldgeo thermo nosym precise  pm3

   ATOM   CHEMICAL          X               Y               Z
  NUMBER   SYMBOL      (ANGSTROMS)     (ANGSTROMS)     (ANGSTROMS)
 
     1       C         -1.19309856  *  -0.17679382  *  -0.26721087  *
     2       C          0.22212046  *   0.40793543  *  -0.12167394  *
     3       C          1.27193532  *  -0.50604185  *  -0.78730100  *
     4       C         -2.23621324  *   0.74571589  *   0.36877700  *
     5       C          2.68316244  *  -0.13890977  *  -0.31326254  *
     6       C         -1.25017965  *  -1.56512198  *   0.37046302  *
     7       C         -3.64796155  *   0.39350303  *  -0.04427396  *
     8       C          2.87626040  *  -0.35011002  *   1.17215940  *
     9       C          1.00994666  *  -1.95805627  *  -0.56065086  *
    10       C          0.29721993  *   1.76393738  *  -0.75771318  *
    11       C         -0.12648944  *  -2.43577650  *  -0.05515835  *
    12       C          0.81716396  *   2.82200547  *  -0.14626837  *
    13       H         -1.41926789  *  -0.27373898  *  -1.35835785  *
    14       H          0.47225613  *   0.48170656  *   0.97307916  *
    15       H          1.22345294  *  -0.35089366  *  -1.89539886  *
    16       H         -2.02188350  *   1.79568066  *   0.08092946  *
    17       H         -2.14320857  *   0.71730855  *   1.47311371  *
    18       H          3.42983214  *  -0.72859156  *  -0.88030954  *
    19       H          2.87671840  *   0.92364946  *  -0.56649772  *
    20       H         -2.21520081  *  -2.05069652  *   0.12035429  *
    21       H         -1.22900825  *  -1.48688952  *   1.47752684  *
    22       H         -3.92357910  *  -0.62457464  *   0.26389781  *
    23       H         -3.77815283  *   0.44977059  *  -1.13337029  *
    24       H         -4.37501111  *   1.07960805  *   0.40886574  *
    25       H          2.82442615  *  -1.41379241  *   1.43947792  *
    26       H          2.08646344  *   0.16894050  *   1.74202732  *
    27       H          3.84591705  *   0.03304279  *   1.51145478  *
    28       H         -0.09717425  *   1.83497466  *  -1.77943595  *
    29       H         -0.26873911  *  -3.51343824  *   0.08284558  *
    30       H          1.82274068  *  -2.63564039  *  -0.84915551  *
    31       H          0.87735186  *   3.79889395  *  -0.61598012  *
    32       H          1.22089448  *   2.78664002  *   0.86257297  *
 


          CARTESIAN COORDINATES 

    NO.       ATOM         X         Y         Z

     1         C       -1.1931   -0.1768   -0.2672
     2         C        0.2221    0.4079   -0.1217
     3         C        1.2719   -0.5060   -0.7873
     4         C       -2.2362    0.7457    0.3688
     5         C        2.6832   -0.1389   -0.3133
     6         C       -1.2502   -1.5651    0.3705
     7         C       -3.6480    0.3935   -0.0443
     8         C        2.8763   -0.3501    1.1722
     9         C        1.0099   -1.9581   -0.5607
    10         C        0.2972    1.7639   -0.7577
    11         C       -0.1265   -2.4358   -0.0552
    12         C        0.8172    2.8220   -0.1463
    13         H       -1.4193   -0.2737   -1.3584
    14         H        0.4723    0.4817    0.9731
    15         H        1.2235   -0.3509   -1.8954
    16         H       -2.0219    1.7957    0.0809
    17         H       -2.1432    0.7173    1.4731
    18         H        3.4298   -0.7286   -0.8803
    19         H        2.8767    0.9236   -0.5665
    20         H       -2.2152   -2.0507    0.1204
    21         H       -1.2290   -1.4869    1.4775
    22         H       -3.9236   -0.6246    0.2639
    23         H       -3.7782    0.4498   -1.1334
    24         H       -4.3750    1.0796    0.4089
    25         H        2.8244   -1.4138    1.4395
    26         H        2.0865    0.1689    1.7420
    27         H        3.8459    0.0330    1.5115
    28         H       -0.0972    1.8350   -1.7794
    29         H       -0.2687   -3.5134    0.0828
    30         H        1.8227   -2.6356   -0.8492
    31         H        0.8774    3.7989   -0.6160
    32         H        1.2209    2.7866    0.8626

  H: (PM3): J. J. P. STEWART, J. COMP. CHEM. 10, 209 (1989).
  C: (PM3): J. J. P. STEWART, J. COMP. CHEM. 10, 209 (1989).

           Empirical Formula: C12 H20  =    32 atoms



      MOLECULAR POINT GROUP   :   C1  


      RHF CALCULATION, NO. OF DOUBLY OCCUPIED LEVELS =   34



          HEAT OF FORMATION =      -4.085068 KCALS/MOLE


          INTERNAL COORDINATE DERIVATIVES

   NUMBER  ATOM       BOND         ANGLE      DIHEDRAL

     1       C     -0.002439    -0.000286    -0.001241
     2       C     -0.001028    -0.000833    -0.000388
     3       C      0.003875     0.000162    -0.000123
     4       C     -0.003475     0.000833     0.000291
     5       C      0.005507     0.000301     0.001360
     6       C     -0.000151    -0.002148    -0.001299
     7       C     -0.004014    -0.003479     0.000043
     8       C      0.002005     0.006181    -0.001476
     9       C      0.001468    -0.000384     0.000449
    10       C     -0.006729     0.010586     0.001238
    11       C     -0.001922    -0.002471    -0.001555
    12       C      0.005865    -0.005883     0.001160
    13       H      0.006092     0.002323    -0.001205
    14       H     -0.007850    -0.004359     0.000796
    15       H      0.002861     0.002052    -0.002194
    16       H      0.000542     0.000287     0.000688
    17       H      0.005684     0.001462    -0.002824
    18       H      0.009086    -0.001497     0.002346
    19       H      0.005358    -0.002034     0.000413
    20       H      0.000745     0.000611    -0.002792
    21       H     -0.006022    -0.006789     0.000443
    22       H     -0.002509     0.001742     0.000909
    23       H      0.010038    -0.003971     0.001333
    24       H     -0.011123    -0.001406     0.000112
    25       H     -0.002548     0.006006     0.000411
    26       H      0.006613     0.004887    -0.002406
    27       H     -0.002428     0.004092    -0.005097
    28       H     -0.006074     0.002312    -0.001097
    29       H     -0.004536    -0.002481     0.002502
    30       H      0.002012    -0.002643     0.002628
    31       H     -0.005064     0.000036     0.002386
    32       H      0.000161    -0.003210     0.004190


          GRADIENT NORM =   0.03695


          TIME FOR SCF CALCULATION =    0.01

          TIME FOR DERIVATIVES     =    0.01

          MOLECULAR WEIGHT =  164.29



          ROTATIONAL CONSTANTS IN CM(-1)

          A =    0.04022156   B =    0.02511377   C =    0.01754869



           PRINCIPAL MOMENTS OF INERTIA IN UNITS OF 10**(-40)*GRAM-CM**2

          A =      695.9644   B =     1114.6384   C =     1595.1486


          ORIENTATION OF MOLECULE IN FORCE CALCULATION

    NO.       ATOM         X         Y         Z

     1          C      -1.2019   -0.2828    0.2547
     2          C       0.3362   -0.2828    0.2547
     3          C       0.8917    1.1567    0.2547
     4          C      -1.7508   -1.7116    0.2837
     5          C       2.3746    1.1613   -0.1354
     6          C      -1.7219    0.4629   -0.9745
     7          C      -3.2227   -1.7586    0.6287
     8          C       2.6125    0.6576   -1.5418
     9          C       0.1201    2.0805   -0.6282
    10          C       0.8606   -0.9973    1.4644
    11          C      -1.0593    1.7764   -1.1684
    12          C       1.7991   -1.9348    1.4007
    13          H      -1.5501    0.2528    1.1729
    14          H       0.6980   -0.7930   -0.6809
    15          H       0.8012    1.5701    1.2916
    16          H      -1.1817   -2.3085    1.0260
    17          H      -1.5715   -2.2056   -0.6925
    18          H       2.7837    2.1846   -0.0249
    19          H       2.9326    0.5296    0.5857
    20          H      -2.8180    0.6061   -0.8875
    21          H      -1.5679   -0.1427   -1.8920
    22          H      -3.8341   -1.2197   -0.1083
    23          H      -3.4241   -1.3079    1.6098
    24          H      -3.5879   -2.7931    0.6617
    25          H       2.1857    1.3362   -2.2921
    26          H       2.1371   -0.3281   -1.6847
    27          H       3.6824    0.5517   -1.7569
    28          H       0.4281   -0.6906    2.4254
    29          H      -1.5867    2.4966   -1.8037
    30          H       0.5831    3.0583   -0.8088
    31          H       2.1814   -2.4415    2.2814
    32          H       2.2526   -2.2594    0.4674


    FIRST DERIVATIVES WILL BE USED IN THE CALCULATION OF SECOND DERIVATIVES

          ESTIMATED TIME TO COMPLETE CALCULATION =        7.25 SECONDS

    FOR POINT-GROUP C1   THERE ARE   1 UNIQUE SYMMETRY FUNCTIONS.

 STEP:   1 TIME =     0.06 SECS, INTEGRAL =      0.06 TIME LEFT: 172799.92
 STEP:   2 TIME =     0.06 SECS, INTEGRAL =      0.12 TIME LEFT: 172799.86
 STEP:   3 TIME =     0.06 SECS, INTEGRAL =      0.18 TIME LEFT: 172799.80
 STEP:   4 TIME =     0.06 SECS, INTEGRAL =      0.24 TIME LEFT: 172799.75
 STEP:   5 TIME =     0.06 SECS, INTEGRAL =      0.30 TIME LEFT: 172799.69
 STEP:   6 TIME =     0.06 SECS, INTEGRAL =      0.36 TIME LEFT: 172799.63
 STEP:   7 TIME =     0.06 SECS, INTEGRAL =      0.42 TIME LEFT: 172799.57
 STEP:   8 TIME =     0.06 SECS, INTEGRAL =      0.47 TIME LEFT: 172799.51
 STEP:   9 TIME =     0.06 SECS, INTEGRAL =      0.53 TIME LEFT: 172799.45
 STEP:  10 TIME =     0.06 SECS, INTEGRAL =      0.59 TIME LEFT: 172799.39
 STEP:  11 TIME =     0.06 SECS, INTEGRAL =      0.65 TIME LEFT: 172799.33
 STEP:  12 TIME =     0.06 SECS, INTEGRAL =      0.71 TIME LEFT: 172799.27
 STEP:  13 TIME =     0.06 SECS, INTEGRAL =      0.77 TIME LEFT: 172799.21
 STEP:  14 TIME =     0.06 SECS, INTEGRAL =      0.83 TIME LEFT: 172799.16
 STEP:  15 TIME =     0.06 SECS, INTEGRAL =      0.89 TIME LEFT: 172799.10
 STEP:  16 TIME =     0.06 SECS, INTEGRAL =      0.95 TIME LEFT: 172799.04
 STEP:  17 TIME =     0.06 SECS, INTEGRAL =      1.01 TIME LEFT: 172798.97
 STEP:  18 TIME =     0.06 SECS, INTEGRAL =      1.07 TIME LEFT: 172798.91
 STEP:  19 TIME =     0.06 SECS, INTEGRAL =      1.13 TIME LEFT: 172798.85
 STEP:  20 TIME =     0.06 SECS, INTEGRAL =      1.19 TIME LEFT: 172798.79
 STEP:  21 TIME =     0.06 SECS, INTEGRAL =      1.25 TIME LEFT: 172798.74
 STEP:  22 TIME =     0.06 SECS, INTEGRAL =      1.30 TIME LEFT: 172798.68
 STEP:  23 TIME =     0.06 SECS, INTEGRAL =      1.36 TIME LEFT: 172798.62
 STEP:  24 TIME =     0.06 SECS, INTEGRAL =      1.42 TIME LEFT: 172798.56
 STEP:  25 TIME =     0.06 SECS, INTEGRAL =      1.48 TIME LEFT: 172798.50
 STEP:  26 TIME =     0.06 SECS, INTEGRAL =      1.55 TIME LEFT: 172798.44
 STEP:  27 TIME =     0.06 SECS, INTEGRAL =      1.61 TIME LEFT: 172798.37
 STEP:  28 TIME =     0.06 SECS, INTEGRAL =      1.67 TIME LEFT: 172798.31
 STEP:  29 TIME =     0.06 SECS, INTEGRAL =      1.73 TIME LEFT: 172798.25
 STEP:  30 TIME =     0.06 SECS, INTEGRAL =      1.79 TIME LEFT: 172798.19
 STEP:  31 TIME =     0.06 SECS, INTEGRAL =      1.85 TIME LEFT: 172798.13
 STEP:  32 TIME =     0.06 SECS, INTEGRAL =      1.91 TIME LEFT: 172798.07
 STEP:  33 TIME =     0.06 SECS, INTEGRAL =      1.97 TIME LEFT: 172798.01
 STEP:  34 TIME =     0.06 SECS, INTEGRAL =      2.03 TIME LEFT: 172797.95
 STEP:  35 TIME =     0.06 SECS, INTEGRAL =      2.09 TIME LEFT: 172797.89
 STEP:  36 TIME =     0.06 SECS, INTEGRAL =      2.15 TIME LEFT: 172797.83
 STEP:  37 TIME =     0.06 SECS, INTEGRAL =      2.21 TIME LEFT: 172797.77
 STEP:  38 TIME =     0.06 SECS, INTEGRAL =      2.27 TIME LEFT: 172797.71
 STEP:  39 TIME =     0.06 SECS, INTEGRAL =      2.33 TIME LEFT: 172797.65
 STEP:  40 TIME =     0.06 SECS, INTEGRAL =      2.39 TIME LEFT: 172797.59
 STEP:  41 TIME =     0.06 SECS, INTEGRAL =      2.45 TIME LEFT: 172797.53
 STEP:  42 TIME =     0.06 SECS, INTEGRAL =      2.51 TIME LEFT: 172797.47
 STEP:  43 TIME =     0.06 SECS, INTEGRAL =      2.57 TIME LEFT: 172797.41
 STEP:  44 TIME =     0.06 SECS, INTEGRAL =      2.64 TIME LEFT: 172797.35
 STEP:  45 TIME =     0.06 SECS, INTEGRAL =      2.70 TIME LEFT: 172797.29
 STEP:  46 TIME =     0.06 SECS, INTEGRAL =      2.76 TIME LEFT: 172797.23
 STEP:  47 TIME =     0.06 SECS, INTEGRAL =      2.82 TIME LEFT: 172797.17
 STEP:  48 TIME =     0.06 SECS, INTEGRAL =      2.88 TIME LEFT: 172797.10
 STEP:  49 TIME =     0.06 SECS, INTEGRAL =      2.94 TIME LEFT: 172797.04
 STEP:  50 TIME =     0.06 SECS, INTEGRAL =      3.00 TIME LEFT: 172796.98
 STEP:  51 TIME =     0.06 SECS, INTEGRAL =      3.06 TIME LEFT: 172796.92
 STEP:  52 TIME =     0.06 SECS, INTEGRAL =      3.12 TIME LEFT: 172796.86
 STEP:  53 TIME =     0.06 SECS, INTEGRAL =      3.18 TIME LEFT: 172796.80
 STEP:  54 TIME =     0.06 SECS, INTEGRAL =      3.24 TIME LEFT: 172796.74
 STEP:  55 TIME =     0.06 SECS, INTEGRAL =      3.30 TIME LEFT: 172796.68
 STEP:  56 TIME =     0.06 SECS, INTEGRAL =      3.36 TIME LEFT: 172796.62
 STEP:  57 TIME =     0.06 SECS, INTEGRAL =      3.42 TIME LEFT: 172796.56
 STEP:  58 TIME =     0.06 SECS, INTEGRAL =      3.48 TIME LEFT: 172796.51
 STEP:  59 TIME =     0.06 SECS, INTEGRAL =      3.54 TIME LEFT: 172796.44
 STEP:  60 TIME =     0.06 SECS, INTEGRAL =      3.60 TIME LEFT: 172796.38
 STEP:  61 TIME =     0.06 SECS, INTEGRAL =      3.66 TIME LEFT: 172796.32
 STEP:  62 TIME =     0.06 SECS, INTEGRAL =      3.72 TIME LEFT: 172796.26
 STEP:  63 TIME =     0.06 SECS, INTEGRAL =      3.78 TIME LEFT: 172796.20
 STEP:  64 TIME =     0.06 SECS, INTEGRAL =      3.84 TIME LEFT: 172796.14
 STEP:  65 TIME =     0.06 SECS, INTEGRAL =      3.90 TIME LEFT: 172796.08
 STEP:  66 TIME =     0.06 SECS, INTEGRAL =      3.96 TIME LEFT: 172796.02
 STEP:  67 TIME =     0.06 SECS, INTEGRAL =      4.02 TIME LEFT: 172795.96
 STEP:  68 TIME =     0.06 SECS, INTEGRAL =      4.08 TIME LEFT: 172795.90
 STEP:  69 TIME =     0.06 SECS, INTEGRAL =      4.14 TIME LEFT: 172795.84
 STEP:  70 TIME =     0.06 SECS, INTEGRAL =      4.20 TIME LEFT: 172795.78
 STEP:  71 TIME =     0.06 SECS, INTEGRAL =      4.26 TIME LEFT: 172795.72
 STEP:  72 TIME =     0.06 SECS, INTEGRAL =      4.32 TIME LEFT: 172795.66
 STEP:  73 TIME =     0.06 SECS, INTEGRAL =      4.38 TIME LEFT: 172795.60
 STEP:  74 TIME =     0.06 SECS, INTEGRAL =      4.44 TIME LEFT: 172795.54
 STEP:  75 TIME =     0.06 SECS, INTEGRAL =      4.50 TIME LEFT: 172795.48
 STEP:  76 TIME =     0.06 SECS, INTEGRAL =      4.56 TIME LEFT: 172795.42
 STEP:  77 TIME =     0.06 SECS, INTEGRAL =      4.62 TIME LEFT: 172795.36
 STEP:  78 TIME =     0.06 SECS, INTEGRAL =      4.68 TIME LEFT: 172795.30
 STEP:  79 TIME =     0.06 SECS, INTEGRAL =      4.73 TIME LEFT: 172795.25
 STEP:  80 TIME =     0.06 SECS, INTEGRAL =      4.80 TIME LEFT: 172795.18
 STEP:  81 TIME =     0.06 SECS, INTEGRAL =      4.86 TIME LEFT: 172795.12
 STEP:  82 TIME =     0.06 SECS, INTEGRAL =      4.92 TIME LEFT: 172795.06
 STEP:  83 TIME =     0.06 SECS, INTEGRAL =      4.98 TIME LEFT: 172795.00
 STEP:  84 TIME =     0.06 SECS, INTEGRAL =      5.04 TIME LEFT: 172794.94
 STEP:  85 TIME =     0.06 SECS, INTEGRAL =      5.10 TIME LEFT: 172794.88
 STEP:  86 TIME =     0.06 SECS, INTEGRAL =      5.16 TIME LEFT: 172794.82
 STEP:  87 TIME =     0.06 SECS, INTEGRAL =      5.22 TIME LEFT: 172794.76
 STEP:  88 TIME =     0.06 SECS, INTEGRAL =      5.29 TIME LEFT: 172794.70
 STEP:  89 TIME =     0.06 SECS, INTEGRAL =      5.34 TIME LEFT: 172794.64
 STEP:  90 TIME =     0.06 SECS, INTEGRAL =      5.41 TIME LEFT: 172794.57
 STEP:  91 TIME =     0.06 SECS, INTEGRAL =      5.47 TIME LEFT: 172794.51
 STEP:  92 TIME =     0.06 SECS, INTEGRAL =      5.53 TIME LEFT: 172794.45
 STEP:  93 TIME =     0.06 SECS, INTEGRAL =      5.59 TIME LEFT: 172794.39
 STEP:  94 TIME =     0.06 SECS, INTEGRAL =      5.65 TIME LEFT: 172794.33
 STEP:  95 TIME =     0.06 SECS, INTEGRAL =      5.72 TIME LEFT: 172794.26
 STEP:  96 TIME =     0.06 SECS, INTEGRAL =      5.78 TIME LEFT: 172794.21

(To convert to Hartree/Bohr^2, multiply by (10^(-21) x N x a0^2)/(4.184 x 627.51) = 0.0642)


           FORCE MATRIX IN MILLIDYNES/ANGSTROM


                  C  1       C  2       C  3       C  4       C  5       C  6
 ------------------------------------------------------------------------------
     C    1  14.205947
     C    2   3.583309  14.395152
     C    3   0.596547   3.446931  14.462209
     C    4   3.833463   0.606687   0.049757  14.292989
     C    5   0.048801   0.604447   3.731360   0.009670  14.274015
     C    6   3.897192   0.640960   0.099947   0.637434   0.009493  14.761981
     C    7   0.623325   0.050666   0.008979   4.451554   0.002311   0.053558
     C    8   0.005421   0.077384   0.617961   0.000810   4.442033   0.000923
     C    9   0.065413   0.622255   4.766969   0.004252   0.701677   0.852497
     C   10   0.666748   4.579000   0.695225   0.078960   0.052830   0.052584
     C   11   0.671272   0.060281   0.804713   0.053857   0.044107   5.085186
     C   12   0.043908   0.795473   0.037186   0.012821   0.024870   0.009895
     H   13   4.184521   0.432017   0.024045   0.427544   0.001464   0.424135
     H   14   0.429557   3.978066   0.431510   0.021195   0.051888   0.025893
     H   15   0.012797   0.435595   4.132233   0.001273   0.423682   0.012878
     H   16   0.441332   0.054478   0.002360   4.408873   0.000860   0.046699
     H   17   0.449267   0.016072   0.000886   4.437353   0.000494   0.038657
     H   18   0.008290   0.047236   0.439383   0.001862   4.469755   0.000973
     H   19   0.001921   0.029218   0.436177   0.000806   4.419033   0.001311
     H   20   0.434527   0.047528   0.008689   0.019577   0.000637   4.422849
     H   21   0.452946   0.014857   0.014133   0.039501   0.000899   4.376210
     H   22   0.016996   0.001799   0.000412   0.464570   0.000329   0.023380
     H   23   0.023971   0.001824   0.000454   0.463447   0.000162   0.002481
     H   24   0.050674   0.008735   0.001717   0.448943   0.000560   0.002636
     H   25   0.000648   0.003094   0.015350   0.000223   0.464569   0.000507
     H   26   0.002114   0.084848   0.026093   0.000503   0.463974   0.000678
     H   27   0.000566   0.005874   0.051611   0.000334   0.452073   0.000173
     H   28   0.027048   0.435535   0.017198   0.008497   0.002384   0.002060
     H   29   0.041113   0.003845   0.119476   0.007944   0.015620   0.425904
     H   30   0.004673   0.040219   0.430689   0.001053   0.035157   0.121542
     H   31   0.016344   0.133616   0.019397   0.000906   0.001530   0.003037
     H   32   0.009572   0.095944   0.012838   0.000702   0.002922   0.002165


                  C  7       C  8       C  9       C 10       C 11       C 12
 ------------------------------------------------------------------------------
     C    7  14.341166
     C    8   0.000699  14.327258
     C    9   0.000898   0.049612  18.308496
     C   10   0.004371   0.006609   0.049042  18.100273
     C   11   0.003359   0.007318  10.764300   0.004353  18.295771
     C   12   0.001631   0.005974   0.008380  11.076056   0.001827  18.023532
     H   13   0.038602   0.000750   0.007116   0.030385   0.013909   0.001739
     H   14   0.001451   0.101168   0.008674   0.441324   0.006303   0.051101
     H   15   0.000520   0.049176   0.385353   0.061044   0.032772   0.002870
     H   16   0.433062   0.000308   0.000807   0.056919   0.008601   0.012987
     H   17   0.438554   0.000194   0.000721   0.002888   0.002133   0.000812
     H   18   0.000558   0.438519   0.031112   0.002672   0.002249   0.001202
     H   19   0.000293   0.436716   0.050550   0.016464   0.008203   0.015660
     H   20   0.021127   0.000222   0.044281   0.009297   0.431979   0.001931
     H   21   0.003359   0.000349   0.028533   0.001044   0.408502   0.000984
     H   22   4.694490   0.000225   0.000754   0.001060   0.001299   0.000542
     H   23   4.720392   0.000190   0.000387   0.000599   0.000743   0.000390
     H   24   4.748507   0.000215   0.000233   0.000770   0.000666   0.000646
     H   25   0.000267   4.731906   0.009406   0.000920   0.004540   0.000848
     H   26   0.000397   4.541144   0.003035   0.001933   0.001013   0.003179
     H   27   0.000277   4.780685   0.004079   0.000930   0.000586   0.001193
     H   28   0.001090   0.000826   0.001735   4.769000   0.001224   0.452852
     H   29   0.000579   0.000859   0.443506   0.001321   4.824176   0.000402
     H   30   0.000427   0.007695   4.789212   0.007764   0.442754   0.001766
     H   31   0.000453   0.000953   0.003209   0.461715   0.000575   5.108304
     H   32   0.000701   0.003256   0.003441   0.490090   0.001031   5.058246


                  H 13       H 14       H 15       H 16       H 17       H 18
 ------------------------------------------------------------------------------
     H   13   4.671121
     H   14   0.039075   4.531239
     H   15   0.008362   0.038594   4.601998
     H   16   0.019839   0.002624   0.000366   5.028394
     H   17   0.041631   0.009670   0.000465   0.569722   5.060297
     H   18   0.000488   0.002464   0.035323   0.000172   0.000132   5.083131
     H   19   0.000453   0.003893   0.033781   0.000365   0.000123   0.555832
     H   20   0.035275   0.002099   0.000987   0.001077   0.001834   0.000264
     H   21   0.041612   0.011352   0.001902   0.002207   0.029969   0.000368
     H   22   0.002163   0.000424   0.000135   0.047672   0.023591   0.000080
     H   23   0.026104   0.000424   0.000143   0.025655   0.047993   0.000046
     H   24   0.002249   0.000530   0.000118   0.032311   0.029989   0.000129
     H   25   0.000112   0.001139   0.001801   0.000160   0.000108   0.028120
     H   26   0.000510   0.108247   0.002505   0.000188   0.000195   0.048499
     H   27   0.000273   0.002604   0.008276   0.000078   0.000135   0.025142
     H   28   0.022375   0.035454   0.020130   0.012516   0.000661   0.000320
     H   29   0.001313   0.000541   0.015779   0.001661   0.000513   0.000588
     H   30   0.000520   0.000900   0.022338   0.000316   0.000283   0.025627
     H   31   0.000480   0.002502   0.000706   0.001168   0.000143   0.000472
     H   32   0.000581   0.029543   0.000832   0.000806   0.000326   0.000529


                  H 19       H 20       H 21       H 22       H 23       H 24
 ------------------------------------------------------------------------------
     H   19   5.019602
     H   20   0.000293   5.010194
     H   21   0.000129   0.564907   4.981184
     H   22   0.000135   0.036257   0.001190   5.430062
     H   23   0.000066   0.000683   0.000490   0.576160   5.464160
     H   24   0.000091   0.000748   0.000312   0.574123   0.573228   5.486375
     H   25   0.047927   0.000177   0.000258   0.000080   0.000071   0.000100
     H   26   0.022961   0.000190   0.000449   0.000052   0.000075   0.000071
     H   27   0.033595   0.000116   0.000183   0.000092   0.000073   0.000147
     H   28   0.001251   0.000436   0.000660   0.000509   0.000337   0.000224
     H   29   0.002578   0.036451   0.017470   0.000241   0.000191   0.000167
     H   30   0.002145   0.013054   0.016818   0.000182   0.000176   0.000144
     H   31   0.000787   0.000666   0.000145   0.000228   0.000154   0.000173
     H   32   0.003065   0.000364   0.000214   0.000302   0.000152   0.000194


                  H 25       H 26       H 27       H 28       H 29       H 30
 ------------------------------------------------------------------------------
     H   25   5.460145
     H   26   0.566220   5.306830
     H   27   0.563810   0.545560   5.497860
     H   28   0.000385   0.000574   0.000396   5.150435
     H   29   0.000712   0.000233   0.000254   0.000559   5.198123
     H   30   0.005190   0.000820   0.000778   0.000596   0.068970   5.170296
     H   31   0.000356   0.000468   0.000306   0.078509   0.000198   0.000580
     H   32   0.000565   0.006940   0.000475   0.116927   0.000269   0.000493


                  H 31       H 32
 ------------------------------
     H   31   5.494826
     H   32   0.418198   5.449754


          HEAT OF FORMATION =      -4.085068 KCALS/MOLE

          ZERO POINT ENERGY     180.563 KCAL/MOL


           NORMAL COORDINATE ANALYSIS (Total motion = 1 Angstrom)


   Root No.       1         2         3         4         5         6         7         8

                 1 A       2 A       3 A       4 A       5 A       6 A       7 A       8 A   

                  51.8      78.0      89.7      93.4     136.4     167.1     191.3     216.4
  
           1   -0.0028    0.0040    0.0060   -0.0072   -0.0040    0.0066    0.0086   -0.0058
           2    0.0006   -0.0026   -0.0048   -0.0040    0.0002   -0.0082   -0.0134    0.0039
           3   -0.0047   -0.0164   -0.0013   -0.0149    0.0073    0.0043   -0.0091    0.0001
           4   -0.0026    0.0040    0.0059   -0.0075   -0.0034    0.0064    0.0099   -0.0060
           5    0.0006    0.0004   -0.0083   -0.0102   -0.0048   -0.0052   -0.0146    0.0050
           6   -0.0119   -0.0008    0.0029   -0.0041   -0.0004   -0.0018   -0.0182   -0.0008
           7   -0.0105    0.0028   -0.0004   -0.0020    0.0028   -0.0008    0.0023   -0.0001
           8    0.0035    0.0010   -0.0051   -0.0118   -0.0074   -0.0018   -0.0104    0.0021
           9   -0.0020    0.0024    0.0082    0.0054   -0.0035   -0.0072   -0.0160   -0.0061
          10   -0.0075    0.0046   -0.0092   -0.0167   -0.0033   -0.0024   -0.0068    0.0023
          11    0.0029   -0.0031    0.0027   -0.0006   -0.0009   -0.0046   -0.0069    0.0010
          12    0.0083   -0.0202    0.0272   -0.0222   -0.0011   -0.0052   -0.0096    0.0131
          13   -0.0030    0.0008   -0.0026   -0.0021    0.0067    0.0002    0.0038    0.0010
          14    0.0142    0.0022    0.0043   -0.0156   -0.0199    0.0083    0.0120   -0.0117
          15    0.0279   -0.0056    0.0007    0.0052    0.0120   -0.0026   -0.0090   -0.0033
          16   -0.0059    0.0156    0.0217    0.0056   -0.0175   -0.0071   -0.0117    0.0069
          17   -0.0055   -0.0032   -0.0259    0.0025    0.0116   -0.0057    0.0000   -0.0063
          18   -0.0073   -0.0215   -0.0208   -0.0165    0.0201    0.0115    0.0090   -0.0114
          19   -0.0004    0.0184   -0.0186   -0.0062   -0.0028   -0.0042   -0.0063    0.0004
          20    0.0099   -0.0067    0.0334    0.0067   -0.0087    0.0202    0.0194   -0.0113
          21    0.0401    0.0381   -0.0067    0.0246   -0.0004   -0.0076    0.0004    0.0017
          22    0.0293   -0.0096   -0.0136   -0.0050    0.0002    0.0096    0.0306    0.0176
          23    0.0089    0.0205    0.0341   -0.0059    0.0456    0.0060    0.0077   -0.0061
          24    0.0354   -0.0139   -0.0118    0.0013   -0.0125    0.0000   -0.0024   -0.0027
          25   -0.0024    0.0005   -0.0059    0.0025    0.0180   -0.0050   -0.0105   -0.0076
          26   -0.0055    0.0062   -0.0046   -0.0012   -0.0154   -0.0068   -0.0034    0.0074
          27   -0.0189    0.0099    0.0125    0.0128   -0.0247   -0.0090    0.0029    0.0069
          28    0.0048   -0.0113    0.0061   -0.0118   -0.0061    0.0072    0.0007   -0.0015
          29   -0.0093    0.0034   -0.0122   -0.0113   -0.0019    0.0025   -0.0016    0.0078
          30   -0.0212    0.0078    0.0000   -0.0028    0.0030    0.0027   -0.0054   -0.0017
          31   -0.0006    0.0064    0.0045    0.0056    0.0113   -0.0103   -0.0218   -0.0103
          32   -0.0099    0.0045   -0.0147    0.0054   -0.0082   -0.0066    0.0063    0.0070
          33   -0.0207   -0.0021   -0.0050    0.0023   -0.0136    0.0027    0.0221    0.0117
          34   -0.0007   -0.0366    0.0094    0.0431    0.0011    0.0016    0.0008   -0.0035
          35   -0.0138   -0.0226   -0.0087    0.0429    0.0048   -0.0036   -0.0031    0.0063
          36   -0.0363    0.0202   -0.0031    0.0067    0.0123    0.0118    0.0272   -0.0076
          37    0.0032   -0.0047    0.0048   -0.0104    0.0040    0.0110    0.0233   -0.0115
          38    0.0075   -0.0018    0.0173   -0.0040   -0.0083   -0.0143   -0.0174    0.0119
          39   -0.0063   -0.0201   -0.0145   -0.0160    0.0154    0.0095   -0.0002   -0.0072
          40   -0.0040    0.0144    0.0091   -0.0036   -0.0040    0.0082    0.0165   -0.0116
          41    0.0106   -0.0011   -0.0031   -0.0091   -0.0035   -0.0069   -0.0166    0.0025
          42   -0.0176    0.0040    0.0012   -0.0031   -0.0014    0.0002   -0.0135   -0.0020
          43   -0.0340    0.0080    0.0013   -0.0002   -0.0082   -0.0055   -0.0001    0.0075
          44    0.0041   -0.0031   -0.0109   -0.0194    0.0016    0.0010   -0.0185    0.0026
          45   -0.0043    0.0045    0.0106    0.0086   -0.0082   -0.0085   -0.0122   -0.0052
          46    0.0051    0.0321   -0.0335    0.0011   -0.0015   -0.0090   -0.0098    0.0010
          47    0.0009   -0.0174    0.0176   -0.0181   -0.0041   -0.0189   -0.0141    0.0136
          48   -0.0029   -0.0526    0.0576   -0.0500   -0.0048   -0.0123   -0.0133    0.0244
          49   -0.0303   -0.0343    0.0073   -0.0519   -0.0024   -0.0097   -0.0208    0.0146
          50    0.0006    0.0129   -0.0269    0.0137    0.0051    0.0034   -0.0090   -0.0079
          51    0.0053   -0.0353    0.0453   -0.0358   -0.0040   -0.0107   -0.0108    0.0199
          52   -0.0137    0.0040   -0.0027    0.0029    0.0288   -0.0081   -0.0153    0.0130
          53    0.0182   -0.0002    0.0023   -0.0185   -0.0348    0.0118    0.0201   -0.0179
          54    0.0311    0.0052    0.0193    0.0134    0.0664   -0.0041   -0.0114    0.0080
          55   -0.0121    0.0034    0.0024   -0.0050   -0.0131    0.0026    0.0087   -0.0146
          56    0.0226   -0.0082   -0.0104   -0.0247   -0.0690    0.0150    0.0269   -0.0238
          57    0.0423   -0.0170   -0.0161   -0.0002   -0.0154    0.0015    0.0003   -0.0012
          58   -0.0046    0.0129    0.0163    0.0042   -0.0103   -0.0074   -0.0117    0.0016
          59    0.0011   -0.0152   -0.0479   -0.0010    0.0465   -0.0099   -0.0090   -0.0309
          60   -0.0026   -0.0390   -0.0511   -0.0294    0.0541    0.0256    0.0261   -0.0404
          61   -0.0139    0.0375    0.0590    0.0191   -0.0657   -0.0176   -0.0199    0.0450
          62   -0.0128    0.0034   -0.0293    0.0096    0.0019   -0.0043    0.0150   -0.0010
          63   -0.0038   -0.0221   -0.0122   -0.0190    0.0184    0.0087   -0.0021   -0.0085
          64   -0.0144   -0.0105    0.0089   -0.0250   -0.0080    0.0277   -0.0082    0.0040
          65    0.0083    0.0070    0.0317    0.0273   -0.0226    0.1878   -0.0283    0.0029
          66    0.0506    0.0724   -0.0311    0.0554   -0.0060    0.0873   -0.0329    0.0091
          67    0.0221    0.0585   -0.0343    0.0298   -0.0064    0.0273   -0.0013   -0.0081
          68    0.0154   -0.0239    0.0544   -0.0113    0.0001   -0.1366    0.0853   -0.0336
          69    0.0422    0.0543   -0.0196    0.0402   -0.0052    0.0706   -0.0287    0.0101
          70   -0.0034    0.0180   -0.0372   -0.0152    0.0060   -0.0665   -0.0092    0.0041
          71    0.0114   -0.0068    0.0404    0.0095   -0.0116    0.0369    0.0228   -0.0134
          72    0.0531    0.0348    0.0028    0.0157    0.0110   -0.1860    0.0712   -0.0238
          73    0.0429   -0.0144   -0.0199   -0.0060    0.0372    0.0131    0.0499    0.1499
          74    0.0040    0.0307    0.0497   -0.0005    0.1042    0.0036    0.0070    0.0662
          75    0.0233   -0.0020    0.0058    0.0067    0.0193   -0.0041   -0.0137   -0.0117
          76    0.0355   -0.0116   -0.0154   -0.0057   -0.0434    0.0117    0.0286   -0.0942
          77    0.0067    0.0229    0.0372   -0.0048    0.0743    0.0050    0.0095    0.0555
          78    0.0297   -0.0232   -0.0275   -0.0044   -0.0660   -0.0001   -0.0080   -0.0570
          79    0.0342   -0.0112   -0.0155   -0.0054   -0.0026    0.0111    0.0347    0.0175
          80    0.0117    0.0224    0.0385   -0.0050    0.0098    0.0073    0.0023   -0.1368
          81    0.0587   -0.0231   -0.0229   -0.0014   -0.0081    0.0067    0.0206    0.0588
          82    0.0150   -0.0032    0.0035   -0.0582   -0.0143    0.0107   -0.0107    0.0052
          83   -0.0134    0.0270   -0.0182   -0.0553   -0.0036    0.0137    0.0127    0.0113
          84   -0.0154    0.0040    0.0008   -0.0096    0.0000    0.0008   -0.0145    0.0001
          85    0.0041    0.0056    0.0020    0.0092    0.0239   -0.0154   -0.0360   -0.0223
          86   -0.0166    0.0081   -0.0164    0.0128   -0.0140   -0.0086    0.0170    0.0140
          87   -0.0322    0.0027   -0.0047    0.0078   -0.0309    0.0047    0.0461    0.0297
          88    0.0006   -0.0052   -0.0169    0.0036    0.0358   -0.0046   -0.0136   -0.0140
          89   -0.0088    0.0118    0.0036    0.0010   -0.0287   -0.0087   -0.0012    0.0124
          90   -0.0291    0.0250    0.0288    0.0275   -0.0514   -0.0185    0.0067    0.0181
          91    0.0046   -0.0506    0.0098    0.0458   -0.0020   -0.0011   -0.0147    0.0026
          92   -0.0219   -0.0213   -0.0115    0.0470    0.0100    0.0034    0.0141    0.0069
          93   -0.0433    0.0270   -0.0048    0.0078    0.0166    0.0170    0.0439   -0.0099
          94   -0.0107   -0.0456    0.0119    0.0901    0.0104   -0.0011    0.0157   -0.0116
          95   -0.0097   -0.0480   -0.0030    0.0888    0.0055   -0.0166   -0.0221    0.0038
          96   -0.0427    0.0248   -0.0038    0.0134    0.0167    0.0151    0.0413   -0.0106


   Root No.       9        10        11        12        13        14        15        16

                 9 A      10 A      11 A      12 A      13 A      14 A      15 A      16 A   

                 265.9     287.7     311.0     341.5     370.4     412.9     441.4     470.9
  
           1   -0.0072    0.0008    0.0129    0.0006   -0.0027   -0.0038    0.0094   -0.0036
           2    0.0094    0.0060    0.0052    0.0050   -0.0133    0.0255   -0.0121    0.0248
           3   -0.0034    0.0041   -0.0109   -0.0125   -0.0141    0.0101    0.0148    0.0054
           4   -0.0047    0.0029    0.0050    0.0032   -0.0054   -0.0027    0.0099    0.0044
           5   -0.0009    0.0002    0.0014   -0.0156    0.0037   -0.0022    0.0221    0.0137
           6   -0.0154    0.0054   -0.0116   -0.0237   -0.0144    0.0211   -0.0112   -0.0111
           7    0.0078    0.0056   -0.0107   -0.0101    0.0069   -0.0133   -0.0016    0.0269
           8   -0.0066    0.0005    0.0030   -0.0090   -0.0032   -0.0032    0.0338    0.0032
           9   -0.0105    0.0094   -0.0001    0.0010    0.0143    0.0014   -0.0015    0.0093
          10    0.0023    0.0022    0.0395   -0.0049    0.0065    0.0043   -0.0127   -0.0038
          11    0.0061    0.0048    0.0001    0.0087   -0.0167    0.0278   -0.0103    0.0308
          12    0.0311    0.0047    0.0078    0.0142    0.0057   -0.0087   -0.0017   -0.0114
          13    0.0104   -0.0004   -0.0098   -0.0117    0.0053   -0.0157    0.0003    0.0326
          14   -0.0065    0.0368   -0.0186    0.0052   -0.0075   -0.0209   -0.0128    0.0041
          15   -0.0025   -0.0195    0.0145    0.0070   -0.0046   -0.0130    0.0009    0.0120
          16   -0.0014   -0.0042   -0.0111   -0.0017   -0.0180   -0.0099    0.0151   -0.0225
          17    0.0040    0.0046    0.0025    0.0177   -0.0028    0.0032   -0.0109   -0.0210
          18   -0.0078    0.0059   -0.0019   -0.0077    0.0002   -0.0059    0.0176   -0.0083
          19   -0.0020    0.0021    0.0399   -0.0067    0.0045    0.0089   -0.0163   -0.0004
          20   -0.0225   -0.0042    0.0278   -0.0143    0.0089    0.0015   -0.0061   -0.0012
          21    0.0050    0.0011   -0.0031    0.0030    0.0013   -0.0040    0.0014   -0.0040
          22    0.0226    0.0010   -0.0206   -0.0192    0.0125    0.0308    0.0023   -0.0108
          23    0.0097   -0.0002   -0.0104   -0.0047   -0.0019    0.0024   -0.0074   -0.0025
          24   -0.0054   -0.0071    0.0095    0.0092   -0.0058   -0.0138   -0.0017    0.0079
          25    0.0040    0.0019   -0.0115    0.0011   -0.0078   -0.0306   -0.0088   -0.0095
          26    0.0011   -0.0021    0.0009    0.0079    0.0021    0.0020    0.0339   -0.0274
          27    0.0008    0.0086   -0.0050    0.0097    0.0398    0.0176    0.0020    0.0091
          28   -0.0232   -0.0243   -0.0158    0.0252   -0.0085    0.0149    0.0040    0.0042
          29   -0.0076   -0.0308   -0.0145   -0.0007    0.0248   -0.0146   -0.0013    0.0048
          30   -0.0121   -0.0006   -0.0111   -0.0224   -0.0052    0.0140   -0.0267   -0.0220
          31   -0.0034    0.0154   -0.0151    0.0111    0.0203   -0.0100    0.0056   -0.0126
          32    0.0099   -0.0093    0.0048    0.0121   -0.0221   -0.0029   -0.0083   -0.0290
          33    0.0106   -0.0152   -0.0013   -0.0133   -0.0092   -0.0256   -0.0074    0.0107
          34   -0.0096   -0.0013   -0.0033    0.0163   -0.0147    0.0153    0.0003    0.0005
          35    0.0057   -0.0083   -0.0028   -0.0130    0.0210   -0.0163   -0.0068    0.0002
          36    0.0037    0.0059    0.0060    0.0237   -0.0120    0.0083    0.0104    0.0051
          37   -0.0018    0.0025    0.0164    0.0159    0.0004   -0.0064    0.0133    0.0027
          38    0.0233    0.0063    0.0080    0.0137   -0.0163    0.0321   -0.0236    0.0375
          39   -0.0095    0.0046   -0.0100   -0.0117   -0.0101    0.0044    0.0228   -0.0007
          40   -0.0028    0.0009    0.0056   -0.0057    0.0026   -0.0001    0.0070   -0.0151
          41    0.0014    0.0046    0.0028   -0.0153    0.0097    0.0007    0.0394    0.0176
          42   -0.0159    0.0027   -0.0118   -0.0253   -0.0144    0.0192   -0.0213   -0.0197
          43    0.0094    0.0157   -0.0217   -0.0218    0.0293    0.0099    0.0060    0.0314
          44   -0.0119   -0.0086    0.0015   -0.0273   -0.0225   -0.0008    0.0311    0.0034
          45   -0.0078    0.0133   -0.0007    0.0077    0.0243    0.0029   -0.0006    0.0093
          46   -0.0046   -0.0004    0.0304   -0.0059    0.0010    0.0138   -0.0151    0.0075
          47    0.0347    0.0041    0.0143    0.0305   -0.0017    0.0167   -0.0291    0.0136
          48    0.0601    0.0063    0.0266    0.0334    0.0220   -0.0248   -0.0159   -0.0344
          49    0.0307    0.0070    0.0523    0.0092    0.0104    0.0048   -0.0260   -0.0105
          50   -0.0181    0.0054   -0.0183   -0.0105   -0.0371    0.0490    0.0030    0.0567
          51    0.0486    0.0052    0.0198    0.0265    0.0174   -0.0202   -0.0109   -0.0270
          52    0.0096   -0.0357    0.0134   -0.0207    0.0069   -0.0038    0.0440    0.0380
          53   -0.0077    0.0561   -0.0300    0.0099   -0.0086   -0.0287   -0.0332    0.0024
          54    0.0123   -0.0615    0.0284   -0.0027   -0.0014    0.0134    0.0199    0.0036
          55    0.0051    0.0347   -0.0292   -0.0038    0.0070   -0.0343   -0.0349    0.0384
          56   -0.0152    0.0833   -0.0410    0.0170   -0.0119   -0.0438   -0.0498    0.0039
          57   -0.0059   -0.0073    0.0105    0.0109   -0.0093   -0.0171   -0.0027    0.0068
          58   -0.0035    0.0008   -0.0106    0.0026   -0.0081   -0.0088    0.0157   -0.0253
          59   -0.0051    0.0319   -0.0027    0.0395    0.0508    0.0091   -0.0074   -0.0342
          60   -0.0232    0.0259    0.0183    0.0100    0.0465    0.0002    0.0199   -0.0199
          61    0.0169   -0.0365   -0.0253   -0.0278   -0.0871   -0.0198    0.0111   -0.0086
          62    0.0076   -0.0078    0.0063    0.0157   -0.0118   -0.0158   -0.0203   -0.0298
          63   -0.0069    0.0089   -0.0064   -0.0101   -0.0042    0.0051    0.0227   -0.0009
          64    0.0030    0.0002    0.0597   -0.0101    0.0194   -0.0064   -0.0174   -0.0219
          65   -0.0053   -0.0030    0.0390   -0.0111    0.0224   -0.0099   -0.0079   -0.0166
          66    0.0136    0.0038   -0.0120    0.0087   -0.0014    0.0006    0.0012    0.0027
          67   -0.0244   -0.0022    0.0432   -0.0205    0.0106    0.0045   -0.0152   -0.0063
          68   -0.0601   -0.0123    0.0402   -0.0361    0.0143   -0.0059   -0.0041   -0.0120
          69    0.0173    0.0039   -0.0078    0.0099    0.0002   -0.0016    0.0006   -0.0006
          70    0.0121    0.0079    0.0157    0.0094   -0.0185    0.0318   -0.0178    0.0308
          71   -0.0292   -0.0067    0.0371   -0.0210    0.0173   -0.0067   -0.0057   -0.0126
          72   -0.0381   -0.0069    0.0013   -0.0192    0.0008   -0.0056    0.0042   -0.0067
          73   -0.0399    0.0546   -0.0137   -0.0023    0.0113    0.0249   -0.0013   -0.0239
          74   -0.0216    0.0078    0.0037    0.0034   -0.0033   -0.0089   -0.0068    0.0071
          75    0.0016   -0.0299    0.0183    0.0069   -0.0061   -0.0200    0.0010    0.0236
          76    0.0845   -0.0442   -0.0314   -0.0370    0.0203    0.0682    0.0111   -0.0340
          77   -0.0222    0.0207   -0.0033    0.0045   -0.0049   -0.0135   -0.0103    0.0069
          78    0.0096   -0.0021   -0.0036    0.0049   -0.0098   -0.0256   -0.0092    0.0183
          79    0.0260    0.0004   -0.0227   -0.0210    0.0146    0.0414    0.0036   -0.0210
          80    0.0859   -0.0610   -0.0230   -0.0289    0.0071    0.0480    0.0013   -0.0254
          81   -0.0250    0.0185    0.0058    0.0127   -0.0011    0.0140   -0.0002   -0.0296
          82   -0.0527   -0.0759   -0.0523    0.0469    0.0108    0.0266   -0.0349    0.0014
          83   -0.0250   -0.0831   -0.0410    0.0437    0.0516   -0.0184   -0.0283    0.0132
          84   -0.0194   -0.0070   -0.0186   -0.0256   -0.0051    0.0204   -0.0345   -0.0251
          85   -0.0102    0.0339   -0.0183    0.0253    0.0483    0.0056   -0.0027   -0.0106
          86    0.0215   -0.0188    0.0065    0.0121   -0.0301   -0.0121   -0.0371   -0.0166
          87    0.0295   -0.0415    0.0034   -0.0251   -0.0421   -0.0489   -0.0337    0.0228
          88    0.0040   -0.0022   -0.0088    0.0053   -0.0310   -0.0441   -0.0289   -0.0312
          89    0.0022    0.0007   -0.0009    0.0097    0.0193    0.0147    0.0435   -0.0187
          90    0.0069    0.0113   -0.0072    0.0300    0.0736    0.0519    0.0059    0.0003
          91   -0.0289   -0.0350   -0.0337    0.0140    0.0088    0.0227   -0.0691   -0.0199
          92    0.0009   -0.0378   -0.0158    0.0398    0.0362   -0.0148   -0.0253    0.0187
          93    0.0093    0.0036    0.0118    0.0558   -0.0140    0.0065    0.0305    0.0250
          94    0.0221    0.0544    0.0386    0.0085   -0.0442    0.0085    0.0633    0.0154
          95    0.0237    0.0436    0.0219   -0.0790    0.0025   -0.0203    0.0052   -0.0236
          96    0.0129    0.0150    0.0179    0.0437   -0.0200    0.0063    0.0376    0.0213


   Root No.      17        18        19        20        21        22        23        24

                17 A      18 A      19 A      20 A      21 A      22 A      23 A      24 A   

                 508.4     553.9     630.3     655.7     718.0     788.2     822.3     839.1
  
           1   -0.0116    0.0349    0.0148    0.0240   -0.0053   -0.0105   -0.0010   -0.0013
           2    0.0106    0.0039    0.0009   -0.0022    0.0041    0.0013   -0.0008    0.0014
           3    0.0402    0.0035   -0.0125   -0.0115   -0.0058   -0.0093   -0.0012    0.0047
           4   -0.0203    0.0272    0.0134    0.0131   -0.0084   -0.0029   -0.0040    0.0017
           5   -0.0109   -0.0226    0.0068    0.0026    0.0016   -0.0149    0.0040   -0.0039
           6   -0.0192   -0.0177   -0.0076   -0.0007    0.0051   -0.0089    0.0051   -0.0017
           7   -0.0116   -0.0023   -0.0149    0.0001   -0.0063   -0.0007   -0.0006    0.0035
           8   -0.0191   -0.0158    0.0024    0.0228    0.0043    0.0024   -0.0027    0.0017
           9   -0.0041   -0.0200    0.0375    0.0194   -0.0207   -0.0201    0.0012    0.0017
          10    0.0108   -0.0070   -0.0030   -0.0030    0.0004   -0.0010   -0.0062   -0.0012
          11    0.0047    0.0247    0.0158    0.0113    0.0161    0.0096    0.0074   -0.0027
          12   -0.0048    0.0004   -0.0009    0.0001   -0.0027   -0.0074   -0.0303   -0.0057
          13   -0.0171   -0.0014   -0.0368   -0.0049   -0.0214    0.0035    0.0018   -0.0044
          14    0.0013   -0.0020   -0.0078    0.0008    0.0009    0.0087   -0.0074    0.0328
          15   -0.0040    0.0079   -0.0094   -0.0034   -0.0026   -0.0018    0.0024   -0.0111
          16    0.0214    0.0164   -0.0016    0.0062   -0.0033   -0.0181    0.0111    0.0035
          17   -0.0077   -0.0036   -0.0040   -0.0060   -0.0245   -0.0062   -0.0001    0.0048
          18    0.0208    0.0128   -0.0011    0.0058   -0.0123    0.0033    0.0149    0.0022
          19    0.0161   -0.0076   -0.0037   -0.0045    0.0042    0.0045   -0.0007   -0.0007
          20    0.0082   -0.0069   -0.0011   -0.0021    0.0039    0.0032    0.0042   -0.0007
          21   -0.0052   -0.0007    0.0002    0.0005   -0.0019   -0.0022   -0.0076   -0.0017
          22    0.0025   -0.0099    0.0027    0.0011   -0.0042   -0.0007    0.0017   -0.0058
          23    0.0036   -0.0011   -0.0030   -0.0036    0.0024    0.0019   -0.0011    0.0075
          24   -0.0009    0.0084   -0.0101   -0.0046    0.0025    0.0030    0.0000   -0.0009
          25    0.0090   -0.0125    0.0135   -0.0018    0.0300    0.0011   -0.0025    0.0012
          26   -0.0007    0.0024   -0.0223    0.0066    0.0244    0.0347   -0.0049   -0.0212
          27    0.0038    0.0049    0.0026   -0.0054   -0.0146    0.0122   -0.0033    0.0019
          28   -0.0135   -0.0102    0.0103   -0.0366    0.0011    0.0032   -0.0003   -0.0006
          29    0.0034    0.0132    0.0185   -0.0330   -0.0053   -0.0029    0.0009    0.0009
          30   -0.0234    0.0190   -0.0067   -0.0016    0.0046    0.0133   -0.0040   -0.0019
          31    0.0134   -0.0038    0.0033   -0.0056    0.0295    0.0046   -0.0021    0.0023
          32   -0.0077   -0.0005   -0.0075   -0.0026   -0.0348   -0.0143   -0.0023    0.0011
          33    0.0023   -0.0115    0.0214    0.0065    0.0266    0.0301   -0.0042   -0.0071
          34   -0.0077   -0.0144   -0.0052   -0.0002    0.0038    0.0039   -0.0006   -0.0010
          35    0.0110    0.0138    0.0050    0.0038   -0.0047   -0.0050    0.0012    0.0010
          36   -0.0002   -0.0113   -0.0026   -0.0007    0.0021    0.0050   -0.0022   -0.0007
          37   -0.0050    0.0702    0.0258    0.0388   -0.0142   -0.0023   -0.0087    0.0004
          38    0.0023    0.0143    0.0103    0.0042    0.0260    0.0079   -0.0288   -0.0078
          39    0.0461    0.0114   -0.0129   -0.0084   -0.0213   -0.0100    0.0135    0.0105
          40   -0.0457    0.0324    0.0327    0.0403   -0.0094   -0.0060   -0.0024   -0.0113
          41   -0.0090   -0.0492    0.0287    0.0272   -0.0084   -0.0414    0.0094   -0.0151
          42   -0.0301   -0.0003   -0.0124   -0.0035    0.0097    0.0054    0.0020    0.0004
          43   -0.0169   -0.0207   -0.0147    0.0052   -0.0299    0.0021    0.0012    0.0006
          44   -0.0353   -0.0312    0.0017    0.0275    0.0148   -0.0286    0.0071   -0.0048
          45    0.0026   -0.0144    0.0377    0.0165   -0.0262   -0.0079   -0.0025    0.0043
          46    0.0175   -0.0091   -0.0035   -0.0108    0.0039   -0.0071   -0.0723   -0.0164
          47   -0.0262    0.0066    0.0202    0.0092    0.0171    0.0365    0.0978    0.0130
          48   -0.0352   -0.0125    0.0032    0.0048   -0.0044    0.0202    0.0985    0.0196
          49    0.0076   -0.0161   -0.0048   -0.0066    0.0030    0.0229    0.1060    0.0244
          50    0.0457    0.0382    0.0094    0.0041    0.0190   -0.0130   -0.0902   -0.0193
          51   -0.0272   -0.0092    0.0018    0.0029   -0.0045    0.0090    0.0441    0.0084
          52   -0.0422   -0.0052   -0.0413    0.0222   -0.0229    0.0283   -0.0223    0.0899
          53    0.0124   -0.0015   -0.0048   -0.0106    0.0010   -0.0054    0.0061   -0.0235
          54   -0.0077    0.0144   -0.0166   -0.0018    0.0049    0.0293   -0.0250    0.1214
          55   -0.0033   -0.0066   -0.0254   -0.0177   -0.0340   -0.0245    0.0214   -0.0803
          56    0.0189   -0.0027   -0.0040   -0.0175   -0.0021   -0.0231    0.0250   -0.1142
          57    0.0002    0.0116   -0.0146   -0.0088    0.0048   -0.0064    0.0141   -0.0741
          58    0.0155    0.0188   -0.0032    0.0061    0.0094   -0.0247    0.0109    0.0040
          59   -0.0268   -0.0054   -0.0197   -0.0196    0.0545   -0.0302   -0.0043    0.0089
          60   -0.0353    0.0487    0.0015    0.0313    0.0472   -0.0417    0.0141   -0.0060
          61    0.0797   -0.0106    0.0065   -0.0063   -0.1036    0.0302    0.0183    0.0104
          62   -0.0263   -0.0114    0.0150    0.0055   -0.0375    0.0138   -0.0131   -0.0052
          63    0.0411    0.0136   -0.0126   -0.0040   -0.0186   -0.0037    0.0244    0.0101
          64    0.0206   -0.0286   -0.0187   -0.0187   -0.0102   -0.0177   -0.0998   -0.0172
          65    0.0073   -0.0242   -0.0118   -0.0125   -0.0056   -0.0023   -0.0072    0.0015
          66   -0.0101    0.0048    0.0052    0.0051    0.0037    0.0130    0.0711    0.0145
          67    0.0191   -0.0239   -0.0123   -0.0128    0.0002    0.0207    0.1038    0.0270
          68    0.0176   -0.0254   -0.0134   -0.0138   -0.0063   -0.0028   -0.0077    0.0017
          69   -0.0088    0.0038    0.0037    0.0038    0.0018    0.0043    0.0225    0.0037
          70    0.0106    0.0311    0.0212    0.0187    0.0265    0.0201    0.0273   -0.0055
          71    0.0108   -0.0218   -0.0107   -0.0112   -0.0043   -0.0022   -0.0047    0.0015
          72    0.0023   -0.0121   -0.0064   -0.0058   -0.0066    0.0033    0.0375    0.0112
          73    0.0076   -0.0094    0.0317    0.0103    0.0072   -0.0040   -0.0050    0.0228
          74   -0.0016    0.0066   -0.0096   -0.0077   -0.0044   -0.0123    0.0173   -0.0858
          75   -0.0085    0.0150   -0.0320   -0.0132   -0.0098   -0.0074    0.0194   -0.0965
          76    0.0116   -0.0173    0.0335    0.0105    0.0069   -0.0084   -0.0001   -0.0027
          77   -0.0003    0.0028   -0.0127   -0.0067   -0.0023    0.0008    0.0032   -0.0126
          78   -0.0038    0.0039   -0.0382   -0.0117   -0.0011    0.0294   -0.0193    0.1035
          79    0.0069   -0.0126    0.0178    0.0051    0.0023   -0.0039    0.0002   -0.0004
          80    0.0144   -0.0110    0.0219    0.0000    0.0124   -0.0119    0.0073   -0.0384
          81    0.0155    0.0012    0.0476    0.0110    0.0298   -0.0049   -0.0106    0.0441
          82   -0.0012   -0.0312   -0.0085   -0.0036    0.0050    0.0050    0.0048   -0.0001
          83    0.0315    0.0102    0.0112    0.0034   -0.0119    0.0025   -0.0013    0.0057
          84   -0.0260    0.0094   -0.0126    0.0016    0.0083    0.0118   -0.0007   -0.0032
          85    0.0145   -0.0161    0.0251   -0.0076   -0.0559    0.0726   -0.0219   -0.0054
          86   -0.0224   -0.0079   -0.0062   -0.0193    0.0151   -0.0900   -0.0057    0.0326
          87   -0.0144   -0.0090    0.0056   -0.0110    0.1541   -0.1125    0.0086    0.0357
          88    0.0172   -0.0287    0.0603    0.0106   -0.0377    0.0424   -0.0189   -0.0019
          89   -0.0044    0.0179   -0.0592   -0.0089    0.0707   -0.0065    0.0073   -0.0136
          90    0.0069    0.0492   -0.0781   -0.0576    0.0637   -0.1045    0.0224    0.0354
          91    0.0106   -0.0101   -0.0667    0.1675    0.0119    0.0171   -0.0128   -0.0055
          92    0.0621   -0.0360   -0.0445    0.1607   -0.0024   -0.0371    0.0091    0.0005
          93    0.0212   -0.0433   -0.0047    0.0166    0.0003   -0.0195    0.0079    0.0008
          94   -0.0199   -0.0217    0.0323   -0.1080    0.0008   -0.0068    0.0094    0.0013
          95   -0.0309    0.0655    0.0341   -0.0948   -0.0057    0.0250   -0.0083    0.0013
          96    0.0090   -0.0340    0.0056   -0.0189    0.0008   -0.0117    0.0064    0.0002


   Root No.      25        26        27        28        29        30        31        32

                25 A      26 A      27 A      28 A      29 A      30 A      31 A      32 A   

                 888.5     921.4     935.5     950.4     969.4     985.5     999.9    1010.8
  
[...]
 RED. MASS   5.4241        C  9 --  H 30          +13.2% ( 53.6%)     4.7%
 EFF. MASS  11.8814        C 11 --  H 29          +13.0% ( 53.2%)     4.5%

 VIBRATION   71   71A       ATOM PAIR        ENERGY CONTRIBUTION    RADIAL
 FREQ.      2811.59        C  2 --  H 14          +95.1% ( 99.2%)   100.0%
 T-DIPOLE    0.1196        C  2 --  C  3           +1.1% ( 10.5%)     8.3%
 TRAVEL      0.1291        C  1 --  C  2           +1.1% ( 10.5%)     9.2%
 RED. MASS   0.8985        C  2 --  C 10           +1.0% ( 10.4%)    12.3%
 EFF. MASS   1.4384

 VIBRATION   72   72A       ATOM PAIR        ENERGY CONTRIBUTION    RADIAL
 FREQ.      2850.44        C  3 --  H 15          +96.0% ( 99.4%)   100.0%
 T-DIPOLE    0.0634        C  3 --  C  5           +1.0% ( 10.2%)     8.2%
 TRAVEL      0.1283        C  3 --  C  9           +1.0% ( 10.1%)     6.8%
 RED. MASS   0.9097        C  2 --  C  3           +1.0% ( 10.0%)     9.0%
 EFF. MASS   1.4362

 VIBRATION   73   73A       ATOM PAIR        ENERGY CONTRIBUTION    RADIAL
 FREQ.      2868.72        C  1 --  H 13          +95.5% ( 99.3%)   100.0%
 T-DIPOLE    0.0522        C  1 --  C  6           +1.0% ( 10.3%)     8.4%
 TRAVEL      0.1277        C  1 --  C  4           +1.0% ( 10.3%)     9.0%
 RED. MASS   0.9031        C  1 --  C  2           +1.0% ( 10.1%)     8.7%
 EFF. MASS   1.4404

 VIBRATION   74   74A       ATOM PAIR        ENERGY CONTRIBUTION    RADIAL
 FREQ.      2935.61        C  6 --  H 21          +54.4% ( 76.5%)    97.1%
 T-DIPOLE    0.0297        C  6 --  H 20          +42.4% ( 67.5%)    95.8%
 TRAVEL      0.1222        C  6 --  C 11           +1.1% ( 11.0%)     0.0%
 RED. MASS   0.5144        C  1 --  C  6           +1.1% ( 10.9%)     0.0%
 EFF. MASS   1.5376

 VIBRATION   75   75A       ATOM PAIR        ENERGY CONTRIBUTION    RADIAL
 FREQ.      2943.66        C  4 --  H 16          +54.8% ( 76.9%)    97.2%
 T-DIPOLE    0.0590        C  4 --  H 17          +42.1% ( 67.4%)    95.6%
 TRAVEL      0.1218        C  4 --  C  7           +1.2% ( 11.3%)     0.0%
 RED. MASS   0.5183        C  1 --  C  4           +1.1% ( 11.1%)     0.1%
 EFF. MASS   1.5432

 VIBRATION   76   76A       ATOM PAIR        ENERGY CONTRIBUTION    RADIAL
 FREQ.      2950.19        C  5 --  H 19          +59.7% ( 80.2%)    97.7%
 T-DIPOLE    0.0321        C  5 --  H 18          +37.5% ( 63.5%)    94.9%
 TRAVEL      0.1216        C  5 --  C  8           +1.2% ( 11.4%)     0.1%
 RED. MASS   0.5395        C  3 --  C  5           +1.2% ( 11.3%)     0.1%
 EFF. MASS   1.5464

 VIBRATION   77   77A       ATOM PAIR        ENERGY CONTRIBUTION    RADIAL
 FREQ.      3013.69        C  6 --  H 20          +54.7% ( 72.9%)    98.4%
 T-DIPOLE    0.0770        C  6 --  H 21          +41.9% ( 63.8%)    96.8%
 TRAVEL      0.1322        C 11 --  H 29           +0.9% (  9.5%)    99.9%
 RED. MASS   0.4711        C  6 --  C 11           +0.6% (  7.9%)    20.2%
 EFF. MASS   1.2804

 VIBRATION   78   78A       ATOM PAIR        ENERGY CONTRIBUTION    RADIAL
 FREQ.      3025.15        C  4 --  H 17          +55.5% ( 73.4%)    98.4%
 T-DIPOLE    0.0529        C  4 --  H 16          +41.6% ( 63.6%)    96.9%
 TRAVEL      0.1322        C  4 --  C  7           +0.6% (  7.7%)    25.3%
 RED. MASS   0.4768        C  1 --  C  4           +0.6% (  7.6%)    28.7%
 EFF. MASS   1.2754

 VIBRATION   79   79A       ATOM PAIR        ENERGY CONTRIBUTION    RADIAL
 FREQ.      3026.33        C  5 --  H 18          +58.8% ( 75.8%)    98.7%
 T-DIPOLE    0.0497        C  5 --  H 19          +36.4% ( 59.6%)    95.7%
 TRAVEL      0.1317        C  8 --  H 26           +2.3% ( 15.1%)    98.7%
 RED. MASS   0.4751        C  5 --  C  8           +0.7% (  8.0%)    22.9%
 EFF. MASS   1.2847

 VIBRATION   80   80A       ATOM PAIR        ENERGY CONTRIBUTION    RADIAL
 FREQ.      3038.08        C 10 --  H 28          +96.0% ( 99.4%)   100.0%
 T-DIPOLE    0.2302        C 10 --  C 12           +1.4% ( 12.0%)    31.4%
 TRAVEL      0.1216        C  2 --  C 10           +1.3% ( 11.7%)    13.9%
 RED. MASS   0.9066        C 12 --  H 31           +0.9% (  9.4%)    95.2%
 EFF. MASS   1.5005

 VIBRATION   81   81A       ATOM PAIR        ENERGY CONTRIBUTION    RADIAL
 FREQ.      3039.36        C  9 --  H 30          +68.6% ( 84.0%)   100.0%
 T-DIPOLE    0.2809        C 11 --  H 29          +26.9% ( 52.6%)    99.9%
 TRAVEL      0.1232        C  8 --  H 26           +1.4% ( 12.0%)    99.4%
 RED. MASS   0.5308        C  9 --  C 11           +1.1% ( 10.6%)     3.3%
 EFF. MASS   1.4618

 VIBRATION   82   82A       ATOM PAIR        ENERGY CONTRIBUTION    RADIAL
 FREQ.      3041.17        C  8 --  H 26          +77.7% ( 90.4%)    99.4%
 T-DIPOLE    0.0237        C  8 --  H 25          +12.7% ( 36.5%)    83.4%
 TRAVEL      0.1226        C  8 --  H 27           +4.1% ( 20.7%)    55.4%
 RED. MASS   0.6381        C  5 --  H 18           +2.5% ( 16.3%)    99.6%
 EFF. MASS   1.4750

 VIBRATION   83   83A       ATOM PAIR        ENERGY CONTRIBUTION    RADIAL
 FREQ.      3061.93        C 11 --  H 29          +68.7% ( 84.1%)    99.9%
 T-DIPOLE    0.2838        C  9 --  H 30          +27.1% ( 52.8%)    99.8%
 TRAVEL      0.1180        C  9 --  C 11           +2.0% ( 14.3%)    92.2%
 RED. MASS   0.5443        C  6 --  C 11           +1.1% ( 10.6%)    16.5%
 EFF. MASS   1.5814

 VIBRATION   84   84A       ATOM PAIR        ENERGY CONTRIBUTION    RADIAL
 FREQ.      3072.29        C  7 --  H 22          +64.6% ( 82.9%)    98.7%
 T-DIPOLE    0.0075        C  7 --  H 23          +28.8% ( 55.3%)    92.5%
 TRAVEL      0.1210        C  7 --  H 24           +5.0% ( 23.2%)    55.5%
 RED. MASS   0.5294        C  4 --  C  7           +1.0% ( 10.2%)     0.0%
 EFF. MASS   1.5002

 VIBRATION   85   85A       ATOM PAIR        ENERGY CONTRIBUTION    RADIAL
 FREQ.      3082.46        C  7 --  H 24          +56.0% ( 77.2%)    98.2%
 T-DIPOLE    0.0053        C  7 --  H 23          +37.2% ( 62.9%)    94.6%
 TRAVEL      0.1207        C  7 --  H 22           +5.3% ( 23.7%)    55.1%
 RED. MASS   0.4837        C  4 --  C  7           +1.0% ( 10.3%)     0.0%
 EFF. MASS   1.5027

 VIBRATION   86   86A       ATOM PAIR        ENERGY CONTRIBUTION    RADIAL
 FREQ.      3086.62        C  8 --  H 25          +48.6% ( 71.9%)    96.7%
 T-DIPOLE    0.0190        C  8 --  H 27          +47.7% ( 71.2%)    97.3%
 TRAVEL      0.1204        C  8 --  H 26           +2.4% ( 16.0%)    27.2%
 RED. MASS   0.4941        C  5 --  C  8           +1.0% ( 10.4%)     0.0%
 EFF. MASS   1.5069

 VIBRATION   87   87A       ATOM PAIR        ENERGY CONTRIBUTION    RADIAL
 FREQ.      3130.81        C 12 --  H 32          +95.5% ( 99.2%)   100.0%
 T-DIPOLE    0.2008        C 12 --  H 31           +3.1% ( 17.8%)    50.9%
 TRAVEL      0.1191        C 10 --  C 12           +1.4% ( 11.8%)    30.9%
 RED. MASS   0.9063
 EFF. MASS   1.5195

 VIBRATION   88   88A       ATOM PAIR        ENERGY CONTRIBUTION    RADIAL
 FREQ.      3146.64        C 12 --  H 31          +95.2% ( 98.5%)    99.9%
 T-DIPOLE    0.2570        C 12 --  H 32           +2.5% ( 15.9%)     8.0%
 TRAVEL      0.1201        C 10 --  C 12           +1.6% ( 12.6%)    63.0%
 RED. MASS   0.8805        C 10 --  H 28           +0.8% (  8.7%)    95.1%
 EFF. MASS   1.4852

 VIBRATION   89   89A       ATOM PAIR        ENERGY CONTRIBUTION    RADIAL
 FREQ.      3166.17        C  8 --  H 27          +48.5% ( 67.4%)    98.5%
 T-DIPOLE    0.0160        C  8 --  H 25          +37.9% ( 59.5%)    97.2%
 TRAVEL      0.1357        C  8 --  H 26          +13.2% ( 35.2%)    88.3%
 RED. MASS   0.3818        C  5 --  C  8           +0.3% (  5.5%)    82.7%
 EFF. MASS   1.1565

 VIBRATION   90   90A       ATOM PAIR        ENERGY CONTRIBUTION    RADIAL
 FREQ.      3177.97        C  7 --  H 24          +38.5% ( 59.7%)    97.8%
 T-DIPOLE    0.0140        C  7 --  H 23          +33.0% ( 55.3%)    97.0%
 TRAVEL      0.1365        C  7 --  H 22          +28.2% ( 51.1%)    96.1%
 RED. MASS   0.3311        C  4 --  C  7           +0.3% (  5.1%)    98.6%
 EFF. MASS   1.1380

 SYMMETRY NUMBER FOR POINT-GROUP C1  =  1


          SYSTEM IS A GROUND STATE


    NULL



          MOLECULE IS NOT LINEAR

          THERE ARE 90 GENUINE VIBRATIONS IN THIS SYSTEM
          THIS THERMODYNAMICS CALCULATION IS LIMITED TO
          MOLECULES WHICH HAVE NO INTERNAL ROTATIONS




                    CALCULATED THERMODYNAMIC PROPERTIES
                                          *
   TEMP. (K)   PARTITION FUNCTION   H.O.F.    ENTHALPY  HEAT CAPACITY ENTROPY
                                   KCAL/MOL   CAL/MOLE    CAL/K/MOL  CAL/K/MOL


 298.00  VIB.     0.9496D+04                  6433.0439    44.8489    39.7874
         ROT.     0.1255D+07                   888.2813     2.9808    30.8863
         INT.     0.1192D+11                  7321.3252    47.8297    70.6736
         TRA.     0.2036D+28                  1480.4688     4.9680    41.1956
         TOT.                       -4.085    8801.7940    52.7977   111.8693

 200.00  VIB.     0.2760D+03                  2850.9592    28.7721    25.4239
         ROT.     0.6900D+06                   596.1620     2.9808    29.6976
         INT.     0.1904D+09                  3447.1211    31.7529    55.1215
         TRA.     0.1119D+28                   993.6033     4.9680    39.2145
         TOT.                       -8.446    4440.7244    36.7209    94.3360

 210.00  VIB.     0.3952D+03                  3146.0717    30.2568    26.8635
         ROT.     0.7423D+06                   625.9700     2.9808    29.8430
         INT.     0.2934D+09                  3772.0418    33.2376    56.7065
         TRA.     0.1204D+28                  1043.2834     4.9680    39.4569
         TOT.                       -8.072    4815.3252    38.2056    96.1634

 220.00  VIB.     0.5659D+03                  3456.2249    31.7804    28.3060
         ROT.     0.7960D+06                   655.7781     2.9808    29.9817
         INT.     0.4505D+09                  4112.0030    34.7612    58.2877
         TRA.     0.1291D+28                  1092.9636     4.9680    39.6880
         TOT.                       -7.682    5204.9666    39.7293    97.9757

 230.00  VIB.     0.8108D+03                  3781.8124    33.3437    29.7531
         ROT.     0.8509D+06                   685.5862     2.9808    30.1142
         INT.     0.6899D+09                  4467.3987    36.3245    59.8672
         TRA.     0.1380D+28                  1142.6437     4.9680    39.9088
         TOT.                       -7.277    5610.0424    41.2925    99.7761

 240.00  VIB.     0.1162D+04                  4123.2273    34.9456    31.2059
         ROT.     0.9070D+06                   715.3943     2.9808    30.2410
         INT.     0.1054D+10                  4838.6216    37.9264    61.4469
         TRA.     0.1471D+28                  1192.3239     4.9680    40.1203
         TOT.                       -6.856    6030.9455    42.8945   101.5672

 250.00  VIB.     0.1667D+04                  4480.8477    36.5844    32.6655
         ROT.     0.9642D+06                   745.2024     2.9808    30.3627
         INT.     0.1607D+10                  5226.0502    39.5652    63.0282
         TRA.     0.1564D+28                  1242.0041     4.9680    40.3231
         TOT.                       -6.419    6468.0542    44.5332   103.3513

 260.00  VIB.     0.2391D+04                  4855.0269    38.2568    34.1329
         ROT.     0.1023D+07                   775.0105     2.9808    30.4796
         INT.     0.2446D+10                  5630.0374    41.2376    64.6125
         TRA.     0.1659D+28                  1291.6842     4.9680    40.5179
         TOT.                       -5.965    6921.7217    46.2056   105.1304

 270.00  VIB.     0.3434D+04                  5246.0841    39.9593    35.6085
         ROT.     0.1082D+07                   804.8186     2.9808    30.5921
         INT.     0.3716D+10                  6050.9027    42.9401    66.2007
         TRA.     0.1756D+28                  1341.3644     4.9680    40.7054
         TOT.                       -5.495    7392.2671    47.9081   106.9061

 280.00  VIB.     0.4934D+04                  5654.2987    41.6876    37.0929
         ROT.     0.1143D+07                   834.6267     2.9808    30.7005
         INT.     0.5639D+10                  6488.9255    44.6684    67.7935
         TRA.     0.1854D+28                  1391.0445     4.9680    40.8861
         TOT.                       -5.007    7879.9700    49.6364   108.6796

 290.00  VIB.     0.7096D+04                  6079.9062    43.4371    38.5862
         ROT.     0.1205D+07                   864.4348     2.9808    30.8051
         INT.     0.8548D+10                  6944.3411    46.4179    69.3914
         TRA.     0.1954D+28                  1440.7247     4.9680    41.0604
         TOT.                       -4.502    8385.0658    51.3859   110.4518

 300.00  VIB.     0.1021D+05                  6523.0959    45.2032    40.0886
         ROT.     0.1268D+07                   894.2429     2.9808    30.9062
         INT.     0.1295D+11                  7417.3388    48.1840    70.9948
         TRA.     0.2056D+28                  1490.4049     4.9680    41.2289
         TOT.                       -3.979    8907.7437    53.1520   112.2236

 310.00  VIB.     0.1472D+05                  6984.0100    46.9812    41.5997
         ROT.     0.1331D+07                   924.0510     2.9808    31.0039
         INT.     0.1959D+11                  7908.0611    49.9620    72.6037
         TRA.     0.2160D+28                  1540.0850     4.9680    41.3918
         TOT.                       -3.439    9448.1461    54.9300   113.9954

 320.00  VIB.     0.2123D+05                  7462.7446    48.7665    43.1195
         ROT.     0.1396D+07                   953.8591     2.9808    31.0986
         INT.     0.2964D+11                  8416.6037    51.7474    74.2181
         TRA.     0.2265D+28                  1589.7652     4.9680    41.5495
         TOT.                       -2.880   10006.3689    56.7154   115.7676

 330.00  VIB.     0.3064D+05                  7959.3508    50.5548    44.6475
         ROT.     0.1462D+07                   983.6672     2.9808    31.1903
         INT.     0.4481D+11                  8943.0180    53.5356    75.8378
         TRA.     0.2372D+28                  1639.4454     4.9680    41.7024
         TOT.                       -2.304   10582.4634    58.5037   117.5402

 340.00  VIB.     0.4429D+05                  8473.8372    52.3419    46.1833
         ROT.     0.1529D+07                  1013.4753     2.9808    31.2793
         INT.     0.6773D+11                  9487.3125    55.3227    77.4625
         TRA.     0.2481D+28                  1689.1255     4.9680    41.8507
         TOT.                       -1.710   11176.4380    60.2908   119.3132

 350.00  VIB.     0.6408D+05                  9006.1727    54.1240    47.7262
         ROT.     0.1597D+07                  1043.2834     2.9808    31.3657
         INT.     0.1024D+12                 10049.4561    57.1049    79.0919
         TRA.     0.2591D+28                  1738.8057     4.9680    41.9947
         TOT.                       -1.099   11788.2618    62.0729   121.0866

 360.00  VIB.     0.9283D+05                  9556.2898    55.8977    49.2759
         ROT.     0.1666D+07                  1073.0915     2.9808    31.4497
         INT.     0.1547D+12                 10629.3813    58.8785    80.7255
         TRA.     0.2703D+28                  1788.4859     4.9680    42.1347
         TOT.                       -0.469   12417.8671    63.8465   122.8602

 370.00  VIB.     0.1346D+06                 10124.0876    57.6597    50.8315
         ROT.     0.1736D+07                  1102.8996     2.9808    31.5313
         INT.     0.2337D+12                 11226.9872    60.6405    82.3628
         TRA.     0.2817D+28                  1838.1660     4.9680    42.2708
         TOT.                        0.178   13065.1532    65.6085   124.6336

 380.00  VIB.     0.1954D+06                 10709.4358    59.4073    52.3924
         ROT.     0.1807D+07                  1132.7077     2.9808    31.6108
         INT.     0.3531D+12                 11842.1435    62.3881    84.0032
         TRA.     0.2932D+28                  1887.8462     4.9680    42.4033
         TOT.                        0.843   13729.9897    67.3561   126.4065

 390.00  VIB.     0.2839D+06                 11312.1778    61.1381    53.9579
         ROT.     0.1879D+07                  1162.5158     2.9808    31.6883
         INT.     0.5334D+12                 12474.6936    64.1189    85.6462
         TRA.     0.3048D+28                  1937.5263     4.9680    42.5323
         TOT.                        1.525   14412.2199    69.0869   128.1785

 400.00  VIB.     0.4130D+06                 11932.1340    62.8499    55.5274
         ROT.     0.1951D+07                  1192.3239     2.9808    31.7637
         INT.     0.8060D+12                 13124.4579    65.8307    87.2911
         TRA.     0.3166D+28                  1987.2065     4.9680    42.6581
         TOT.                        2.225   15111.6644    70.7987   129.9492

   *: NOTE: HEATS OF FORMATION ARE RELATIVE TO THE
            ELEMENTS IN THEIR STANDARD STATE AT 298K
              (=  Standard Enthalpy of Formation).

            Hvib:  Zero-point energy is not included.
                   frequencies of less than zero cm-1 are not included.
            Hrot = (3/2)RT
            Htra = (3/2)RT + pV = (5/2)RT

            Heat capacity is Cp, not Cv

           For more information, see: HTTP://OpenMOPAC.net/Manual/thermochemistry.html


           FORCE CONSTANT IN CARTESIAN COORDINATES (Millidynes/A)

    ATOM   CHEMICAL       X               Y               Z
   NUMBER   SYMBOL  FORCE CONSTANT  FORCE CONSTANT  FORCE CONSTANT

      1       C        8.007972        8.299014        8.293732
      2       C        8.151660        7.926774        8.790365
      3       C        8.284006        8.302228        8.407863
      4       C        8.469302        7.985521        8.290352
      5       C        7.921040        8.485820        8.301109
      6       C        8.721488        8.852446        7.925246
      7       C        8.268680        8.383031        8.185700
      8       C        8.522830        8.055400        8.226916
      9       C       12.834363        8.792760        5.723570
     10       C        9.113062        9.207579        8.850317
     11       C       12.561417        8.870292        5.956808
     12       C        8.714580        8.812825        8.972931
     13       H        1.125792        1.611851        3.297258
     14       H        1.210359        1.535884        3.270454
     15       H        0.712971        1.263856        3.929565
     16       H        1.823293        1.901494        2.683610
     17       H        0.803875        1.522776        4.080086
     18       H        1.272841        4.405834        0.747393
     19       H        1.753734        2.130602        2.463472
     20       H        4.782702        0.754360        0.740804
     21       H        0.765760        1.919841        3.563676
     22       H        2.064452        1.793215        2.853439
     23       H        0.854928        1.479845        4.445698
     24       H        1.182881        4.937605        0.672915
     25       H        1.392784        2.554263        2.805376
     26       H        1.587504        4.288232        0.839017
     27       H        5.223933        0.695979        0.866879
     28       H        1.227964        0.896920        4.102464
     29       H        1.677691        2.616414        1.958156
     30       H        1.444580        4.175872        0.617370
     31       H        1.094071        1.541379        3.842825
     32       H        1.338371        0.938888        4.167690



 TOTAL CPU TIME:             8.00 SECONDS

 == MOPAC DONE ==
