 *******************************************************************************
 ** Site#: 14399           For non-commercial use only        Version 13.159M **
 *******************************************************************************
 ** Cite this work as: MOPAC2012, James J. P. Stewart, Stewart Computational  **
 ** Chemistry, Version 13.159M web: HTTP://OpenMOPAC.net  Days remaining:   6 **
 *******************************************************************************
 **                                                                           **
 **                                MOPAC2012                                  **
 **                                                                           **
 *******************************************************************************

                            PM3 CALCULATION RESULTS


 *******************************************************************************
 *  CALCULATION DONE:                                Mon Jun  2 11:09:57 2014  *
 *  PM3      - The PM3 Hamiltonian to be used
 *  PRECISE  - CRITERIA TO BE INCREASED BY 100 TIMES
 *  NOSYM    - POINT-GROUP SYMMETRY SET TO C1
 *  T=       - A TIME OF 172800.0 SECONDS REQUESTED
 *  DUMP=N   - RESTART FILE WRITTEN EVERY  7200.000 SECONDS
 *******************************************************************************
pm3  precise nosym
 InChI=1S/C11H16/c1-2-3-5-9-8-10-6-4-7-11(9)10/h3-6,9-11H,2,7-8H2,1H3

   ATOM   CHEMICAL          X               Y               Z
  NUMBER   SYMBOL      (ANGSTROMS)     (ANGSTROMS)     (ANGSTROMS)
 
     1       C         -1.25470000  *   0.10690000  *  -0.46980000  *
     2       C         -2.32590000  *  -0.99930000  *  -0.23220000  *
     3       C         -0.49850000  *  -0.43720000  *   0.75170000  *
     4       C         -1.46490000  *  -1.57150000  *   0.88700000  *
     5       C         -1.97490000  *   1.44880000  *  -0.29250000  *
     6       C          3.28790000  *  -0.28670000  *  -0.06460000  *
     7       C          4.17910000  *   0.92110000  *  -0.32860000  *
     8       C         -3.53260000  *  -0.23720000  *   0.20370000  *
     9       C          0.92860000  *  -0.82660000  *   0.46590000  *
    10       C         -3.34420000  *   1.07410000  *   0.16180000  *
    11       C          1.86270000  *   0.09950000  *   0.21400000  *
    12       H         -0.73060000  *  -0.00780000  *  -1.44910000  *
    13       H         -2.49320000  *  -1.66800000  *  -1.10840000  *
    14       H         -0.54900000  *   0.23020000  *   1.64590000  *
    15       H         -1.97030000  *  -1.60890000  *   1.88090000  *
    16       H         -1.06660000  *  -2.57350000  *   0.60100000  *
    17       H         -1.47140000  *   2.11170000  *   0.44750000  *
    18       H         -2.05210000  *   1.98610000  *  -1.26510000  *
    19       H          3.69580000  *  -0.84830000  *   0.80770000  *
    20       H          3.32140000  *  -0.95680000  *  -0.95480000  *
    21       H          5.22160000  *   0.58470000  *  -0.52940000  *
    22       H          4.19830000  *   1.59950000  *   0.55480000  *
    23       H          3.82160000  *   1.49000000  *  -1.21730000  *
    24       H         -4.11390000  *   1.79660000  *   0.42560000  *
    25       H         -4.46640000  *  -0.70130000  *   0.51410000  *
    26       H          1.58060000  *   1.15330000  *   0.20860000  *
    27       H          1.21160000  *  -1.87940000  *   0.47910000  *
 


          CARTESIAN COORDINATES 

    NO.       ATOM         X         Y         Z

     1         C       -1.2547    0.1069   -0.4698
     2         C       -2.3259   -0.9993   -0.2322
     3         C       -0.4985   -0.4372    0.7517
     4         C       -1.4649   -1.5715    0.8870
     5         C       -1.9749    1.4488   -0.2925
     6         C        3.2879   -0.2867   -0.0646
     7         C        4.1791    0.9211   -0.3286
     8         C       -3.5326   -0.2372    0.2037
     9         C        0.9286   -0.8266    0.4659
    10         C       -3.3442    1.0741    0.1618
    11         C        1.8627    0.0995    0.2140
    12         H       -0.7306   -0.0078   -1.4491
    13         H       -2.4932   -1.6680   -1.1084
    14         H       -0.5490    0.2302    1.6459
    15         H       -1.9703   -1.6089    1.8809
    16         H       -1.0666   -2.5735    0.6010
    17         H       -1.4714    2.1117    0.4475
    18         H       -2.0521    1.9861   -1.2651
    19         H        3.6958   -0.8483    0.8077
    20         H        3.3214   -0.9568   -0.9548
    21         H        5.2216    0.5847   -0.5294
    22         H        4.1983    1.5995    0.5548
    23         H        3.8216    1.4900   -1.2173
    24         H       -4.1139    1.7966    0.4256
    25         H       -4.4664   -0.7013    0.5141
    26         H        1.5806    1.1533    0.2086
    27         H        1.2116   -1.8794    0.4791

  H: (PM3): J. J. P. STEWART, J. COMP. CHEM. 10, 209 (1989).
  C: (PM3): J. J. P. STEWART, J. COMP. CHEM. 10, 209 (1989).

           Empirical Formula: C11 H16  =    27 atoms



      MOLECULAR POINT GROUP   :   C1  


      RHF CALCULATION, NO. OF DOUBLY OCCUPIED LEVELS =   30

      Geometry optimization using EF

          DIAGONAL MATRIX USED AS START HESSIAN

 CYCLE:     1 TIME:   0.014 TIME LEFT:  2.00D  GRAD.:   103.980 HEAT: 25.39376
 CYCLE:     2 TIME:   0.019 TIME LEFT:  2.00D  GRAD.:   126.884 HEAT: 25.34140
 CYCLE:     3 TIME:   0.011 TIME LEFT:  2.00D  GRAD.:   124.393 HEAT: 24.53913
 CYCLE:     4 TIME:   0.010 TIME LEFT:  2.00D  GRAD.:   112.806 HEAT: 24.13419
 CYCLE:     5 TIME:   0.019 TIME LEFT:  2.00D  GRAD.:    42.581 HEAT: 21.40125
 CYCLE:     6 TIME:   0.019 TIME LEFT:  2.00D  GRAD.:    46.942 HEAT: 21.24860
 CYCLE:     7 TIME:   0.010 TIME LEFT:  2.00D  GRAD.:    41.658 HEAT: 21.09779
 CYCLE:     8 TIME:   0.010 TIME LEFT:  2.00D  GRAD.:    36.848 HEAT: 20.88262
 CYCLE:     9 TIME:   0.011 TIME LEFT:  2.00D  GRAD.:    34.511 HEAT: 20.87074
 CYCLE:    10 TIME:   0.022 TIME LEFT:  2.00D  GRAD.:    15.055 HEAT: 20.57848
 CYCLE:    11 TIME:   0.010 TIME LEFT:  2.00D  GRAD.:    18.086 HEAT: 20.55977
 CYCLE:    12 TIME:   0.010 TIME LEFT:  2.00D  GRAD.:    23.740 HEAT: 20.53836
 CYCLE:    13 TIME:   0.010 TIME LEFT:  2.00D  GRAD.:    22.435 HEAT: 20.52837
 CYCLE:    14 TIME:   0.019 TIME LEFT:  2.00D  GRAD.:     9.886 HEAT: 20.39595
 CYCLE:    15 TIME:   0.018 TIME LEFT:  2.00D  GRAD.:     5.661 HEAT: 20.37068
 CYCLE:    16 TIME:   0.010 TIME LEFT:  2.00D  GRAD.:     6.328 HEAT: 20.35790
 CYCLE:    17 TIME:   0.010 TIME LEFT:  2.00D  GRAD.:     8.372 HEAT: 20.35159
 CYCLE:    18 TIME:   0.018 TIME LEFT:  2.00D  GRAD.:     5.645 HEAT: 20.33687
 CYCLE:    19 TIME:   0.018 TIME LEFT:  2.00D  GRAD.:     3.794 HEAT: 20.33012
 CYCLE:    20 TIME:   0.010 TIME LEFT:  2.00D  GRAD.:     3.277 HEAT: 20.32544
 CYCLE:    21 TIME:   0.010 TIME LEFT:  2.00D  GRAD.:     6.072 HEAT: 20.32205
 CYCLE:    22 TIME:   0.010 TIME LEFT:  2.00D  GRAD.:     4.566 HEAT: 20.31260
 CYCLE:    23 TIME:   0.010 TIME LEFT:  2.00D  GRAD.:     6.155 HEAT: 20.31096
 CYCLE:    24 TIME:   0.010 TIME LEFT:  2.00D  GRAD.:     5.589 HEAT: 20.30444
 CYCLE:    25 TIME:   0.010 TIME LEFT:  2.00D  GRAD.:     7.014 HEAT: 20.30395
 CYCLE:    26 TIME:   0.010 TIME LEFT:  2.00D  GRAD.:     4.748 HEAT: 20.29167
 CYCLE:    27 TIME:   0.010 TIME LEFT:  2.00D  GRAD.:     6.343 HEAT: 20.29037
 CYCLE:    28 TIME:   0.010 TIME LEFT:  2.00D  GRAD.:     3.754 HEAT: 20.27869
 CYCLE:    29 TIME:   0.014 TIME LEFT:  2.00D  GRAD.:     4.465 HEAT: 20.27277
 CYCLE:    30 TIME:   0.010 TIME LEFT:  2.00D  GRAD.:     2.987 HEAT: 20.26287
 CYCLE:    31 TIME:   0.014 TIME LEFT:  2.00D  GRAD.:     6.484 HEAT: 20.25438
 CYCLE:    32 TIME:   0.011 TIME LEFT:  2.00D  GRAD.:     3.563 HEAT: 20.24086
 CYCLE:    33 TIME:   0.010 TIME LEFT:  2.00D  GRAD.:     3.340 HEAT: 20.23345
 CYCLE:    34 TIME:   0.010 TIME LEFT:  2.00D  GRAD.:     3.135 HEAT: 20.22550
 CYCLE:    35 TIME:   0.010 TIME LEFT:  2.00D  GRAD.:     2.740 HEAT: 20.21618
 CYCLE:    36 TIME:   0.010 TIME LEFT:  2.00D  GRAD.:     3.284 HEAT: 20.21094
 CYCLE:    37 TIME:   0.010 TIME LEFT:  2.00D  GRAD.:     2.367 HEAT: 20.20413
 CYCLE:    38 TIME:   0.010 TIME LEFT:  2.00D  GRAD.:     2.100 HEAT: 20.19774
 CYCLE:    39 TIME:   0.010 TIME LEFT:  2.00D  GRAD.:     1.938 HEAT: 20.19193
 CYCLE:    40 TIME:   0.010 TIME LEFT:  2.00D  GRAD.:     1.528 HEAT: 20.18783
 CYCLE:    41 TIME:   0.010 TIME LEFT:  2.00D  GRAD.:     1.322 HEAT: 20.18512
 CYCLE:    42 TIME:   0.010 TIME LEFT:  2.00D  GRAD.:     1.474 HEAT: 20.18222
 CYCLE:    43 TIME:   0.010 TIME LEFT:  2.00D  GRAD.:     1.260 HEAT: 20.17920
 CYCLE:    44 TIME:   0.010 TIME LEFT:  2.00D  GRAD.:     1.164 HEAT: 20.17576
 CYCLE:    45 TIME:   0.010 TIME LEFT:  2.00D  GRAD.:     1.447 HEAT: 20.17245
 CYCLE:    46 TIME:   0.010 TIME LEFT:  2.00D  GRAD.:     1.428 HEAT: 20.16905
 CYCLE:    47 TIME:   0.010 TIME LEFT:  2.00D  GRAD.:     1.358 HEAT: 20.16528
 CYCLE:    48 TIME:   0.010 TIME LEFT:  2.00D  GRAD.:     1.560 HEAT: 20.16120
 CYCLE:    49 TIME:   0.010 TIME LEFT:  2.00D  GRAD.:     1.944 HEAT: 20.15563
 CYCLE:    50 TIME:   0.010 TIME LEFT:  2.00D  GRAD.:     2.066 HEAT: 20.14817
 CYCLE:    51 TIME:   0.010 TIME LEFT:  2.00D  GRAD.:     1.730 HEAT: 20.14121
 CYCLE:    52 TIME:   0.010 TIME LEFT:  2.00D  GRAD.:     1.361 HEAT: 20.13702
 CYCLE:    53 TIME:   0.010 TIME LEFT:  2.00D  GRAD.:     1.155 HEAT: 20.13467
 CYCLE:    54 TIME:   0.010 TIME LEFT:  2.00D  GRAD.:     0.958 HEAT: 20.13273
 CYCLE:    55 TIME:   0.010 TIME LEFT:  2.00D  GRAD.:     0.914 HEAT: 20.13038
 CYCLE:    56 TIME:   0.011 TIME LEFT:  2.00D  GRAD.:     0.932 HEAT: 20.12838
 CYCLE:    57 TIME:   0.010 TIME LEFT:  2.00D  GRAD.:     0.923 HEAT: 20.12640
 CYCLE:    58 TIME:   0.010 TIME LEFT:  2.00D  GRAD.:     0.805 HEAT: 20.12487
 CYCLE:    59 TIME:   0.011 TIME LEFT:  2.00D  GRAD.:     0.828 HEAT: 20.12338
 CYCLE:    60 TIME:   0.013 TIME LEFT:  2.00D  GRAD.:     0.933 HEAT: 20.12158
 CYCLE:    61 TIME:   0.010 TIME LEFT:  2.00D  GRAD.:     1.010 HEAT: 20.11930
 CYCLE:    62 TIME:   0.010 TIME LEFT:  2.00D  GRAD.:     1.067 HEAT: 20.11701
 CYCLE:    63 TIME:   0.010 TIME LEFT:  2.00D  GRAD.:     1.149 HEAT: 20.11388
 CYCLE:    64 TIME:   0.011 TIME LEFT:  2.00D  GRAD.:     1.355 HEAT: 20.10982
 CYCLE:    65 TIME:   0.011 TIME LEFT:  2.00D  GRAD.:     1.470 HEAT: 20.10512
 CYCLE:    66 TIME:   0.011 TIME LEFT:  2.00D  GRAD.:     1.449 HEAT: 20.10048
 CYCLE:    67 TIME:   0.011 TIME LEFT:  2.00D  GRAD.:     1.366 HEAT: 20.09639
 CYCLE:    68 TIME:   0.010 TIME LEFT:  2.00D  GRAD.:     1.322 HEAT: 20.09226
 CYCLE:    69 TIME:   0.010 TIME LEFT:  2.00D  GRAD.:     1.393 HEAT: 20.08818
 CYCLE:    70 TIME:   0.011 TIME LEFT:  2.00D  GRAD.:     1.349 HEAT: 20.08487
 CYCLE:    71 TIME:   0.010 TIME LEFT:  2.00D  GRAD.:     1.056 HEAT: 20.08196
 CYCLE:    72 TIME:   0.011 TIME LEFT:  2.00D  GRAD.:     1.069 HEAT: 20.07902
 CYCLE:    73 TIME:   0.011 TIME LEFT:  2.00D  GRAD.:     1.250 HEAT: 20.07519
 CYCLE:    74 TIME:   0.015 TIME LEFT:  2.00D  GRAD.:     1.624 HEAT: 20.07013
 CYCLE:    75 TIME:   0.011 TIME LEFT:  2.00D  GRAD.:     1.668 HEAT: 20.06449
 CYCLE:    76 TIME:   0.011 TIME LEFT:  2.00D  GRAD.:     2.257 HEAT: 20.05693
 CYCLE:    77 TIME:   0.011 TIME LEFT:  2.00D  GRAD.:     2.252 HEAT: 20.04704
 CYCLE:    78 TIME:   0.011 TIME LEFT:  2.00D  GRAD.:     4.092 HEAT: 20.03610
 CYCLE:    79 TIME:   0.010 TIME LEFT:  2.00D  GRAD.:     3.540 HEAT: 20.01329
 CYCLE:    80 TIME:   0.011 TIME LEFT:  2.00D  GRAD.:     3.481 HEAT: 19.98625
 CYCLE:    81 TIME:   0.011 TIME LEFT:  2.00D  GRAD.:     3.963 HEAT: 19.94012
 CYCLE:    82 TIME:   0.011 TIME LEFT:  2.00D  GRAD.:     4.257 HEAT: 19.90556
 CYCLE:    83 TIME:   0.011 TIME LEFT:  2.00D  GRAD.:     6.816 HEAT: 19.87671
 CYCLE:    84 TIME:   0.027 TIME LEFT:  2.00D  GRAD.:     6.847 HEAT: 19.84323
 CYCLE:    85 TIME:   0.010 TIME LEFT:  2.00D  GRAD.:     3.944 HEAT: 19.80805
 CYCLE:    86 TIME:   0.010 TIME LEFT:  2.00D  GRAD.:     4.307 HEAT: 19.77689
 CYCLE:    87 TIME:   0.012 TIME LEFT:  2.00D  GRAD.:     7.356 HEAT: 19.74876
 CYCLE:    88 TIME:   0.012 TIME LEFT:  2.00D  GRAD.:     3.965 HEAT: 19.72315
 CYCLE:    89 TIME:   0.010 TIME LEFT:  2.00D  GRAD.:     4.817 HEAT: 19.70080
 CYCLE:    90 TIME:   0.010 TIME LEFT:  2.00D  GRAD.:     3.417 HEAT: 19.68466
 CYCLE:    91 TIME:   0.010 TIME LEFT:  2.00D  GRAD.:     5.369 HEAT: 19.67529
 CYCLE:    92 TIME:   0.010 TIME LEFT:  2.00D  GRAD.:     3.610 HEAT: 19.65226
 CYCLE:    93 TIME:   0.010 TIME LEFT:  2.00D  GRAD.:     3.109 HEAT: 19.63687
 CYCLE:    94 TIME:   0.010 TIME LEFT:  2.00D  GRAD.:     3.699 HEAT: 19.61847
 CYCLE:    95 TIME:   0.010 TIME LEFT:  2.00D  GRAD.:     3.460 HEAT: 19.59349
 CYCLE:    96 TIME:   0.011 TIME LEFT:  2.00D  GRAD.:     3.437 HEAT: 19.57360
 CYCLE:    97 TIME:   0.010 TIME LEFT:  2.00D  GRAD.:     2.841 HEAT: 19.55275
 CYCLE:    98 TIME:   0.010 TIME LEFT:  2.00D  GRAD.:     6.467 HEAT: 19.54370
 CYCLE:    99 TIME:   0.010 TIME LEFT:  2.00D  GRAD.:     3.271 HEAT: 19.52246
 CYCLE:   100 TIME:   0.014 TIME LEFT:  2.00D  GRAD.:     2.472 HEAT: 19.51153
 CYCLE:   101 TIME:   0.011 TIME LEFT:  2.00D  GRAD.:     2.642 HEAT: 19.49983
 CYCLE:   102 TIME:   0.010 TIME LEFT:  2.00D  GRAD.:     2.041 HEAT: 19.49586
 CYCLE:   103 TIME:   0.010 TIME LEFT:  2.00D  GRAD.:     2.018 HEAT: 19.48495
 CYCLE:   104 TIME:   0.010 TIME LEFT:  2.00D  GRAD.:     1.433 HEAT: 19.48173
 CYCLE:   105 TIME:   0.010 TIME LEFT:  2.00D  GRAD.:     1.276 HEAT: 19.47844
 CYCLE:   106 TIME:   0.010 TIME LEFT:  2.00D  GRAD.:     0.872 HEAT: 19.47656
 CYCLE:   107 TIME:   0.011 TIME LEFT:  2.00D  GRAD.:     1.075 HEAT: 19.47501
 CYCLE:   108 TIME:   0.010 TIME LEFT:  2.00D  GRAD.:     1.170 HEAT: 19.47385
 CYCLE:   109 TIME:   0.011 TIME LEFT:  2.00D  GRAD.:     1.068 HEAT: 19.47243
 CYCLE:   110 TIME:   0.011 TIME LEFT:  2.00D  GRAD.:     0.852 HEAT: 19.47128
 CYCLE:   111 TIME:   0.010 TIME LEFT:  2.00D  GRAD.:     0.668 HEAT: 19.47033
 CYCLE:   112 TIME:   0.010 TIME LEFT:  2.00D  GRAD.:     0.513 HEAT: 19.46993
 CYCLE:   113 TIME:   0.010 TIME LEFT:  2.00D  GRAD.:     0.360 HEAT: 19.46930
 CYCLE:   114 TIME:   0.010 TIME LEFT:  2.00D  GRAD.:     0.244 HEAT: 19.46912
 CYCLE:   115 TIME:   0.010 TIME LEFT:  2.00D  GRAD.:     0.211 HEAT: 19.46897
 CYCLE:   116 TIME:   0.010 TIME LEFT:  2.00D  GRAD.:     0.231 HEAT: 19.46888
 CYCLE:   117 TIME:   0.010 TIME LEFT:  2.00D  GRAD.:     0.217 HEAT: 19.46880
 CYCLE:   118 TIME:   0.010 TIME LEFT:  2.00D  GRAD.:     0.404 HEAT: 19.46848
 CYCLE:   119 TIME:   0.010 TIME LEFT:  2.00D  GRAD.:     0.381 HEAT: 19.46832
 CYCLE:   120 TIME:   0.010 TIME LEFT:  2.00D  GRAD.:     0.486 HEAT: 19.46757
 CYCLE:   121 TIME:   0.010 TIME LEFT:  2.00D  GRAD.:     0.423 HEAT: 19.46722
 CYCLE:   122 TIME:   0.011 TIME LEFT:  2.00D  GRAD.:     0.424 HEAT: 19.46632
 CYCLE:   123 TIME:   0.010 TIME LEFT:  2.00D  GRAD.:     0.348 HEAT: 19.46610
 CYCLE:   124 TIME:   0.010 TIME LEFT:  2.00D  GRAD.:     0.347 HEAT: 19.46555
 CYCLE:   125 TIME:   0.011 TIME LEFT:  2.00D  GRAD.:     0.464 HEAT: 19.46495
 CYCLE:   126 TIME:   0.011 TIME LEFT:  2.00D  GRAD.:     0.498 HEAT: 19.46437
 CYCLE:   127 TIME:   0.011 TIME LEFT:  2.00D  GRAD.:     0.578 HEAT: 19.46356
 CYCLE:   128 TIME:   0.010 TIME LEFT:  2.00D  GRAD.:     0.586 HEAT: 19.46293
 CYCLE:   129 TIME:   0.011 TIME LEFT:  2.00D  GRAD.:     0.637 HEAT: 19.46181
 CYCLE:   130 TIME:   0.011 TIME LEFT:  2.00D  GRAD.:     0.706 HEAT: 19.46094
 CYCLE:   131 TIME:   0.011 TIME LEFT:  2.00D  GRAD.:     0.691 HEAT: 19.45973
 CYCLE:   132 TIME:   0.011 TIME LEFT:  2.00D  GRAD.:     0.734 HEAT: 19.45852
 CYCLE:   133 TIME:   0.010 TIME LEFT:  2.00D  GRAD.:     0.634 HEAT: 19.45731
 CYCLE:   134 TIME:   0.010 TIME LEFT:  2.00D  GRAD.:     0.504 HEAT: 19.45644
 CYCLE:   135 TIME:   0.011 TIME LEFT:  2.00D  GRAD.:     0.334 HEAT: 19.45579
 CYCLE:   136 TIME:   0.010 TIME LEFT:  2.00D  GRAD.:     0.277 HEAT: 19.45556
 CYCLE:   137 TIME:   0.011 TIME LEFT:  2.00D  GRAD.:     0.323 HEAT: 19.45519
 CYCLE:   138 TIME:   0.010 TIME LEFT:  2.00D  GRAD.:     0.363 HEAT: 19.45491
 CYCLE:   139 TIME:   0.010 TIME LEFT:  2.00D  GRAD.:     0.349 HEAT: 19.45464
 CYCLE:   140 TIME:   0.010 TIME LEFT:  2.00D  GRAD.:     0.414 HEAT: 19.45415
 CYCLE:   141 TIME:   0.010 TIME LEFT:  2.00D  GRAD.:     0.382 HEAT: 19.45388
 CYCLE:   142 TIME:   0.011 TIME LEFT:  2.00D  GRAD.:     0.553 HEAT: 19.45301
 CYCLE:   143 TIME:   0.010 TIME LEFT:  2.00D  GRAD.:     0.551 HEAT: 19.45259
 CYCLE:   144 TIME:   0.010 TIME LEFT:  2.00D  GRAD.:     0.652 HEAT: 19.45129
 CYCLE:   145 TIME:   0.011 TIME LEFT:  2.00D  GRAD.:     0.862 HEAT: 19.45040
 CYCLE:   146 TIME:   0.011 TIME LEFT:  2.00D  GRAD.:     1.195 HEAT: 19.44855
 CYCLE:   147 TIME:   0.011 TIME LEFT:  2.00D  GRAD.:     1.082 HEAT: 19.44518
 CYCLE:   148 TIME:   0.011 TIME LEFT:  2.00D  GRAD.:     1.052 HEAT: 19.44253
 CYCLE:   149 TIME:   0.011 TIME LEFT:  2.00D  GRAD.:     0.967 HEAT: 19.43990
 CYCLE:   150 TIME:   0.011 TIME LEFT:  2.00D  GRAD.:     1.089 HEAT: 19.43810
 CYCLE:   151 TIME:   0.011 TIME LEFT:  2.00D  GRAD.:     2.038 HEAT: 19.43858
 CYCLE:   152 TIME:   0.010 TIME LEFT:  2.00D  GRAD.:     1.676 HEAT: 19.43849
 CYCLE:   153 TIME:   0.010 TIME LEFT:  2.00D  GRAD.:     0.745 HEAT: 19.43534
 CYCLE:   154 TIME:   0.010 TIME LEFT:  2.00D  GRAD.:     0.506 HEAT: 19.43475
 CYCLE:   155 TIME:   0.010 TIME LEFT:  2.00D  GRAD.:     0.536 HEAT: 19.43411
 CYCLE:   156 TIME:   0.010 TIME LEFT:  2.00D  GRAD.:     0.483 HEAT: 19.43345
 CYCLE:   157 TIME:   0.010 TIME LEFT:  2.00D  GRAD.:     0.443 HEAT: 19.43320
 CYCLE:   158 TIME:   0.010 TIME LEFT:  2.00D  GRAD.:     0.212 HEAT: 19.43303
 CYCLE:   159 TIME:   0.010 TIME LEFT:  2.00D  GRAD.:     0.178 HEAT: 19.43293
 CYCLE:   160 TIME:   0.010 TIME LEFT:  2.00D  GRAD.:     0.135 HEAT: 19.43286
 CYCLE:   161 TIME:   0.010 TIME LEFT:  2.00D  GRAD.:     0.192 HEAT: 19.43278
 CYCLE:   162 TIME:   0.010 TIME LEFT:  2.00D  GRAD.:     0.187 HEAT: 19.43272
 CYCLE:   163 TIME:   0.010 TIME LEFT:  2.00D  GRAD.:     0.102 HEAT: 19.43269
 CYCLE:   164 TIME:   0.010 TIME LEFT:  2.00D  GRAD.:     0.101 HEAT: 19.43266
 CYCLE:   165 TIME:   0.009 TIME LEFT:  2.00D  GRAD.:     0.047 HEAT: 19.43265

     RMS GRADIENT =  0.04684  IS LESS THAN CUTOFF =  0.05000



 -------------------------------------------------------------------------------
pm3  precise nosym
 InChI=1S/C11H16/c1-2-3-5-9-8-10-6-4-7-11(9)10/h3-6,9-11H,2,7-8H2,1H3



     GEOMETRY OPTIMISED USING EIGENVECTOR FOLLOWING (EF).     
     SCF FIELD WAS ACHIEVED                                   


                              PM3 CALCULATION
                                                       MOPAC2012 (Version: 13.159M)
                                                       Mon Jun  2 11:09:59 2014
                                                       No. of days left =   6




          FINAL HEAT OF FORMATION =         19.43265 KCAL/MOL =      81.30621 KJ/MOL


          TOTAL ENERGY            =      -1549.52475 EV
          ELECTRONIC ENERGY       =      -9012.58738 EV  POINT GROUP:     C1  
          CORE-CORE REPULSION     =       7463.06263 EV
          COSMO AREA              =        210.23 SQUARE ANGSTROMS
          COSMO VOLUME            =        212.48 CUBIC ANGSTROMS

          GRADIENT NORM           =          0.04684
          IONIZATION POTENTIAL    =          9.623814 EV
          HOMO LUMO ENERGIES (EV) =         -9.624  1.012
          NO. OF FILLED LEVELS    =         30
          MOLECULAR WEIGHT        =        148.247

          MOLECULAR DIMENSIONS (Angstroms)

            Atom       Atom       Distance
            H    21    H    24     9.71953
            H    18    H    16     4.76330
            H    13    H    22     3.91181


          SCF CALCULATIONS        =        176
          COMPUTATION TIME        =          1.820 SECONDS




   ATOM   CHEMICAL          X               Y               Z
  NUMBER   SYMBOL      (ANGSTROMS)     (ANGSTROMS)     (ANGSTROMS)
 
     1       C         -1.41153709  *   0.17671070  *  -0.59825081  *
     2       C         -2.32574542  *  -1.01630342  *  -0.16582800  *
     3       C         -0.41648064  *  -0.18719912  *   0.54083746  *
     4       C         -1.31616152  *  -1.38763687  *   0.94158840  *
     5       C         -2.24053136  *   1.44420707  *  -0.38506547  *
     6       C          3.40621812  *  -0.43731471  *   0.06918305  *
     7       C          4.25204112  *   0.77273854  *  -0.26485008  *
     8       C         -3.58697218  *  -0.37363845  *   0.31029058  *
     9       C          0.93063708  *  -0.57739274  *   0.05663464  *
    10       C         -3.54109946  *   0.95913091  *   0.18289161  *
    11       C          2.05155939  *  -0.03747324  *   0.53745087  *
    12       H         -0.97696411  *   0.11381308  *  -1.61275302  *
    13       H         -2.51022183  *  -1.80461667  *  -0.91812556  *
    14       H         -0.35159359  *   0.59158892  *   1.33153153  *
    15       H         -1.71334217  *  -1.34021821  *   1.96618194  *
    16       H         -0.84652509  *  -2.37481148  *   0.81423318  *
    17       H         -1.74732678  *   2.15829786  *   0.30083392  *
    18       H         -2.40953645  *   1.99018740  *  -1.33140435  *
    19       H          3.88963123  *  -1.03273852  *   0.86991987  *
    20       H          3.34427812  *  -1.11095461  *  -0.80900177  *
    21       H          5.25967615  *   0.47651614  *  -0.58309004  *
    22       H          4.36323160  *   1.44200380  *   0.59865469  *
    23       H          3.80992343  *   1.36183665  *  -1.07868622  *
    24       H         -4.33233505  *   1.66049881  *   0.44680313  *
    25       H         -4.41350966  *  -0.96437100  *   0.70323110  *
    26       H          2.02273275  *   0.73530505  *   1.31670616  *
    27       H          0.95872594  *  -1.34588251  *  -0.72704959  *

           Empirical Formula: C11 H16  =    27 atoms



      MOLECULAR POINT GROUP   :   C1  


                  EIGENVALUES  
 -42.32997 -37.06494 -33.07463 -29.63809 -27.90271 -24.29807 -23.25925 -21.25302
 -19.94952 -18.88003 -17.96582 -17.62126 -16.51546 -15.91834 -15.25433 -14.54716
 -14.49806 -14.24374 -13.63764 -13.36727 -13.08885 -12.75243 -12.72156 -12.23902
 -12.02560 -11.86902 -11.60533 -11.36495  -9.77831  -9.62381   1.01235   1.09866
   3.13991   3.36577   3.42573   3.59175   3.61123   3.64026   3.81775   3.87578
   3.94681   3.96070   4.04428   4.09684   4.19597   4.22217   4.29073   4.37076
   4.44107   4.68561   4.69953   4.81093   4.83159   4.85465   5.18271   5.38632
   5.66966   5.84337   5.98851   6.04251


              NET ATOMIC CHARGES AND DIPOLE CONTRIBUTIONS

  ATOM NO.   TYPE          CHARGE      No. of ELECS.   s-Pop       p-Pop       
    1          C          -0.096510        4.0965     1.20125     2.89526
    2          C          -0.066917        4.0669     1.18574     2.88118
    3          C          -0.055101        4.0551     1.18144     2.87367
    4          C          -0.095351        4.0954     1.17482     2.92053
    5          C          -0.057405        4.0574     1.15309     2.90432
    6          C          -0.062751        4.0628     1.14595     2.91681
    7          C          -0.105850        4.1058     1.13765     2.96820
    8          C          -0.146305        4.1463     1.19998     2.94633
    9          C          -0.144061        4.1441     1.19505     2.94901
   10          C          -0.148732        4.1487     1.20451     2.94423
   11          C          -0.143596        4.1436     1.19797     2.94562
   12          H           0.081610        0.9184     0.91839
   13          H           0.080368        0.9196     0.91963
   14          H           0.077584        0.9224     0.92242
   15          H           0.060667        0.9393     0.93933
   16          H           0.059066        0.9409     0.94093
   17          H           0.061426        0.9386     0.93857
   18          H           0.055860        0.9441     0.94414
   19          H           0.053316        0.9467     0.94668
   20          H           0.051439        0.9486     0.94856
   21          H           0.036854        0.9631     0.96315
   22          H           0.037870        0.9621     0.96213
   23          H           0.040087        0.9599     0.95991
   24          H           0.108849        0.8912     0.89115
   25          H           0.112602        0.8874     0.88740
   26          H           0.101616        0.8984     0.89838
   27          H           0.103365        0.8966     0.89663
 DIPOLE           X         Y         Z       TOTAL
 POINT-CHG.     0.243     0.055    -0.021     0.250
 HYBRID        -0.025     0.019     0.029     0.043
 SUM            0.218     0.074     0.008     0.230


          ATOMIC ORBITAL ELECTRON POPULATIONS

    Atom      s        px        py        pz   
    1  C   1.20125   0.96104   0.94969   0.98454
    2  C   1.18574   0.92831   0.97542   0.97745
    3  C   1.18144   0.92107   0.97943   0.97316
    4  C   1.17482   0.96302   0.97530   0.98222
    5  C   1.15309   0.94239   0.96131   1.00062
    6  C   1.14595   0.94219   0.97093   1.00368
    7  C   1.13765   0.98655   0.97369   1.00796
    8  C   1.19998   0.97722   0.95904   1.01006
    9  C   1.19505   0.94407   1.00239   1.00255
   10  C   1.20451   0.97699   0.96307   1.00417
   11  C   1.19797   0.94966   0.99827   0.99769
   12  H   0.91839
   13  H   0.91963
   14  H   0.92242
   15  H   0.93933
   16  H   0.94093
   17  H   0.93857
   18  H   0.94414
   19  H   0.94668
   20  H   0.94856
   21  H   0.96315
   22  H   0.96213
   23  H   0.95991
   24  H   0.89115
   25  H   0.88740
   26  H   0.89838
   27  H   0.89663
 *******************************************************************************
 ** Site#: 14399           For non-commercial use only        Version 13.159M **
 *******************************************************************************
 ** Cite this work as: MOPAC2012, James J. P. Stewart, Stewart Computational  **
 ** Chemistry, Version 13.159M web: HTTP://OpenMOPAC.net  Days remaining:   6 **
 *******************************************************************************
 **                                                                           **
 **                                MOPAC2012                                  **
 **                                                                           **
 *******************************************************************************

                            PM3 CALCULATION RESULTS


 *******************************************************************************
 *  CALCULATION DONE:                                Mon Jun  2 11:09:59 2014  *
 *  PM3      - The PM3 Hamiltonian to be used
 *  OLDGEO   - PREVIOUS GEOMETRY TO BE USED
 *  PRECISE  - CRITERIA TO BE INCREASED BY 100 TIMES
 *  NOSYM    - POINT-GROUP SYMMETRY SET TO C1
 *  T=       - A TIME OF 172800.0 SECONDS REQUESTED
 *  DUMP=N   - RESTART FILE WRITTEN EVERY  7200.000 SECONDS
 *  THERMO   - THERMODYNAMIC QUANTITIES TO BE CALCULATED
 *******************************************************************************
oldgeo thermo nosym precise  pm3

   ATOM   CHEMICAL          X               Y               Z
  NUMBER   SYMBOL      (ANGSTROMS)     (ANGSTROMS)     (ANGSTROMS)
 
     1       C         -1.41153709  *   0.17671070  *  -0.59825081  *
     2       C         -2.32574542  *  -1.01630342  *  -0.16582800  *
     3       C         -0.41648064  *  -0.18719912  *   0.54083746  *
     4       C         -1.31616152  *  -1.38763687  *   0.94158840  *
     5       C         -2.24053136  *   1.44420707  *  -0.38506547  *
     6       C          3.40621812  *  -0.43731471  *   0.06918305  *
     7       C          4.25204112  *   0.77273854  *  -0.26485008  *
     8       C         -3.58697218  *  -0.37363845  *   0.31029058  *
     9       C          0.93063708  *  -0.57739274  *   0.05663464  *
    10       C         -3.54109946  *   0.95913091  *   0.18289161  *
    11       C          2.05155939  *  -0.03747324  *   0.53745087  *
    12       H         -0.97696411  *   0.11381308  *  -1.61275302  *
    13       H         -2.51022183  *  -1.80461667  *  -0.91812556  *
    14       H         -0.35159359  *   0.59158892  *   1.33153153  *
    15       H         -1.71334217  *  -1.34021821  *   1.96618194  *
    16       H         -0.84652509  *  -2.37481148  *   0.81423318  *
    17       H         -1.74732678  *   2.15829786  *   0.30083392  *
    18       H         -2.40953645  *   1.99018740  *  -1.33140435  *
    19       H          3.88963123  *  -1.03273852  *   0.86991987  *
    20       H          3.34427812  *  -1.11095461  *  -0.80900177  *
    21       H          5.25967615  *   0.47651614  *  -0.58309004  *
    22       H          4.36323160  *   1.44200380  *   0.59865469  *
    23       H          3.80992343  *   1.36183665  *  -1.07868622  *
    24       H         -4.33233505  *   1.66049881  *   0.44680313  *
    25       H         -4.41350966  *  -0.96437100  *   0.70323110  *
    26       H          2.02273275  *   0.73530505  *   1.31670616  *
    27       H          0.95872594  *  -1.34588251  *  -0.72704959  *
 


          CARTESIAN COORDINATES 

    NO.       ATOM         X         Y         Z

     1         C       -1.4115    0.1767   -0.5983
     2         C       -2.3257   -1.0163   -0.1658
     3         C       -0.4165   -0.1872    0.5408
     4         C       -1.3162   -1.3876    0.9416
     5         C       -2.2405    1.4442   -0.3851
     6         C        3.4062   -0.4373    0.0692
     7         C        4.2520    0.7727   -0.2649
     8         C       -3.5870   -0.3736    0.3103
     9         C        0.9306   -0.5774    0.0566
    10         C       -3.5411    0.9591    0.1829
    11         C        2.0516   -0.0375    0.5375
    12         H       -0.9770    0.1138   -1.6128
    13         H       -2.5102   -1.8046   -0.9181
    14         H       -0.3516    0.5916    1.3315
    15         H       -1.7133   -1.3402    1.9662
    16         H       -0.8465   -2.3748    0.8142
    17         H       -1.7473    2.1583    0.3008
    18         H       -2.4095    1.9902   -1.3314
    19         H        3.8896   -1.0327    0.8699
    20         H        3.3443   -1.1110   -0.8090
    21         H        5.2597    0.4765   -0.5831
    22         H        4.3632    1.4420    0.5987
    23         H        3.8099    1.3618   -1.0787
    24         H       -4.3323    1.6605    0.4468
    25         H       -4.4135   -0.9644    0.7032
    26         H        2.0227    0.7353    1.3167
    27         H        0.9587   -1.3459   -0.7270

  H: (PM3): J. J. P. STEWART, J. COMP. CHEM. 10, 209 (1989).
  C: (PM3): J. J. P. STEWART, J. COMP. CHEM. 10, 209 (1989).

           Empirical Formula: C11 H16  =    27 atoms



      MOLECULAR POINT GROUP   :   C1  


      RHF CALCULATION, NO. OF DOUBLY OCCUPIED LEVELS =   30



          HEAT OF FORMATION =      19.432651 KCALS/MOLE


          INTERNAL COORDINATE DERIVATIVES

   NUMBER  ATOM       BOND         ANGLE      DIHEDRAL

     1       C      0.000302     0.001125    -0.002176
     2       C      0.003972    -0.002028    -0.001349
     3       C     -0.003497    -0.000544     0.000485
     4       C     -0.003516     0.004457    -0.000353
     5       C     -0.000169    -0.000942    -0.000217
     6       C      0.004168    -0.003343     0.009059
     7       C     -0.009891     0.002395    -0.002575
     8       C      0.002256    -0.000579    -0.003432
     9       C      0.000565    -0.003418     0.008881
    10       C     -0.000593     0.003097     0.004663
    11       C      0.001861     0.003294    -0.006039
    12       H     -0.003898     0.004908    -0.005690
    13       H      0.001386     0.002233     0.001133
    14       H      0.003315    -0.001824    -0.001810
    15       H     -0.000671    -0.001594     0.001756
    16       H      0.010664    -0.004412    -0.001472
    17       H     -0.001107     0.009088    -0.002754
    18       H     -0.001304    -0.006760     0.010861
    19       H     -0.004173     0.014052    -0.000535
    20       H      0.008397    -0.008762    -0.005574
    21       H      0.002570    -0.001602     0.000652
    22       H      0.003400     0.002641     0.001691
    23       H     -0.002043    -0.002952     0.000009
    24       H     -0.004904    -0.007586     0.001615
    25       H      0.003491     0.003374    -0.002494
    26       H     -0.013238     0.000180     0.011968
    27       H      0.002655    -0.004500    -0.016306


          GRADIENT NORM =   0.04630


          TIME FOR SCF CALCULATION =    0.01

          TIME FOR DERIVATIVES     =    0.01

          MOLECULAR WEIGHT =  148.25



          ROTATIONAL CONSTANTS IN CM(-1)

          A =    0.10384444   B =    0.01581441   C =    0.01451826



           PRINCIPAL MOMENTS OF INERTIA IN UNITS OF 10**(-40)*GRAM-CM**2

          A =      269.5645   B =     1770.0799   C =     1928.1084


          ORIENTATION OF MOLECULE IN FORCE CALCULATION

    NO.       ATOM         X         Y         Z

     1          C       0.2753   -1.2763    0.2397
     2          C       1.8393   -1.2763    0.2397
     3          C       0.2862    0.2793    0.2397
     4          C       1.8386    0.2672    0.2083
     5          C      -0.1480   -1.9440    1.5490
     6          C      -1.8879    2.4528   -2.0941
     7          C      -3.3977    2.4768   -1.9886
     8          C       2.2180   -1.8874    1.5488
     9          C      -0.3375    0.8821   -0.9641
    10          C       1.1393   -2.2556    2.2527
    11          C      -1.2716    1.8314   -0.8907
    12          H      -0.2112   -1.7231   -0.6467
    13          H       2.3405   -1.7643   -0.6159
    14          H      -0.1272    0.7205    1.1727
    15          H       2.3179    0.7489    1.0731
    16          H       2.2819    0.7022   -0.7003
    17          H      -0.7914   -1.2889    2.1658
    18          H      -0.7273   -2.8688    1.3716
    19          H      -1.4949    3.4849   -2.1928
    20          H      -1.5807    1.9256   -3.0196
    21          H      -3.8487    2.9607   -2.8642
    22          H      -3.7345    3.0260   -1.0993
    23          H      -3.8137    1.4632   -1.9223
    24          H       1.1398   -2.7326    3.2325
    25          H       3.2604   -1.9975    1.8451
    26          H      -1.6288    2.2052    0.0777
    27          H       0.0156    0.5035   -1.9323


    FIRST DERIVATIVES WILL BE USED IN THE CALCULATION OF SECOND DERIVATIVES

          ESTIMATED TIME TO COMPLETE CALCULATION =        4.69 SECONDS

    FOR POINT-GROUP C1   THERE ARE   1 UNIQUE SYMMETRY FUNCTIONS.

 STEP:   1 TIME =     0.04 SECS, INTEGRAL =      0.04 TIME LEFT: 172799.94
 STEP:   2 TIME =     0.04 SECS, INTEGRAL =      0.09 TIME LEFT: 172799.90
 STEP:   3 TIME =     0.04 SECS, INTEGRAL =      0.13 TIME LEFT: 172799.85
 STEP:   4 TIME =     0.04 SECS, INTEGRAL =      0.18 TIME LEFT: 172799.81
 STEP:   5 TIME =     0.04 SECS, INTEGRAL =      0.22 TIME LEFT: 172799.76
 STEP:   6 TIME =     0.04 SECS, INTEGRAL =      0.27 TIME LEFT: 172799.72
 STEP:   7 TIME =     0.04 SECS, INTEGRAL =      0.31 TIME LEFT: 172799.67
 STEP:   8 TIME =     0.05 SECS, INTEGRAL =      0.36 TIME LEFT: 172799.63
 STEP:   9 TIME =     0.04 SECS, INTEGRAL =      0.40 TIME LEFT: 172799.58
 STEP:  10 TIME =     0.04 SECS, INTEGRAL =      0.45 TIME LEFT: 172799.54
 STEP:  11 TIME =     0.05 SECS, INTEGRAL =      0.49 TIME LEFT: 172799.49
 STEP:  12 TIME =     0.05 SECS, INTEGRAL =      0.54 TIME LEFT: 172799.45
 STEP:  13 TIME =     0.05 SECS, INTEGRAL =      0.59 TIME LEFT: 172799.40
 STEP:  14 TIME =     0.04 SECS, INTEGRAL =      0.63 TIME LEFT: 172799.35
 STEP:  15 TIME =     0.05 SECS, INTEGRAL =      0.68 TIME LEFT: 172799.31
 STEP:  16 TIME =     0.04 SECS, INTEGRAL =      0.72 TIME LEFT: 172799.26
 STEP:  17 TIME =     0.04 SECS, INTEGRAL =      0.77 TIME LEFT: 172799.22
 STEP:  18 TIME =     0.04 SECS, INTEGRAL =      0.81 TIME LEFT: 172799.17
 STEP:  19 TIME =     0.05 SECS, INTEGRAL =      0.86 TIME LEFT: 172799.13
 STEP:  20 TIME =     0.04 SECS, INTEGRAL =      0.90 TIME LEFT: 172799.08
 STEP:  21 TIME =     0.04 SECS, INTEGRAL =      0.95 TIME LEFT: 172799.04
 STEP:  22 TIME =     0.05 SECS, INTEGRAL =      0.99 TIME LEFT: 172798.99
 STEP:  23 TIME =     0.05 SECS, INTEGRAL =      1.04 TIME LEFT: 172798.95
 STEP:  24 TIME =     0.05 SECS, INTEGRAL =      1.09 TIME LEFT: 172798.90
 STEP:  25 TIME =     0.05 SECS, INTEGRAL =      1.13 TIME LEFT: 172798.85
 STEP:  26 TIME =     0.05 SECS, INTEGRAL =      1.18 TIME LEFT: 172798.81
 STEP:  27 TIME =     0.05 SECS, INTEGRAL =      1.23 TIME LEFT: 172798.76
 STEP:  28 TIME =     0.05 SECS, INTEGRAL =      1.27 TIME LEFT: 172798.71
 STEP:  29 TIME =     0.05 SECS, INTEGRAL =      1.32 TIME LEFT: 172798.67
 STEP:  30 TIME =     0.04 SECS, INTEGRAL =      1.36 TIME LEFT: 172798.62
 STEP:  31 TIME =     0.05 SECS, INTEGRAL =      1.41 TIME LEFT: 172798.58
 STEP:  32 TIME =     0.05 SECS, INTEGRAL =      1.45 TIME LEFT: 172798.53
 STEP:  33 TIME =     0.04 SECS, INTEGRAL =      1.50 TIME LEFT: 172798.49
 STEP:  34 TIME =     0.05 SECS, INTEGRAL =      1.54 TIME LEFT: 172798.44
 STEP:  35 TIME =     0.05 SECS, INTEGRAL =      1.59 TIME LEFT: 172798.40
 STEP:  36 TIME =     0.04 SECS, INTEGRAL =      1.63 TIME LEFT: 172798.35
 STEP:  37 TIME =     0.05 SECS, INTEGRAL =      1.68 TIME LEFT: 172798.31
 STEP:  38 TIME =     0.05 SECS, INTEGRAL =      1.72 TIME LEFT: 172798.26
 STEP:  39 TIME =     0.04 SECS, INTEGRAL =      1.77 TIME LEFT: 172798.22
 STEP:  40 TIME =     0.05 SECS, INTEGRAL =      1.81 TIME LEFT: 172798.17
 STEP:  41 TIME =     0.05 SECS, INTEGRAL =      1.86 TIME LEFT: 172798.13
 STEP:  42 TIME =     0.04 SECS, INTEGRAL =      1.90 TIME LEFT: 172798.08
 STEP:  43 TIME =     0.05 SECS, INTEGRAL =      1.95 TIME LEFT: 172798.04
 STEP:  44 TIME =     0.05 SECS, INTEGRAL =      2.00 TIME LEFT: 172797.99
 STEP:  45 TIME =     0.04 SECS, INTEGRAL =      2.04 TIME LEFT: 172797.94
 STEP:  46 TIME =     0.05 SECS, INTEGRAL =      2.09 TIME LEFT: 172797.90
 STEP:  47 TIME =     0.05 SECS, INTEGRAL =      2.13 TIME LEFT: 172797.85
 STEP:  48 TIME =     0.05 SECS, INTEGRAL =      2.18 TIME LEFT: 172797.80
 STEP:  49 TIME =     0.05 SECS, INTEGRAL =      2.23 TIME LEFT: 172797.76
 STEP:  50 TIME =     0.05 SECS, INTEGRAL =      2.27 TIME LEFT: 172797.71
 STEP:  51 TIME =     0.04 SECS, INTEGRAL =      2.32 TIME LEFT: 172797.67
 STEP:  52 TIME =     0.05 SECS, INTEGRAL =      2.37 TIME LEFT: 172797.62
 STEP:  53 TIME =     0.04 SECS, INTEGRAL =      2.41 TIME LEFT: 172797.57
 STEP:  54 TIME =     0.05 SECS, INTEGRAL =      2.46 TIME LEFT: 172797.53
 STEP:  55 TIME =     0.05 SECS, INTEGRAL =      2.50 TIME LEFT: 172797.48
 STEP:  56 TIME =     0.05 SECS, INTEGRAL =      2.55 TIME LEFT: 172797.43
 STEP:  57 TIME =     0.05 SECS, INTEGRAL =      2.60 TIME LEFT: 172797.39
 STEP:  58 TIME =     0.05 SECS, INTEGRAL =      2.64 TIME LEFT: 172797.34
 STEP:  59 TIME =     0.05 SECS, INTEGRAL =      2.69 TIME LEFT: 172797.30
 STEP:  60 TIME =     0.04 SECS, INTEGRAL =      2.73 TIME LEFT: 172797.25
 STEP:  61 TIME =     0.05 SECS, INTEGRAL =      2.78 TIME LEFT: 172797.20
 STEP:  62 TIME =     0.05 SECS, INTEGRAL =      2.83 TIME LEFT: 172797.15
 STEP:  63 TIME =     0.05 SECS, INTEGRAL =      2.88 TIME LEFT: 172797.11
 STEP:  64 TIME =     0.05 SECS, INTEGRAL =      2.93 TIME LEFT: 172797.06
 STEP:  65 TIME =     0.05 SECS, INTEGRAL =      2.97 TIME LEFT: 172797.01
 STEP:  66 TIME =     0.05 SECS, INTEGRAL =      3.02 TIME LEFT: 172796.97
 STEP:  67 TIME =     0.05 SECS, INTEGRAL =      3.07 TIME LEFT: 172796.92
 STEP:  68 TIME =     0.04 SECS, INTEGRAL =      3.11 TIME LEFT: 172796.87
 STEP:  69 TIME =     0.05 SECS, INTEGRAL =      3.16 TIME LEFT: 172796.83
 STEP:  70 TIME =     0.05 SECS, INTEGRAL =      3.20 TIME LEFT: 172796.78
 STEP:  71 TIME =     0.05 SECS, INTEGRAL =      3.25 TIME LEFT: 172796.74
 STEP:  72 TIME =     0.04 SECS, INTEGRAL =      3.29 TIME LEFT: 172796.69
 STEP:  73 TIME =     0.04 SECS, INTEGRAL =      3.34 TIME LEFT: 172796.65
 STEP:  74 TIME =     0.05 SECS, INTEGRAL =      3.39 TIME LEFT: 172796.60
 STEP:  75 TIME =     0.05 SECS, INTEGRAL =      3.43 TIME LEFT: 172796.55
 STEP:  76 TIME =     0.05 SECS, INTEGRAL =      3.48 TIME LEFT: 172796.50
 STEP:  77 TIME =     0.05 SECS, INTEGRAL =      3.53 TIME LEFT: 172796.46
 STEP:  78 TIME =     0.04 SECS, INTEGRAL =      3.57 TIME LEFT: 172796.41
 STEP:  79 TIME =     0.05 SECS, INTEGRAL =      3.62 TIME LEFT: 172796.37
 STEP:  80 TIME =     0.05 SECS, INTEGRAL =      3.67 TIME LEFT: 172796.32
 STEP:  81 TIME =     0.04 SECS, INTEGRAL =      3.71 TIME LEFT: 172796.28

(To convert to Hartree/Bohr^2, multiply by (10^(-21) x N x a0^2)/(4.184 x 627.51) = 0.0642)


           FORCE MATRIX IN MILLIDYNES/ANGSTROM


                  C  1       C  2       C  3       C  4       C  5       C  6
 ------------------------------------------------------------------------------
     C    1  14.358852
     C    2   3.007127  14.928090
     C    3   3.194771   1.779965  14.808082
     C    4   1.778155   3.541796   3.314990  14.291121
     C    5   3.887135   0.703701   0.502804   0.046286  14.678220
     C    6   0.018112   0.002009   0.143025   0.019021   0.002243  14.695426
     C    7   0.003919   0.000763   0.019105   0.001748   0.001703   4.409137
     C    8   0.836153   4.758632   0.046416   0.560494   1.124187   0.001305
     C    9   0.592747   0.042064   5.055628   0.592997   0.034556   0.821967
     C   10   0.903807   1.186841   0.029915   0.042929   4.573585   0.000805
     C   11   0.033671   0.003547   0.850028   0.033185   0.004715   4.963937
     H   12   4.578715   0.418551   0.434364   0.027251   0.424389   0.000828
     H   13   0.409696   4.567961   0.028656   0.429495   0.031005   0.000329
     H   14   0.433298   0.026353   4.384593   0.425028   0.031798   0.001776
     H   15   0.030209   0.451378   0.442706   4.712290   0.003416   0.002615
     H   16   0.027423   0.444459   0.452889   4.686486   0.001361   0.001207
     H   17   0.443757   0.034148   0.033309   0.002153   4.493239   0.000331
     H   18   0.438120   0.022977   0.032913   0.005427   4.521625   0.000256
     H   19   0.002034   0.000307   0.019330   0.003296   0.000237   4.421760
     H   20   0.000496   0.000196   0.002821   0.000898   0.000250   4.441732
     H   21   0.000725   0.000260   0.003325   0.000261   0.000275   0.449470
     H   22   0.000274   0.000147   0.000884   0.000197   0.000304   0.464219
     H   23   0.000178   0.000206   0.000881   0.000332   0.000346   0.460758
     H   24   0.042898   0.114170   0.003194   0.017057   0.410818   0.000402
     H   25   0.041253   0.416078   0.002483   0.005835   0.113743   0.000418
     H   26   0.007944   0.000896   0.085248   0.007858   0.001553   0.430080
     H   27   0.019080   0.001855   0.434152   0.018059   0.001354   0.082449


                  C  7       C  8       C  9       C 10       C 11       H 12
 ------------------------------------------------------------------------------
     C    7  14.348569
     C    8   0.001312  18.316145
     C    9   0.041953   0.005787  18.325713
     C   10   0.001275  10.477244   0.003250  18.238944
     C   11   0.716691   0.000958  10.681940   0.000904  18.190712
     H   12   0.000469   0.033822   0.034757   0.033945   0.003084   5.087705
     H   13   0.000242   0.417602   0.004171   0.039993   0.000930   0.015416
     H   14   0.000808   0.003204   0.444049   0.002241   0.056064   0.027047
     H   15   0.000305   0.019908   0.031691   0.004474   0.003522   0.001205
     H   16   0.000200   0.034960   0.030646   0.004845   0.002817   0.002632
     H   17   0.000361   0.038624   0.002569   0.431957   0.000597   0.019876
     H   18   0.000283   0.037690   0.004135   0.429197   0.000543   0.032686
     H   19   0.445479   0.000304   0.032098   0.000337   0.408879   0.000180
     H   20   0.434966   0.000211   0.050293   0.000302   0.459271   0.000245
     H   21   4.751214   0.000226   0.007078   0.000371   0.052549   0.000153
     H   22   4.725595   0.000293   0.001935   0.000296   0.027548   0.000117
     H   23   4.747527   0.000205   0.002318   0.000177   0.015864   0.000159
     H   24   0.000496   0.447299   0.001388   5.014033   0.000276   0.004009
     H   25   0.000338   5.027428   0.001399   0.448859   0.000342   0.003662
     H   26   0.026531   0.000669   0.468933   0.000729   4.758297   0.000820
     H   27   0.008287   0.001348   4.753984   0.000740   0.468162   0.017930


                  H 13       H 14       H 15       H 16       H 17       H 18
 ------------------------------------------------------------------------------
     H   13   5.075481
     H   14   0.001300   4.883291
     H   15   0.028300   0.027117   5.328976
     H   16   0.024762   0.030365   0.545762   5.308229
     H   17   0.004563   0.027554   0.000613   0.000451   5.106522
     H   18   0.001065   0.002333   0.000688   0.000345   0.565647   5.122721
     H   19   0.000125   0.000489   0.000616   0.000333   0.000093   0.000102
     H   20   0.000074   0.000608   0.000223   0.000212   0.000077   0.000095
     H   21   0.000057   0.000184   0.000084   0.000076   0.000114   0.000089
     H   22   0.000060   0.000189   0.000088   0.000090   0.000069   0.000075
     H   23   0.000118   0.000175   0.000130   0.000100   0.000096   0.000059
     H   24   0.012997   0.000742   0.001038   0.002256   0.014245   0.014693
     H   25   0.013813   0.000707   0.003683   0.001088   0.015361   0.015979
     H   26   0.000214   0.029861   0.001267   0.000745   0.000392   0.000256
     H   27   0.000621   0.036161   0.001408   0.017214   0.000580   0.000302


                  H 19       H 20       H 21       H 22       H 23       H 24
 ------------------------------------------------------------------------------
     H   19   5.019697
     H   20   0.565332   5.053034
     H   21   0.028593   0.030170   5.488723
     H   22   0.023935   0.047460   0.571399   5.470843
     H   23   0.048561   0.024553   0.573226   0.577171   5.485469
     H   24   0.000120   0.000071   0.000114   0.000142   0.000133   5.408803
     H   25   0.000143   0.000082   0.000095   0.000096   0.000066   0.047253
     H   26   0.017669   0.038358   0.001959   0.020203   0.002675   0.000196
     H   27   0.009613   0.030054   0.001587   0.000612   0.000563   0.000434


                  H 25       H 26       H 27
 ------------------------------------------
     H   25   5.422889
     H   26   0.000150   5.139668
     H   27   0.000355   0.103366   5.134795


          HEAT OF FORMATION =      19.432651 KCALS/MOLE

          ZERO POINT ENERGY     150.570 KCAL/MOL


           NORMAL COORDINATE ANALYSIS (Total motion = 1 Angstrom)


   Root No.       1         2         3         4         5         6         7         8

                 1 A       2 A       3 A       4 A       5 A       6 A       7 A       8 A   

                  45.1      66.9      89.5     121.8     182.3     215.6     251.8     302.3
  
           1    0.0071    0.0152    0.0036   -0.0047    0.0008    0.0019   -0.0181    0.0172
           2   -0.0168    0.0015   -0.0182    0.0058    0.0000   -0.0081   -0.0065   -0.0072
           3   -0.0001   -0.0187   -0.0088    0.0010    0.0031   -0.0019   -0.0112   -0.0232
           4    0.0072    0.0151    0.0038   -0.0048    0.0009    0.0022   -0.0175    0.0176
           5    0.0099   -0.0034   -0.0042    0.0118    0.0051    0.0001   -0.0070    0.0004
           6    0.0072    0.0123    0.0030    0.0018    0.0069    0.0042   -0.0271   -0.0078
           7   -0.0196    0.0208   -0.0095   -0.0104   -0.0055   -0.0081   -0.0106    0.0020
           8   -0.0168    0.0016   -0.0183    0.0059   -0.0009   -0.0091   -0.0069   -0.0124
           9   -0.0014   -0.0166   -0.0146    0.0050   -0.0123   -0.0184    0.0115   -0.0040
          10   -0.0191    0.0206   -0.0096   -0.0105   -0.0054   -0.0079   -0.0130    0.0025
          11    0.0099   -0.0038   -0.0050    0.0125    0.0059    0.0008   -0.0061    0.0042
          12    0.0074   -0.0053   -0.0226    0.0199    0.0188    0.0152    0.0231    0.0188
          13    0.0129   -0.0147   -0.0005   -0.0032    0.0014    0.0036   -0.0028   -0.0043
          14   -0.0225    0.0033   -0.0139   -0.0028    0.0142    0.0140   -0.0075    0.0394
          15   -0.0010   -0.0280   -0.0080   -0.0029    0.0115    0.0114   -0.0069   -0.0095
          16    0.0025   -0.0163    0.0098    0.0022   -0.0056   -0.0010    0.0141    0.0030
          17   -0.0093   -0.0173    0.0322   -0.0101    0.0085    0.0270   -0.0107   -0.0154
          18   -0.0150    0.0019    0.0160   -0.0225   -0.0051    0.0101    0.0004    0.0144
          19    0.0051   -0.0136    0.0083    0.0050   -0.0050   -0.0021    0.0156    0.0030
          20    0.0565    0.0067   -0.0176   -0.0274    0.0001    0.0004   -0.0080    0.0010
          21    0.0061    0.0384    0.0068    0.0317    0.0171    0.0058    0.0159   -0.0102
          22    0.0119   -0.0148   -0.0015   -0.0030    0.0021    0.0041   -0.0029   -0.0011
          23    0.0165    0.0093    0.0239   -0.0059   -0.0107   -0.0086    0.0128   -0.0177
          24    0.0089    0.0273    0.0180   -0.0073   -0.0012   -0.0007   -0.0236   -0.0108
          25   -0.0195    0.0201   -0.0191   -0.0029    0.0081    0.0086    0.0229   -0.0257
          26   -0.0245    0.0044   -0.0157   -0.0037   -0.0093   -0.0044    0.0050   -0.0217
          27   -0.0054   -0.0146   -0.0081   -0.0040   -0.0253   -0.0262    0.0030    0.0110
          28    0.0151   -0.0306   -0.0036   -0.0020    0.0022    0.0044    0.0041   -0.0120
          29   -0.0008    0.0126    0.0194   -0.0153   -0.0083   -0.0005    0.0499    0.0230
          30    0.0046    0.0051    0.0124   -0.0107    0.0002    0.0037    0.0061   -0.0054
          31   -0.0049    0.0022    0.0168    0.0375    0.0089   -0.0044    0.0060   -0.0014
          32   -0.0097   -0.0138    0.0187    0.0365   -0.0086   -0.0176   -0.0134    0.0014
          33   -0.0115   -0.0060    0.0052   -0.0167   -0.0225   -0.0123    0.0008    0.0247
          34    0.0187    0.0317    0.0142   -0.0022    0.0039    0.0061   -0.0330    0.0273
          35   -0.0263    0.0046   -0.0263    0.0061   -0.0126   -0.0244    0.0039   -0.0187
          36   -0.0016   -0.0294   -0.0104   -0.0007    0.0079    0.0045   -0.0078   -0.0224
          37    0.0194    0.0314    0.0157   -0.0034    0.0029    0.0068   -0.0232    0.0321
          38    0.0186   -0.0152   -0.0153    0.0252    0.0167    0.0113    0.0077    0.0220
          39    0.0094    0.0287    0.0164   -0.0051    0.0013    0.0005   -0.0376   -0.0112
          40   -0.0327    0.0191   -0.0064   -0.0227   -0.0235   -0.0273   -0.0259   -0.0067
          41   -0.0234   -0.0002   -0.0219    0.0048    0.0043   -0.0081   -0.0157   -0.0269
          42   -0.0041   -0.0161   -0.0113   -0.0001   -0.0222   -0.0264    0.0087    0.0003
          43   -0.0321    0.0166   -0.0083   -0.0215   -0.0267   -0.0321   -0.0207   -0.0195
          44    0.0180    0.0051    0.0145    0.0037    0.0002   -0.0035   -0.0404   -0.0081
          45    0.0100   -0.0080   -0.0343    0.0309    0.0340    0.0312    0.0472    0.0381
          46   -0.0216    0.0279   -0.0194   -0.0035    0.0123    0.0109   -0.0021    0.0131
          47    0.0176   -0.0164   -0.0172    0.0256    0.0164    0.0121    0.0292    0.0269
          48    0.0098   -0.0078   -0.0333    0.0298    0.0327    0.0299    0.0455    0.0357
          49   -0.0003   -0.0344   -0.0231    0.0035    0.0233    0.0234   -0.0419    0.0181
          50   -0.0324    0.0014   -0.0214   -0.0042    0.0313    0.0341   -0.0303    0.0796
          51   -0.0042   -0.0466   -0.0237    0.0055    0.0165    0.0112   -0.0242   -0.0271
          52    0.0287   -0.0047    0.0216   -0.0095   -0.0213   -0.0168    0.0438   -0.0370
          53   -0.0321   -0.0007   -0.0280    0.0022    0.0264    0.0235   -0.0380    0.0545
          54   -0.0024   -0.0401   -0.0069   -0.0082    0.0231    0.0298   -0.0023    0.0214
          55    0.0441   -0.0033   -0.0205   -0.0135   -0.0118   -0.0149    0.0185    0.0132
          56   -0.0276   -0.0242    0.0464   -0.0095    0.0127    0.0367   -0.0128   -0.0205
          57   -0.0416   -0.0186    0.0456   -0.0755    0.0131    0.0564   -0.0026    0.0005
          58   -0.0327   -0.0461    0.0324   -0.0226   -0.0140    0.0129    0.0078    0.0071
          59   -0.0409   -0.0322    0.0654   -0.0426    0.0295    0.0697   -0.0140   -0.0328
          60   -0.0087    0.0006    0.0046   -0.0122   -0.0193   -0.0093    0.0003    0.0250
          61    0.0130   -0.0277   -0.0011   -0.0359   -0.0137   -0.0139    0.0065    0.0256
          62    0.0605   -0.0009   -0.0076   -0.0884    0.1272   -0.0972    0.0043    0.0072
          63    0.0043    0.0415    0.0171    0.0192    0.0917   -0.0419    0.0277   -0.0187
          64    0.0407    0.0159   -0.0143    0.0299    0.0073   -0.0157    0.0270   -0.0063
          65    0.0858    0.0262   -0.0527    0.0216   -0.1256    0.0795   -0.0189    0.0047
          66    0.0016    0.0376    0.0198    0.0109    0.0996   -0.0483    0.0271   -0.0162
          67   -0.0366   -0.0269    0.0396    0.0240   -0.0085    0.0237    0.0145   -0.0109
          68    0.0751    0.0139   -0.0324   -0.0302   -0.0075   -0.0037   -0.0081    0.0062
          69    0.0292    0.0649   -0.0238    0.1099   -0.1233    0.1061    0.0079   -0.0190
          70    0.0189   -0.0525   -0.0071   -0.0005    0.0026    0.0049    0.0147   -0.0245
          71   -0.0006    0.0203    0.0357   -0.0293   -0.0194   -0.0032    0.1029    0.0369
          72    0.0047    0.0088    0.0203   -0.0175   -0.0052    0.0025    0.0317    0.0014
          73    0.0125   -0.0216   -0.0031   -0.0026    0.0025    0.0047    0.0009   -0.0047
          74    0.0336    0.0142    0.0452   -0.0109   -0.0244   -0.0204    0.0196   -0.0566
          75    0.0131    0.0530    0.0314   -0.0106   -0.0078   -0.0072   -0.0345   -0.0123
          76    0.0048   -0.0019    0.0512    0.0843    0.0163   -0.0219   -0.0214    0.0328
          77    0.0052   -0.0284    0.0384    0.0940   -0.0162   -0.0573   -0.0392    0.0365
          78   -0.0136   -0.0018    0.0104   -0.0216   -0.0160   -0.0028    0.0009    0.0230
          79   -0.0292    0.0291   -0.0542   -0.0414    0.0128    0.0329    0.0583   -0.0716
          80   -0.0402    0.0191   -0.0381   -0.0547   -0.0120    0.0219    0.0304   -0.0511
          81   -0.0028   -0.0169   -0.0120    0.0020   -0.0218   -0.0269    0.0062    0.0055


   Root No.       9        10        11        12        13        14        15        16

                 9 A      10 A      11 A      12 A      13 A      14 A      15 A      16 A   

                 322.0     388.3     448.1     495.7     532.7     669.9     749.2     772.9
  
           1    0.0083    0.0020   -0.0145    0.0010    0.0093    0.0158    0.0144    0.0085
           2   -0.0159   -0.0241   -0.0036   -0.0053   -0.0148   -0.0323    0.0001    0.0086
           3   -0.0060   -0.0152   -0.0012   -0.0095   -0.0025    0.0241   -0.0374    0.0238
           4    0.0076    0.0035   -0.0140    0.0009    0.0123    0.0183   -0.0240    0.0188
           5   -0.0250   -0.0017   -0.0024   -0.0188    0.0076    0.0254    0.0027   -0.0076
           6    0.0038    0.0024   -0.0091   -0.0153   -0.0038   -0.0261   -0.0260    0.0007
           7    0.0036   -0.0182    0.0058    0.0104   -0.0103    0.0284    0.0046   -0.0070
           8   -0.0085   -0.0217   -0.0028   -0.0027   -0.0160   -0.0238    0.0178    0.0079
           9   -0.0093   -0.0117   -0.0113    0.0216    0.0442   -0.0174    0.0045    0.0020
          10    0.0070   -0.0210    0.0020    0.0160   -0.0145    0.0337   -0.0013   -0.0088
          11   -0.0240   -0.0036   -0.0065   -0.0231    0.0093    0.0299    0.0248    0.0009
          12    0.0232   -0.0124    0.0110    0.0170   -0.0138   -0.0062   -0.0061    0.0010
          13    0.0141    0.0026   -0.0036    0.0000   -0.0073   -0.0339    0.0551   -0.0175
          14   -0.0128    0.0145   -0.0017    0.0105    0.0064   -0.0297   -0.0099   -0.0156
          15    0.0007    0.0076    0.0059   -0.0049   -0.0009    0.0410   -0.0073   -0.0020
          16   -0.0295    0.0095   -0.0127   -0.0012   -0.0153   -0.0011    0.0003    0.0004
          17    0.0131   -0.0110   -0.0172    0.0188    0.0055    0.0073   -0.0046    0.0027
          18   -0.0129   -0.0081    0.0310   -0.0231    0.0030   -0.0102    0.0011    0.0035
          19   -0.0331    0.0119   -0.0164   -0.0020   -0.0231   -0.0028    0.0018    0.0014
          20    0.0105   -0.0072    0.0067    0.0010    0.0074    0.0009   -0.0005   -0.0001
          21   -0.0187    0.0070   -0.0171    0.0053   -0.0074   -0.0008    0.0006    0.0003
          22    0.0121    0.0028   -0.0036    0.0022   -0.0028   -0.0363   -0.0577    0.0165
          23   -0.0233    0.0119    0.0357    0.0314   -0.0053    0.0115   -0.0162   -0.0285
          24    0.0050    0.0090    0.0026    0.0067   -0.0061   -0.0274   -0.0039   -0.0089
          25    0.0028    0.0103    0.0236   -0.0146    0.0332   -0.0026    0.0026   -0.0023
          26    0.0330    0.0363   -0.0040   -0.0092   -0.0087    0.0038    0.0017    0.0007
          27    0.0032    0.0081   -0.0186    0.0263    0.0230    0.0102    0.0008   -0.0117
          28    0.0106    0.0028    0.0041    0.0015   -0.0077   -0.0168    0.0004   -0.0035
          29    0.0141   -0.0119   -0.0128   -0.0076    0.0077   -0.0004   -0.0407   -0.0092
          30    0.0214   -0.0041   -0.0120   -0.0157   -0.0047    0.0026    0.0684   -0.0252
          31    0.0037   -0.0069    0.0314   -0.0145    0.0325   -0.0051   -0.0013   -0.0007
          32    0.0401    0.0180    0.0029   -0.0049   -0.0063    0.0060   -0.0047    0.0028
          33   -0.0083    0.0155    0.0156   -0.0216   -0.0238    0.0008   -0.0024    0.0026
          34    0.0092    0.0143   -0.0255   -0.0106    0.0185    0.0221   -0.0231    0.0222
          35   -0.0184   -0.0443   -0.0050    0.0085   -0.0108   -0.0692    0.0218    0.0151
          36   -0.0045   -0.0102    0.0058   -0.0096   -0.0088    0.0406   -0.0275    0.0128
          37    0.0103    0.0219   -0.0175    0.0020    0.0265    0.0247    0.0120    0.0014
          38   -0.0175   -0.0018   -0.0111   -0.0324    0.0190    0.0515    0.0224    0.0133
          39    0.0013    0.0131   -0.0054   -0.0058   -0.0022   -0.0373   -0.0161   -0.0213
          40   -0.0038   -0.0280   -0.0041    0.0231   -0.0158    0.0407   -0.0035   -0.0123
          41   -0.0209   -0.0461    0.0045   -0.0080   -0.0386   -0.0338   -0.0022    0.0311
          42   -0.0065   -0.0035   -0.0185    0.0292    0.0513   -0.0070    0.0097   -0.0112
          43   -0.0128   -0.0244   -0.0131    0.0214    0.0346   -0.0004    0.0180   -0.0072
          44   -0.0414    0.0164   -0.0316   -0.0642    0.0424    0.0076    0.0025    0.0189
          45    0.0444   -0.0221    0.0347    0.0384   -0.0617    0.0274   -0.0050   -0.0109
          46    0.0322   -0.0310    0.0259    0.0257   -0.0832    0.0584   -0.0139   -0.0246
          47   -0.0116   -0.0094    0.0138    0.0038   -0.0051    0.0768    0.0422   -0.0059
          48    0.0422   -0.0208    0.0332    0.0361   -0.0569    0.0293   -0.0042   -0.0105
          49   -0.0122    0.0520    0.0274    0.0462    0.0056   -0.0367    0.1109    0.0445
          50   -0.0243    0.0624    0.0135    0.0479    0.0313   -0.0225    0.0593    0.0108
          51   -0.0154    0.0105    0.0232    0.0062   -0.0120    0.0305   -0.0215    0.0384
          52    0.0428   -0.0501   -0.0308   -0.0497   -0.0278   -0.0374   -0.0071   -0.0879
          53   -0.0314    0.0410    0.0137    0.0385    0.0155   -0.0313    0.0287    0.0300
          54    0.0023    0.0474    0.0180    0.0187    0.0209    0.0578    0.0133   -0.0033
          55   -0.0418    0.0166   -0.0108   -0.0108   -0.0342   -0.0046   -0.0016    0.0089
          56    0.0153   -0.0185   -0.0187    0.0253    0.0159    0.0075   -0.0010   -0.0035
          57   -0.0398   -0.0523    0.0174    0.0062    0.0295   -0.0201    0.0259   -0.0218
          58   -0.0342    0.0006   -0.0133    0.0019   -0.0173   -0.0037    0.0091   -0.0093
          59   -0.0032   -0.0503   -0.0296    0.0478    0.0365    0.0024    0.0147   -0.0204
          60   -0.0053    0.0107    0.0369   -0.0372   -0.0142   -0.0082   -0.0064    0.0125
          61   -0.0271    0.0014    0.0366   -0.0359   -0.0063   -0.0197    0.0059    0.0037
          62    0.0135    0.0043    0.0120   -0.0062    0.0059   -0.0021    0.0029   -0.0037
          63   -0.0207    0.0190   -0.0428    0.0193   -0.0178    0.0064    0.0004   -0.0028
          64   -0.0401    0.0243   -0.0445    0.0131   -0.0348    0.0031    0.0080   -0.0098
          65    0.0077   -0.0175    0.0213   -0.0057    0.0151   -0.0040    0.0041   -0.0045
          66   -0.0199    0.0183   -0.0377    0.0157   -0.0170    0.0047    0.0003   -0.0015
          67   -0.0347    0.0110   -0.0452    0.0177   -0.0329    0.0074   -0.0069    0.0101
          68    0.0108   -0.0075    0.0180   -0.0064    0.0116   -0.0031    0.0034   -0.0043
          69   -0.0259    0.0005   -0.0320    0.0176   -0.0099    0.0035    0.0025   -0.0043
          70    0.0055    0.0018    0.0158    0.0009   -0.0083    0.0455   -0.0007   -0.0109
          71    0.0507   -0.0340   -0.0341   -0.0184    0.0108    0.0067    0.0724    0.2236
          72    0.0392   -0.0147   -0.0225   -0.0211   -0.0032    0.0065    0.1238    0.0880
          73    0.0130    0.0021   -0.0017    0.0007   -0.0060   -0.0404   -0.0456    0.0024
          74   -0.0364    0.0294    0.1020    0.1077   -0.0331    0.0009    0.0954    0.1473
          75   -0.0033    0.0181    0.0203    0.0402   -0.0050   -0.0160   -0.0067    0.1074
          76    0.0139   -0.0507    0.0788   -0.0297    0.0375   -0.0233    0.0136   -0.0056
          77    0.0590   -0.0101    0.0170    0.0081   -0.0034    0.0033    0.0103   -0.0129
          78   -0.0120    0.0095    0.0273   -0.0315   -0.0221   -0.0051   -0.0025    0.0068
          79   -0.0054    0.0484   -0.0011   -0.0125    0.0695   -0.0053   -0.0132    0.0036
          80    0.0345    0.0933   -0.0191   -0.0288   -0.0264    0.0251   -0.0239    0.0103
          81   -0.0006   -0.0008   -0.0210    0.0342    0.0428    0.0006    0.0050   -0.0131


   Root No.      17        18        19        20        21        22        23        24

                17 A      18 A      19 A      20 A      21 A      22 A      23 A      24 A   

                 803.5     820.8     893.0     905.7     920.4     925.5     952.7     966.6
  
           1   -0.0246    0.0123   -0.0079    0.0077   -0.0121    0.0148    0.0318   -0.0012
           2   -0.0160    0.0069    0.0081   -0.0044   -0.0029    0.0056   -0.0024   -0.0092
           3   -0.0178    0.0123   -0.0028   -0.0042   -0.0040    0.0061    0.0148   -0.0060
           4   -0.0232    0.0167   -0.0138    0.0046    0.0018   -0.0032   -0.0261    0.0009
           5    0.0154   -0.0097    0.0047   -0.0015   -0.0026    0.0042   -0.0003    0.0002
           6    0.0289   -0.0143    0.0091   -0.0021   -0.0003    0.0014    0.0099    0.0024
           7    0.0144   -0.0073    0.0017   -0.0011    0.0102   -0.0142   -0.0097    0.0031
           8   -0.0012    0.0029   -0.0300    0.0065   -0.0046    0.0017    0.0025    0.0161
           9   -0.0087   -0.0033   -0.0097    0.0021   -0.0053    0.0054   -0.0001    0.0004
          10    0.0134   -0.0144    0.0166    0.0014   -0.0112    0.0154    0.0001   -0.0067
          11    0.0082   -0.0050    0.0119   -0.0116    0.0111   -0.0119    0.0014   -0.0017
          12    0.0096   -0.0080    0.0020    0.0271   -0.0160    0.0149   -0.0103   -0.0025
          13   -0.0076   -0.0016    0.0075   -0.0041    0.0011   -0.0011   -0.0081   -0.0046
          14   -0.0150    0.0063    0.0353    0.0101    0.0065   -0.0066    0.0047   -0.0035
          15   -0.0067    0.0069    0.0035    0.0129    0.0018   -0.0026   -0.0063    0.0032
          16   -0.0005   -0.0007    0.0010   -0.0015   -0.0016   -0.0009   -0.0006   -0.0007
          17   -0.0133   -0.0278    0.0004    0.0008    0.0024   -0.0006   -0.0035   -0.0044
          18   -0.0070   -0.0071   -0.0042    0.0005    0.0002    0.0013    0.0026    0.0062
          19    0.0016    0.0042   -0.0056    0.0041    0.0015    0.0026    0.0030    0.0104
          20   -0.0023   -0.0069   -0.0014    0.0034    0.0101   -0.0009    0.0013   -0.0076
          21   -0.0007   -0.0005   -0.0015   -0.0008    0.0002   -0.0010    0.0061    0.0204
          22    0.0135   -0.0021    0.0002   -0.0101    0.0092   -0.0107    0.0007    0.0024
          23   -0.0034   -0.0014   -0.0185   -0.0035   -0.0099    0.0120    0.0043   -0.0153
          24   -0.0019    0.0009   -0.0077   -0.0155    0.0075   -0.0084   -0.0060   -0.0067
          25    0.0042    0.0030   -0.0081    0.0119    0.0125   -0.0270    0.0087   -0.0127
          26    0.0084    0.0142   -0.0150    0.0179    0.0097   -0.0221    0.0112   -0.0027
          27    0.0086    0.0002    0.0144   -0.0121    0.0129   -0.0116    0.0066    0.0043
          28    0.0083   -0.0046    0.0013   -0.0004   -0.0004    0.0007    0.0046    0.0011
          29    0.0048   -0.0020   -0.0097    0.0014   -0.0019    0.0007   -0.0040    0.0092
          30   -0.0091   -0.0006   -0.0020    0.0006   -0.0025    0.0028    0.0028    0.0042
          31   -0.0058   -0.0049    0.0121   -0.0155   -0.0193   -0.0111   -0.0029    0.0008
          32   -0.0034    0.0018    0.0060   -0.0086   -0.0241   -0.0057   -0.0025    0.0066
          33   -0.0006    0.0009    0.0009    0.0019   -0.0042    0.0025   -0.0070   -0.0178
          34   -0.0049    0.0071   -0.0214    0.0204   -0.0407    0.0500    0.1455    0.0094
          35   -0.0199    0.0018   -0.0211   -0.0259    0.0018    0.0050   -0.0635   -0.0042
          36   -0.0261    0.0178    0.0177    0.0006    0.0096   -0.0132   -0.0190   -0.0133
          37   -0.0238    0.0179   -0.0499    0.0406   -0.0024   -0.0061   -0.1150    0.0311
          38    0.0287   -0.0133    0.0060    0.0374   -0.0025   -0.0032   -0.0633    0.0303
          39    0.0199   -0.0109   -0.0130   -0.0044   -0.0015    0.0023   -0.0088    0.0026
          40    0.0250   -0.0160   -0.0081   -0.0454    0.0279   -0.0365   -0.0245    0.0449
          41   -0.0145    0.0079   -0.0702   -0.0143   -0.0131    0.0056   -0.0190    0.0518
          42    0.0022   -0.0090    0.0059   -0.0088    0.0076   -0.0074    0.0037    0.0018
          43    0.0208   -0.0341   -0.0084    0.0833   -0.0697    0.0717   -0.0267   -0.0265
          44    0.0606   -0.0300    0.0550    0.0371    0.0039   -0.0055   -0.0256    0.0070
          45   -0.0245    0.0176   -0.0092   -0.0496    0.0227   -0.0222    0.0201    0.0045
          46    0.0261   -0.0130    0.0324   -0.0672    0.0202   -0.0048    0.0435    0.0251
          47   -0.0572    0.0345   -0.0199   -0.0847    0.0553   -0.0629    0.0009   -0.0174
          48   -0.0176    0.0129   -0.0058   -0.0453    0.0218   -0.0207    0.0135    0.0055
          49    0.0409   -0.0284   -0.0699   -0.0510   -0.0142    0.0179   -0.0269   -0.0244
          50    0.0282   -0.0222   -0.0487   -0.0197   -0.0127    0.0123    0.0123    0.0246
          51    0.0006    0.0078    0.0076   -0.0068    0.0056   -0.0019   -0.0341   -0.0474
          52   -0.0466    0.0209    0.0915    0.0432    0.0251   -0.0317   -0.0279    0.0144
          53   -0.0007   -0.0025   -0.0054   -0.0183   -0.0094    0.0154    0.0264   -0.0267
          54    0.0539   -0.0266   -0.0716    0.0004    0.0016   -0.0115   -0.0541    0.0615
          55   -0.0265   -0.0584   -0.0289    0.0350    0.0776   -0.0025    0.0270   -0.0040
          56    0.0061    0.0103    0.0117   -0.0125   -0.0262    0.0003   -0.0121   -0.0021
          57    0.0720    0.1239   -0.0089    0.0109    0.0277    0.0024    0.0237    0.0109
          58    0.0402    0.0785    0.0125   -0.0140   -0.0471    0.0042   -0.0220   -0.0329
          59    0.0558    0.0890    0.0079   -0.0031    0.0016   -0.0002    0.0052    0.0055
          60   -0.0305   -0.0435   -0.0040   -0.0020   -0.0148    0.0028   -0.0095   -0.0108
          61    0.0000    0.0189   -0.0060   -0.0146   -0.0302    0.0022    0.0292    0.1364
          62    0.0152    0.0332    0.0079   -0.0111   -0.0277    0.0015   -0.0067    0.0056
          63    0.0100    0.0141    0.0035    0.0017   -0.0032    0.0007   -0.0122   -0.0400
          64    0.0459    0.0869    0.0123   -0.0080   -0.0491    0.0122   -0.0371   -0.0725
          65    0.0165    0.0354    0.0075   -0.0114   -0.0265    0.0013   -0.0040    0.0137
          66    0.0060    0.0076    0.0005    0.0032    0.0016    0.0013   -0.0070   -0.0264
          67   -0.0371   -0.0857   -0.0278    0.0397    0.0874   -0.0013    0.0173   -0.0338
          68    0.0158    0.0341    0.0086   -0.0121   -0.0278    0.0011   -0.0061    0.0081
          69    0.0150    0.0246    0.0037   -0.0001   -0.0073    0.0022   -0.0110   -0.0312
          70    0.0089   -0.0035   -0.0186    0.0334   -0.0251    0.0291    0.0163    0.0132
          71    0.0591   -0.0155    0.0027   -0.0408    0.0020    0.0070    0.0136   -0.0582
          72    0.0170   -0.0069    0.0038   -0.0203   -0.0001    0.0053    0.0103   -0.0285
          73    0.0215   -0.0095    0.0030   -0.0087    0.0021   -0.0014    0.0219    0.0000
          74   -0.0078    0.0130    0.1274    0.0785    0.0123   -0.0171    0.0239    0.0694
          75   -0.0310    0.0324    0.0362    0.0103    0.0414   -0.0524   -0.0740    0.0340
          76    0.0189    0.0279   -0.0225    0.0277    0.1193    0.1332   -0.0085   -0.0313
          77    0.0424    0.0602   -0.0192    0.0305    0.1318    0.1317    0.0118    0.0130
          78   -0.0090   -0.0091   -0.0022    0.0028   -0.0131    0.0027   -0.0144   -0.0319
          79   -0.0332   -0.0174    0.0501   -0.0789    0.0196    0.1761   -0.0283    0.0354
          80   -0.0169    0.0089    0.0458   -0.0538    0.0109    0.1885   -0.0451    0.0268
          81    0.0046   -0.0049    0.0115   -0.0170    0.0150   -0.0197    0.0154    0.0103


   Root No.      25        26        27        28        29        30        31        32

                25 A      26 A      27 A      28 A      29 A      30 A      31 A      32 A   

                 971.4     989.2    1017.1    1035.9    1039.6    1043.8    1062.4    1074.6
  
           1   -0.0087   -0.0017    0.0093   -0.0060   -0.0085   -0.0067    0.0077    0.0064
           2    0.0118   -0.0027    0.0120    0.0038    0.0132    0.0125    0.0067   -0.0035
           3   -0.0034    0.0037    0.0139   -0.0008   -0.0096   -0.0211   -0.0040   -0.0228
           4    0.0102   -0.0056    0.0071    0.0010    0.0047    0.0034    0.0064   -0.0091
           5    0.0055   -0.0046   -0.0149    0.0153    0.0144   -0.0132   -0.0082   -0.0218
           6   -0.0014   -0.0082   -0.0086    0.0041    0.0058    0.0082   -0.0037   -0.0045
           7   -0.0072   -0.0031    0.0050   -0.0164   -0.0245    0.0063   -0.0126    0.0200
           8   -0.0131   -0.0091   -0.0119    0.0016    0.0008   -0.0033    0.0063    0.0194
           9   -0.0051    0.0017   -0.0063    0.0008    0.0065   -0.0010    0.0072   -0.0028
          10    0.0095    0.0213   -0.0027    0.0105    0.0171    0.0013    0.0132   -0.0158
          11   -0.0095    0.0221    0.0046   -0.0095   -0.0081    0.0130    0.0103    0.0161
          12    0.0032    0.0053    0.0115   -0.0073   -0.0177   -0.0045   -0.0013    0.0143
          13    0.0057    0.0027    0.0043    0.0058    0.0047   -0.0312   -0.0004    0.0057
          14    0.0064   -0.0079   -0.0178   -0.0032   -0.0099   -0.0026   -0.0007    0.0020
          15    0.0047   -0.0047   -0.0116   -0.0005    0.0032    0.0085    0.0072    0.0166
          16   -0.0011   -0.0020    0.0012    0.0033   -0.0022    0.0006   -0.0005    0.0019
          17   -0.0058   -0.0016   -0.0055   -0.0242    0.0084   -0.0035   -0.0021   -0.0023
          18    0.0027    0.0005   -0.0031   -0.0032    0.0055   -0.0016    0.0023   -0.0005
          19    0.0078    0.0070   -0.0031   -0.0115    0.0042   -0.0016   -0.0002   -0.0029
          20   -0.0028   -0.0036    0.0038    0.0145   -0.0046    0.0018    0.0008    0.0013
          21    0.0164    0.0081    0.0013   -0.0044   -0.0024    0.0000   -0.0016   -0.0002
          22   -0.0094    0.0145   -0.0055   -0.0019   -0.0050    0.0075   -0.0040   -0.0067
          23    0.0180   -0.0092   -0.0015   -0.0071   -0.0152   -0.0106    0.0068    0.0042
          24    0.0023    0.0139   -0.0065   -0.0031   -0.0086   -0.0011   -0.0006   -0.0005
          25   -0.0010   -0.0025    0.0010   -0.0086    0.0062   -0.0040   -0.0013   -0.0077
          26    0.0070    0.0058   -0.0004   -0.0056    0.0069   -0.0039    0.0010   -0.0081
          27    0.0059   -0.0111    0.0059   -0.0004   -0.0010   -0.0012   -0.0030    0.0021
          28   -0.0018   -0.0035   -0.0028   -0.0027   -0.0041    0.0151   -0.0016   -0.0087
          29   -0.0135    0.0104    0.0237    0.0057    0.0206    0.0013   -0.0142    0.0062
          30   -0.0080    0.0009    0.0129   -0.0010    0.0030    0.0173   -0.0141   -0.0166
          31   -0.0023   -0.0068    0.0048    0.0201   -0.0090    0.0048    0.0001    0.0061
          32    0.0023    0.0022    0.0029    0.0181   -0.0082    0.0030    0.0022    0.0038
          33   -0.0138   -0.0039    0.0008    0.0035   -0.0032    0.0004   -0.0008   -0.0003
          34   -0.0304   -0.0346   -0.0451    0.0281    0.0524    0.0030   -0.0440    0.1080
          35    0.0060    0.0008    0.0624   -0.0163   -0.0053    0.0883    0.0544   -0.0476
          36    0.0115    0.0194    0.0176   -0.0092   -0.0340   -0.0659    0.0014   -0.0568
          37    0.0430   -0.0987   -0.0449    0.0152    0.0157    0.0640   -0.0285   -0.0485
          38    0.0013   -0.0350   -0.0115    0.0262   -0.0060   -0.0667   -0.1073   -0.0933
          39    0.0206   -0.0447   -0.0417    0.0059    0.0235    0.0759    0.0323    0.0132
          40   -0.0317   -0.0682   -0.0244   -0.0140   -0.0499   -0.0278   -0.0908    0.0369
          41   -0.0452   -0.0527   -0.0208    0.0208   -0.0529   -0.0500   -0.0425    0.0142
          42   -0.0008   -0.0077   -0.0139   -0.0079    0.0207    0.0059   -0.0039    0.0071
          43    0.0074    0.1187   -0.0824    0.0392   -0.0150    0.0177   -0.0426   -0.0119
          44    0.0037   -0.0378    0.1267   -0.0631   -0.0388   -0.0207    0.0587    0.0558
          45   -0.0038   -0.0167   -0.0146    0.0073    0.0182    0.0057    0.0020   -0.0107
          46    0.0107   -0.0781    0.0288    0.0214    0.0857   -0.0464    0.0639   -0.0510
          47   -0.0269    0.0930   -0.0785    0.0049   -0.0139    0.0796   -0.0378    0.0055
          48   -0.0046   -0.0105   -0.0135    0.0056    0.0150    0.0048    0.0017   -0.0087
          49    0.0218    0.0239    0.0680    0.0197    0.0631   -0.0388   -0.0474    0.0504
          50   -0.0460    0.0114    0.0105    0.0032   -0.0307   -0.0182    0.0525   -0.0749
          51    0.0759   -0.0009    0.0274    0.0073    0.0865    0.0179   -0.0976    0.1407
          52    0.0091   -0.0140   -0.0722    0.0147   -0.0065   -0.0649    0.0519    0.0575
          53    0.0154   -0.0036    0.0372   -0.0151   -0.0045    0.0290   -0.0566   -0.0323
          54   -0.0546    0.0278   -0.0409    0.0349    0.0186   -0.0445    0.1299    0.0300
          55    0.0197   -0.0022    0.0245    0.1000   -0.0290    0.0129    0.0107    0.0095
          56   -0.0109   -0.0008   -0.0114   -0.0500    0.0145   -0.0066   -0.0056   -0.0043
          57    0.0277    0.0040    0.0293    0.1216   -0.0390    0.0162    0.0120    0.0105
          58   -0.0389   -0.0155   -0.0135   -0.0188    0.0186   -0.0074    0.0049    0.0017
          59    0.0134    0.0053    0.0159    0.0380   -0.0250    0.0086   -0.0035    0.0031
          60   -0.0212   -0.0084   -0.0198   -0.0442    0.0311   -0.0111    0.0051   -0.0035
          61    0.0977    0.0578   -0.0091   -0.0782    0.0079   -0.0068   -0.0106   -0.0088
          62   -0.0025    0.0028   -0.0070   -0.0235    0.0080   -0.0032   -0.0012   -0.0018
          63   -0.0317   -0.0156   -0.0015    0.0108    0.0027    0.0000    0.0031    0.0012
          64   -0.0711   -0.0225   -0.0236   -0.0388    0.0324   -0.0088    0.0059   -0.0062
          65    0.0043    0.0059   -0.0059   -0.0238    0.0063   -0.0027   -0.0019   -0.0018
          66   -0.0201   -0.0098   -0.0010    0.0082    0.0022   -0.0001    0.0025    0.0004
          67   -0.0042   -0.0115    0.0187    0.0736   -0.0199    0.0084    0.0061    0.0025
          68   -0.0005    0.0031   -0.0060   -0.0222    0.0065   -0.0027   -0.0017   -0.0011
          69   -0.0261   -0.0117   -0.0031    0.0040    0.0047   -0.0008    0.0027    0.0003
          70    0.0085   -0.0638    0.0036   -0.0169    0.0086    0.1411    0.0538    0.0100
          71    0.0790   -0.0366   -0.0787   -0.0114   -0.0465   -0.0239    0.0408    0.0109
          72    0.0369   -0.0211   -0.0371   -0.0091   -0.0293    0.0047    0.0123   -0.0143
          73   -0.0114    0.0023   -0.0074   -0.0099   -0.0208    0.0273   -0.0195   -0.0337
          74   -0.0760   -0.0108    0.0138    0.0131    0.0270    0.0440   -0.0362   -0.0483
          75   -0.0259    0.0556    0.0051    0.0316    0.0615   -0.0432    0.0370    0.0703
          76   -0.0289   -0.0052   -0.0247   -0.0650    0.0410   -0.0116   -0.0022   -0.0110
          77    0.0199    0.0178    0.0037   -0.0240   -0.0006   -0.0095   -0.0043   -0.0128
          78   -0.0302   -0.0094   -0.0103   -0.0111    0.0123   -0.0009    0.0011   -0.0003
          79   -0.0240   -0.0287   -0.0171    0.0061    0.0101   -0.0070    0.0064    0.0251
          80   -0.0098    0.0164    0.0099    0.0303   -0.0567    0.0203   -0.0143    0.0215
          81    0.0040   -0.0247   -0.0047   -0.0085    0.0253   -0.0121    0.0059    0.0023


   Root No.      33        34        35        36        37        38        39        40

                33 A      34 A      35 A      36 A      37 A      38 A      39 A      40 A   

                1098.0    1115.8    1117.2    1127.3    1132.6    1157.4    1172.3    1181.3
  
           1   -0.0096    0.0052    0.0079    0.0016   -0.0067   -0.0229    0.0085   -0.0154
           2    0.0007   -0.0051   -0.0067   -0.0003    0.0225    0.0060   -0.0045   -0.0125
           3   -0.0124   -0.0090   -0.0142   -0.0036   -0.0026   -0.0072    0.0015   -0.0116
           4    0.0029   -0.0030   -0.0040   -0.0030    0.0127    0.0270    0.0014    0.0061
           5    0.0085   -0.0093   -0.0131   -0.0030    0.0057   -0.0006    0.0032   -0.0036
           6   -0.0077   -0.0104   -0.0154   -0.0033   -0.0008   -0.0113    0.0012   -0.0172
           7   -0.0036    0.0012    0.0005    0.0027    0.0011   -0.0208   -0.0112   -0.0213
           8   -0.0004    0.0157    0.0207    0.0092   -0.0199   -0.0117   -0.0012    0.0068
           9   -0.0021   -0.0006    0.0052   -0.0064    0.0002   -0.0021    0.0147    0.0225
          10   -0.0007    0.0008    0.0012   -0.0013   -0.0006    0.0204   -0.0014    0.0173
          11   -0.0101    0.0056    0.0071    0.0017   -0.0164   -0.0013    0.0017    0.0113
          12   -0.0001   -0.0028   -0.0047   -0.0029   -0.0011    0.0117    0.0044   -0.0017
          13   -0.0076   -0.0110   -0.0163   -0.0039   -0.0063   -0.0065    0.0019   -0.0057
          14    0.0050   -0.0007    0.0001   -0.0015   -0.0006    0.0003    0.0009    0.0035
[...]
 FREQ.      1413.89        C  4 --  H 15           +8.2% ( 35.8%)     1.7%
 T-DIPOLE    0.0459        C  6 --  H 20           +7.6% ( 34.5%)     5.8%
 TRAVEL      0.1010        C  6 --  H 19           +7.3% ( 33.7%)     6.5%
 RED. MASS   0.2430        C  4 --  H 16           +5.8% ( 30.0%)     8.2%
 EFF. MASS   4.6754

 VIBRATION   56   56A       ATOM PAIR        ENERGY CONTRIBUTION    RADIAL
 FREQ.      1421.92        C  6 --  C  7          +13.1% ( 46.7%)    98.1%
 T-DIPOLE    0.0398        C  7 --  H 22          +10.7% ( 42.2%)     3.6%
 TRAVEL      0.0958        C  7 --  H 23           +9.6% ( 40.0%)     2.6%
 RED. MASS   0.5449        C  4 --  H 15           +9.2% ( 39.2%)     3.8%
 EFF. MASS   5.1647

 VIBRATION   57   57A       ATOM PAIR        ENERGY CONTRIBUTION    RADIAL
 FREQ.      1452.00        C  3 --  C  9          +13.5% ( 61.3%)    93.9%
 T-DIPOLE    0.1576        C  1 --  C  3           +9.9% ( 52.6%)    51.1%
 TRAVEL      0.0688        C  2 --  C  3           +9.9% ( 52.4%)    72.4%
 RED. MASS   1.7481        C  3 --  C  4           +9.8% ( 52.4%)    61.7%
 EFF. MASS   9.8250

 VIBRATION   58   58A       ATOM PAIR        ENERGY CONTRIBUTION    RADIAL
 FREQ.      1820.02        C  8 --  C 10          +45.8% (100.1%)   100.0%
 T-DIPOLE    0.1271        C  5 --  C 10          +14.0% ( 55.4%)    26.0%
 TRAVEL      0.0558        C  2 --  C  8          +13.8% ( 55.0%)    25.5%
 RED. MASS   5.3936        C 10 --  H 24          +13.1% ( 53.4%)     9.6%
 EFF. MASS  11.8812        C  8 --  H 25          +12.8% ( 53.0%)     9.8%

 VIBRATION   59   59A       ATOM PAIR        ENERGY CONTRIBUTION    RADIAL
 FREQ.      1890.77        C  9 --  C 11          +43.6% ( 97.6%)    96.4%
 T-DIPOLE    0.1582        C  3 --  C  9          +14.4% ( 56.2%)    55.6%
 TRAVEL      0.0550        C  6 --  C 11          +14.0% ( 55.2%)    54.7%
 RED. MASS   5.3593        C  9 --  H 27          +13.4% ( 54.0%)     3.4%
 EFF. MASS  11.7978        C 11 --  H 26          +13.1% ( 53.4%)     3.7%

 VIBRATION   60   60A       ATOM PAIR        ENERGY CONTRIBUTION    RADIAL
 FREQ.      2937.56        C  3 --  H 14          +94.7% ( 99.6%)   100.0%
 T-DIPOLE    0.0802        C  3 --  C  9           +1.1% ( 10.8%)    13.5%
 TRAVEL      0.1256        C  3 --  C  4           +1.1% ( 10.7%)    13.3%
 RED. MASS   0.9129        C  1 --  C  3           +1.1% ( 10.7%)    15.4%
 EFF. MASS   1.4552

 VIBRATION   61   61A       ATOM PAIR        ENERGY CONTRIBUTION    RADIAL
 FREQ.      2945.15        C  6 --  H 19          +52.2% ( 75.1%)    96.8%
 T-DIPOLE    0.0187        C  6 --  H 20          +45.0% ( 69.7%)    96.1%
 TRAVEL      0.1218        C  6 --  C  7           +1.2% ( 11.2%)     0.0%
 RED. MASS   0.5164        C  6 --  C 11           +1.2% ( 11.1%)     0.2%
 EFF. MASS   1.5437

 VIBRATION   62   62A       ATOM PAIR        ENERGY CONTRIBUTION    RADIAL
 FREQ.      2973.04        C  5 --  H 17          +50.7% ( 73.9%)    97.0%
 T-DIPOLE    0.0362        C  5 --  H 18          +44.9% ( 69.5%)    96.2%
 TRAVEL      0.1213        C  1 --  H 12           +1.9% ( 14.1%)    99.8%
 RED. MASS   0.4980        C  1 --  C  5           +1.2% ( 11.2%)     0.4%
 EFF. MASS   1.5407

 VIBRATION   63   63A       ATOM PAIR        ENERGY CONTRIBUTION    RADIAL
 FREQ.      3000.93        C  2 --  H 13          +64.4% ( 82.2%)   100.0%
 T-DIPOLE    0.1004        C  1 --  H 12          +29.3% ( 55.4%)   100.0%
 TRAVEL      0.1241        C  1 --  C  2           +1.1% ( 10.8%)     1.1%
 RED. MASS   0.5109        C  2 --  C  4           +0.8% (  9.1%)    13.3%
 EFF. MASS   1.4593

 VIBRATION   64   64A       ATOM PAIR        ENERGY CONTRIBUTION    RADIAL
 FREQ.      3007.16        C  1 --  H 12          +63.9% ( 81.7%)   100.0%
 T-DIPOLE    0.1741        C  2 --  H 13          +29.2% ( 55.2%)   100.0%
 TRAVEL      0.1244        C  5 --  H 17           +1.2% ( 11.2%)    99.4%
 RED. MASS   0.5022        C  1 --  C  2           +1.1% ( 10.5%)    86.3%
 EFF. MASS   1.4496

 VIBRATION   65   65A       ATOM PAIR        ENERGY CONTRIBUTION    RADIAL
 FREQ.      3024.42        C  6 --  H 20          +50.9% ( 70.4%)    98.1%
 T-DIPOLE    0.0486        C  6 --  H 19          +44.6% ( 65.9%)    97.3%
 TRAVEL      0.1316        C 11 --  H 26           +1.9% ( 13.6%)    99.8%
 RED. MASS   0.4570        C  9 --  H 27           +0.8% (  8.7%)    99.7%
 EFF. MASS   1.2871

 VIBRATION   66   66A       ATOM PAIR        ENERGY CONTRIBUTION    RADIAL
 FREQ.      3033.81        C  9 --  H 27          +75.9% ( 88.0%)   100.0%
 T-DIPOLE    0.3306        C 11 --  H 26          +21.8% ( 47.2%)   100.0%
 TRAVEL      0.1239        C  3 --  C  9           +1.0% ( 10.1%)    18.1%
 RED. MASS   0.6056        C  9 --  C 11           +0.9% (  9.6%)    39.9%
 EFF. MASS   1.4476

 VIBRATION   67   67A       ATOM PAIR        ENERGY CONTRIBUTION    RADIAL
 FREQ.      3036.11        C 11 --  H 26          +72.8% ( 86.8%)   100.0%
 T-DIPOLE    0.1046        C  9 --  H 27          +20.7% ( 46.2%)    99.8%
 TRAVEL      0.1189        C  9 --  C 11           +2.1% ( 14.6%)    40.0%
 RED. MASS   0.5725        C  6 --  H 20           +2.0% ( 14.4%)    99.4%
 EFF. MASS   1.5697

 VIBRATION   68   68A       ATOM PAIR        ENERGY CONTRIBUTION    RADIAL
 FREQ.      3041.02        C  4 --  H 16          +52.1% ( 75.1%)    97.4%
 T-DIPOLE    0.0971        C  4 --  H 15          +42.2% ( 67.6%)    96.2%
 TRAVEL      0.1199        C  2 --  H 13           +1.7% ( 13.4%)    99.9%
 RED. MASS   0.4989        C  1 --  C  4           +1.1% ( 11.0%)     0.1%
 EFF. MASS   1.5427

 VIBRATION   69   69A       ATOM PAIR        ENERGY CONTRIBUTION    RADIAL
 FREQ.      3050.17        C  5 --  H 18          +53.1% ( 71.9%)    98.0%
 T-DIPOLE    0.0856        C  5 --  H 17          +45.1% ( 66.3%)    97.0%
 TRAVEL      0.1312        C  1 --  C  5           +0.7% (  8.3%)    41.8%
 RED. MASS   0.4828        C  5 --  C 10           +0.7% (  8.2%)    30.9%
 EFF. MASS   1.2840

 VIBRATION   70   70A       ATOM PAIR        ENERGY CONTRIBUTION    RADIAL
 FREQ.      3081.40        C  7 --  H 22          +64.3% ( 82.7%)    98.7%
 T-DIPOLE    0.0096        C  7 --  H 23          +27.8% ( 54.4%)    91.9%
 TRAVEL      0.1207        C  7 --  H 21           +6.6% ( 26.6%)    63.3%
 RED. MASS   0.5229        C  6 --  C  7           +1.0% ( 10.2%)     0.0%
 EFF. MASS   1.5013

 VIBRATION   71   71A       ATOM PAIR        ENERGY CONTRIBUTION    RADIAL
 FREQ.      3086.10        C  7 --  H 21          +58.0% ( 78.5%)    98.2%
 T-DIPOLE    0.0093        C  7 --  H 23          +37.0% ( 62.8%)    94.7%
 TRAVEL      0.1205        C  7 --  H 22           +3.6% ( 19.6%)    43.2%
 RED. MASS   0.5027        C  6 --  C  7           +1.0% ( 10.3%)     0.1%
 EFF. MASS   1.5042

 VIBRATION   72   72A       ATOM PAIR        ENERGY CONTRIBUTION    RADIAL
 FREQ.      3103.46        C  4 --  H 15          +54.6% ( 73.3%)    97.8%
 T-DIPOLE    0.0871        C  4 --  H 16          +43.3% ( 65.3%)    96.3%
 TRAVEL      0.1302        C  1 --  C  4           +0.7% (  8.2%)    99.5%
 RED. MASS   0.4894        C  2 --  C  4           +0.7% (  8.2%)    49.4%
 EFF. MASS   1.2820

 VIBRATION   73   73A       ATOM PAIR        ENERGY CONTRIBUTION    RADIAL
 FREQ.      3115.08        C 10 --  H 24          +61.0% ( 79.3%)   100.0%
 T-DIPOLE    0.3609        C  8 --  H 25          +36.4% ( 61.3%)   100.0%
 TRAVEL      0.1215        C  8 --  C 10           +1.1% ( 10.8%)     1.4%
 RED. MASS   0.4946        C  5 --  C 10           +0.9% (  9.8%)    25.9%
 EFF. MASS   1.4658

 VIBRATION   74   74A       ATOM PAIR        ENERGY CONTRIBUTION    RADIAL
 FREQ.      3134.44        C  8 --  H 25          +60.0% ( 78.9%)    99.9%
 T-DIPOLE    0.3565        C 10 --  H 24          +35.6% ( 60.7%)    99.9%
 TRAVEL      0.1144        C  8 --  C 10           +2.4% ( 15.9%)    98.3%
 RED. MASS   0.4961        C  2 --  C  8           +1.1% ( 10.9%)    20.8%
 EFF. MASS   1.6434

 VIBRATION   75   75A       ATOM PAIR        ENERGY CONTRIBUTION    RADIAL
 FREQ.      3183.12        C  7 --  H 21          +34.5% ( 56.5%)    97.3%
 T-DIPOLE    0.0196        C  7 --  H 23          +34.4% ( 56.5%)    97.3%
 TRAVEL      0.1366        C  7 --  H 22          +30.8% ( 53.4%)    96.7%
 RED. MASS   0.3277        C  6 --  C  7           +0.3% (  5.1%)    99.8%
 EFF. MASS   1.1360

 SYMMETRY NUMBER FOR POINT-GROUP C1  =  1


          SYSTEM IS A GROUND STATE


    NULL



          MOLECULE IS NOT LINEAR

          THERE ARE 75 GENUINE VIBRATIONS IN THIS SYSTEM
          THIS THERMODYNAMICS CALCULATION IS LIMITED TO
          MOLECULES WHICH HAVE NO INTERNAL ROTATIONS




                    CALCULATED THERMODYNAMIC PROPERTIES
                                          *
   TEMP. (K)   PARTITION FUNCTION   H.O.F.    ENTHALPY  HEAT CAPACITY ENTROPY
                                   KCAL/MOL   CAL/MOLE    CAL/K/MOL  CAL/K/MOL


 298.00  VIB.     0.1614D+04                  4948.4201    35.3786    31.2844
         ROT.     0.1082D+07                   888.2813     2.9808    30.5917
         INT.     0.1747D+10                  5836.7014    38.3594    61.8761
         TRA.     0.1745D+28                  1480.4688     4.9680    40.8894
         TOT.                       19.433    7317.1702    43.3274   102.7655

 200.00  VIB.     0.1076D+03                  2183.3292    21.6583    20.2144
         ROT.     0.5949D+06                   596.1620     2.9808    29.4031
         INT.     0.6404D+08                  2779.4912    24.6391    49.6175
         TRA.     0.9595D+27                   993.6033     4.9680    38.9082
         TOT.                       15.889    3773.0944    29.6071    88.5257

 210.00  VIB.     0.1417D+03                  2405.9297    22.8702    21.3002
         ROT.     0.6401D+06                   625.9700     2.9808    29.5485
         INT.     0.9067D+08                  3031.8997    25.8510    50.8487
         TRA.     0.1032D+28                  1043.2834     4.9680    39.1506
         TOT.                       16.191    4075.1831    30.8190    89.9993

 220.00  VIB.     0.1864D+03                  2640.9015    24.1325    22.3931
         ROT.     0.6863D+06                   655.7781     2.9808    29.6872
         INT.     0.1279D+09                  3296.6796    27.1133    52.0802
         TRA.     0.1107D+28                  1092.9636     4.9680    39.3817
         TOT.                       16.505    4389.6432    32.0813    91.4620

 230.00  VIB.     0.2453D+03                  2888.7431    25.4439    23.4946
         ROT.     0.7337D+06                   685.5862     2.9808    29.8197
         INT.     0.1800D+09                  3574.3294    28.4247    53.3142
         TRA.     0.1183D+28                  1142.6437     4.9680    39.6026
         TOT.                       16.832    4716.9731    33.3927    92.9168

 240.00  VIB.     0.3230D+03                  3149.9341    26.8018    24.6060
         ROT.     0.7820D+06                   715.3943     2.9808    29.9465
         INT.     0.2526D+09                  3865.3285    29.7826    54.5525
         TRA.     0.1261D+28                  1192.3239     4.9680    39.8140
         TOT.                       17.173    5057.6524    34.7507    94.3665

 250.00  VIB.     0.4254D+03                  3424.9232    28.2028    25.7284
         ROT.     0.8314D+06                   745.2024     2.9808    30.0682
         INT.     0.3537D+09                  4170.1256    31.1836    55.7966
         TRA.     0.1341D+28                  1242.0041     4.9680    40.0168
         TOT.                       17.528    5412.1297    36.1516    95.8134

 260.00  VIB.     0.5607D+03                  3714.1196    29.6425    26.8624
         ROT.     0.8818D+06                   775.0105     2.9808    30.1851
         INT.     0.4944D+09                  4489.1301    32.6233    57.0475
         TRA.     0.1422D+28                  1291.6842     4.9680    40.2117
         TOT.                       17.896    5780.8143    37.5913    97.2592

 270.00  VIB.     0.7396D+03                  4017.8866    31.1161    28.0087
         ROT.     0.9332D+06                   804.8186     2.9808    30.2976
         INT.     0.6901D+09                  4822.7053    34.0969    58.3063
         TRA.     0.1505D+28                  1341.3644     4.9680    40.3992
         TOT.                       18.280    6164.0697    39.0649    98.7054

 280.00  VIB.     0.9764D+03                  4336.5379    32.6185    29.1674
         ROT.     0.9855D+06                   834.6267     2.9808    30.4060
         INT.     0.9622D+09                  5171.1646    35.5993    59.5734
         TRA.     0.1589D+28                  1391.0445     4.9680    40.5798
         TOT.                       18.678    6562.2092    40.5673   100.1532

 290.00  VIB.     0.1291D+04                  4670.3350    34.1444    30.3386
         ROT.     0.1039D+07                   864.4348     2.9808    30.5106
         INT.     0.1341D+10                  5534.7698    37.1252    60.8492
         TRA.     0.1675D+28                  1440.7247     4.9680    40.7542
         TOT.                       19.091    6975.4945    42.0932   101.6033

 300.00  VIB.     0.1708D+04                  5019.4872    35.6887    31.5221
         ROT.     0.1093D+07                   894.2429     2.9808    30.6117
         INT.     0.1866D+10                  5913.7301    38.6695    62.1338
         TRA.     0.1763D+28                  1490.4049     4.9680    40.9226
         TOT.                       19.520    7404.1350    43.6375   103.0563

 310.00  VIB.     0.2262D+04                  5384.1525    37.2462    32.7177
         ROT.     0.1148D+07                   924.0510     2.9808    30.7094
         INT.     0.2597D+10                  6308.2035    40.2270    63.4271
         TRA.     0.1851D+28                  1540.0850     4.9680    41.0855
         TOT.                       19.964    7848.2886    45.1950   104.5126

 320.00  VIB.     0.3001D+04                  5764.4393    38.8122    33.9249
         ROT.     0.1204D+07                   953.8591     2.9808    30.8040
         INT.     0.3613D+10                  6718.2984    41.7930    64.7289
         TRA.     0.1942D+28                  1589.7652     4.9680    41.2432
         TOT.                       20.424    8308.0636    46.7610   105.9722

 330.00  VIB.     0.3987D+04                  6160.4090    40.3821    35.1432
         ROT.     0.1261D+07                   983.6672     2.9808    30.8958
         INT.     0.5027D+10                  7144.0763    43.3629    66.0390
         TRA.     0.2034D+28                  1639.4454     4.9680    41.3961
         TOT.                       20.899    8783.5216    48.3309   107.4351

 340.00  VIB.     0.5303D+04                  6572.0798    41.9517    36.3721
         ROT.     0.1319D+07                  1013.4753     2.9808    30.9848
         INT.     0.6993D+10                  7585.5552    44.9325    67.3568
         TRA.     0.2127D+28                  1689.1255     4.9680    41.5444
         TOT.                       21.390    9274.6807    49.9005   108.9012

 350.00  VIB.     0.7065D+04                  6999.4295    43.5172    37.6108
         ROT.     0.1377D+07                  1043.2834     2.9808    31.0712
         INT.     0.9730D+10                  8042.7130    46.4981    68.6819
         TRA.     0.2221D+28                  1738.8057     4.9680    41.6884
         TOT.                       21.897    9781.5186    51.4661   110.3703

 360.00  VIB.     0.9425D+04                  7442.3997    45.0753    38.8585
         ROT.     0.1437D+07                  1073.0915     2.9808    31.1551
         INT.     0.1354D+11                  8515.4912    48.0561    70.0137
         TRA.     0.2317D+28                  1788.4859     4.9680    41.8284
         TOT.                       22.419   10303.9770    53.0241   111.8420

 370.00  VIB.     0.1259D+05                  7900.8992    46.6227    40.1147
         ROT.     0.1497D+07                  1102.8996     2.9808    31.2368
         INT.     0.1885D+11                  9003.7988    49.6035    71.3515
         TRA.     0.2414D+28                  1838.1660     4.9680    41.9645
         TOT.                       22.957   10841.9649    54.5715   113.3160

 380.00  VIB.     0.1685D+05                  8374.8084    48.1568    41.3784
         ROT.     0.1558D+07                  1132.7077     2.9808    31.3163
         INT.     0.2625D+11                  9507.5161    51.1376    72.6947
         TRA.     0.2513D+28                  1887.8462     4.9680    42.0970
         TOT.                       23.511   11395.3622    56.1056   114.7917

 390.00  VIB.     0.2257D+05                  8863.9821    49.6752    42.6490
         ROT.     0.1620D+07                  1162.5158     2.9808    31.3937
         INT.     0.3657D+11                 10026.4979    52.6560    74.0427
         TRA.     0.2613D+28                  1937.5263     4.9680    42.2260
         TOT.                       24.080   11964.0242    57.6240   116.2687

 400.00  VIB.     0.3029D+05                  9368.2535    51.1760    43.9256
         ROT.     0.1683D+07                  1192.3239     2.9808    31.4692
         INT.     0.5096D+11                 10560.5774    54.1568    75.3948
         TRA.     0.2714D+28                  1987.2065     4.9680    42.3518
         TOT.                       24.663   12547.7839    59.1248   117.7466

   *: NOTE: HEATS OF FORMATION ARE RELATIVE TO THE
            ELEMENTS IN THEIR STANDARD STATE AT 298K
              (=  Standard Enthalpy of Formation).

            Hvib:  Zero-point energy is not included.
                   frequencies of less than zero cm-1 are not included.
            Hrot = (3/2)RT
            Htra = (3/2)RT + pV = (5/2)RT

            Heat capacity is Cp, not Cv

           For more information, see: HTTP://OpenMOPAC.net/Manual/thermochemistry.html


           FORCE CONSTANT IN CARTESIAN COORDINATES (Millidynes/A)

    ATOM   CHEMICAL       X               Y               Z
   NUMBER   SYMBOL  FORCE CONSTANT  FORCE CONSTANT  FORCE CONSTANT

      1       C        7.561183        7.869528        8.985190
      2       C        7.581705        8.189083        9.576555
      3       C        7.873915        7.835750        9.343368
      4       C        7.682921        7.909096        8.680691
      5       C        9.458588        8.128434        7.711645
      6       C        8.405114        8.193394        8.826338
      7       C        8.290850        8.234661        8.324574
      8       C       14.537379        4.084752        8.908316
      9       C        8.944790        9.122416        9.366787
     10       C       11.856845        4.486367       10.931954
     11       C        9.002576        8.935740        9.263117
     12       H        1.517213        1.451766        3.434477
     13       H        1.566961        1.533859        3.231554
     14       H        1.284989        1.386788        3.567439
     15       H        1.526421        1.536911        3.563338
     16       H        1.424808        1.370943        3.827529
     17       H        2.055445        2.286818        2.028557
     18       H        1.777323        3.775677        0.831904
     19       H        1.203172        4.396915        0.679551
     20       H        1.033073        1.745551        3.622784
     21       H        1.442820        1.602859        3.749939
     22       H        1.117001        1.873317        3.795968
     23       H        1.319982        4.780004        0.685105
     24       H        0.713547        1.313244        4.396329
     25       H        4.965791        0.456765        0.992246
     26       H        1.022521        1.063040        4.130597
     27       H        1.007058        1.077202        4.123607



 TOTAL CPU TIME:             5.57 SECONDS

 == MOPAC DONE ==
