 *******************************************************************************
 ** Site#: 14399           For non-commercial use only        Version 13.159M **
 *******************************************************************************
 ** Cite this work as: MOPAC2012, James J. P. Stewart, Stewart Computational  **
 ** Chemistry, Version 13.159M web: HTTP://OpenMOPAC.net  Days remaining:   6 **
 *******************************************************************************
 **                                                                           **
 **                                MOPAC2012                                  **
 **                                                                           **
 *******************************************************************************

                            PM3 CALCULATION RESULTS


 *******************************************************************************
 *  CALCULATION DONE:                                Mon Jun  2 11:13:37 2014  *
 *  PM3      - The PM3 Hamiltonian to be used
 *  PRECISE  - CRITERIA TO BE INCREASED BY 100 TIMES
 *  NOSYM    - POINT-GROUP SYMMETRY SET TO C1
 *  T=       - A TIME OF 172800.0 SECONDS REQUESTED
 *  DUMP=N   - RESTART FILE WRITTEN EVERY  7200.000 SECONDS
 *******************************************************************************
pm3  precise nosym
 InChI=1S/C10H14/c1-3-6-9(2)10-7-4-5-8-10/h4-8,10H,3H2,1-2H3

   ATOM   CHEMICAL          X               Y               Z
  NUMBER   SYMBOL      (ANGSTROMS)     (ANGSTROMS)     (ANGSTROMS)
 
     1       C          1.20790000  *   0.45370000  *  -0.88930000  *
     2       C         -2.49340000  *  -0.42300000  *  -0.00920000  *
     3       C         -3.72530000  *  -0.21580000  *  -0.88300000  *
     4       C          0.18480000  *  -0.61080000  *   1.27650000  *
     5       C          0.00320000  *  -0.04150000  *  -0.11210000  *
     6       C         -1.22100000  *   0.03420000  *  -0.67610000  *
     7       C          2.26440000  *  -0.59530000  *  -1.05090000  *
     8       C          1.98060000  *   1.50430000  *  -0.15300000  *
     9       C          3.40670000  *  -0.20640000  *  -0.50890000  *
    10       C          3.22780000  *   1.11690000  *   0.05700000  *
    11       H          0.95010000  *   0.85080000  *  -1.89930000  *
    12       H         -2.41710000  *  -1.50770000  *   0.23430000  *
    13       H         -2.64010000  *   0.14220000  *   0.93990000  *
    14       H         -3.63880000  *  -0.79280000  *  -1.83210000  *
    15       H         -3.86260000  *   0.86330000  *  -1.12390000  *
    16       H         -4.63450000  *  -0.56860000  *  -0.34540000  *
    17       H         -0.16070000  *  -1.66850000  *   1.31030000  *
    18       H         -0.38500000  *  -0.00920000  *   2.02000000  *
    19       H          1.24670000  *  -0.60970000  *   1.60960000  *
    20       H          2.12450000  *  -1.54670000  *  -1.55420000  *
    21       H          1.58240000  *   2.46400000  *   0.16100000  *
    22       H         -1.31140000  *   0.45130000  *  -1.67990000  *
    23       H          4.32360000  *  -0.78620000  *  -0.49840000  *
    24       H          3.98740000  *   1.70130000  *   0.56540000  *
 


          CARTESIAN COORDINATES 

    NO.       ATOM         X         Y         Z

     1         C        1.2079    0.4537   -0.8893
     2         C       -2.4934   -0.4230   -0.0092
     3         C       -3.7253   -0.2158   -0.8830
     4         C        0.1848   -0.6108    1.2765
     5         C        0.0032   -0.0415   -0.1121
     6         C       -1.2210    0.0342   -0.6761
     7         C        2.2644   -0.5953   -1.0509
     8         C        1.9806    1.5043   -0.1530
     9         C        3.4067   -0.2064   -0.5089
    10         C        3.2278    1.1169    0.0570
    11         H        0.9501    0.8508   -1.8993
    12         H       -2.4171   -1.5077    0.2343
    13         H       -2.6401    0.1422    0.9399
    14         H       -3.6388   -0.7928   -1.8321
    15         H       -3.8626    0.8633   -1.1239
    16         H       -4.6345   -0.5686   -0.3454
    17         H       -0.1607   -1.6685    1.3103
    18         H       -0.3850   -0.0092    2.0200
    19         H        1.2467   -0.6097    1.6096
    20         H        2.1245   -1.5467   -1.5542
    21         H        1.5824    2.4640    0.1610
    22         H       -1.3114    0.4513   -1.6799
    23         H        4.3236   -0.7862   -0.4984
    24         H        3.9874    1.7013    0.5654

  H: (PM3): J. J. P. STEWART, J. COMP. CHEM. 10, 209 (1989).
  C: (PM3): J. J. P. STEWART, J. COMP. CHEM. 10, 209 (1989).

           Empirical Formula: C10 H14  =    24 atoms



      MOLECULAR POINT GROUP   :   C1  


      RHF CALCULATION, NO. OF DOUBLY OCCUPIED LEVELS =   27

      Geometry optimization using EF

          DIAGONAL MATRIX USED AS START HESSIAN

 CYCLE:     1 TIME:   0.014 TIME LEFT:  2.00D  GRAD.:   113.924 HEAT: 35.40026
 CYCLE:     2 TIME:   0.029 TIME LEFT:  2.00D  GRAD.:    67.488 HEAT: 33.28664
 CYCLE:     3 TIME:   0.012 TIME LEFT:  2.00D  GRAD.:    29.430 HEAT: 31.79024
 CYCLE:     4 TIME:   0.019 TIME LEFT:  2.00D  GRAD.:    36.251 HEAT: 31.47601
 CYCLE:     5 TIME:   0.009 TIME LEFT:  2.00D  GRAD.:    23.887 HEAT: 31.01734
 CYCLE:     6 TIME:   0.022 TIME LEFT:  2.00D  GRAD.:    20.107 HEAT: 30.81162
 CYCLE:     7 TIME:   0.012 TIME LEFT:  2.00D  GRAD.:    28.376 HEAT: 30.63346
 CYCLE:     8 TIME:   0.012 TIME LEFT:  2.00D  GRAD.:    42.502 HEAT: 30.62368
 CYCLE:     9 TIME:   0.015 TIME LEFT:  2.00D  GRAD.:    23.565 HEAT: 30.38017
 CYCLE:    10 TIME:   0.019 TIME LEFT:  2.00D  GRAD.:    17.977 HEAT: 30.27764
 CYCLE:    11 TIME:   0.008 TIME LEFT:  2.00D  GRAD.:    12.954 HEAT: 30.21508
 CYCLE:    12 TIME:   0.020 TIME LEFT:  2.00D  GRAD.:    12.833 HEAT: 30.20126
 CYCLE:    13 TIME:   0.010 TIME LEFT:  2.00D  GRAD.:    11.160 HEAT: 30.17851
 CYCLE:    14 TIME:   0.008 TIME LEFT:  2.00D  GRAD.:    14.869 HEAT: 30.17032
 CYCLE:    15 TIME:   0.009 TIME LEFT:  2.00D  GRAD.:    13.851 HEAT: 30.16130
 CYCLE:    16 TIME:   0.011 TIME LEFT:  2.00D  GRAD.:    11.119 HEAT: 30.13888
 CYCLE:    17 TIME:   0.015 TIME LEFT:  2.00D  GRAD.:     5.609 HEAT: 30.11186
 CYCLE:    18 TIME:   0.019 TIME LEFT:  2.00D  GRAD.:     4.239 HEAT: 30.10454
 CYCLE:    19 TIME:   0.008 TIME LEFT:  2.00D  GRAD.:     2.794 HEAT: 30.09685
 CYCLE:    20 TIME:   0.008 TIME LEFT:  2.00D  GRAD.:     7.139 HEAT: 30.08828
 CYCLE:    21 TIME:   0.008 TIME LEFT:  2.00D  GRAD.:     5.056 HEAT: 30.07140
 CYCLE:    22 TIME:   0.008 TIME LEFT:  2.00D  GRAD.:     5.568 HEAT: 30.07015
 CYCLE:    23 TIME:   0.009 TIME LEFT:  2.00D  GRAD.:     3.116 HEAT: 30.06332
 CYCLE:    24 TIME:   0.010 TIME LEFT:  2.00D  GRAD.:     3.563 HEAT: 30.06329
 CYCLE:    25 TIME:   0.008 TIME LEFT:  2.00D  GRAD.:     1.865 HEAT: 30.06012
 CYCLE:    26 TIME:   0.008 TIME LEFT:  2.00D  GRAD.:     2.947 HEAT: 30.06108
 CYCLE:    27 TIME:   0.008 TIME LEFT:  2.00D  GRAD.:     0.757 HEAT: 30.05861
 CYCLE:    28 TIME:   0.008 TIME LEFT:  2.00D  GRAD.:     0.784 HEAT: 30.05830
 CYCLE:    29 TIME:   0.008 TIME LEFT:  2.00D  GRAD.:     0.556 HEAT: 30.05782
 CYCLE:    30 TIME:   0.009 TIME LEFT:  2.00D  GRAD.:     1.320 HEAT: 30.05762
 CYCLE:    31 TIME:   0.012 TIME LEFT:  2.00D  GRAD.:     0.681 HEAT: 30.05711
 CYCLE:    32 TIME:   0.012 TIME LEFT:  2.00D  GRAD.:     0.757 HEAT: 30.05693
 CYCLE:    33 TIME:   0.012 TIME LEFT:  2.00D  GRAD.:     0.347 HEAT: 30.05663
 CYCLE:    34 TIME:   0.012 TIME LEFT:  2.00D  GRAD.:     0.487 HEAT: 30.05627
 CYCLE:    35 TIME:   0.010 TIME LEFT:  2.00D  GRAD.:     0.554 HEAT: 30.05592
 CYCLE:    36 TIME:   0.008 TIME LEFT:  2.00D  GRAD.:     0.402 HEAT: 30.05557
 CYCLE:    37 TIME:   0.009 TIME LEFT:  2.00D  GRAD.:     0.446 HEAT: 30.05523
 CYCLE:    38 TIME:   0.011 TIME LEFT:  2.00D  GRAD.:     0.518 HEAT: 30.05493
 CYCLE:    39 TIME:   0.008 TIME LEFT:  2.00D  GRAD.:     0.480 HEAT: 30.05468
 CYCLE:    40 TIME:   0.011 TIME LEFT:  2.00D  GRAD.:     0.228 HEAT: 30.05451
 CYCLE:    41 TIME:   0.009 TIME LEFT:  2.00D  GRAD.:     0.220 HEAT: 30.05441
 CYCLE:    42 TIME:   0.008 TIME LEFT:  2.00D  GRAD.:     0.204 HEAT: 30.05433
 CYCLE:    43 TIME:   0.008 TIME LEFT:  2.00D  GRAD.:     0.159 HEAT: 30.05428
 CYCLE:    44 TIME:   0.010 TIME LEFT:  2.00D  GRAD.:     0.162 HEAT: 30.05422
 CYCLE:    45 TIME:   0.011 TIME LEFT:  2.00D  GRAD.:     0.167 HEAT: 30.05418
 CYCLE:    46 TIME:   0.011 TIME LEFT:  2.00D  GRAD.:     0.148 HEAT: 30.05412
 CYCLE:    47 TIME:   0.011 TIME LEFT:  2.00D  GRAD.:     0.112 HEAT: 30.05409
 CYCLE:    48 TIME:   0.012 TIME LEFT:  2.00D  GRAD.:     0.104 HEAT: 30.05405
 CYCLE:    49 TIME:   0.010 TIME LEFT:  2.00D  GRAD.:     0.077 HEAT: 30.05404
 CYCLE:    50 TIME:   0.009 TIME LEFT:  2.00D  GRAD.:     0.054 HEAT: 30.05403
 CYCLE:    51 TIME:   0.008 TIME LEFT:  2.00D  GRAD.:     0.072 HEAT: 30.05402
 CYCLE:    52 TIME:   0.008 TIME LEFT:  2.00D  GRAD.:     0.062 HEAT: 30.05402
 CYCLE:    53 TIME:   0.012 TIME LEFT:  2.00D  GRAD.:     0.051 HEAT: 30.05401
 CYCLE:    54 TIME:   0.008 TIME LEFT:  2.00D  GRAD.:     0.037 HEAT: 30.05400

     RMS GRADIENT =  0.03673  IS LESS THAN CUTOFF =  0.05000



 -------------------------------------------------------------------------------
pm3  precise nosym
 InChI=1S/C10H14/c1-3-6-9(2)10-7-4-5-8-10/h4-8,10H,3H2,1-2H3



     GEOMETRY OPTIMISED USING EIGENVECTOR FOLLOWING (EF).     
     SCF FIELD WAS ACHIEVED                                   


                              PM3 CALCULATION
                                                       MOPAC2012 (Version: 13.159M)
                                                       Mon Jun  2 11:13:37 2014
                                                       No. of days left =   6




          FINAL HEAT OF FORMATION =         30.05400 KCAL/MOL =     125.74595 KJ/MOL


          TOTAL ENERGY            =      -1399.75839 EV
          ELECTRONIC ENERGY       =      -7675.04271 EV  POINT GROUP:     C1  
          CORE-CORE REPULSION     =       6275.28432 EV
          COSMO AREA              =        194.13 SQUARE ANGSTROMS
          COSMO VOLUME            =        196.52 CUBIC ANGSTROMS

          GRADIENT NORM           =          0.03673
          IONIZATION POTENTIAL    =          9.198926 EV
          HOMO LUMO ENERGIES (EV) =         -9.199  0.302
          NO. OF FILLED LEVELS    =         27
          MOLECULAR WEIGHT        =        134.221

          MOLECULAR DIMENSIONS (Angstroms)

            Atom       Atom       Distance
            H    16    H    23     8.98028
            H    21    H    20     4.36704
            H    18    H    11     3.87819


          SCF CALCULATIONS        =         64
          COMPUTATION TIME        =          0.616 SECONDS




   ATOM   CHEMICAL          X               Y               Z
  NUMBER   SYMBOL      (ANGSTROMS)     (ANGSTROMS)     (ANGSTROMS)
 
     1       C          1.19391294  *   0.43765277  *  -0.85568738  *
     2       C         -2.47620203  *  -0.41746099  *  -0.01564358  *
     3       C         -3.69642763  *  -0.21127670  *  -0.88593430  *
     4       C          0.19249633  *  -0.59828086  *   1.24916888  *
     5       C         -0.01478848  *  -0.04331191  *  -0.11297479  *
     6       C         -1.22756749  *   0.03606718  *  -0.68132329  *
     7       C          2.24573842  *  -0.63465149  *  -1.03707732  *
     8       C          1.95522105  *   1.51657937  *  -0.11719106  *
     9       C          3.41934175  *  -0.20782358  *  -0.52244561  *
    10       C          3.23865887  *   1.13015320  *   0.04965596  *
    11       H          0.90986818  *   0.83009920  *  -1.86303937  *
    12       H         -2.37906697  *  -1.48896933  *   0.25818523  *
    13       H         -2.59745802  *   0.12307768  *   0.94646214  *
    14       H         -3.61984993  *  -0.76584110  *  -1.83046777  *
    15       H         -3.83938822  *   0.84718382  *  -1.14042785  *
    16       H         -4.60729001  *  -0.55263428  *  -0.37778861  *
    17       H         -0.15457186  *  -1.63999562  *   1.30566965  *
    18       H         -0.37141572  *  -0.02315764  *   1.99752474  *
    19       H          1.25063024  *  -0.58183298  *   1.54252242  *
    20       H          2.03048825  *  -1.58449298  *  -1.52093694  *
    21       H          1.48641963  *   2.44452768  *   0.20182605  *
    22       H         -1.33806156  *   0.45322559  *  -1.69109616  *
    23       H          4.37007709  *  -0.73707902  *  -0.51301513  *
    24       H          4.04247107  *   1.68925982  *   0.52440202  *

           Empirical Formula: C10 H14  =    24 atoms



      MOLECULAR POINT GROUP   :   C1  


                  EIGENVALUES  
 -40.95564 -36.83562 -32.05129 -27.27241 -27.25864 -25.70322 -22.06354 -19.18297
 -18.60598 -18.21766 -17.72138 -16.45388 -15.63743 -15.35827 -14.12352 -13.91943
 -13.80231 -13.45202 -13.16383 -12.96971 -12.81997 -12.60321 -12.15037 -12.05658
 -11.04399  -9.58901  -9.19893   0.30169   0.94632   2.01615   3.16319   3.38557
   3.48299   3.61344   3.76267   3.89627   3.94608   3.95247   3.99349   4.14204
   4.28655   4.34712   4.42694   4.51294   4.57333   4.63248   4.77902   4.87107
   4.89276   5.53521   5.77520   5.87931   5.99870   6.14163


              NET ATOMIC CHARGES AND DIPOLE CONTRIBUTIONS

  ATOM NO.   TYPE          CHARGE      No. of ELECS.   s-Pop       p-Pop       
    1          C           0.008437        3.9916     1.15372     2.83784
    2          C          -0.059588        4.0596     1.14382     2.91577
    3          C          -0.107705        4.1077     1.13856     2.96915
    4          C          -0.073424        4.0734     1.12448     2.94895
    5          C          -0.099632        4.0996     1.19120     2.90843
    6          C          -0.158498        4.1585     1.19847     2.96003
    7          C          -0.151181        4.1512     1.20928     2.94190
    8          C          -0.151166        4.1512     1.20927     2.94189
    9          C          -0.122256        4.1223     1.19292     2.92933
   10          C          -0.122254        4.1223     1.19292     2.92933
   11          H           0.092139        0.9079     0.90786
   12          H           0.056131        0.9439     0.94387
   13          H           0.056130        0.9439     0.94387
   14          H           0.038856        0.9611     0.96114
   15          H           0.038841        0.9612     0.96116
   16          H           0.037372        0.9626     0.96263
   17          H           0.046185        0.9538     0.95382
   18          H           0.046190        0.9538     0.95381
   19          H           0.055795        0.9442     0.94421
   20          H           0.118514        0.8815     0.88149
   21          H           0.118511        0.8815     0.88149
   22          H           0.104571        0.8954     0.89543
   23          H           0.114015        0.8860     0.88598
   24          H           0.114015        0.8860     0.88599
 DIPOLE           X         Y         Z       TOTAL
 POINT-CHG.    -0.420    -0.102     0.106     0.445
 HYBRID         0.015     0.033    -0.072     0.080
 SUM           -0.405    -0.070     0.035     0.412


          ATOMIC ORBITAL ELECTRON POPULATIONS

    Atom      s        px        py        pz   
    1  C   1.15372   0.93362   0.93126   0.97296
    2  C   1.14382   0.93180   1.00453   0.97943
    3  C   1.13856   0.96884   1.00895   0.99136
    4  C   1.12448   1.02024   0.99295   0.93576
    5  C   1.19120   0.93579   1.00559   0.96705
    6  C   1.19847   0.94404   1.01890   0.99710
    7  C   1.20928   0.95632   0.98120   1.00439
    8  C   1.20927   0.96123   0.98542   0.99524
    9  C   1.19292   0.97512   0.95929   0.99492
   10  C   1.19292   0.96706   0.96030   1.00198
   11  H   0.90786
   12  H   0.94387
   13  H   0.94387
   14  H   0.96114
   15  H   0.96116
   16  H   0.96263
   17  H   0.95382
   18  H   0.95381
   19  H   0.94421
   20  H   0.88149
   21  H   0.88149
   22  H   0.89543
   23  H   0.88598
   24  H   0.88599
 *******************************************************************************
 ** Site#: 14399           For non-commercial use only        Version 13.159M **
 *******************************************************************************
 ** Cite this work as: MOPAC2012, James J. P. Stewart, Stewart Computational  **
 ** Chemistry, Version 13.159M web: HTTP://OpenMOPAC.net  Days remaining:   6 **
 *******************************************************************************
 **                                                                           **
 **                                MOPAC2012                                  **
 **                                                                           **
 *******************************************************************************

                            PM3 CALCULATION RESULTS


 *******************************************************************************
 *  CALCULATION DONE:                                Mon Jun  2 11:13:37 2014  *
 *  PM3      - The PM3 Hamiltonian to be used
 *  OLDGEO   - PREVIOUS GEOMETRY TO BE USED
 *  PRECISE  - CRITERIA TO BE INCREASED BY 100 TIMES
 *  NOSYM    - POINT-GROUP SYMMETRY SET TO C1
 *  T=       - A TIME OF 172800.0 SECONDS REQUESTED
 *  DUMP=N   - RESTART FILE WRITTEN EVERY  7200.000 SECONDS
 *  THERMO   - THERMODYNAMIC QUANTITIES TO BE CALCULATED
 *******************************************************************************
oldgeo thermo nosym precise  pm3

   ATOM   CHEMICAL          X               Y               Z
  NUMBER   SYMBOL      (ANGSTROMS)     (ANGSTROMS)     (ANGSTROMS)
 
     1       C          1.19391294  *   0.43765277  *  -0.85568738  *
     2       C         -2.47620203  *  -0.41746099  *  -0.01564358  *
     3       C         -3.69642763  *  -0.21127670  *  -0.88593430  *
     4       C          0.19249633  *  -0.59828086  *   1.24916888  *
     5       C         -0.01478848  *  -0.04331191  *  -0.11297479  *
     6       C         -1.22756749  *   0.03606718  *  -0.68132329  *
     7       C          2.24573842  *  -0.63465149  *  -1.03707732  *
     8       C          1.95522105  *   1.51657937  *  -0.11719106  *
     9       C          3.41934175  *  -0.20782358  *  -0.52244561  *
    10       C          3.23865887  *   1.13015320  *   0.04965596  *
    11       H          0.90986818  *   0.83009920  *  -1.86303937  *
    12       H         -2.37906697  *  -1.48896933  *   0.25818523  *
    13       H         -2.59745802  *   0.12307768  *   0.94646214  *
    14       H         -3.61984993  *  -0.76584110  *  -1.83046777  *
    15       H         -3.83938822  *   0.84718382  *  -1.14042785  *
    16       H         -4.60729001  *  -0.55263428  *  -0.37778861  *
    17       H         -0.15457186  *  -1.63999562  *   1.30566965  *
    18       H         -0.37141572  *  -0.02315764  *   1.99752474  *
    19       H          1.25063024  *  -0.58183298  *   1.54252242  *
    20       H          2.03048825  *  -1.58449298  *  -1.52093694  *
    21       H          1.48641963  *   2.44452768  *   0.20182605  *
    22       H         -1.33806156  *   0.45322559  *  -1.69109616  *
    23       H          4.37007709  *  -0.73707902  *  -0.51301513  *
    24       H          4.04247107  *   1.68925982  *   0.52440202  *
 


          CARTESIAN COORDINATES 

    NO.       ATOM         X         Y         Z

     1         C        1.1939    0.4377   -0.8557
     2         C       -2.4762   -0.4175   -0.0156
     3         C       -3.6964   -0.2113   -0.8859
     4         C        0.1925   -0.5983    1.2492
     5         C       -0.0148   -0.0433   -0.1130
     6         C       -1.2276    0.0361   -0.6813
     7         C        2.2457   -0.6347   -1.0371
     8         C        1.9552    1.5166   -0.1172
     9         C        3.4193   -0.2078   -0.5224
    10         C        3.2387    1.1302    0.0497
    11         H        0.9099    0.8301   -1.8630
    12         H       -2.3791   -1.4890    0.2582
    13         H       -2.5975    0.1231    0.9465
    14         H       -3.6198   -0.7658   -1.8305
    15         H       -3.8394    0.8472   -1.1404
    16         H       -4.6073   -0.5526   -0.3778
    17         H       -0.1546   -1.6400    1.3057
    18         H       -0.3714   -0.0232    1.9975
    19         H        1.2506   -0.5818    1.5425
    20         H        2.0305   -1.5845   -1.5209
    21         H        1.4864    2.4445    0.2018
    22         H       -1.3381    0.4532   -1.6911
    23         H        4.3701   -0.7371   -0.5130
    24         H        4.0425    1.6893    0.5244

  H: (PM3): J. J. P. STEWART, J. COMP. CHEM. 10, 209 (1989).
  C: (PM3): J. J. P. STEWART, J. COMP. CHEM. 10, 209 (1989).

           Empirical Formula: C10 H14  =    24 atoms



      MOLECULAR POINT GROUP   :   C1  


      RHF CALCULATION, NO. OF DOUBLY OCCUPIED LEVELS =   27



          HEAT OF FORMATION =      30.054003 KCALS/MOLE


          INTERNAL COORDINATE DERIVATIVES

   NUMBER  ATOM       BOND         ANGLE      DIHEDRAL

     1       C     -0.003224    -0.002072    -0.005472
     2       C     -0.006291    -0.004763    -0.000924
     3       C     -0.004210     0.001699     0.004651
     4       C     -0.007784     0.001059    -0.000617
     5       C     -0.003068    -0.001986    -0.002288
     6       C     -0.003679    -0.002304     0.002002
     7       C      0.001159     0.005094     0.001346
     8       C      0.001424     0.011161    -0.003594
     9       C     -0.002563    -0.004949    -0.011891
    10       C      0.002770    -0.001451     0.006191
    11       H     -0.000846     0.003711    -0.001996
    12       H      0.012534    -0.004526    -0.001368
    13       H      0.004360    -0.001441    -0.000688
    14       H      0.002362     0.006137    -0.002567
    15       H      0.002611     0.000960     0.001761
    16       H      0.001868     0.005516     0.002431
    17       H     -0.003758     0.006695    -0.001812
    18       H     -0.013741    -0.010449     0.005944
    19       H     -0.002559     0.001320    -0.003601
    20       H      0.004817    -0.003133     0.002159
    21       H      0.000750    -0.001144     0.003259
    22       H      0.002652    -0.001316     0.001722
    23       H      0.009122    -0.001824     0.000479
    24       H      0.005294    -0.001991     0.004872


          GRADIENT NORM =   0.03980


          TIME FOR SCF CALCULATION =    0.01

          TIME FOR DERIVATIVES     =    0.01

          MOLECULAR WEIGHT =  134.22



          ROTATIONAL CONSTANTS IN CM(-1)

          A =    0.12270250   B =    0.02083393   C =    0.02061580



           PRINCIPAL MOMENTS OF INERTIA IN UNITS OF 10**(-40)*GRAM-CM**2

          A =      228.1353   B =     1343.6144   C =     1357.8310


          ORIENTATION OF MOLECULE IN FORCE CALCULATION

    NO.       ATOM         X         Y         Z

     1          C      -0.9626    0.4113   -0.0005
     2          C       2.8983    0.4113   -0.0005
     3          C       3.8232    1.6085   -0.0005
     4          C       0.6767   -1.5429    0.0016
     5          C       0.4545   -0.0743   -0.0001
     6          C       1.4661    0.8071   -0.0010
     7          C      -1.7644   -0.0941    1.1788
     8          C      -1.7646   -0.0961   -1.1789
     9          C      -2.8626   -0.7425    0.7337
    10          C      -2.8627   -0.7437   -0.7326
    11          H      -0.9987    1.5285   -0.0015
    12          H       3.1029   -0.2293    0.8828
    13          H       3.1032   -0.2297   -0.8836
    14          H       3.6677    2.2417    0.8829
    15          H       3.6693    2.2404   -0.8852
    16          H       4.8752    1.2960    0.0006
    17          H       1.2496   -1.8523    0.8875
    18          H       1.2482   -1.8546   -0.8844
    19          H      -0.2689   -2.1012    0.0030
    20          H      -1.4547    0.0741    2.2075
    21          H      -1.4551    0.0705   -2.2080
    22          H       1.2590    1.8855   -0.0022
    23          H      -3.6471   -1.2034    1.3306
    24          H      -3.6473   -1.2056   -1.3285


    FIRST DERIVATIVES WILL BE USED IN THE CALCULATION OF SECOND DERIVATIVES

          ESTIMATED TIME TO COMPLETE CALCULATION =        4.20 SECONDS

    FOR POINT-GROUP C1   THERE ARE   1 UNIQUE SYMMETRY FUNCTIONS.

 STEP:   1 TIME =     0.04 SECS, INTEGRAL =      0.04 TIME LEFT: 172799.95
 STEP:   2 TIME =     0.04 SECS, INTEGRAL =      0.08 TIME LEFT: 172799.91
 STEP:   3 TIME =     0.04 SECS, INTEGRAL =      0.11 TIME LEFT: 172799.87
 STEP:   4 TIME =     0.04 SECS, INTEGRAL =      0.15 TIME LEFT: 172799.84
 STEP:   5 TIME =     0.04 SECS, INTEGRAL =      0.19 TIME LEFT: 172799.79
 STEP:   6 TIME =     0.04 SECS, INTEGRAL =      0.23 TIME LEFT: 172799.75
 STEP:   7 TIME =     0.04 SECS, INTEGRAL =      0.27 TIME LEFT: 172799.72
 STEP:   8 TIME =     0.03 SECS, INTEGRAL =      0.30 TIME LEFT: 172799.68
 STEP:   9 TIME =     0.04 SECS, INTEGRAL =      0.34 TIME LEFT: 172799.65
 STEP:  10 TIME =     0.03 SECS, INTEGRAL =      0.37 TIME LEFT: 172799.61
 STEP:  11 TIME =     0.05 SECS, INTEGRAL =      0.42 TIME LEFT: 172799.56
 STEP:  12 TIME =     0.04 SECS, INTEGRAL =      0.46 TIME LEFT: 172799.52
 STEP:  13 TIME =     0.04 SECS, INTEGRAL =      0.50 TIME LEFT: 172799.49
 STEP:  14 TIME =     0.04 SECS, INTEGRAL =      0.54 TIME LEFT: 172799.45
 STEP:  15 TIME =     0.04 SECS, INTEGRAL =      0.58 TIME LEFT: 172799.41
 STEP:  16 TIME =     0.04 SECS, INTEGRAL =      0.61 TIME LEFT: 172799.37
 STEP:  17 TIME =     0.04 SECS, INTEGRAL =      0.65 TIME LEFT: 172799.33
 STEP:  18 TIME =     0.04 SECS, INTEGRAL =      0.69 TIME LEFT: 172799.29
 STEP:  19 TIME =     0.04 SECS, INTEGRAL =      0.73 TIME LEFT: 172799.26
 STEP:  20 TIME =     0.04 SECS, INTEGRAL =      0.77 TIME LEFT: 172799.21
 STEP:  21 TIME =     0.04 SECS, INTEGRAL =      0.81 TIME LEFT: 172799.18
 STEP:  22 TIME =     0.05 SECS, INTEGRAL =      0.86 TIME LEFT: 172799.13
 STEP:  23 TIME =     0.04 SECS, INTEGRAL =      0.90 TIME LEFT: 172799.08
 STEP:  24 TIME =     0.04 SECS, INTEGRAL =      0.94 TIME LEFT: 172799.04
 STEP:  25 TIME =     0.05 SECS, INTEGRAL =      0.99 TIME LEFT: 172799.00
 STEP:  26 TIME =     0.04 SECS, INTEGRAL =      1.02 TIME LEFT: 172798.96
 STEP:  27 TIME =     0.04 SECS, INTEGRAL =      1.07 TIME LEFT: 172798.92
 STEP:  28 TIME =     0.04 SECS, INTEGRAL =      1.11 TIME LEFT: 172798.88
 STEP:  29 TIME =     0.04 SECS, INTEGRAL =      1.15 TIME LEFT: 172798.84
 STEP:  30 TIME =     0.04 SECS, INTEGRAL =      1.19 TIME LEFT: 172798.80
 STEP:  31 TIME =     0.05 SECS, INTEGRAL =      1.24 TIME LEFT: 172798.75
 STEP:  32 TIME =     0.06 SECS, INTEGRAL =      1.29 TIME LEFT: 172798.69
 STEP:  33 TIME =     0.05 SECS, INTEGRAL =      1.35 TIME LEFT: 172798.64
 STEP:  34 TIME =     0.05 SECS, INTEGRAL =      1.39 TIME LEFT: 172798.59
 STEP:  35 TIME =     0.05 SECS, INTEGRAL =      1.44 TIME LEFT: 172798.54
 STEP:  36 TIME =     0.04 SECS, INTEGRAL =      1.49 TIME LEFT: 172798.50
 STEP:  37 TIME =     0.05 SECS, INTEGRAL =      1.54 TIME LEFT: 172798.45
 STEP:  38 TIME =     0.04 SECS, INTEGRAL =      1.58 TIME LEFT: 172798.41
 STEP:  39 TIME =     0.05 SECS, INTEGRAL =      1.63 TIME LEFT: 172798.36
 STEP:  40 TIME =     0.05 SECS, INTEGRAL =      1.68 TIME LEFT: 172798.31
 STEP:  41 TIME =     0.04 SECS, INTEGRAL =      1.71 TIME LEFT: 172798.27
 STEP:  42 TIME =     0.04 SECS, INTEGRAL =      1.75 TIME LEFT: 172798.24
 STEP:  43 TIME =     0.04 SECS, INTEGRAL =      1.79 TIME LEFT: 172798.20
 STEP:  44 TIME =     0.04 SECS, INTEGRAL =      1.83 TIME LEFT: 172798.16
 STEP:  45 TIME =     0.04 SECS, INTEGRAL =      1.87 TIME LEFT: 172798.11
 STEP:  46 TIME =     0.03 SECS, INTEGRAL =      1.91 TIME LEFT: 172798.08
 STEP:  47 TIME =     0.04 SECS, INTEGRAL =      1.94 TIME LEFT: 172798.04
 STEP:  48 TIME =     0.04 SECS, INTEGRAL =      1.98 TIME LEFT: 172798.00
 STEP:  49 TIME =     0.04 SECS, INTEGRAL =      2.02 TIME LEFT: 172797.97
 STEP:  50 TIME =     0.05 SECS, INTEGRAL =      2.06 TIME LEFT: 172797.92
 STEP:  51 TIME =     0.04 SECS, INTEGRAL =      2.10 TIME LEFT: 172797.88
 STEP:  52 TIME =     0.04 SECS, INTEGRAL =      2.14 TIME LEFT: 172797.84
 STEP:  53 TIME =     0.04 SECS, INTEGRAL =      2.18 TIME LEFT: 172797.80
 STEP:  54 TIME =     0.04 SECS, INTEGRAL =      2.22 TIME LEFT: 172797.77
 STEP:  55 TIME =     0.03 SECS, INTEGRAL =      2.25 TIME LEFT: 172797.73
 STEP:  56 TIME =     0.03 SECS, INTEGRAL =      2.29 TIME LEFT: 172797.70
 STEP:  57 TIME =     0.05 SECS, INTEGRAL =      2.34 TIME LEFT: 172797.65
 STEP:  58 TIME =     0.04 SECS, INTEGRAL =      2.38 TIME LEFT: 172797.61
 STEP:  59 TIME =     0.04 SECS, INTEGRAL =      2.42 TIME LEFT: 172797.56
 STEP:  60 TIME =     0.04 SECS, INTEGRAL =      2.46 TIME LEFT: 172797.52
 STEP:  61 TIME =     0.05 SECS, INTEGRAL =      2.51 TIME LEFT: 172797.47
 STEP:  62 TIME =     0.04 SECS, INTEGRAL =      2.55 TIME LEFT: 172797.44
 STEP:  63 TIME =     0.05 SECS, INTEGRAL =      2.60 TIME LEFT: 172797.39
 STEP:  64 TIME =     0.04 SECS, INTEGRAL =      2.63 TIME LEFT: 172797.35
 STEP:  65 TIME =     0.04 SECS, INTEGRAL =      2.67 TIME LEFT: 172797.31
 STEP:  66 TIME =     0.04 SECS, INTEGRAL =      2.71 TIME LEFT: 172797.27
 STEP:  67 TIME =     0.05 SECS, INTEGRAL =      2.76 TIME LEFT: 172797.23
 STEP:  68 TIME =     0.05 SECS, INTEGRAL =      2.81 TIME LEFT: 172797.18
 STEP:  69 TIME =     0.04 SECS, INTEGRAL =      2.85 TIME LEFT: 172797.14
 STEP:  70 TIME =     0.04 SECS, INTEGRAL =      2.89 TIME LEFT: 172797.09
 STEP:  71 TIME =     0.04 SECS, INTEGRAL =      2.93 TIME LEFT: 172797.06
 STEP:  72 TIME =     0.04 SECS, INTEGRAL =      2.97 TIME LEFT: 172797.02

(To convert to Hartree/Bohr^2, multiply by (10^(-21) x N x a0^2)/(4.184 x 627.51) = 0.0642)


           FORCE MATRIX IN MILLIDYNES/ANGSTROM


                  C  1       C  2       C  3       C  4       C  5       C  6
 ------------------------------------------------------------------------------
     C    1  15.181161
     C    2   0.129430  14.653230
     C    3   0.008311   4.454613  14.396127
     C    4   0.568882   0.115935   0.004272  14.656788
     C    5   4.538633   0.799901   0.052840   4.998897  18.236141
     C    6   0.847130   4.970997   0.706592   0.815152  10.158673  18.161168
     C    7   4.061723   0.017743   0.001688   0.045080   0.613819   0.028781
     C    8   4.061891   0.017629   0.001691   0.044862   0.613545   0.028802
     C    9   1.201557   0.003396   0.001113   0.017389   0.054333   0.009344
     C   10   1.201669   0.003470   0.001049   0.017303   0.054357   0.009360
     H   11   4.183070   0.002213   0.001014   0.040330   0.454561   0.072035
     H   12   0.013580   4.369004   0.436752   0.026956   0.037323   0.426364
     H   13   0.013642   4.369283   0.436604   0.026862   0.037320   0.426121
     H   14   0.000527   0.463578   4.733597   0.000612   0.002785   0.022057
     H   15   0.000569   0.463589   4.733437   0.000655   0.002807   0.021892
     H   16   0.001681   0.444129   4.752635   0.000511   0.009127   0.053114
     H   17   0.025582   0.028189   0.000982   4.661707   0.449541   0.033500
     H   18   0.025555   0.028060   0.000978   4.661950   0.449444   0.033445
     H   19   0.054995   0.003757   0.000477   4.737265   0.470395   0.050382
     H   20   0.403699   0.000534   0.000278   0.002481   0.010294   0.002623
     H   21   0.403666   0.000459   0.000325   0.002530   0.010285   0.002624
     H   22   0.085163   0.438116   0.057625   0.108082   0.453979   4.748276
     H   23   0.112528   0.000897   0.000220   0.000884   0.016510   0.001439
     H   24   0.112417   0.000898   0.000216   0.000874   0.016479   0.001376


                  C  7       C  8       C  9       C 10       H 11       H 12
 ------------------------------------------------------------------------------
     C    7  17.841784
     C    8   1.090118  17.841842
     C    9   9.776240   1.566136  18.305458
     C   10   1.566114   9.776025   5.137232  18.304500
     H   11   0.381044   0.381076   0.054196   0.054279   4.652457
     H   12   0.001902   0.001689   0.000474   0.000479   0.000447   4.980236
     H   13   0.001637   0.001928   0.000372   0.000470   0.000452   0.573733
     H   14   0.000375   0.000253   0.000404   0.000208   0.000259   0.024246
     H   15   0.000250   0.000357   0.000280   0.000359   0.000250   0.047590
     H   16   0.000413   0.000445   0.000356   0.000335   0.000229   0.030103
     H   17   0.002238   0.003729   0.001215   0.001492   0.003669   0.023398
     H   18   0.003691   0.002182   0.001420   0.001098   0.003643   0.003873
     H   19   0.011185   0.011043   0.007912   0.007904   0.002239   0.000753
     H   20   5.090001   0.042712   0.442244   0.100466   0.011345   0.000365
     H   21   0.042803   5.090185   0.100654   0.442253   0.011347   0.000197
     H   22   0.010164   0.010136   0.002885   0.002885   0.024522   0.023261
     H   23   0.446471   0.049176   5.070335   0.419547   0.014592   0.000151
     H   24   0.049240   0.446419   0.419551   5.070375   0.014564   0.000178


                  H 13       H 14       H 15       H 16       H 17       H 18
 ------------------------------------------------------------------------------
     H   13   4.980408
     H   14   0.047583   5.477151
     H   15   0.024293   0.577437   5.477189
     H   16   0.030018   0.574268   0.574326   5.489417
     H   17   0.003864   0.000184   0.000391   0.000182   5.386215
     H   18   0.023257   0.000395   0.000187   0.000191   0.573142   5.386596
     H   19   0.000741   0.000170   0.000161   0.000103   0.555725   0.555881
     H   20   0.000183   0.000081   0.000135   0.000100   0.001137   0.000691
     H   21   0.000389   0.000132   0.000097   0.000123   0.000707   0.001126
     H   22   0.023237   0.017797   0.017758   0.002503   0.011569   0.011588
     H   23   0.000181   0.000093   0.000113   0.000083   0.000278   0.000372
     H   24   0.000177   0.000109   0.000087   0.000081   0.000373   0.000268


                  H 19       H 20       H 21       H 22       H 23       H 24
 ------------------------------------------------------------------------------
     H   19   5.436752
     H   20   0.001858   5.486175
     H   21   0.001873   0.010145   5.486352
     H   22   0.006085   0.001178   0.001193   5.128614
     H   23   0.001015   0.041637   0.005394   0.000614   5.460582
     H   24   0.000991   0.005398   0.041731   0.000602   0.009621   5.460610


          HEAT OF FORMATION =      30.054003 KCALS/MOLE

          ZERO POINT ENERGY     131.584 KCAL/MOL


           NORMAL COORDINATE ANALYSIS (Total motion = 1 Angstrom)


   Root No.       1         2         3         4         5         6         7         8

                 1 A       2 A       3 A       4 A       5 A       6 A       7 A       8 A   

                  31.4      56.2     114.6     131.2     145.1     194.8     197.9     294.6
  
           1    0.0000    0.0000    0.0152   -0.0001    0.0000   -0.0097    0.0005    0.0000
           2    0.0000   -0.0001   -0.0328    0.0004    0.0001   -0.0204    0.0009   -0.0001
           3   -0.0278   -0.0050    0.0001    0.0028    0.0093    0.0011    0.0175   -0.0303
           4    0.0000    0.0000    0.0128   -0.0001    0.0000   -0.0071    0.0004    0.0000
           5    0.0000    0.0000    0.0113   -0.0001    0.0000    0.0083   -0.0004    0.0001
           6    0.0064    0.0555   -0.0004   -0.0144   -0.0186   -0.0013   -0.0229   -0.0182
           7    0.0001   -0.0001   -0.0208    0.0001    0.0001    0.0377   -0.0017    0.0001
           8   -0.0001    0.0001    0.0382   -0.0003   -0.0001   -0.0281    0.0013    0.0000
           9    0.0459   -0.0435    0.0002    0.0071   -0.0118    0.0000    0.0004   -0.0061
          10    0.0000    0.0000    0.0258   -0.0005    0.0000    0.0437   -0.0020    0.0000
          11    0.0000   -0.0001   -0.0311    0.0002    0.0001    0.0277   -0.0013    0.0000
          12   -0.0440   -0.0405    0.0000   -0.0026   -0.0120   -0.0010   -0.0163    0.0232
          13    0.0000    0.0000    0.0148   -0.0001    0.0000    0.0040   -0.0002    0.0000
          14    0.0001   -0.0001   -0.0334    0.0003    0.0001    0.0222   -0.0010    0.0000
          15   -0.0261    0.0006    0.0001    0.0099    0.0179    0.0007    0.0121    0.0088
          16    0.0000    0.0000    0.0045    0.0000    0.0000   -0.0026    0.0001    0.0000
          17    0.0001   -0.0001   -0.0213    0.0001    0.0001    0.0322   -0.0015    0.0000
          18   -0.0044    0.0426    0.0001    0.0084    0.0296    0.0003    0.0050    0.0576
          19    0.0147    0.0005    0.0024   -0.0096   -0.0174   -0.0116   -0.0160    0.0207
          20    0.0319    0.0057   -0.0110    0.0102    0.0150   -0.0240    0.0080   -0.0007
          21   -0.0039   -0.0021   -0.0002    0.0002    0.0033   -0.0005    0.0092   -0.0189
          22   -0.0147   -0.0004    0.0027    0.0097    0.0174   -0.0096    0.0170   -0.0208
          23   -0.0319   -0.0057   -0.0114   -0.0099   -0.0150   -0.0248   -0.0058    0.0007
          24   -0.0039   -0.0021    0.0002    0.0002    0.0033    0.0017    0.0091   -0.0188
          25    0.0093    0.0003   -0.0285   -0.0060   -0.0117   -0.0297   -0.0106    0.0183
          26    0.0196    0.0036    0.0412    0.0063    0.0108    0.0059    0.0067   -0.0089
          27    0.0273    0.0015   -0.0001   -0.0035   -0.0051   -0.0004   -0.0030    0.0010
          28   -0.0092   -0.0004   -0.0283    0.0067    0.0118   -0.0283    0.0132   -0.0184
          29   -0.0197   -0.0034    0.0408   -0.0071   -0.0110    0.0051   -0.0071    0.0089
          30    0.0274    0.0015    0.0000   -0.0035   -0.0051    0.0000   -0.0030    0.0010
          31   -0.0001    0.0001    0.0237   -0.0001   -0.0001   -0.0343    0.0016    0.0000
          32    0.0000   -0.0001   -0.0314    0.0003    0.0000   -0.0206    0.0009   -0.0001
          33   -0.0585   -0.0110   -0.0001   -0.0058   -0.0026    0.0010    0.0156   -0.0442
          34   -0.0120    0.0060    0.0291    0.0126    0.0254   -0.0230    0.0085    0.0436
          35   -0.0196    0.0661    0.0161   -0.0224   -0.0280    0.0012   -0.0222   -0.0470
          36   -0.0050    0.1020   -0.0009   -0.0333   -0.0451   -0.0022   -0.0405   -0.0629
          37    0.0118   -0.0058    0.0287   -0.0129   -0.0256   -0.0239   -0.0062   -0.0435
          38    0.0196   -0.0660    0.0172    0.0222    0.0279    0.0037    0.0220    0.0471
          39   -0.0050    0.1020   -0.0008   -0.0334   -0.0451   -0.0025   -0.0405   -0.0629
          40   -0.0146    0.0170   -0.0387    0.0204    0.0577    0.0570   -0.1248   -0.0317
          41   -0.0177    0.0608    0.0328   -0.0324   -0.0499   -0.0173    0.0790    0.0163
          42    0.0559   -0.0839    0.0010    0.0337    0.0339   -0.0046   -0.0766   -0.0233
          43    0.0149   -0.0172   -0.0398   -0.0200   -0.0575    0.0714    0.1191    0.0320
          44    0.0176   -0.0607    0.0347    0.0320    0.0497   -0.0267   -0.0770   -0.0163
          45    0.0559   -0.0839    0.0010    0.0336    0.0337   -0.0045   -0.0763   -0.0232
          46    0.0000    0.0000   -0.0117    0.0001    0.0001    0.0250   -0.0013    0.0001
          47   -0.0002    0.0003    0.0689   -0.0005   -0.0003   -0.0722    0.0035    0.0000
          48    0.0571   -0.0421   -0.0008   -0.0285   -0.0982    0.0103    0.1739    0.0377
          49   -0.0136    0.0327    0.0304    0.1657   -0.0576    0.0524   -0.0053    0.0008
          50   -0.0128   -0.0208   -0.0261    0.0096   -0.0240    0.0410   -0.0206    0.0131
          51   -0.0397   -0.0690   -0.0013   -0.1067    0.0167   -0.0016   -0.0211    0.0275
          52    0.0135   -0.0327    0.0269   -0.1670    0.0577    0.0512    0.0005   -0.0008
          53    0.0128    0.0205   -0.0263   -0.0098    0.0242    0.0430    0.0166   -0.0132
          54   -0.0397   -0.0690   -0.0010   -0.1064    0.0165   -0.0019   -0.0211    0.0275
          55   -0.0001    0.0000    0.0302   -0.0004   -0.0001    0.0594   -0.0028    0.0000
          56    0.0000   -0.0001   -0.0379    0.0006    0.0000    0.0017   -0.0001    0.0000
          57   -0.0666   -0.0192    0.0019    0.1834   -0.0900   -0.0010   -0.0316    0.0335
          58    0.0279    0.0011    0.0134   -0.0189   -0.0338   -0.0042   -0.0329    0.0444
          59    0.0593    0.0105   -0.0305    0.0196    0.0287   -0.0404    0.0165   -0.0063
          60   -0.0124   -0.0031   -0.0003    0.0015    0.0059   -0.0001    0.0129   -0.0250
          61   -0.0279   -0.0010    0.0140    0.0187    0.0338   -0.0002    0.0331   -0.0445
          62   -0.0594   -0.0107   -0.0313   -0.0189   -0.0288   -0.0422   -0.0127    0.0064
          63   -0.0123   -0.0031    0.0004    0.0015    0.0060    0.0017    0.0128   -0.0250
          64    0.0000    0.0000   -0.0149    0.0001    0.0000    0.0050   -0.0003    0.0000
          65    0.0001    0.0000   -0.0245    0.0002    0.0001    0.0325   -0.0015    0.0001
          66    0.0075    0.0716    0.0002    0.0170    0.0619    0.0011    0.0191    0.1149
          67    0.0173    0.0007   -0.0489   -0.0113   -0.0221   -0.0406   -0.0216    0.0397
          68    0.0349    0.0063    0.0760    0.0120    0.0207    0.0243    0.0140   -0.0254
          69    0.0496    0.0041    0.0000   -0.0062   -0.0111   -0.0004   -0.0118    0.0163
          70   -0.0171   -0.0008   -0.0485    0.0124    0.0223   -0.0377    0.0251   -0.0398
          71   -0.0351   -0.0059    0.0754   -0.0135   -0.0210    0.0225   -0.0160    0.0254
          72    0.0497    0.0041   -0.0001   -0.0061   -0.0111   -0.0011   -0.0118    0.0163


   Root No.       9        10        11        12        13        14        15        16

                 9 A      10 A      11 A      12 A      13 A      14 A      15 A      16 A   

                 326.1     380.9     412.0     486.6     567.7     634.8     749.5     775.4
  
           1    0.0024    0.0118    0.0071    0.0000    0.0000    0.0303   -0.0194    0.0000
           2    0.0083   -0.0036   -0.0087    0.0000   -0.0001   -0.0421   -0.0280    0.0000
           3    0.0000    0.0000    0.0000   -0.0001   -0.0144    0.0000    0.0000    0.0030
           4   -0.0335   -0.0377   -0.0319    0.0000    0.0000   -0.0081    0.0048    0.0000
           5   -0.0240   -0.0026    0.0512    0.0000    0.0000   -0.0055   -0.0013    0.0000
           6    0.0000    0.0000    0.0000    0.0002   -0.0001    0.0000    0.0000   -0.0377
           7   -0.0441   -0.0293    0.0372    0.0000    0.0000   -0.0175    0.0073    0.0000
           8   -0.0224   -0.0162   -0.0019    0.0000    0.0000   -0.0101    0.0052    0.0000
           9    0.0000    0.0000    0.0000   -0.0004   -0.0006    0.0000    0.0000   -0.0032
          10    0.0664   -0.0257   -0.0028    0.0000    0.0000   -0.0074   -0.0079    0.0000
          11   -0.0008    0.0080   -0.0408    0.0000    0.0000   -0.0018    0.0182    0.0000
          12    0.0000    0.0000    0.0000    0.0065   -0.0007    0.0000    0.0000    0.0029
          13   -0.0079   -0.0006   -0.0031    0.0000    0.0001    0.0444   -0.0274    0.0000
          14   -0.0118    0.0104   -0.0368    0.0000    0.0001    0.0062    0.0044    0.0000
          15    0.0001    0.0000    0.0000   -0.0400    0.0858   -0.0001    0.0000    0.0174
          16   -0.0220   -0.0215   -0.0382    0.0000    0.0000    0.0117   -0.0069    0.0000
          17    0.0006    0.0274    0.0079    0.0000    0.0001    0.0428   -0.0215    0.0000
          18    0.0001    0.0000   -0.0001    0.0138   -0.0083    0.0000    0.0000   -0.0100
          19    0.0011    0.0429    0.0024    0.0161    0.0209   -0.0082    0.0107    0.0024
          20    0.0237   -0.0292    0.0142   -0.0278   -0.0115    0.0062   -0.0078    0.0049
          21    0.0017    0.0049    0.0023    0.0004   -0.0151   -0.0043    0.0278   -0.0010
          22    0.0011    0.0428    0.0024   -0.0161   -0.0209   -0.0081    0.0109   -0.0024
          23    0.0236   -0.0291    0.0142    0.0278    0.0114    0.0061   -0.0080   -0.0050
          24   -0.0018   -0.0049   -0.0023    0.0004   -0.0151    0.0043   -0.0278   -0.0010
          25    0.0149    0.0158    0.0110   -0.0238   -0.0016   -0.0015    0.0208    0.0033
          26    0.0023    0.0219    0.0019    0.0397    0.0203   -0.0099   -0.0006    0.0057
          27    0.0003    0.0007    0.0004    0.0012   -0.0011   -0.0008    0.0034   -0.0042
          28    0.0148    0.0157    0.0111    0.0239    0.0016   -0.0015    0.0208   -0.0033
          29    0.0023    0.0220    0.0019   -0.0397   -0.0203   -0.0098   -0.0007   -0.0057
          30   -0.0004   -0.0007   -0.0004    0.0013   -0.0011    0.0008   -0.0034   -0.0042
          31    0.0239   -0.0186    0.0325    0.0000    0.0000    0.0317   -0.0654    0.0000
          32    0.0096   -0.0045   -0.0070    0.0000   -0.0001   -0.0407   -0.0292    0.0000
          33   -0.0001    0.0000    0.0000    0.0537   -0.0195    0.0000   -0.0001   -0.0152
          34   -0.0369   -0.0520   -0.0446    0.0090    0.0002   -0.0273    0.0178   -0.0654
          35   -0.0253   -0.0074    0.0468   -0.0081   -0.0020   -0.0123    0.0029    0.1401
          36    0.0003    0.0002    0.0007   -0.0077   -0.0023   -0.0003   -0.0001    0.0846
          37   -0.0371   -0.0521   -0.0445   -0.0090   -0.0003   -0.0272    0.0177    0.0654
          38   -0.0252   -0.0074    0.0466    0.0081    0.0019   -0.0123    0.0030   -0.1401
          39   -0.0005   -0.0002   -0.0005   -0.0077   -0.0023    0.0004    0.0000    0.0847
          40   -0.0519   -0.0250    0.0890   -0.0006    0.0000   -0.0297    0.0113   -0.0496
          41   -0.0242   -0.0152    0.0095    0.0020   -0.0006   -0.0130    0.0063   -0.0715
          42    0.0002    0.0001   -0.0001   -0.0019   -0.0003    0.0004   -0.0003    0.0424
          43   -0.0516   -0.0248    0.0888    0.0007   -0.0001   -0.0298    0.0113    0.0496
          44   -0.0243   -0.0153    0.0095   -0.0020    0.0005   -0.0130    0.0063    0.0715
          45   -0.0003   -0.0003    0.0002   -0.0019   -0.0003   -0.0004    0.0003    0.0424
          46   -0.0414   -0.0326    0.0134    0.0000    0.0000   -0.0138    0.0069    0.0000
          47   -0.0117   -0.0260   -0.0868    0.0000    0.0000    0.0054    0.0023    0.0000
          48    0.0002    0.0001   -0.0001    0.0012   -0.0014    0.0000    0.0000    0.0391
          49    0.0859   -0.0344   -0.0038   -0.0032    0.0110   -0.0348    0.0086    0.0010
          50    0.0311   -0.0046   -0.0432    0.0468   -0.1045   -0.0460    0.0505   -0.0081
          51   -0.0005    0.0009   -0.0003    0.0258   -0.0466    0.0012    0.0007   -0.0005
          52    0.0855   -0.0343   -0.0037    0.0032   -0.0112   -0.0348    0.0086   -0.0010
          53    0.0310   -0.0046   -0.0431   -0.0468    0.1044   -0.0461    0.0503    0.0082
          54    0.0001   -0.0007    0.0004    0.0260   -0.0469   -0.0010   -0.0008   -0.0006
          55    0.0988   -0.0388   -0.0050    0.0000   -0.0001   -0.0498    0.0186    0.0000
          56   -0.0528    0.0284   -0.0376    0.0001    0.0000    0.0658   -0.0247    0.0000
          57    0.0003    0.0000   -0.0001    0.0357   -0.0624    0.0000    0.0001   -0.0027
          58   -0.0078    0.0802   -0.0059    0.0388    0.0650   -0.0720   -0.0399    0.0207
          59    0.0439   -0.0800    0.0342   -0.0655   -0.0560    0.1027    0.1074   -0.0301
          60    0.0011    0.0020    0.0016   -0.0002   -0.0209   -0.0009    0.0245   -0.0007
          61   -0.0079    0.0801   -0.0059   -0.0389   -0.0652   -0.0720   -0.0404   -0.0206
          62    0.0438   -0.0801    0.0342    0.0656    0.0563    0.1030    0.1084    0.0301
          63   -0.0012   -0.0019   -0.0016   -0.0003   -0.0209    0.0008   -0.0246   -0.0008
          64   -0.0200   -0.0237   -0.0760    0.0000    0.0001    0.0090   -0.0012   -0.0001
          65    0.0007    0.0266    0.0003    0.0001   -0.0001    0.0423   -0.0209    0.0002
          66    0.0002    0.0001   -0.0002    0.0747   -0.1551    0.0002   -0.0001    0.1785
          67    0.0206    0.0032    0.0119   -0.0822   -0.0176   -0.0281   -0.0585    0.0133
          68   -0.0083    0.0409   -0.0008    0.1390    0.0666    0.0385    0.1075   -0.0039
          69   -0.0005   -0.0016   -0.0008    0.0011    0.0134    0.0018   -0.0175    0.0012
          70    0.0205    0.0031    0.0119    0.0822    0.0174   -0.0282   -0.0587   -0.0133
          71   -0.0082    0.0410   -0.0008   -0.1390   -0.0665    0.0388    0.1080    0.0038
          72    0.0005    0.0015    0.0007    0.0013    0.0135   -0.0018    0.0174    0.0012


   Root No.      17        18        19        20        21        22        23        24

                17 A      18 A      19 A      20 A      21 A      22 A      23 A      24 A   

                 810.5     822.0     833.4     900.2     927.7     966.7     973.0     980.9
  
           1   -0.0001    0.0000    0.0176    0.0000    0.0226   -0.0059    0.0000   -0.0069
           2   -0.0003   -0.0002    0.0600    0.0000   -0.0269    0.0022   -0.0001    0.0317
           3    0.0080   -0.0436   -0.0001   -0.0002    0.0000    0.0000    0.0074    0.0000
           4    0.0000    0.0000   -0.0065    0.0000   -0.0073    0.0056    0.0000   -0.0016
           5    0.0000    0.0000    0.0052    0.0000    0.0062   -0.0072    0.0000    0.0024
           6   -0.0054   -0.0105    0.0000    0.0107    0.0000    0.0000    0.0000    0.0000
           7    0.0000    0.0000   -0.0032    0.0000   -0.0118    0.0273    0.0002   -0.0155
           8    0.0000    0.0000    0.0006    0.0000    0.0035   -0.0058    0.0000    0.0042
           9   -0.0010   -0.0025    0.0000    0.0146    0.0000    0.0000   -0.0001    0.0000
          10    0.0000    0.0000    0.0012    0.0000   -0.0168   -0.0075   -0.0001    0.0147
          11    0.0001    0.0000   -0.0054    0.0000    0.0332   -0.0150    0.0000   -0.0127
          12    0.0020    0.0022    0.0000    0.0100    0.0000    0.0000    0.0052    0.0000
          13    0.0000    0.0000   -0.0042    0.0000   -0.0057   -0.0093   -0.0001    0.0037
          14    0.0000    0.0000   -0.0034    0.0000   -0.0047    0.0010    0.0000    0.0058
          15    0.0073    0.0064    0.0000    0.0143    0.0000    0.0000   -0.0008    0.0000
          16    0.0000    0.0000   -0.0017    0.0000    0.0018   -0.0149   -0.0001    0.0095
          17    0.0000    0.0000   -0.0108    0.0000   -0.0261    0.0184    0.0001   -0.0043
          18    0.0016    0.0038    0.0000   -0.0430    0.0000    0.0000    0.0003    0.0000
          19    0.0261   -0.0261    0.0118    0.0006    0.0086    0.0120    0.0087    0.0104
          20   -0.0198   -0.0317   -0.0160   -0.0017   -0.0036   -0.0114   -0.0078   -0.0247
          21    0.0017   -0.0336   -0.0502   -0.0046   -0.0224   -0.0132   -0.0205    0.0081
          22   -0.0262    0.0260    0.0118   -0.0006    0.0086    0.0121   -0.0087    0.0104
          23    0.0199    0.0317   -0.0158    0.0017   -0.0036   -0.0115    0.0079   -0.0247
          24    0.0012   -0.0339    0.0501   -0.0047    0.0224    0.0132   -0.0203   -0.0081
          25    0.0271   -0.0513   -0.0063   -0.0006   -0.0099   -0.0076   -0.0185   -0.0063
          26   -0.0103   -0.0412   -0.0265   -0.0028    0.0082    0.0091    0.0357    0.0143
          27   -0.0129    0.0558   -0.0049    0.0021    0.0000    0.0020    0.0017   -0.0032
          28   -0.0269    0.0514   -0.0064    0.0006   -0.0099   -0.0077    0.0185   -0.0062
          29    0.0103    0.0413   -0.0263    0.0028    0.0083    0.0094   -0.0358    0.0142
          30   -0.0130    0.0557    0.0050    0.0021    0.0000   -0.0020    0.0018    0.0032
          31   -0.0002   -0.0001    0.0368   -0.0001    0.0603   -0.0523    0.0000   -0.0610
          32   -0.0002   -0.0002    0.0611    0.0000   -0.0247    0.0015    0.0001    0.0290
          33    0.0677   -0.0052    0.0001   -0.0065    0.0001   -0.0005    0.2804    0.0008
          34   -0.0054   -0.0073   -0.0048   -0.0699    0.0096   -0.0175   -0.0007    0.0103
          35    0.0200    0.0388    0.0069   -0.0728    0.0130   -0.0157    0.0003    0.0065
          36    0.0111    0.0207    0.0010   -0.0280    0.0019   -0.0021    0.0003    0.0007
          37    0.0055    0.0074   -0.0047    0.0700    0.0097   -0.0175    0.0005    0.0104
          38   -0.0201   -0.0388    0.0066    0.0728    0.0130   -0.0156   -0.0005    0.0065
          39    0.0111    0.0207   -0.0009   -0.0280   -0.0019    0.0020    0.0004   -0.0007
          40   -0.0091   -0.0191    0.0119    0.0710    0.0374   -0.0645   -0.0007    0.0364
          41   -0.0127   -0.0263    0.0034    0.0928    0.0122   -0.0212   -0.0005    0.0130
          42    0.0070    0.0141    0.0003   -0.0429    0.0013   -0.0032    0.0001    0.0018
          43    0.0090    0.0191    0.0120   -0.0709    0.0373   -0.0645   -0.0003    0.0364
          44    0.0127    0.0263    0.0035   -0.0928    0.0121   -0.0212    0.0002    0.0130
          45    0.0070    0.0141   -0.0003   -0.0429   -0.0013    0.0031    0.0002   -0.0018
          46    0.0000    0.0000   -0.0102    0.0000   -0.0342    0.0703    0.0005   -0.0395
          47    0.0001    0.0000   -0.0247   -0.0001   -0.0778    0.1485    0.0010   -0.0820
          48    0.0067    0.0138    0.0000   -0.0457    0.0000    0.0000    0.0001    0.0000
          49    0.0010    0.0018    0.0109    0.0076    0.0044    0.0105    0.0038   -0.0055
          50   -0.0125   -0.0156    0.0088   -0.0477    0.0858    0.0111   -0.0223   -0.0573
          51   -0.0033   -0.0050   -0.0008   -0.0121    0.0042   -0.0018   -0.0056   -0.0024
          52   -0.0010   -0.0019    0.0109   -0.0076    0.0044    0.0106   -0.0036   -0.0055
          53    0.0126    0.0158    0.0088    0.0476    0.0858    0.0107    0.0231   -0.0571
          54   -0.0033   -0.0050    0.0008   -0.0122   -0.0045    0.0018   -0.0057    0.0025
          55    0.0000    0.0000    0.0142    0.0000    0.0130    0.0252    0.0002   -0.0166
          56    0.0000    0.0000   -0.0258    0.0000   -0.0136   -0.0692   -0.0006    0.0382
          57   -0.0043   -0.0073    0.0000   -0.0134    0.0000    0.0001   -0.0074   -0.0001
          58   -0.1072   -0.0099   -0.0316    0.0026   -0.0056   -0.0083   -0.0143   -0.0917
          59    0.1837    0.0942    0.0378    0.0078    0.0579    0.0827    0.0711    0.0711
          60    0.0089   -0.0601   -0.0466   -0.0068   -0.0285   -0.0225   -0.0261    0.0231
          61    0.1070    0.0098   -0.0309   -0.0026   -0.0055   -0.0083    0.0148   -0.0915
          62   -0.1834   -0.0942    0.0366   -0.0079    0.0578    0.0829   -0.0710    0.0706
          63    0.0087   -0.0602    0.0465   -0.0069    0.0284    0.0224   -0.0256   -0.0233
          64    0.0000    0.0000   -0.0064   -0.0001   -0.0107   -0.0221   -0.0002    0.0297
          65    0.0000    0.0000   -0.0115    0.0002   -0.0290    0.0171    0.0001   -0.0004
          66    0.0050    0.0051    0.0000    0.2185    0.0001    0.0000    0.0038   -0.0001
          67   -0.0319   -0.0972   -0.0877   -0.0059    0.0587    0.0440    0.1136    0.0208
          68    0.1102   -0.0010    0.1730    0.0106   -0.0628   -0.0411   -0.1333   -0.0623
          69    0.0019    0.0288    0.0420    0.0055    0.0344    0.0303    0.0441   -0.0262
          70    0.0317    0.0974   -0.0872    0.0058    0.0587    0.0446   -0.1135    0.0204
          71   -0.1100    0.0008    0.1721   -0.0105   -0.0631   -0.0421    0.1337   -0.0619
          72    0.0023    0.0290   -0.0422    0.0056   -0.0343   -0.0303    0.0434    0.0265


   Root No.      25        26        27        28        29        30        31        32

                25 A      26 A      27 A      28 A      29 A      30 A      31 A      32 A   

                1002.4    1009.9    1017.9    1036.4    1054.5    1082.2    1090.0    1113.4
  
           1    0.0000    0.0229    0.0000    0.0021    0.0000    0.0000    0.0004   -0.0051
           2    0.0000    0.0134    0.0000    0.0033    0.0000    0.0000   -0.0037    0.0028
           3    0.0065    0.0000    0.0101    0.0000   -0.0030    0.0054    0.0000    0.0000
           4    0.0000   -0.0021    0.0000   -0.0077    0.0000    0.0000    0.0001   -0.0138
           5    0.0000    0.0031    0.0000    0.0036    0.0000    0.0000   -0.0006   -0.0329
           6   -0.0091    0.0000    0.0055    0.0000   -0.0387   -0.0020    0.0000   -0.0001
           7   -0.0001    0.0070    0.0000    0.0210    0.0000    0.0000    0.0001    0.0117
           8    0.0000   -0.0049    0.0000   -0.0043    0.0000    0.0000    0.0004    0.0345
           9    0.0089    0.0000   -0.0041    0.0000    0.0204    0.0009    0.0000    0.0001
          10   -0.0001   -0.0167    0.0000    0.0306    0.0000    0.0000    0.0007    0.0020
          11   -0.0001    0.0043    0.0001    0.0374    0.0000    0.0000   -0.0007   -0.0051
          12   -0.0399    0.0000    0.0107   -0.0002    0.0119    0.0019    0.0000    0.0000
          13    0.0000    0.0031    0.0000   -0.0103    0.0000    0.0000   -0.0010   -0.0115
          14    0.0001   -0.0058    0.0000   -0.0146    0.0000    0.0000    0.0009    0.0044
          15    0.0378    0.0000   -0.0120    0.0001   -0.0220   -0.0045    0.0000    0.0000
          16    0.0001   -0.0014    0.0000   -0.0173    0.0000    0.0000   -0.0006   -0.0049
          17    0.0001    0.0032    0.0000   -0.0297    0.0000    0.0000   -0.0004    0.0081
          18    0.0010    0.0000   -0.0017    0.0000    0.0414    0.0032    0.0000    0.0000
          19   -0.0016   -0.0024   -0.0143    0.0027   -0.0015   -0.0057   -0.0016   -0.0004
          20    0.0048   -0.0082    0.0269   -0.0056    0.0031   -0.0073    0.0024   -0.0076
          21   -0.0109    0.0108   -0.0155   -0.0002    0.0033   -0.0188    0.0091    0.0113
          22    0.0016   -0.0024    0.0142    0.0027    0.0015    0.0057   -0.0015   -0.0004
          23   -0.0047   -0.0081   -0.0270   -0.0055   -0.0031    0.0072    0.0024   -0.0077
          24   -0.0110   -0.0107   -0.0155    0.0002    0.0033   -0.0188   -0.0092   -0.0113
          25    0.0028    0.0030    0.0157   -0.0006    0.0016   -0.0026    0.0042   -0.0044
          26   -0.0052    0.0034   -0.0254    0.0017   -0.0018    0.0002    0.0015   -0.0014
          27    0.0011   -0.0111    0.0009   -0.0007   -0.0003    0.0028    0.0073    0.0105
          28   -0.0028    0.0030   -0.0157   -0.0006   -0.0016    0.0026    0.0042   -0.0044
          29    0.0051    0.0033    0.0254    0.0016    0.0018   -0.0002    0.0014   -0.0015
          30    0.0011    0.0111    0.0009    0.0007   -0.0003    0.0028   -0.0073   -0.0105
          31    0.0000    0.1231    0.0003    0.0878    0.0002    0.0003   -0.0381    0.1776
          32    0.0000    0.0158    0.0002    0.0061    0.0000    0.0000   -0.0058    0.0082
          33    0.0626   -0.0004    0.2204   -0.0001    0.0218   -0.0790   -0.0003    0.0001
          34   -0.0509   -0.0165    0.0270   -0.0291   -0.1516   -0.0070    0.0017   -0.0630
          35   -0.0010    0.0000   -0.0016   -0.0010    0.0308    0.0019   -0.0005   -0.0562
          36    0.0022    0.0009   -0.0020    0.0008    0.0191    0.0010   -0.0002   -0.0058
          37    0.0512   -0.0166   -0.0272   -0.0290    0.1518    0.0069    0.0018   -0.0634
          38    0.0010    0.0001    0.0016   -0.0009   -0.0308   -0.0019   -0.0004   -0.0566
          39    0.0023   -0.0009   -0.0020   -0.0009    0.0192    0.0010    0.0002    0.0058
          40    0.0298   -0.0248   -0.0134   -0.0389    0.0619    0.0026    0.0012    0.0577
          41    0.0382   -0.0108   -0.0172   -0.0137    0.0791    0.0034    0.0007    0.0545
          42   -0.0148   -0.0007    0.0066   -0.0028   -0.0286   -0.0012   -0.0001   -0.0053
          43   -0.0296   -0.0248    0.0132   -0.0389   -0.0622   -0.0026    0.0012    0.0574
          44   -0.0382   -0.0107    0.0171   -0.0137   -0.0793   -0.0034    0.0008    0.0541
          45   -0.0148    0.0008    0.0066    0.0027   -0.0286   -0.0012    0.0001    0.0053
          46   -0.0001    0.0204    0.0001    0.0488    0.0001    0.0000   -0.0002    0.0061
          47   -0.0003    0.0440    0.0002    0.0948    0.0002    0.0000   -0.0006    0.0119
          48   -0.0171    0.0000    0.0076    0.0000   -0.0342   -0.0014    0.0000   -0.0001
          49   -0.0285    0.0135    0.0077   -0.0347    0.0086    0.0013   -0.0004   -0.0012
          50    0.1791    0.0623   -0.0464   -0.0543   -0.0510   -0.0079   -0.0035   -0.0168
          51    0.0456    0.0011   -0.0117    0.0073   -0.0123   -0.0020   -0.0003   -0.0014
          52    0.0287    0.0136   -0.0077   -0.0346   -0.0086   -0.0013   -0.0004   -0.0012
          53   -0.1788    0.0623    0.0465   -0.0552    0.0511    0.0079   -0.0035   -0.0168
          54    0.0461   -0.0013   -0.0118   -0.0069   -0.0125   -0.0020    0.0003    0.0014
          55    0.0002    0.0287   -0.0001   -0.0811    0.0000    0.0000   -0.0004    0.0037
          56   -0.0003   -0.0687    0.0001    0.2217    0.0000    0.0000    0.0010   -0.0096
          57    0.0648    0.0001   -0.0173    0.0000   -0.0137   -0.0026    0.0000    0.0000
          58    0.0175   -0.1062    0.0488   -0.0186    0.0053   -0.1725   -0.1399    0.0294
          59   -0.0050   -0.0497   -0.0620    0.0060   -0.0059   -0.0976   -0.0932    0.0299
          60   -0.0150    0.0482   -0.0197    0.0043    0.0028    0.0445    0.0667   -0.0028
          61   -0.0176   -0.1061   -0.0490   -0.0186   -0.0053    0.1731   -0.1392    0.0292
          62    0.0046   -0.0499    0.0614    0.0058    0.0059    0.0980   -0.0927    0.0298
          63   -0.0151   -0.0481   -0.0200   -0.0043    0.0028    0.0446   -0.0663    0.0027
          64    0.0002   -0.0197   -0.0001   -0.0865   -0.0001    0.0000   -0.0007    0.1263
          65    0.0001    0.0003    0.0000   -0.0447   -0.0001    0.0000   -0.0006    0.0343
          66   -0.0211    0.0001    0.0067    0.0001   -0.1056   -0.0099    0.0000    0.0000
          67    0.0027   -0.0261   -0.0247    0.0017   -0.0087    0.0911    0.1272    0.0073
          68    0.0255   -0.0197    0.0967   -0.0044    0.0018    0.0514    0.0774    0.0049
          69    0.0243   -0.0663    0.0416   -0.0022   -0.0111    0.1656    0.2261    0.0318
          70   -0.0029   -0.0261    0.0246    0.0017    0.0088   -0.0915    0.1267    0.0073
          71   -0.0254   -0.0193   -0.0967   -0.0043   -0.0018   -0.0515    0.0767    0.0049
          72    0.0246    0.0661    0.0421    0.0022   -0.0111    0.1666   -0.2254   -0.0319


   Root No.      33        34        35        36        37        38        39        40

                33 A      34 A      35 A      36 A      37 A      38 A      39 A      40 A   

                1124.1    1132.0    1160.1    1201.2    1203.6    1285.6    1310.0    1351.4
  
           1   -0.0107    0.0000   -0.0023   -0.0053    0.0000   -0.0306    0.0000   -0.0206
           2    0.0154   -0.0001   -0.0132   -0.0172    0.0001   -0.0192    0.0001    0.0015
           3    0.0000   -0.0004    0.0000    0.0002    0.0465    0.0000    0.1323    0.0000
           4    0.0156   -0.0001    0.0109   -0.0137    0.0001    0.0330    0.0000    0.0306
           5    0.0229   -0.0002   -0.0309    0.0308   -0.0001    0.0094    0.0000    0.0095
           6    0.0001    0.0336    0.0000    0.0000   -0.0003    0.0000    0.0005    0.0000
           7   -0.0133    0.0001   -0.0009    0.0001    0.0000   -0.0059    0.0000    0.0012
           8   -0.0271    0.0001    0.0059   -0.0212    0.0001    0.0025    0.0000    0.0115
           9   -0.0001   -0.0466    0.0001    0.0000    0.0000    0.0000   -0.0001    0.0000
          10   -0.0028    0.0000    0.0054    0.0057    0.0000    0.0018    0.0000    0.0100
          11   -0.0033    0.0000   -0.0018   -0.0047    0.0000   -0.0003    0.0000   -0.0214
          12    0.0000   -0.0016    0.0000    0.0000    0.0030    0.0000    0.0039    0.0000
          13    0.0035   -0.0001   -0.0227   -0.0248    0.0001   -0.0214    0.0000    0.0023
          14   -0.0007    0.0000   -0.0007    0.0108   -0.0001    0.0276    0.0000   -0.0238
          15    0.0000    0.0000    0.0000    0.0000   -0.0109    0.0000   -0.0157    0.0000
          16    0.0012   -0.0002   -0.0447   -0.0002    0.0000    0.0132    0.0000   -0.0117
          17    0.0113    0.0001    0.0311   -0.0144    0.0001    0.0022    0.0000    0.0127
          18    0.0000    0.0091    0.0000    0.0000    0.0036    0.0000    0.0051    0.0000
          19   -0.0027    0.0000    0.0053    0.0036   -0.0161    0.0051    0.0363    0.0013
          20   -0.0113    0.0001    0.0029    0.0032   -0.0127    0.0011    0.0187   -0.0012
          21    0.0216    0.0001   -0.0156   -0.0122    0.0005   -0.0141   -0.0718   -0.0037
          22   -0.0027    0.0001    0.0053    0.0038    0.0161    0.0051   -0.0364    0.0013
          23   -0.0113   -0.0001    0.0029    0.0033    0.0127    0.0011   -0.0188   -0.0012
          24   -0.0216    0.0002    0.0156    0.0122    0.0003    0.0141   -0.0718    0.0037
          25   -0.0084    0.0001    0.0062    0.0053   -0.0098    0.0079    0.0012    0.0031
          26   -0.0032    0.0000    0.0035    0.0028   -0.0045    0.0048    0.0020    0.0022
          27    0.0188    0.0000   -0.0123   -0.0099   -0.0207   -0.0149    0.0295   -0.0082
          28   -0.0084    0.0000    0.0062    0.0054    0.0098    0.0079   -0.0012    0.0031
          29   -0.0032    0.0000    0.0035    0.0028    0.0045    0.0049   -0.0020    0.0022
          30   -0.0188    0.0001    0.0123    0.0097   -0.0208    0.0149    0.0295    0.0082
          31    0.1626    0.0002    0.0497    0.0395   -0.0002    0.1046   -0.0001    0.0057
          32    0.0207   -0.0001   -0.0106   -0.0165    0.0000   -0.0140   -0.0001    0.0016
          33    0.0001    0.0011    0.0000   -0.0005   -0.1151    0.0000   -0.1377    0.0000
          34    0.0835   -0.2164    0.1847    0.0188   -0.0017   -0.0707    0.0006   -0.0386
          35    0.0469   -0.1425   -0.0106    0.0773   -0.0001   -0.0220   -0.0005   -0.0505
          36    0.0021   -0.0196   -0.0225    0.0213    0.0002    0.0015    0.0002   -0.0236
          37    0.0839    0.2169    0.1836    0.0187    0.0016   -0.0708   -0.0005   -0.0387
          38    0.0474    0.1420   -0.0112    0.0772   -0.0006   -0.0221    0.0006   -0.0505
          39   -0.0022   -0.0194    0.0227   -0.0214    0.0004   -0.0015    0.0002    0.0236
          40   -0.0383   -0.0910    0.0430   -0.0479    0.0003   -0.0219   -0.0002   -0.0409
          41   -0.0416   -0.1263    0.0200   -0.0366    0.0003   -0.0206   -0.0002   -0.0460
          42    0.0052    0.0297   -0.0024    0.0036   -0.0001    0.0106    0.0000    0.0275
          43   -0.0379    0.0918    0.0426   -0.0478    0.0002   -0.0219    0.0003   -0.0409
          44   -0.0412    0.1270    0.0194   -0.0366    0.0001   -0.0206    0.0003   -0.0460
          45   -0.0051    0.0297    0.0023   -0.0036    0.0000   -0.0106    0.0001   -0.0275
          46   -0.0127   -0.0001   -0.0031    0.0154   -0.0001   -0.0285    0.0000   -0.0310
          47   -0.0243    0.0000   -0.0149    0.0355   -0.0002   -0.0647    0.0001   -0.0823
          48    0.0001    0.0376   -0.0001    0.0000   -0.0001    0.0000    0.0001    0.0001
          49    0.0035   -0.0018   -0.0075   -0.0041    0.0022   -0.0015    0.0033   -0.0381
          50    0.0043    0.0021   -0.0243   -0.0373   -0.0104   -0.0811   -0.0101    0.1179
          51   -0.0015    0.0016   -0.0006   -0.0046   -0.0022   -0.0207   -0.0018    0.0668
          52    0.0035    0.0017   -0.0075   -0.0042   -0.0021   -0.0015   -0.0034   -0.0382
          53    0.0043   -0.0023   -0.0243   -0.0372    0.0107   -0.0810    0.0103    0.1177
          54    0.0015    0.0016    0.0006    0.0046   -0.0023    0.0209   -0.0020   -0.0670
          55    0.0027    0.0000   -0.0150   -0.0031    0.0000    0.0327    0.0000   -0.0520
          56   -0.0120    0.0001    0.0303    0.0071    0.0000   -0.0611    0.0000    0.0913
          57    0.0000    0.0124   -0.0001   -0.0001   -0.0035    0.0000   -0.0047    0.0000
          58    0.0553   -0.0007   -0.0394   -0.0222    0.1519   -0.0211   -0.0395   -0.0035
          59    0.0513   -0.0008   -0.0245   -0.0160    0.0951   -0.0094   -0.0177    0.0010
          60   -0.0042    0.0004    0.0009   -0.0025   -0.0668   -0.0062   -0.0434   -0.0033
          61    0.0552    0.0004   -0.0393   -0.0234   -0.1517   -0.0211    0.0396   -0.0035
          62    0.0512    0.0006   -0.0244   -0.0167   -0.0950   -0.0094    0.0176    0.0010
          63    0.0041    0.0004   -0.0009    0.0020   -0.0666    0.0063   -0.0434    0.0033
          64   -0.0366    0.0003   -0.0223    0.2902   -0.0013   -0.0972    0.0000    0.0578
          65    0.0058    0.0002    0.0369    0.0436   -0.0002   -0.0185    0.0000    0.0271
          66    0.0000   -0.0099    0.0000    0.0000   -0.0131    0.0000   -0.0209    0.0000
          67    0.0084   -0.0002    0.0004    0.0050    0.0748    0.0131   -0.0827    0.0081
          68    0.0072   -0.0001   -0.0007    0.0015    0.0439    0.0082   -0.0493    0.0062
          69    0.0512   -0.0005   -0.0252   -0.0132    0.1269   -0.0092   -0.1200   -0.0002
          70    0.0085    0.0001    0.0004    0.0044   -0.0749    0.0132    0.0827    0.0081
          71    0.0071    0.0000   -0.0007    0.0012   -0.0438    0.0082    0.0491    0.0062
          72   -0.0513   -0.0001    0.0252    0.0142    0.1270    0.0091   -0.1201    0.0002


   Root No.      41        42        43        44        45        46        47        48

                41 A      42 A      43 A      44 A      45 A      46 A      47 A      48 A   

                1371.0    1391.3    1392.0    1396.6    1408.1    1412.2    1416.6    1439.8
  
           1   -0.0228   -0.0179   -0.0010    0.0233    0.0000   -0.0036   -0.0272    0.0362
           2   -0.0020    0.0012    0.0001   -0.0008    0.0000   -0.0020   -0.0088    0.0075
           3    0.0000    0.0000    0.0005    0.0000    0.0000    0.0000    0.0000    0.0000
           4    0.0078    0.0054    0.0002    0.0333    0.0000   -0.0001    0.0016    0.0593
           5   -0.0244   -0.0038   -0.0002   -0.0220   -0.0001    0.0049    0.0196    0.0219
           6    0.0000    0.0000   -0.0004    0.0000   -0.0011    0.0000    0.0000    0.0000
           7   -0.0119   -0.0005    0.0000    0.0054    0.0001    0.0262   -0.0209   -0.0317
           8   -0.0159    0.0016    0.0000    0.0152    0.0000   -0.0220   -0.0205   -0.0328
           9    0.0000    0.0000    0.0006    0.0000   -0.0419    0.0000    0.0000    0.0000
          10    0.0063   -0.0322   -0.0017   -0.0027    0.0000   -0.0003   -0.0014   -0.0005
          11   -0.0149   -0.0055   -0.0003    0.0044    0.0000   -0.0039   -0.0137    0.0193
          12    0.0000    0.0014   -0.0410    0.0000    0.0000    0.0000    0.0000    0.0000
          13    0.0067    0.0110    0.0006   -0.0170    0.0000   -0.0017    0.0013   -0.0191
          14   -0.0005   -0.0164   -0.0009   -0.0034    0.0000    0.0008    0.0037   -0.0185
          15    0.0000    0.0001   -0.0014    0.0000    0.0000    0.0000    0.0000    0.0000
          16    0.0067   -0.0012    0.0000   -0.0237    0.0000    0.0009    0.0116   -0.0320
          17    0.0062    0.0060    0.0003    0.0074    0.0000    0.0002   -0.0007    0.0068
          18    0.0000    0.0000   -0.0005    0.0000   -0.0002    0.0000    0.0000    0.0000
          19   -0.0001   -0.0032   -0.0001    0.0089    0.0000    0.0037    0.0153   -0.0080
          20   -0.0016   -0.0034    0.0001    0.0067    0.0000    0.0021    0.0081   -0.0036
          21   -0.0031    0.0002   -0.0002   -0.0035    0.0000   -0.0033   -0.0147    0.0100
          22   -0.0001   -0.0032   -0.0002    0.0089    0.0000    0.0037    0.0153   -0.0080
          23   -0.0016   -0.0034   -0.0005    0.0067    0.0000    0.0021    0.0081   -0.0036
          24    0.0031   -0.0002   -0.0003    0.0035    0.0000    0.0033    0.0147   -0.0100
          25    0.0037    0.0033    0.0000   -0.0053    0.0000   -0.0002    0.0008   -0.0031
          26    0.0025    0.0022    0.0001   -0.0034    0.0000   -0.0001    0.0007   -0.0021
          27   -0.0130   -0.0201   -0.0010    0.0402   -0.0001    0.0105    0.0378   -0.0121
          28    0.0037    0.0033    0.0003   -0.0054    0.0000   -0.0002    0.0008   -0.0031
          29    0.0025    0.0023    0.0001   -0.0035    0.0000   -0.0001    0.0006   -0.0021
          30    0.0130    0.0201    0.0012   -0.0402    0.0001   -0.0105   -0.0378    0.0121
          31    0.0296    0.0097    0.0006   -0.0312    0.0000    0.0032    0.0254   -0.0437
          32   -0.0005    0.0010    0.0001   -0.0017    0.0000   -0.0017   -0.0068    0.0048
          33    0.0000    0.0000   -0.0006    0.0000   -0.0001    0.0000    0.0000    0.0000
          34   -0.0349   -0.0152    0.0074   -0.0497    0.0028    0.0093   -0.0027   -0.0608
          35    0.1265    0.0088    0.0054    0.0821    0.0005   -0.0242   -0.0512   -0.0451
          36    0.1021    0.0126    0.0013    0.0807   -0.0022   -0.0195   -0.0429   -0.0184
          37   -0.0349   -0.0147   -0.0086   -0.0497   -0.0028    0.0093   -0.0027   -0.0608
          38    0.1264    0.0092   -0.0045    0.0820    0.0000   -0.0242   -0.0512   -0.0451
          39   -0.1021   -0.0127    0.0002   -0.0808   -0.0026    0.0195    0.0429    0.0183
          40    0.0536   -0.0007    0.0010   -0.0327    0.2555   -0.1504    0.0743    0.0711
          41    0.0641   -0.0006    0.0013   -0.0365   -0.0247    0.1973    0.0244    0.0622
          42   -0.0377    0.0012   -0.0001    0.0242    0.0502   -0.1736   -0.0088   -0.0392
          43    0.0536   -0.0007   -0.0009   -0.0326   -0.2557   -0.1508    0.0739    0.0708
          44    0.0641   -0.0005   -0.0010   -0.0366    0.0245    0.1976    0.0244    0.0623
          45    0.0376   -0.0012    0.0000   -0.0242    0.0494    0.1731    0.0090    0.0393
          46    0.0164   -0.0035   -0.0001   -0.0255   -0.0004   -0.0304    0.0231    0.0056
          47    0.0623   -0.0075   -0.0002   -0.0769    0.0002   -0.1354    0.0975    0.0665
          48   -0.0001    0.0000    0.0000    0.0000    0.4227    0.0002    0.0003    0.0001
          49   -0.0300    0.2310   -0.1757    0.0260    0.0000    0.0084    0.0262   -0.0066
          50    0.0519    0.0221   -0.1671   -0.0183    0.0001    0.0082    0.0312   -0.0336
          51    0.0397   -0.1485    0.0423   -0.0241    0.0000   -0.0019   -0.0041   -0.0110
          52   -0.0302    0.2190    0.1986    0.0263   -0.0002    0.0083    0.0262   -0.0066
          53    0.0516    0.0113    0.1688   -0.0180   -0.0002    0.0081    0.0311   -0.0336
          54   -0.0398    0.1448    0.0565    0.0242   -0.0001    0.0019    0.0040    0.0111
          55   -0.0169   -0.0885   -0.0042   -0.0071    0.0001   -0.0089   -0.0280    0.0167
          56    0.0259    0.1307    0.0071    0.0140   -0.0001    0.0132    0.0402   -0.0161
          57   -0.0001   -0.0135    0.4086    0.0003   -0.0003   -0.0001    0.0000    0.0000
          58    0.0011    0.0122    0.0013   -0.0311    0.0001   -0.0127   -0.0516    0.0267
          59    0.0033    0.0098   -0.0004   -0.0213    0.0001   -0.0075   -0.0290    0.0134
          60   -0.0052   -0.0074   -0.0006    0.0144    0.0000    0.0033    0.0114   -0.0026
          61    0.0011    0.0123    0.0000   -0.0310    0.0001   -0.0127   -0.0516    0.0267
          62    0.0033    0.0098    0.0014   -0.0213    0.0000   -0.0074   -0.0290    0.0133
          63    0.0052    0.0074    0.0002   -0.0144    0.0000   -0.0033   -0.0114    0.0025
          64   -0.0362    0.0167    0.0008    0.0126   -0.0001    0.0084   -0.0049    0.0587
          65   -0.0023    0.0095    0.0005    0.0147    0.0000    0.0022   -0.0037    0.0251
          66    0.0000    0.0000   -0.0007    0.0000   -0.0020    0.0000    0.0000    0.0000
          67    0.0132    0.0202    0.0009   -0.0402    0.0001   -0.0102   -0.0363    0.0106
          68    0.0090    0.0128    0.0004   -0.0251    0.0000   -0.0060   -0.0207    0.0051
          69    0.0020    0.0074    0.0003   -0.0172    0.0001   -0.0064   -0.0252    0.0122
          70    0.0131    0.0202    0.0013   -0.0401    0.0001   -0.0102   -0.0362    0.0106
          71    0.0090    0.0128    0.0010   -0.0251    0.0000   -0.0060   -0.0207    0.0050
          72   -0.0020   -0.0074   -0.0005    0.0172    0.0000    0.0064    0.0252   -0.0122


   Root No.      49        50        51        52        53        54        55        56

                49 A      50 A      51 A      52 A      53 A      54 A      55 A      56 A   

                1471.2    1730.0    1787.0    1888.5    2873.1    2926.4    3009.9    3031.6
  
           1    0.0789   -0.0169    0.0000    0.0285    0.0015    0.0000    0.0001   -0.0006
           2   -0.0102   -0.0069    0.0000    0.0007   -0.0729    0.0000    0.0000    0.0005
           3    0.0000    0.0000    0.0006    0.0000    0.0001   -0.0001    0.0000    0.0000
           4   -0.0038    0.0009    0.0000   -0.0371   -0.0001    0.0000    0.0107    0.0018
           5    0.0074    0.0002    0.0000   -0.0023    0.0001    0.0000   -0.0340   -0.0066
           6    0.0000    0.0000    0.0001    0.0000    0.0000   -0.0568    0.0000    0.0000
           7   -0.0016    0.0000    0.0000   -0.0024    0.0000    0.0000   -0.0025   -0.0008
           8   -0.0032   -0.0001    0.0000    0.0013    0.0000    0.0000    0.0013    0.0008
           9    0.0000    0.0000    0.0000    0.0000    0.0000    0.0024    0.0000    0.0000
          10    0.0154    0.0000    0.0000    0.0073   -0.0001    0.0000    0.0015   -0.0008
          11   -0.0850   -0.0002    0.0000    0.0298    0.0005    0.0000   -0.0001    0.0001
          12    0.0001    0.0000    0.0001    0.0000    0.0000   -0.0017    0.0000    0.0000
          13   -0.0704    0.0025    0.0000   -0.1898    0.0000    0.0000   -0.0006    0.0040
          14    0.0930    0.0023    0.0000   -0.1635   -0.0010    0.0000   -0.0008    0.0028
          15   -0.0001    0.0000   -0.0032    0.0002    0.0000   -0.0001    0.0000    0.0000
          16    0.0141   -0.0035    0.0000    0.2028    0.0010    0.0000    0.0000    0.0082
          17   -0.0133   -0.0024    0.0000    0.1236   -0.0007    0.0000    0.0070   -0.0625
          18    0.0000    0.0000    0.0002   -0.0001    0.0000   -0.0001    0.0000    0.0001
          19   -0.0099    0.1155   -0.1068    0.0050   -0.0007    0.0000    0.0000    0.0000
          20   -0.0008    0.0670   -0.0626    0.0011   -0.0006    0.0000    0.0000    0.0000
          21    0.0123    0.0420   -0.0280    0.0005    0.0007    0.0000    0.0000    0.0000
          22   -0.0099    0.1155    0.1068    0.0050   -0.0007    0.0000    0.0000    0.0000
          23   -0.0008    0.0669    0.0626    0.0011   -0.0006    0.0000    0.0000    0.0000
          24   -0.0123   -0.0422   -0.0281   -0.0005   -0.0007    0.0000    0.0000    0.0000
          25   -0.0063   -0.1017    0.1094   -0.0034    0.0006    0.0000    0.0000    0.0000
          26   -0.0046   -0.0598    0.0642   -0.0020    0.0001    0.0000    0.0000    0.0000
          27   -0.0066   -0.0564    0.0480   -0.0006    0.0002    0.0000    0.0000    0.0000
          28   -0.0063   -0.1017   -0.1093   -0.0034    0.0006    0.0000    0.0000    0.0000
          29   -0.0046   -0.0598   -0.0641   -0.0020    0.0001    0.0000    0.0000    0.0000
          30    0.0066    0.0565    0.0481    0.0006   -0.0002    0.0000    0.0000    0.0000
          31    0.0013    0.0107    0.0000   -0.0561   -0.0287    0.0000    0.0002   -0.0025
[...]
 RED. MASS   0.4141        C  2 --  C  3           +4.9% ( 19.0%)     0.0%
 EFF. MASS   1.5351

 VIBRATION   46   46A       ATOM PAIR        ENERGY CONTRIBUTION    RADIAL
 FREQ.      1412.22        C  3 --  H 15          +39.0% ( 55.5%)     1.7%
 T-DIPOLE    0.0715        C  3 --  H 14          +38.9% ( 55.4%)     1.7%
 TRAVEL      0.1656        C  3 --  H 16           +8.9% ( 26.5%)    54.0%
 RED. MASS   0.3923        C  2 --  C  3           +4.9% ( 19.8%)     1.9%
 EFF. MASS   1.7421

 VIBRATION   47   47A       ATOM PAIR        ENERGY CONTRIBUTION    RADIAL
 FREQ.      1416.59        C  9 --  C 10          +13.5% ( 53.4%)   100.0%
 T-DIPOLE    0.1263        C  8 --  C  9           +6.2% ( 36.3%)    99.8%
 TRAVEL      0.0801        C  7 --  C 10           +6.2% ( 36.3%)    99.8%
 RED. MASS   0.6987        C  7 --  C  9           +6.0% ( 35.4%)     0.1%
 EFF. MASS   7.4272

 VIBRATION   48   48A       ATOM PAIR        ENERGY CONTRIBUTION    RADIAL
 FREQ.      1439.84        C  2 --  C  3          +15.3% ( 59.1%)    86.8%
 T-DIPOLE    0.1427        C  2 --  C  6          +13.4% ( 55.2%)    82.3%
 TRAVEL      0.0739        C  2 --  H 12           +9.6% ( 46.7%)     0.0%
 RED. MASS   1.4104        C  2 --  H 13           +9.6% ( 46.7%)     0.0%
 EFF. MASS   8.5857

 VIBRATION   49   49A       ATOM PAIR        ENERGY CONTRIBUTION    RADIAL
 FREQ.      1471.16        C  4 --  C  5          +23.9% ( 73.9%)    91.3%
 T-DIPOLE    0.0982        C  1 --  C  5          +21.7% ( 70.5%)    92.6%
 TRAVEL      0.0670        C  5 --  C  6          +11.9% ( 52.2%)     0.2%
 RED. MASS   2.9692        C  4 --  H 19           +8.6% ( 44.3%)     3.5%
 EFF. MASS  10.2180

 VIBRATION   50   50A       ATOM PAIR        ENERGY CONTRIBUTION    RADIAL
 FREQ.      1730.04        C  8 --  C 10          +18.2% ( 72.6%)    99.9%
 T-DIPOLE    0.3185        C  7 --  C  9          +18.2% ( 72.6%)    99.9%
 TRAVEL      0.0569        C  8 --  C  9          +10.7% ( 55.6%)    25.6%
 RED. MASS   2.7142        C  7 --  C 10          +10.7% ( 55.6%)    25.6%
 EFF. MASS  12.0257

 VIBRATION   51   51A       ATOM PAIR        ENERGY CONTRIBUTION    RADIAL
 FREQ.      1786.98        C  7 --  C  9          +17.9% ( 70.2%)    99.8%
 T-DIPOLE    0.3203        C  8 --  C 10          +17.9% ( 70.1%)    99.8%
 TRAVEL      0.0565        C  9 --  C 10          +12.2% ( 57.9%)     0.0%
 RED. MASS   2.6868        C  8 --  C  9          +10.9% ( 54.7%)    65.5%
 EFF. MASS  11.8010        C  7 --  C 10          +10.9% ( 54.7%)    65.6%

 VIBRATION   52   52A       ATOM PAIR        ENERGY CONTRIBUTION    RADIAL
 FREQ.      1888.53        C  5 --  C  6          +43.4% ( 97.3%)    99.3%
 T-DIPOLE    0.2029        C  4 --  C  5          +14.6% ( 56.4%)    34.3%
 TRAVEL      0.0549        C  1 --  C  5          +14.5% ( 56.2%)    31.5%
 RED. MASS   5.4940        C  2 --  C  6          +13.5% ( 54.2%)    53.2%
 EFF. MASS  11.8471        C  6 --  H 22          +12.5% ( 52.1%)     3.9%

 VIBRATION   53   53A       ATOM PAIR        ENERGY CONTRIBUTION    RADIAL
 FREQ.      2873.09        C  1 --  H 11          +96.8% (100.0%)   100.0%
 T-DIPOLE    0.2013        C  1 --  C  5           +1.1% ( 10.4%)    11.8%
 TRAVEL      0.1275        C  1 --  C  8           +1.1% ( 10.4%)     9.6%
 RED. MASS   0.9294        C  1 --  C  7           +1.1% ( 10.4%)     9.6%
 EFF. MASS   1.4427

 VIBRATION   54   54A       ATOM PAIR        ENERGY CONTRIBUTION    RADIAL
 FREQ.      2926.36        C  2 --  H 12          +48.8% ( 72.5%)    96.5%
 T-DIPOLE    0.0189        C  2 --  H 13          +48.7% ( 72.5%)    96.5%
 TRAVEL      0.1225        C  2 --  C  3           +1.1% ( 11.0%)     0.0%
 RED. MASS   0.5144        C  2 --  C  6           +1.1% ( 10.9%)     0.0%
 EFF. MASS   1.5361

 VIBRATION   55   55A       ATOM PAIR        ENERGY CONTRIBUTION    RADIAL
 FREQ.      3009.86        C  2 --  H 13          +48.1% ( 68.4%)    97.9%
 T-DIPOLE    0.0624        C  2 --  H 12          +48.0% ( 68.3%)    97.9%
 TRAVEL      0.1321        C  6 --  H 22           +2.1% ( 14.3%)    99.6%
 RED. MASS   0.4612        C  2 --  C  6           +0.7% (  8.2%)    25.0%
 EFF. MASS   1.2833

 VIBRATION   56   56A       ATOM PAIR        ENERGY CONTRIBUTION    RADIAL
 FREQ.      3031.63        C  6 --  H 22          +95.3% ( 98.9%)   100.0%
 T-DIPOLE    0.3086        C  5 --  C  6           +1.5% ( 12.3%)    36.9%
 TRAVEL      0.1215        C  2 --  C  6           +1.3% ( 11.6%)    14.0%
 RED. MASS   0.8912        C  2 --  H 13           +0.9% (  9.7%)    97.7%
 EFF. MASS   1.5055

 VIBRATION   57   57A       ATOM PAIR        ENERGY CONTRIBUTION    RADIAL
 FREQ.      3057.41        C  4 --  H 17          +49.1% ( 72.3%)    97.0%
 T-DIPOLE    0.0355        C  4 --  H 18          +48.9% ( 72.1%)    97.0%
 TRAVEL      0.1212        C  4 --  C  5           +1.0% ( 10.2%)     0.0%
 RED. MASS   0.5082        C  4 --  H 19           +0.9% (  9.9%)     0.0%
 EFF. MASS   1.5010

 VIBRATION   58   58A       ATOM PAIR        ENERGY CONTRIBUTION    RADIAL
 FREQ.      3071.17        C  4 --  H 19          +59.8% ( 79.8%)    98.7%
 T-DIPOLE    0.1106        C  4 --  H 18          +19.6% ( 45.6%)    86.3%
 TRAVEL      0.1204        C  4 --  H 17          +19.4% ( 45.5%)    86.1%
 RED. MASS   0.4660        C  4 --  C  5           +1.1% ( 10.7%)     0.0%
 EFF. MASS   1.5158

 VIBRATION   59   59A       ATOM PAIR        ENERGY CONTRIBUTION    RADIAL
 FREQ.      3081.41        C  3 --  H 14          +49.0% ( 72.2%)    97.0%
 T-DIPOLE    0.0004        C  3 --  H 15          +48.9% ( 72.1%)    97.0%
 TRAVEL      0.1207        C  2 --  C  3           +1.0% ( 10.2%)     0.0%
 RED. MASS   0.5071        C  3 --  H 16           +0.9% ( 10.0%)     0.0%
 EFF. MASS   1.5012

 VIBRATION   60   60A       ATOM PAIR        ENERGY CONTRIBUTION    RADIAL
 FREQ.      3085.53        C  3 --  H 16          +63.4% ( 82.1%)    98.8%
 T-DIPOLE    0.0151        C  3 --  H 15          +17.7% ( 43.5%)    85.3%
 TRAVEL      0.1205        C  3 --  H 14          +17.6% ( 43.2%)    85.1%
 RED. MASS   0.4928        C  2 --  C  3           +1.0% ( 10.4%)     0.0%
 EFF. MASS   1.5052

 VIBRATION   61   61A       ATOM PAIR        ENERGY CONTRIBUTION    RADIAL
 FREQ.      3132.42        C  9 --  H 23          +38.1% ( 63.3%)   100.0%
 T-DIPOLE    0.0634        C 10 --  H 24          +37.5% ( 62.8%)   100.0%
 TRAVEL      0.1201        C  7 --  H 20          +10.2% ( 32.7%)   100.0%
 RED. MASS   0.3113        C  8 --  H 21           +9.9% ( 32.2%)   100.0%
 EFF. MASS   1.4921

 VIBRATION   62   62A       ATOM PAIR        ENERGY CONTRIBUTION    RADIAL
 FREQ.      3135.10        C 10 --  H 24          +29.7% ( 55.8%)   100.0%
 T-DIPOLE    0.5180        C  9 --  H 23          +29.0% ( 55.1%)   100.0%
 TRAVEL      0.1208        C  8 --  H 21          +18.6% ( 44.2%)   100.0%
 RED. MASS   0.2445        C  7 --  H 20          +18.5% ( 44.0%)   100.0%
 EFF. MASS   1.4746

 VIBRATION   63   63A       ATOM PAIR        ENERGY CONTRIBUTION    RADIAL
 FREQ.      3148.10        C  7 --  H 20          +37.5% ( 62.9%)   100.0%
 T-DIPOLE    0.5806        C  8 --  H 21          +37.3% ( 62.7%)   100.0%
 TRAVEL      0.1161        C  9 --  H 23          +10.0% ( 32.4%)    99.8%
 RED. MASS   0.3117        C 10 --  H 24           +9.7% ( 32.0%)    99.7%
 EFF. MASS   1.5880

 VIBRATION   64   64A       ATOM PAIR        ENERGY CONTRIBUTION    RADIAL
 FREQ.      3157.34        C  8 --  H 21          +28.9% ( 55.3%)    99.9%
 T-DIPOLE    0.1913        C  7 --  H 20          +28.5% ( 55.0%)    99.9%
 TRAVEL      0.1122        C 10 --  H 24          +18.0% ( 43.7%)    99.9%
 RED. MASS   0.2466        C  9 --  H 23          +18.0% ( 43.6%)   100.0%
 EFF. MASS   1.6957

 VIBRATION   65   65A       ATOM PAIR        ENERGY CONTRIBUTION    RADIAL
 FREQ.      3159.22        C  4 --  H 19          +39.2% ( 60.3%)    97.8%
 T-DIPOLE    0.0797        C  4 --  H 18          +30.3% ( 53.0%)    96.6%
 TRAVEL      0.1369        C  4 --  H 17          +30.2% ( 52.9%)    96.5%
 RED. MASS   0.3310        C  4 --  C  5           +0.3% (  5.3%)    98.9%
 EFF. MASS   1.1391

 VIBRATION   66   66A       ATOM PAIR        ENERGY CONTRIBUTION    RADIAL
 FREQ.      3183.24        C  3 --  H 16          +34.9% ( 56.8%)    97.4%
 T-DIPOLE    0.0268        C  3 --  H 14          +32.4% ( 54.8%)    97.0%
 TRAVEL      0.1365        C  3 --  H 15          +32.4% ( 54.8%)    97.0%
 RED. MASS   0.3273        C  2 --  C  3           +0.3% (  5.1%)    99.9%
 EFF. MASS   1.1365

 SYMMETRY NUMBER FOR POINT-GROUP C1  =  1


          SYSTEM IS A GROUND STATE


    NULL



          MOLECULE IS NOT LINEAR

          THERE ARE 66 GENUINE VIBRATIONS IN THIS SYSTEM
          THIS THERMODYNAMICS CALCULATION IS LIMITED TO
          MOLECULES WHICH HAVE NO INTERNAL ROTATIONS




                    CALCULATED THERMODYNAMIC PROPERTIES
                                          *
   TEMP. (K)   PARTITION FUNCTION   H.O.F.    ENTHALPY  HEAT CAPACITY ENTROPY
                                   KCAL/MOL   CAL/MOLE    CAL/K/MOL  CAL/K/MOL


 298.00  VIB.     0.2874D+04                  4968.2200    33.6477    32.4971
         ROT.     0.7278D+06                   888.2813     2.9808    29.8036
         INT.     0.2092D+10                  5856.5013    36.6285    62.3007
         TRA.     0.1503D+28                  1480.4688     4.9680    40.5931
         TOT.                       30.054    7336.9701    41.5965   102.8938

 200.00  VIB.     0.1803D+03                  2272.9142    21.7598    21.6868
         ROT.     0.4001D+06                   596.1620     2.9808    28.6149
         INT.     0.7213D+08                  2869.0761    24.7406    50.3018
         TRA.     0.8266D+27                   993.6033     4.9680    38.6119
         TOT.                       26.580    3862.6794    29.7086    88.9137

 210.00  VIB.     0.2398D+03                  2495.9184    22.8468    22.7747
         ROT.     0.4305D+06                   625.9700     2.9808    28.7604
         INT.     0.1032D+09                  3121.8885    25.8276    51.5350
         TRA.     0.8893D+27                  1043.2834     4.9680    38.8543
         TOT.                       26.882    4165.1719    30.7956    90.3894

 220.00  VIB.     0.3186D+03                  2729.9647    23.9681    23.8632
         ROT.     0.4616D+06                   655.7781     2.9808    28.8990
         INT.     0.1471D+09                  3385.7428    26.9489    52.7623
         TRA.     0.9536D+27                  1092.9636     4.9680    39.0854
         TOT.                       27.196    4478.7064    31.9169    91.8477

 230.00  VIB.     0.4230D+03                  2975.3920    25.1228    24.9540
         ROT.     0.4935D+06                   685.5862     2.9808    29.0315
         INT.     0.2088D+09                  3660.9782    28.1036    53.9856
         TRA.     0.1019D+28                  1142.6437     4.9680    39.3063
         TOT.                       27.521    4803.6220    33.0716    93.2919

 240.00  VIB.     0.5612D+03                  3232.5248    26.3088    26.0482
         ROT.     0.5260D+06                   715.3943     2.9808    29.1584
         INT.     0.2952D+09                  3947.9191    29.2896    55.2066
         TRA.     0.1087D+28                  1192.3239     4.9680    39.5177
         TOT.                       27.857    5140.2430    34.2576    94.7243

 250.00  VIB.     0.7442D+03                  3501.6644    27.5237    27.1467
         ROT.     0.5592D+06                   745.2024     2.9808    29.2801
         INT.     0.4162D+09                  4246.8669    30.5045    56.4268
         TRA.     0.1155D+28                  1242.0041     4.9680    39.7205
         TOT.                       28.206    5488.8709    35.4725    96.1473

 260.00  VIB.     0.9864D+03                  3783.0832    28.7641    28.2503
         ROT.     0.5931D+06                   775.0105     2.9808    29.3970
         INT.     0.5851D+09                  4558.0938    31.7449    57.6473
         TRA.     0.1225D+28                  1291.6842     4.9680    39.9154
         TOT.                       28.567    5849.7780    36.7129    97.5627

 270.00  VIB.     0.1307D+04                  4077.0200    30.0266    29.3595
         ROT.     0.6277D+06                   804.8186     2.9808    29.5095
         INT.     0.8204D+09                  4881.8387    33.0075    58.8690
         TRA.     0.1297D+28                  1341.3644     4.9680    40.1029
         TOT.                       28.940    6223.2030    37.9755    98.9718

 280.00  VIB.     0.1732D+04                  4383.6774    31.3076    30.4746
         ROT.     0.6628D+06                   834.6267     2.9808    29.6179
         INT.     0.1148D+10                  5218.3041    34.2884    60.0925
         TRA.     0.1369D+28                  1391.0445     4.9680    40.2835
         TOT.                       29.326    6609.3487    39.2564   100.3760

 290.00  VIB.     0.2295D+04                  4703.2206    32.6032    31.5958
         ROT.     0.6987D+06                   864.4348     2.9808    29.7225
         INT.     0.1603D+10                  5567.6555    35.5840    61.3183
         TRA.     0.1443D+28                  1440.7247     4.9680    40.4579
         TOT.                       29.725    7008.3802    40.5520   101.7761

 300.00  VIB.     0.3041D+04                  5035.7772    33.9097    32.7231
         ROT.     0.7351D+06                   894.2429     2.9808    29.8236
         INT.     0.2235D+10                  5930.0202    36.8905    62.5466
         TRA.     0.1518D+28                  1490.4049     4.9680    40.6263
         TOT.                       30.137    7420.4250    41.8585   103.1729

 310.00  VIB.     0.4030D+04                  5381.4379    35.2234    33.8563
         ROT.     0.7722D+06                   924.0510     2.9808    29.9213
         INT.     0.3112D+10                  6305.4889    38.2042    63.7776
         TRA.     0.1595D+28                  1540.0850     4.9680    40.7892
         TOT.                       30.563    7845.5739    43.1722   104.5668

 320.00  VIB.     0.5343D+04                  5740.2577    36.5409    34.9954
         ROT.     0.8098D+06                   953.8591     2.9808    30.0159
         INT.     0.4327D+10                  6694.1168    39.5217    65.0114
         TRA.     0.1673D+28                  1589.7652     4.9680    40.9469
         TOT.                       31.001    8283.8820    44.4898   105.9583

 330.00  VIB.     0.7085D+04                  6112.2583    37.8590    36.1400
         ROT.     0.8481D+06                   983.6672     2.9808    30.1077
         INT.     0.6009D+10                  7095.9255    40.8398    66.2477
         TRA.     0.1752D+28                  1639.4454     4.9680    41.0998
         TOT.                       31.452    8735.3709    45.8079   107.3475

 340.00  VIB.     0.9399D+04                  6497.4301    39.1747    37.2898
         ROT.     0.8869D+06                  1013.4753     2.9808    30.1966
         INT.     0.8336D+10                  7510.9054    42.1555    67.4864
         TRA.     0.1832D+28                  1689.1255     4.9680    41.2481
         TOT.                       31.917    9200.0309    47.1235   108.7346

 350.00  VIB.     0.1247D+05                  6895.7346    40.4852    38.4443
         ROT.     0.9263D+06                  1043.2834     2.9808    30.2831
         INT.     0.1156D+11                  7939.0180    43.4660    68.7273
         TRA.     0.1914D+28                  1738.8057     4.9680    41.3921
         TOT.                       32.395    9677.8237    48.4340   110.1195

 360.00  VIB.     0.1656D+05                  7307.1075    41.7880    39.6031
         ROT.     0.9663D+06                  1073.0915     2.9808    30.3670
         INT.     0.1601D+11                  8380.1990    44.7688    69.9701
         TRA.     0.1996D+28                  1788.4859     4.9680    41.5321
         TOT.                       32.886   10168.6849    49.7368   111.5022

 370.00  VIB.     0.2200D+05                  7731.4610    43.0809    40.7657
         ROT.     0.1007D+07                  1102.8996     2.9808    30.4487
         INT.     0.2215D+11                  8834.3606    46.0617    71.2144
         TRA.     0.2080D+28                  1838.1660     4.9680    41.6682
         TOT.                       33.390   10672.5266    51.0297   112.8826

 380.00  VIB.     0.2924D+05                  8168.6866    44.3621    41.9316
         ROT.     0.1048D+07                  1132.7077     2.9808    30.5282
         INT.     0.3064D+11                  9301.3943    47.3429    72.4598
         TRA.     0.2165D+28                  1887.8462     4.9680    41.8007
         TOT.                       33.906   11189.2405    52.3109   114.2605

 390.00  VIB.     0.3888D+05                  8618.6578    45.6298    43.1004
         ROT.     0.1090D+07                  1162.5158     2.9808    30.6056
         INT.     0.4236D+11                  9781.1736    48.6106    73.7060
         TRA.     0.2251D+28                  1937.5263     4.9680    41.9297
         TOT.                       34.436   11718.6999    53.5786   115.6357

 400.00  VIB.     0.5172D+05                  9081.2324    46.8825    44.2714
         ROT.     0.1132D+07                  1192.3239     2.9808    30.6811
         INT.     0.5854D+11                 10273.5563    49.8634    74.9525
         TRA.     0.2338D+28                  1987.2065     4.9680    42.0555
         TOT.                       34.978   12260.7628    54.8314   117.0080

   *: NOTE: HEATS OF FORMATION ARE RELATIVE TO THE
            ELEMENTS IN THEIR STANDARD STATE AT 298K
              (=  Standard Enthalpy of Formation).

            Hvib:  Zero-point energy is not included.
                   frequencies of less than zero cm-1 are not included.
            Hrot = (3/2)RT
            Htra = (3/2)RT + pV = (5/2)RT

            Heat capacity is Cp, not Cv

           For more information, see: HTTP://OpenMOPAC.net/Manual/thermochemistry.html


           FORCE CONSTANT IN CARTESIAN COORDINATES (Millidynes/A)

    ATOM   CHEMICAL       X               Y               Z
   NUMBER   SYMBOL  FORCE CONSTANT  FORCE CONSTANT  FORCE CONSTANT

      1       C       10.078695        8.559898        7.396505
      2       C        9.016035        8.497673        7.823475
      3       C        8.486047        8.248203        8.197681
      4       C        8.523105        8.933575        7.896026
      5       C       12.825700       12.025529        2.899409
      6       C       12.957615       11.825761        2.377603
      7       C       10.166724        4.989220       11.511070
      8       C       10.165947        4.983807       11.517057
      9       C       11.778188        5.549517       10.095511
     10       C       11.779292        5.550771       10.091949
     11       H        0.702610        4.558853        0.577477
     12       H        0.832640        1.983390        3.445078
     13       H        0.832842        1.985006        3.443198
     14       H        0.816028        2.185091        3.785053
     15       H        0.813752        2.179006        3.793386
     16       H        4.965821        1.162480        0.666821
     17       H        1.905447        1.000055        3.732626
     18       H        1.899278        1.005104        3.733970
     19       H        4.229678        1.861936        0.644748
     20       H        0.976251        0.543674        4.943710
     21       H        0.975744        0.540677        4.946546
     22       H        0.982122        4.893006        0.335326
     23       H        3.049909        1.285518        2.123278
     24       H        3.050819        1.289121        2.118885



 TOTAL CPU TIME:             3.62 SECONDS

 == MOPAC DONE ==
