 *******************************************************************************
 ** Site#: 14399           For non-commercial use only        Version 13.159M **
 *******************************************************************************
 ** Cite this work as: MOPAC2012, James J. P. Stewart, Stewart Computational  **
 ** Chemistry, Version 13.159M web: HTTP://OpenMOPAC.net  Days remaining:   6 **
 *******************************************************************************
 **                                                                           **
 **                                MOPAC2012                                  **
 **                                                                           **
 *******************************************************************************

                            PM3 CALCULATION RESULTS


 *******************************************************************************
 *  CALCULATION DONE:                                Mon Jun  2 14:11:54 2014  *
 *  PM3      - The PM3 Hamiltonian to be used
 *  PRECISE  - CRITERIA TO BE INCREASED BY 100 TIMES
 *  NOSYM    - POINT-GROUP SYMMETRY SET TO C1
 *  T=       - A TIME OF 172800.0 SECONDS REQUESTED
 *  DUMP=N   - RESTART FILE WRITTEN EVERY  7200.000 SECONDS
 *******************************************************************************
pm3  precise nosym
 InChI=1S/C8H14O/c1-2-3-4-7-5-6-8(7)9/h3-4,7-9H,2,5-6H2,1H3

   ATOM   CHEMICAL          X               Y               Z
  NUMBER   SYMBOL      (ANGSTROMS)     (ANGSTROMS)     (ANGSTROMS)
 
     1       C         -1.02580000  *  -0.91790000  *  -0.34530000  *
     2       C         -1.84530000  *   0.40900000  *  -0.43390000  *
     3       C         -2.02090000  *  -1.40900000  *   0.70290000  *
     4       C         -2.86630000  *  -0.19810000  *   0.51770000  *
     5       C          2.73610000  *   0.03900000  *  -0.20950000  *
     6       C          3.10090000  *   1.51780000  *  -0.18210000  *
     7       C          0.38960000  *  -0.73470000  *   0.13300000  *
     8       C          1.31300000  *  -0.15870000  *  -0.64800000  *
     9       O         -2.39310000  *   0.63150000  *  -1.74890000  *
    10       H         -1.07680000  *  -1.53020000  *  -1.27770000  *
    11       H         -1.34820000  *   1.31380000  *  -0.00700000  *
    12       H         -2.53630000  *  -2.34970000  *   0.39750000  *
    13       H         -1.61870000  *  -1.48170000  *   1.74100000  *
    14       H         -3.84540000  *  -0.42920000  *   0.03550000  *
    15       H         -2.98810000  *   0.39690000  *   1.45290000  *
    16       H          2.93410000  *  -0.39570000  *   0.79850000  *
    17       H          3.40140000  *  -0.49060000  *  -0.92920000  *
    18       H          4.16260000  *   1.63940000  *   0.13080000  *
    19       H          2.98290000  *   1.97880000  *  -1.19000000  *
    20       H          2.46170000  *   2.06840000  *   0.54610000  *
    21       H          1.03640000  *   0.18670000  *  -1.64450000  *
    22       H          0.66550000  *  -1.08690000  *   1.12660000  *
    23       H         -1.61920000  *   1.00130000  *  -2.32880000  *
 


          CARTESIAN COORDINATES 

    NO.       ATOM         X         Y         Z

     1         C       -1.0258   -0.9179   -0.3453
     2         C       -1.8453    0.4090   -0.4339
     3         C       -2.0209   -1.4090    0.7029
     4         C       -2.8663   -0.1981    0.5177
     5         C        2.7361    0.0390   -0.2095
     6         C        3.1009    1.5178   -0.1821
     7         C        0.3896   -0.7347    0.1330
     8         C        1.3130   -0.1587   -0.6480
     9         O       -2.3931    0.6315   -1.7489
    10         H       -1.0768   -1.5302   -1.2777
    11         H       -1.3482    1.3138   -0.0070
    12         H       -2.5363   -2.3497    0.3975
    13         H       -1.6187   -1.4817    1.7410
    14         H       -3.8454   -0.4292    0.0355
    15         H       -2.9881    0.3969    1.4529
    16         H        2.9341   -0.3957    0.7985
    17         H        3.4014   -0.4906   -0.9292
    18         H        4.1626    1.6394    0.1308
    19         H        2.9829    1.9788   -1.1900
    20         H        2.4617    2.0684    0.5461
    21         H        1.0364    0.1867   -1.6445
    22         H        0.6655   -1.0869    1.1266
    23         H       -1.6192    1.0013   -2.3288

  H: (PM3): J. J. P. STEWART, J. COMP. CHEM. 10, 209 (1989).
  C: (PM3): J. J. P. STEWART, J. COMP. CHEM. 10, 209 (1989).
  O: (PM3): J. J. P. STEWART, J. COMP. CHEM. 10, 209 (1989).

           Empirical Formula: C8 H14 O  =    23 atoms



      MOLECULAR POINT GROUP   :   C1  


      RHF CALCULATION, NO. OF DOUBLY OCCUPIED LEVELS =   26

      Geometry optimization using EF

          DIAGONAL MATRIX USED AS START HESSIAN

 CYCLE:     1 TIME:   0.010 TIME LEFT:  2.00D  GRAD.:   158.188 HEAT:-32.02993
 CYCLE:     2 TIME:   0.014 TIME LEFT:  2.00D  GRAD.:    62.670 HEAT:-38.63586
 CYCLE:     3 TIME:   0.013 TIME LEFT:  2.00D  GRAD.:    94.474 HEAT:-38.83501
 CYCLE:     4 TIME:   0.007 TIME LEFT:  2.00D  GRAD.:    89.701 HEAT:-39.20583
 CYCLE:     5 TIME:   0.007 TIME LEFT:  2.00D  GRAD.:    69.453 HEAT:-39.91678
 CYCLE:     6 TIME:   0.007 TIME LEFT:  2.00D  GRAD.:    69.837 HEAT:-39.96504
 CYCLE:     7 TIME:   0.007 TIME LEFT:  2.00D  GRAD.:    67.689 HEAT:-40.23006
 CYCLE:     8 TIME:   0.007 TIME LEFT:  2.00D  GRAD.:    70.799 HEAT:-40.26821
 CYCLE:     9 TIME:   0.013 TIME LEFT:  2.00D  GRAD.:    27.685 HEAT:-41.40312
 CYCLE:    10 TIME:   0.013 TIME LEFT:  2.00D  GRAD.:    19.184 HEAT:-41.57531
 CYCLE:    11 TIME:   0.013 TIME LEFT:  2.00D  GRAD.:    12.313 HEAT:-41.64484
 CYCLE:    12 TIME:   0.013 TIME LEFT:  2.00D  GRAD.:     7.979 HEAT:-41.69149
 CYCLE:    13 TIME:   0.007 TIME LEFT:  2.00D  GRAD.:     7.587 HEAT:-41.72968
 CYCLE:    14 TIME:   0.007 TIME LEFT:  2.00D  GRAD.:    16.029 HEAT:-41.73504
 CYCLE:    15 TIME:   0.007 TIME LEFT:  2.00D  GRAD.:    12.854 HEAT:-41.76840
 CYCLE:    16 TIME:   0.013 TIME LEFT:  2.00D  GRAD.:     6.862 HEAT:-41.80104
 CYCLE:    17 TIME:   0.012 TIME LEFT:  2.00D  GRAD.:     3.556 HEAT:-41.81392
 CYCLE:    18 TIME:   0.012 TIME LEFT:  2.00D  GRAD.:     2.726 HEAT:-41.81813
 CYCLE:    19 TIME:   0.007 TIME LEFT:  2.00D  GRAD.:     2.548 HEAT:-41.82485
 CYCLE:    20 TIME:   0.007 TIME LEFT:  2.00D  GRAD.:     5.386 HEAT:-41.83292
 CYCLE:    21 TIME:   0.007 TIME LEFT:  2.00D  GRAD.:     3.671 HEAT:-41.84167
 CYCLE:    22 TIME:   0.007 TIME LEFT:  2.00D  GRAD.:     6.588 HEAT:-41.83833
 CYCLE:    23 TIME:   0.007 TIME LEFT:  2.00D  GRAD.:     3.038 HEAT:-41.85032
 CYCLE:    24 TIME:   0.007 TIME LEFT:  2.00D  GRAD.:     3.691 HEAT:-41.85176
 CYCLE:    25 TIME:   0.007 TIME LEFT:  2.00D  GRAD.:     2.715 HEAT:-41.85713
 CYCLE:    26 TIME:   0.007 TIME LEFT:  2.00D  GRAD.:     3.517 HEAT:-41.85792
 CYCLE:    27 TIME:   0.007 TIME LEFT:  2.00D  GRAD.:     2.156 HEAT:-41.86309
 CYCLE:    28 TIME:   0.007 TIME LEFT:  2.00D  GRAD.:     2.345 HEAT:-41.86585
 CYCLE:    29 TIME:   0.007 TIME LEFT:  2.00D  GRAD.:     1.673 HEAT:-41.86999
 CYCLE:    30 TIME:   0.007 TIME LEFT:  2.00D  GRAD.:     2.457 HEAT:-41.87821
 CYCLE:    31 TIME:   0.007 TIME LEFT:  2.00D  GRAD.:     3.170 HEAT:-41.88203
 CYCLE:    32 TIME:   0.007 TIME LEFT:  2.00D  GRAD.:     1.839 HEAT:-41.88725
 CYCLE:    33 TIME:   0.007 TIME LEFT:  2.00D  GRAD.:     1.894 HEAT:-41.89192
 CYCLE:    34 TIME:   0.007 TIME LEFT:  2.00D  GRAD.:     2.175 HEAT:-41.89617
 CYCLE:    35 TIME:   0.007 TIME LEFT:  2.00D  GRAD.:     1.403 HEAT:-41.90043
 CYCLE:    36 TIME:   0.007 TIME LEFT:  2.00D  GRAD.:     1.111 HEAT:-41.90354
 CYCLE:    37 TIME:   0.007 TIME LEFT:  2.00D  GRAD.:     1.586 HEAT:-41.90519
 CYCLE:    38 TIME:   0.007 TIME LEFT:  2.00D  GRAD.:     1.187 HEAT:-41.90729
 CYCLE:    39 TIME:   0.007 TIME LEFT:  2.00D  GRAD.:     0.793 HEAT:-41.90934
 CYCLE:    40 TIME:   0.007 TIME LEFT:  2.00D  GRAD.:     0.929 HEAT:-41.91081
 CYCLE:    41 TIME:   0.007 TIME LEFT:  2.00D  GRAD.:     1.013 HEAT:-41.91262
 CYCLE:    42 TIME:   0.007 TIME LEFT:  2.00D  GRAD.:     1.153 HEAT:-41.91466
 CYCLE:    43 TIME:   0.007 TIME LEFT:  2.00D  GRAD.:     0.962 HEAT:-41.91683
 CYCLE:    44 TIME:   0.007 TIME LEFT:  2.00D  GRAD.:     0.849 HEAT:-41.91901
 CYCLE:    45 TIME:   0.007 TIME LEFT:  2.00D  GRAD.:     0.861 HEAT:-41.92069
 CYCLE:    46 TIME:   0.007 TIME LEFT:  2.00D  GRAD.:     0.773 HEAT:-41.92227
 CYCLE:    47 TIME:   0.007 TIME LEFT:  2.00D  GRAD.:     0.799 HEAT:-41.92375
 CYCLE:    48 TIME:   0.007 TIME LEFT:  2.00D  GRAD.:     0.883 HEAT:-41.92498
 CYCLE:    49 TIME:   0.007 TIME LEFT:  2.00D  GRAD.:     0.778 HEAT:-41.92611
 CYCLE:    50 TIME:   0.007 TIME LEFT:  2.00D  GRAD.:     0.678 HEAT:-41.92721
 CYCLE:    51 TIME:   0.007 TIME LEFT:  2.00D  GRAD.:     0.770 HEAT:-41.92848
 CYCLE:    52 TIME:   0.007 TIME LEFT:  2.00D  GRAD.:     0.931 HEAT:-41.93008
 CYCLE:    53 TIME:   0.007 TIME LEFT:  2.00D  GRAD.:     1.140 HEAT:-41.93170
 CYCLE:    54 TIME:   0.007 TIME LEFT:  2.00D  GRAD.:     0.930 HEAT:-41.93335
 CYCLE:    55 TIME:   0.007 TIME LEFT:  2.00D  GRAD.:     0.660 HEAT:-41.93454
 CYCLE:    56 TIME:   0.010 TIME LEFT:  2.00D  GRAD.:     0.709 HEAT:-41.93546
 CYCLE:    57 TIME:   0.009 TIME LEFT:  2.00D  GRAD.:     0.875 HEAT:-41.93663
 CYCLE:    58 TIME:   0.007 TIME LEFT:  2.00D  GRAD.:     0.798 HEAT:-41.93778
 CYCLE:    59 TIME:   0.007 TIME LEFT:  2.00D  GRAD.:     0.755 HEAT:-41.93909
 CYCLE:    60 TIME:   0.007 TIME LEFT:  2.00D  GRAD.:     0.619 HEAT:-41.93987
 CYCLE:    61 TIME:   0.007 TIME LEFT:  2.00D  GRAD.:     1.135 HEAT:-41.94124
 CYCLE:    62 TIME:   0.007 TIME LEFT:  2.00D  GRAD.:     0.602 HEAT:-41.94191
 CYCLE:    63 TIME:   0.007 TIME LEFT:  2.00D  GRAD.:     0.432 HEAT:-41.94276
 CYCLE:    64 TIME:   0.010 TIME LEFT:  2.00D  GRAD.:     0.652 HEAT:-41.94436
 CYCLE:    65 TIME:   0.010 TIME LEFT:  2.00D  GRAD.:     0.667 HEAT:-41.94535
 CYCLE:    66 TIME:   0.008 TIME LEFT:  2.00D  GRAD.:     0.709 HEAT:-41.94674
 CYCLE:    67 TIME:   0.007 TIME LEFT:  2.00D  GRAD.:     0.606 HEAT:-41.94735
 CYCLE:    68 TIME:   0.007 TIME LEFT:  2.00D  GRAD.:     0.561 HEAT:-41.94849
 CYCLE:    69 TIME:   0.007 TIME LEFT:  2.00D  GRAD.:     0.556 HEAT:-41.94901
 CYCLE:    70 TIME:   0.007 TIME LEFT:  2.00D  GRAD.:     0.633 HEAT:-41.95007
 CYCLE:    71 TIME:   0.007 TIME LEFT:  2.00D  GRAD.:     0.463 HEAT:-41.95048
 CYCLE:    72 TIME:   0.007 TIME LEFT:  2.00D  GRAD.:     0.444 HEAT:-41.95112
 CYCLE:    73 TIME:   0.007 TIME LEFT:  2.00D  GRAD.:     0.622 HEAT:-41.95167
 CYCLE:    74 TIME:   0.007 TIME LEFT:  2.00D  GRAD.:     0.713 HEAT:-41.95245
 CYCLE:    75 TIME:   0.007 TIME LEFT:  2.00D  GRAD.:     0.570 HEAT:-41.95332
 CYCLE:    76 TIME:   0.007 TIME LEFT:  2.00D  GRAD.:     0.440 HEAT:-41.95378
 CYCLE:    77 TIME:   0.007 TIME LEFT:  2.00D  GRAD.:     0.545 HEAT:-41.95454
 CYCLE:    78 TIME:   0.007 TIME LEFT:  2.00D  GRAD.:     0.709 HEAT:-41.95510
 CYCLE:    79 TIME:   0.007 TIME LEFT:  2.00D  GRAD.:     0.773 HEAT:-41.95594
 CYCLE:    80 TIME:   0.007 TIME LEFT:  2.00D  GRAD.:     0.616 HEAT:-41.95677
 CYCLE:    81 TIME:   0.007 TIME LEFT:  2.00D  GRAD.:     0.709 HEAT:-41.95825
 CYCLE:    82 TIME:   0.007 TIME LEFT:  2.00D  GRAD.:     0.720 HEAT:-41.95924
 CYCLE:    83 TIME:   0.007 TIME LEFT:  2.00D  GRAD.:     0.518 HEAT:-41.96017
 CYCLE:    84 TIME:   0.007 TIME LEFT:  2.00D  GRAD.:     0.376 HEAT:-41.96056
 CYCLE:    85 TIME:   0.007 TIME LEFT:  2.00D  GRAD.:     0.345 HEAT:-41.96096
 CYCLE:    86 TIME:   0.007 TIME LEFT:  2.00D  GRAD.:     0.301 HEAT:-41.96118
 CYCLE:    87 TIME:   0.007 TIME LEFT:  2.00D  GRAD.:     0.249 HEAT:-41.96138
 CYCLE:    88 TIME:   0.007 TIME LEFT:  2.00D  GRAD.:     0.230 HEAT:-41.96150
 CYCLE:    89 TIME:   0.007 TIME LEFT:  2.00D  GRAD.:     0.346 HEAT:-41.96166
 CYCLE:    90 TIME:   0.007 TIME LEFT:  2.00D  GRAD.:     0.222 HEAT:-41.96177
 CYCLE:    91 TIME:   0.007 TIME LEFT:  2.00D  GRAD.:     0.204 HEAT:-41.96196
 CYCLE:    92 TIME:   0.007 TIME LEFT:  2.00D  GRAD.:     0.181 HEAT:-41.96202
 CYCLE:    93 TIME:   0.007 TIME LEFT:  2.00D  GRAD.:     0.436 HEAT:-41.96204
 CYCLE:    94 TIME:   0.007 TIME LEFT:  2.00D  GRAD.:     0.247 HEAT:-41.96227
 CYCLE:    95 TIME:   0.007 TIME LEFT:  2.00D  GRAD.:     0.203 HEAT:-41.96243
 CYCLE:    96 TIME:   0.007 TIME LEFT:  2.00D  GRAD.:     0.279 HEAT:-41.96285
 CYCLE:    97 TIME:   0.007 TIME LEFT:  2.00D  GRAD.:     0.470 HEAT:-41.96354
 CYCLE:    98 TIME:   0.008 TIME LEFT:  2.00D  GRAD.:     0.939 HEAT:-41.96464
 CYCLE:    99 TIME:   0.007 TIME LEFT:  2.00D  GRAD.:     0.672 HEAT:-41.96547
 CYCLE:   100 TIME:   0.007 TIME LEFT:  2.00D  GRAD.:     0.736 HEAT:-41.96715
 CYCLE:   101 TIME:   0.007 TIME LEFT:  2.00D  GRAD.:     0.464 HEAT:-41.96774
 CYCLE:   102 TIME:   0.007 TIME LEFT:  2.00D  GRAD.:     0.324 HEAT:-41.96862
 CYCLE:   103 TIME:   0.007 TIME LEFT:  2.00D  GRAD.:     0.270 HEAT:-41.96899
 CYCLE:   104 TIME:   0.007 TIME LEFT:  2.00D  GRAD.:     0.294 HEAT:-41.96932
 CYCLE:   105 TIME:   0.007 TIME LEFT:  2.00D  GRAD.:     0.238 HEAT:-41.96949
 CYCLE:   106 TIME:   0.008 TIME LEFT:  2.00D  GRAD.:     0.235 HEAT:-41.96970
 CYCLE:   107 TIME:   0.007 TIME LEFT:  2.00D  GRAD.:     0.305 HEAT:-41.96981
 CYCLE:   108 TIME:   0.007 TIME LEFT:  2.00D  GRAD.:     0.467 HEAT:-41.97002
 CYCLE:   109 TIME:   0.007 TIME LEFT:  2.00D  GRAD.:     0.499 HEAT:-41.97062
 CYCLE:   110 TIME:   0.007 TIME LEFT:  2.00D  GRAD.:     0.487 HEAT:-41.97137
 CYCLE:   111 TIME:   0.007 TIME LEFT:  2.00D  GRAD.:     0.686 HEAT:-41.97258
 CYCLE:   112 TIME:   0.007 TIME LEFT:  2.00D  GRAD.:     0.980 HEAT:-41.97409
 CYCLE:   113 TIME:   0.007 TIME LEFT:  2.00D  GRAD.:     2.340 HEAT:-41.97746
 CYCLE:   114 TIME:   0.007 TIME LEFT:  2.00D  GRAD.:     1.421 HEAT:-41.98179
 CYCLE:   115 TIME:   0.007 TIME LEFT:  2.00D  GRAD.:     1.458 HEAT:-41.98892
 CYCLE:   116 TIME:   0.007 TIME LEFT:  2.00D  GRAD.:     1.588 HEAT:-41.99490
 CYCLE:   117 TIME:   0.008 TIME LEFT:  2.00D  GRAD.:     1.873 HEAT:-41.99569
 CYCLE:   118 TIME:   0.008 TIME LEFT:  2.00D  GRAD.:     1.618 HEAT:-41.99891
 CYCLE:   119 TIME:   0.007 TIME LEFT:  2.00D  GRAD.:     0.922 HEAT:-42.00107
 CYCLE:   120 TIME:   0.007 TIME LEFT:  2.00D  GRAD.:     0.506 HEAT:-42.00245
 CYCLE:   121 TIME:   0.007 TIME LEFT:  2.00D  GRAD.:     0.951 HEAT:-42.00426
 CYCLE:   122 TIME:   0.007 TIME LEFT:  2.00D  GRAD.:     0.684 HEAT:-42.00517
 CYCLE:   123 TIME:   0.007 TIME LEFT:  2.00D  GRAD.:     0.396 HEAT:-42.00565
 CYCLE:   124 TIME:   0.007 TIME LEFT:  2.00D  GRAD.:     0.385 HEAT:-42.00597
 CYCLE:   125 TIME:   0.007 TIME LEFT:  2.00D  GRAD.:     0.422 HEAT:-42.00636
 CYCLE:   126 TIME:   0.007 TIME LEFT:  2.00D  GRAD.:     0.486 HEAT:-42.00672
 CYCLE:   127 TIME:   0.007 TIME LEFT:  2.00D  GRAD.:     0.323 HEAT:-42.00697
 CYCLE:   128 TIME:   0.007 TIME LEFT:  2.00D  GRAD.:     0.231 HEAT:-42.00713
 CYCLE:   129 TIME:   0.007 TIME LEFT:  2.00D  GRAD.:     0.187 HEAT:-42.00718
 CYCLE:   130 TIME:   0.007 TIME LEFT:  2.00D  GRAD.:     0.150 HEAT:-42.00721
 CYCLE:   131 TIME:   0.008 TIME LEFT:  2.00D  GRAD.:     0.140 HEAT:-42.00724
 CYCLE:   132 TIME:   0.008 TIME LEFT:  2.00D  GRAD.:     0.104 HEAT:-42.00728
 CYCLE:   133 TIME:   0.007 TIME LEFT:  2.00D  GRAD.:     0.076 HEAT:-42.00730
 CYCLE:   134 TIME:   0.007 TIME LEFT:  2.00D  GRAD.:     0.141 HEAT:-42.00731
 CYCLE:   135 TIME:   0.007 TIME LEFT:  2.00D  GRAD.:     0.106 HEAT:-42.00733
 CYCLE:   136 TIME:   0.007 TIME LEFT:  2.00D  GRAD.:     0.082 HEAT:-42.00736
 CYCLE:   137 TIME:   0.007 TIME LEFT:  2.00D  GRAD.:     0.080 HEAT:-42.00737
 CYCLE:   138 TIME:   0.007 TIME LEFT:  2.00D  GRAD.:     0.214 HEAT:-42.00739
 CYCLE:   139 TIME:   0.008 TIME LEFT:  2.00D  GRAD.:     0.135 HEAT:-42.00742
 CYCLE:   140 TIME:   0.007 TIME LEFT:  2.00D  GRAD.:     0.106 HEAT:-42.00745
 CYCLE:   141 TIME:   0.007 TIME LEFT:  2.00D  GRAD.:     0.121 HEAT:-42.00750
 CYCLE:   142 TIME:   0.007 TIME LEFT:  2.00D  GRAD.:     0.107 HEAT:-42.00753
 CYCLE:   143 TIME:   0.007 TIME LEFT:  2.00D  GRAD.:     0.071 HEAT:-42.00757
 CYCLE:   144 TIME:   0.007 TIME LEFT:  2.00D  GRAD.:     0.115 HEAT:-42.00760
 CYCLE:   145 TIME:   0.007 TIME LEFT:  2.00D  GRAD.:     0.098 HEAT:-42.00762
 CYCLE:   146 TIME:   0.007 TIME LEFT:  2.00D  GRAD.:     0.129 HEAT:-42.00762
 CYCLE:   147 TIME:   0.007 TIME LEFT:  2.00D  GRAD.:     0.066 HEAT:-42.00766
 CYCLE:   148 TIME:   0.007 TIME LEFT:  2.00D  GRAD.:     0.056 HEAT:-42.00767
 CYCLE:   149 TIME:   0.007 TIME LEFT:  2.00D  GRAD.:     0.023 HEAT:-42.00768

     RMS GRADIENT =  0.02349  IS LESS THAN CUTOFF =  0.05000



 -------------------------------------------------------------------------------
pm3  precise nosym
 InChI=1S/C8H14O/c1-2-3-4-7-5-6-8(7)9/h3-4,7-9H,2,5-6H2,1H3



     GEOMETRY OPTIMISED USING EIGENVECTOR FOLLOWING (EF).     
     SCF FIELD WAS ACHIEVED                                   


                              PM3 CALCULATION
                                                       MOPAC2012 (Version: 13.159M)
                                                       Mon Jun  2 14:11:55 2014
                                                       No. of days left =   6




          FINAL HEAT OF FORMATION =        -42.00768 KCAL/MOL =    -175.76011 KJ/MOL


          TOTAL ENERGY            =      -1457.52739 EV
          ELECTRONIC ENERGY       =      -7355.70268 EV  POINT GROUP:     C1  
          CORE-CORE REPULSION     =       5898.17529 EV
          COSMO AREA              =        184.11 SQUARE ANGSTROMS
          COSMO VOLUME            =        181.32 CUBIC ANGSTROMS

          GRADIENT NORM           =          0.02349
          IONIZATION POTENTIAL    =          9.836213 EV
          HOMO LUMO ENERGIES (EV) =         -9.836  0.934
          NO. OF FILLED LEVELS    =         26
          MOLECULAR WEIGHT        =        126.198

          MOLECULAR DIMENSIONS (Angstroms)

            Atom       Atom       Distance
            H    18    H    14     8.24172
            H    23    H    13     4.66921
            H    10    H    15     3.48120


          SCF CALCULATIONS        =        159
          COMPUTATION TIME        =          1.130 SECONDS




   ATOM   CHEMICAL          X               Y               Z
  NUMBER   SYMBOL      (ANGSTROMS)     (ANGSTROMS)     (ANGSTROMS)
 
     1       C         -1.02291096  *  -0.96660931  *  -0.36797689  *
     2       C         -1.81451648  *   0.37571293  *  -0.54091929  *
     3       C         -1.99561290  *  -1.37078830  *   0.76653482  *
     4       C         -2.81684917  *  -0.08709662  *   0.54759128  *
     5       C          2.69321859  *   0.06944503  *  -0.23118180  *
     6       C          3.12163293  *   1.51294342  *  -0.07611119  *
     7       C          0.39938081  *  -0.83946142  *   0.02676425  *
     8       C          1.25566072  *  -0.03109318  *  -0.60005167  *
     9       O         -2.44611842  *   0.54802572  *  -1.77947930  *
    10       H         -1.09087879  *  -1.63434920  *  -1.25456780  *
    11       H         -1.23160441  *   1.28519838  *  -0.27996767  *
    12       H         -2.54356588  *  -2.30699978  *   0.58388405  *
    13       H         -1.53082019  *  -1.45485447  *   1.76133075  *
    14       H         -3.84533627  *  -0.25298947  *   0.19040881  *
    15       H         -2.87744858  *   0.58088554  *   1.41927490  *
    16       H          2.90774954  *  -0.49223289  *   0.70011147  *
    17       H          3.29128834  *  -0.42443646  *  -1.02352032  *
    18       H          4.18869750  *   1.58543424  *   0.16982636  *
    19       H          2.95674881  *   2.08741264  *  -0.99736454  *
    20       H          2.56450180  *   2.01534078  *   0.72517890  *
    21       H          0.92710367  *   0.60300629  *  -1.43372582  *
    22       H          0.72279883  *  -1.47024991  *   0.86508621  *
    23       H         -1.74970513  *   0.63347221  *  -2.41738035  *

           Empirical Formula: C8 H14 O  =    23 atoms



      MOLECULAR POINT GROUP   :   C1  


                  EIGENVALUES  
 -41.31736 -36.88639 -35.01650 -30.22234 -25.26471 -24.29858 -21.87627 -19.82869
 -18.81971 -18.15637 -17.08077 -16.45514 -15.73651 -15.18447 -14.59774 -14.25225
 -13.64928 -13.38781 -12.99099 -12.64338 -12.50582 -12.09300 -11.89096 -11.63230
 -10.82138  -9.83621   0.93400   3.05588   3.09700   3.24054   3.52383   3.56262
   3.69040   3.75452   3.85892   3.92802   4.05298   4.12080   4.22535   4.33132
   4.35065   4.46703   4.60689   4.69352   4.76779   5.00586   5.28281   5.63500
   5.77215   5.84497


              NET ATOMIC CHARGES AND DIPOLE CONTRIBUTIONS

  ATOM NO.   TYPE          CHARGE      No. of ELECS.   s-Pop       p-Pop       
    1          C          -0.103921        4.1039     1.19011     2.91381
    2          C           0.066662        3.9333     1.18776     2.74558
    3          C          -0.098807        4.0988     1.17239     2.92642
    4          C          -0.115450        4.1154     1.17426     2.94119
    5          C          -0.059199        4.0592     1.14524     2.91396
    6          C          -0.106239        4.1062     1.13769     2.96855
    7          C          -0.136130        4.1361     1.19385     2.94228
    8          C          -0.155220        4.1552     1.19556     2.95966
    9          O          -0.296451        6.2965     1.80681     4.48964
   10          H           0.087447        0.9126     0.91255
   11          H           0.058174        0.9418     0.94183
   12          H           0.057418        0.9426     0.94258
   13          H           0.058806        0.9412     0.94119
   14          H           0.073570        0.9264     0.92643
   15          H           0.058530        0.9415     0.94147
   16          H           0.052043        0.9480     0.94796
   17          H           0.053416        0.9466     0.94658
   18          H           0.037967        0.9620     0.96203
   19          H           0.037442        0.9626     0.96256
   20          H           0.040249        0.9598     0.95975
   21          H           0.097436        0.9026     0.90256
   22          H           0.105949        0.8941     0.89405
   23          H           0.186307        0.8137     0.81369
 DIPOLE           X         Y         Z       TOTAL
 POINT-CHG.     0.860    -0.076     0.441     0.970
 HYBRID         0.603    -0.020    -0.187     0.631
 SUM            1.463    -0.096     0.254     1.488


          ATOMIC ORBITAL ELECTRON POPULATIONS

    Atom      s        px        py        pz   
    1  C   1.19011   0.92924   0.98809   0.99648
    2  C   1.18776   0.93845   0.94034   0.86679
    3  C   1.17239   0.97463   0.97399   0.97780
    4  C   1.17426   0.98662   0.97120   0.98337
    5  C   1.14524   0.93814   0.96684   1.00898
    6  C   1.13769   1.00234   0.95622   1.00999
    7  C   1.19385   0.94902   0.99617   0.99708
    8  C   1.19556   0.96085   0.99888   0.99993
    9  O   1.80681   1.36308   1.95685   1.16971
   10  H   0.91255
   11  H   0.94183
   12  H   0.94258
   13  H   0.94119
   14  H   0.92643
   15  H   0.94147
   16  H   0.94796
   17  H   0.94658
   18  H   0.96203
   19  H   0.96256
   20  H   0.95975
   21  H   0.90256
   22  H   0.89405
   23  H   0.81369
 *******************************************************************************
 ** Site#: 14399           For non-commercial use only        Version 13.159M **
 *******************************************************************************
 ** Cite this work as: MOPAC2012, James J. P. Stewart, Stewart Computational  **
 ** Chemistry, Version 13.159M web: HTTP://OpenMOPAC.net  Days remaining:   6 **
 *******************************************************************************
 **                                                                           **
 **                                MOPAC2012                                  **
 **                                                                           **
 *******************************************************************************

                            PM3 CALCULATION RESULTS


 *******************************************************************************
 *  CALCULATION DONE:                                Mon Jun  2 14:11:55 2014  *
 *  PM3      - The PM3 Hamiltonian to be used
 *  OLDGEO   - PREVIOUS GEOMETRY TO BE USED
 *  PRECISE  - CRITERIA TO BE INCREASED BY 100 TIMES
 *  NOSYM    - POINT-GROUP SYMMETRY SET TO C1
 *  T=       - A TIME OF 172800.0 SECONDS REQUESTED
 *  DUMP=N   - RESTART FILE WRITTEN EVERY  7200.000 SECONDS
 *  THERMO   - THERMODYNAMIC QUANTITIES TO BE CALCULATED
 *******************************************************************************
oldgeo thermo nosym precise  pm3

   ATOM   CHEMICAL          X               Y               Z
  NUMBER   SYMBOL      (ANGSTROMS)     (ANGSTROMS)     (ANGSTROMS)
 
     1       C         -1.02291096  *  -0.96660931  *  -0.36797689  *
     2       C         -1.81451648  *   0.37571293  *  -0.54091929  *
     3       C         -1.99561290  *  -1.37078830  *   0.76653482  *
     4       C         -2.81684917  *  -0.08709662  *   0.54759128  *
     5       C          2.69321859  *   0.06944503  *  -0.23118180  *
     6       C          3.12163293  *   1.51294342  *  -0.07611119  *
     7       C          0.39938081  *  -0.83946142  *   0.02676425  *
     8       C          1.25566072  *  -0.03109318  *  -0.60005167  *
     9       O         -2.44611842  *   0.54802572  *  -1.77947930  *
    10       H         -1.09087879  *  -1.63434920  *  -1.25456780  *
    11       H         -1.23160441  *   1.28519838  *  -0.27996767  *
    12       H         -2.54356588  *  -2.30699978  *   0.58388405  *
    13       H         -1.53082019  *  -1.45485447  *   1.76133075  *
    14       H         -3.84533627  *  -0.25298947  *   0.19040881  *
    15       H         -2.87744858  *   0.58088554  *   1.41927490  *
    16       H          2.90774954  *  -0.49223289  *   0.70011147  *
    17       H          3.29128834  *  -0.42443646  *  -1.02352032  *
    18       H          4.18869750  *   1.58543424  *   0.16982636  *
    19       H          2.95674881  *   2.08741264  *  -0.99736454  *
    20       H          2.56450180  *   2.01534078  *   0.72517890  *
    21       H          0.92710367  *   0.60300629  *  -1.43372582  *
    22       H          0.72279883  *  -1.47024991  *   0.86508621  *
    23       H         -1.74970513  *   0.63347221  *  -2.41738035  *
 


          CARTESIAN COORDINATES 

    NO.       ATOM         X         Y         Z

     1         C       -1.0229   -0.9666   -0.3680
     2         C       -1.8145    0.3757   -0.5409
     3         C       -1.9956   -1.3708    0.7665
     4         C       -2.8168   -0.0871    0.5476
     5         C        2.6932    0.0694   -0.2312
     6         C        3.1216    1.5129   -0.0761
     7         C        0.3994   -0.8395    0.0268
     8         C        1.2557   -0.0311   -0.6001
     9         O       -2.4461    0.5480   -1.7795
    10         H       -1.0909   -1.6343   -1.2546
    11         H       -1.2316    1.2852   -0.2800
    12         H       -2.5436   -2.3070    0.5839
    13         H       -1.5308   -1.4549    1.7613
    14         H       -3.8453   -0.2530    0.1904
    15         H       -2.8774    0.5809    1.4193
    16         H        2.9077   -0.4922    0.7001
    17         H        3.2913   -0.4244   -1.0235
    18         H        4.1887    1.5854    0.1698
    19         H        2.9567    2.0874   -0.9974
    20         H        2.5645    2.0153    0.7252
    21         H        0.9271    0.6030   -1.4337
    22         H        0.7228   -1.4702    0.8651
    23         H       -1.7497    0.6335   -2.4174

  H: (PM3): J. J. P. STEWART, J. COMP. CHEM. 10, 209 (1989).
  C: (PM3): J. J. P. STEWART, J. COMP. CHEM. 10, 209 (1989).
  O: (PM3): J. J. P. STEWART, J. COMP. CHEM. 10, 209 (1989).

           Empirical Formula: C8 H14 O  =    23 atoms



      MOLECULAR POINT GROUP   :   C1  


      RHF CALCULATION, NO. OF DOUBLY OCCUPIED LEVELS =   26



          HEAT OF FORMATION =     -42.007675 KCALS/MOLE


          INTERNAL COORDINATE DERIVATIVES

   NUMBER  ATOM       BOND         ANGLE      DIHEDRAL

     1       C     -0.002106    -0.001087     0.002034
     2       C     -0.001259    -0.001929    -0.001929
     3       C     -0.000732    -0.000058     0.000648
     4       C     -0.003326     0.001518    -0.001927
     5       C      0.000629    -0.008118     0.005880
     6       C     -0.003438     0.001213    -0.002824
     7       C     -0.001615     0.001458     0.001119
     8       C     -0.002511    -0.000324     0.005145
     9       O     -0.001193    -0.000829    -0.002943
    10       H      0.000978     0.001981     0.000983
    11       H     -0.001477    -0.002231     0.003586
    12       H      0.001616     0.000126     0.000544
    13       H      0.001865     0.000159    -0.001226
    14       H      0.001625     0.004084    -0.004740
    15       H      0.000899     0.002282     0.004385
    16       H      0.002610    -0.000945    -0.002346
    17       H     -0.003002     0.001311     0.000656
    18       H     -0.000933    -0.002892     0.005353
    19       H      0.002426    -0.000059    -0.000282
    20       H     -0.003061     0.001875    -0.002178
    21       H      0.006788     0.000905    -0.003846
    22       H      0.005500     0.002110    -0.006403
    23       H     -0.000285    -0.000547     0.000312


          GRADIENT NORM =   0.02309


          TIME FOR SCF CALCULATION =    0.00

          TIME FOR DERIVATIVES     =    0.00

          MOLECULAR WEIGHT =  126.20



          ROTATIONAL CONSTANTS IN CM(-1)

          A =    0.10104797   B =    0.02560418   C =    0.02297008



           PRINCIPAL MOMENTS OF INERTIA IN UNITS OF 10**(-40)*GRAM-CM**2

          A =      277.0246   B =     1093.2893   C =     1218.6624


          ORIENTATION OF MOLECULE IN FORCE CALCULATION

    NO.       ATOM         X         Y         Z

     1          C      -0.4113    0.6294   -0.8910
     2          C       1.1566    0.6294   -0.8910
     3          C      -0.3914    2.1774   -0.8910
     4          C       1.1464    2.1780   -0.9653
     5          C      -1.4156   -1.8630    1.8804
     6          C      -0.4132   -2.4084    2.8750
     7          C      -1.0641    0.0002    0.2807
     8          C      -0.7352   -1.2126    0.7286
     9          O       1.7596    0.0658   -2.0230
    10          H      -0.8509    0.2023   -1.8189
    11          H       1.6121    0.2110    0.0323
    12          H      -0.8961    2.6388   -1.7527
    13          H      -0.8078    2.6417    0.0166
    14          H       1.5630    2.6004   -1.8931
    15          H       1.6527    2.6740   -0.1243
    16          H      -2.1075   -1.1597    2.3859
    17          H      -2.0530   -2.6824    1.4908
    18          H      -0.9170   -2.9111    3.7103
    19          H       0.2635   -3.1387    2.4116
    20          H       0.2098   -1.6102    3.2988
    21          H       0.0655   -1.7930    0.2521
    22          H      -1.8599    0.5863    0.7587
    23          H       1.5515   -0.8590   -1.9958


    FIRST DERIVATIVES WILL BE USED IN THE CALCULATION OF SECOND DERIVATIVES

          ESTIMATED TIME TO COMPLETE CALCULATION =        2.70 SECONDS

    FOR POINT-GROUP C1   THERE ARE   1 UNIQUE SYMMETRY FUNCTIONS.

 STEP:   1 TIME =     0.03 SECS, INTEGRAL =      0.03 TIME LEFT: 172799.96
 STEP:   2 TIME =     0.03 SECS, INTEGRAL =      0.06 TIME LEFT: 172799.93
 STEP:   3 TIME =     0.03 SECS, INTEGRAL =      0.09 TIME LEFT: 172799.90
 STEP:   4 TIME =     0.03 SECS, INTEGRAL =      0.12 TIME LEFT: 172799.87
 STEP:   5 TIME =     0.03 SECS, INTEGRAL =      0.15 TIME LEFT: 172799.84
 STEP:   6 TIME =     0.03 SECS, INTEGRAL =      0.19 TIME LEFT: 172799.80
 STEP:   7 TIME =     0.03 SECS, INTEGRAL =      0.22 TIME LEFT: 172799.77
 STEP:   8 TIME =     0.03 SECS, INTEGRAL =      0.25 TIME LEFT: 172799.74
 STEP:   9 TIME =     0.03 SECS, INTEGRAL =      0.28 TIME LEFT: 172799.71
 STEP:  10 TIME =     0.03 SECS, INTEGRAL =      0.31 TIME LEFT: 172799.68
 STEP:  11 TIME =     0.04 SECS, INTEGRAL =      0.35 TIME LEFT: 172799.64
 STEP:  12 TIME =     0.03 SECS, INTEGRAL =      0.38 TIME LEFT: 172799.61
 STEP:  13 TIME =     0.03 SECS, INTEGRAL =      0.41 TIME LEFT: 172799.58
 STEP:  14 TIME =     0.03 SECS, INTEGRAL =      0.44 TIME LEFT: 172799.55
 STEP:  15 TIME =     0.03 SECS, INTEGRAL =      0.47 TIME LEFT: 172799.52
 STEP:  16 TIME =     0.03 SECS, INTEGRAL =      0.50 TIME LEFT: 172799.49
 STEP:  17 TIME =     0.03 SECS, INTEGRAL =      0.53 TIME LEFT: 172799.46
 STEP:  18 TIME =     0.03 SECS, INTEGRAL =      0.56 TIME LEFT: 172799.43
 STEP:  19 TIME =     0.03 SECS, INTEGRAL =      0.59 TIME LEFT: 172799.40
 STEP:  20 TIME =     0.03 SECS, INTEGRAL =      0.62 TIME LEFT: 172799.37
 STEP:  21 TIME =     0.04 SECS, INTEGRAL =      0.66 TIME LEFT: 172799.33
 STEP:  22 TIME =     0.03 SECS, INTEGRAL =      0.69 TIME LEFT: 172799.30
 STEP:  23 TIME =     0.03 SECS, INTEGRAL =      0.73 TIME LEFT: 172799.26
 STEP:  24 TIME =     0.03 SECS, INTEGRAL =      0.76 TIME LEFT: 172799.23
 STEP:  25 TIME =     0.03 SECS, INTEGRAL =      0.79 TIME LEFT: 172799.20
 STEP:  26 TIME =     0.03 SECS, INTEGRAL =      0.82 TIME LEFT: 172799.17
 STEP:  27 TIME =     0.03 SECS, INTEGRAL =      0.85 TIME LEFT: 172799.14
 STEP:  28 TIME =     0.03 SECS, INTEGRAL =      0.89 TIME LEFT: 172799.10
 STEP:  29 TIME =     0.03 SECS, INTEGRAL =      0.92 TIME LEFT: 172799.07
 STEP:  30 TIME =     0.03 SECS, INTEGRAL =      0.95 TIME LEFT: 172799.04
 STEP:  31 TIME =     0.03 SECS, INTEGRAL =      0.98 TIME LEFT: 172799.01
 STEP:  32 TIME =     0.03 SECS, INTEGRAL =      1.01 TIME LEFT: 172798.98
 STEP:  33 TIME =     0.03 SECS, INTEGRAL =      1.04 TIME LEFT: 172798.95
 STEP:  34 TIME =     0.03 SECS, INTEGRAL =      1.07 TIME LEFT: 172798.92
 STEP:  35 TIME =     0.03 SECS, INTEGRAL =      1.10 TIME LEFT: 172798.89
 STEP:  36 TIME =     0.03 SECS, INTEGRAL =      1.13 TIME LEFT: 172798.86
 STEP:  37 TIME =     0.03 SECS, INTEGRAL =      1.16 TIME LEFT: 172798.83
 STEP:  38 TIME =     0.03 SECS, INTEGRAL =      1.19 TIME LEFT: 172798.80
 STEP:  39 TIME =     0.03 SECS, INTEGRAL =      1.22 TIME LEFT: 172798.77
 STEP:  40 TIME =     0.03 SECS, INTEGRAL =      1.25 TIME LEFT: 172798.74
 STEP:  41 TIME =     0.03 SECS, INTEGRAL =      1.28 TIME LEFT: 172798.71
 STEP:  42 TIME =     0.03 SECS, INTEGRAL =      1.31 TIME LEFT: 172798.68
 STEP:  43 TIME =     0.03 SECS, INTEGRAL =      1.34 TIME LEFT: 172798.65
 STEP:  44 TIME =     0.03 SECS, INTEGRAL =      1.37 TIME LEFT: 172798.62
 STEP:  45 TIME =     0.03 SECS, INTEGRAL =      1.40 TIME LEFT: 172798.59
 STEP:  46 TIME =     0.03 SECS, INTEGRAL =      1.43 TIME LEFT: 172798.56
 STEP:  47 TIME =     0.03 SECS, INTEGRAL =      1.46 TIME LEFT: 172798.53
 STEP:  48 TIME =     0.03 SECS, INTEGRAL =      1.49 TIME LEFT: 172798.50
 STEP:  49 TIME =     0.03 SECS, INTEGRAL =      1.52 TIME LEFT: 172798.47
 STEP:  50 TIME =     0.03 SECS, INTEGRAL =      1.56 TIME LEFT: 172798.44
 STEP:  51 TIME =     0.03 SECS, INTEGRAL =      1.59 TIME LEFT: 172798.40
 STEP:  52 TIME =     0.03 SECS, INTEGRAL =      1.62 TIME LEFT: 172798.37
 STEP:  53 TIME =     0.03 SECS, INTEGRAL =      1.65 TIME LEFT: 172798.34
 STEP:  54 TIME =     0.03 SECS, INTEGRAL =      1.68 TIME LEFT: 172798.31
 STEP:  55 TIME =     0.03 SECS, INTEGRAL =      1.71 TIME LEFT: 172798.28
 STEP:  56 TIME =     0.03 SECS, INTEGRAL =      1.74 TIME LEFT: 172798.25
 STEP:  57 TIME =     0.03 SECS, INTEGRAL =      1.77 TIME LEFT: 172798.22
 STEP:  58 TIME =     0.03 SECS, INTEGRAL =      1.80 TIME LEFT: 172798.19
 STEP:  59 TIME =     0.03 SECS, INTEGRAL =      1.83 TIME LEFT: 172798.16
 STEP:  60 TIME =     0.03 SECS, INTEGRAL =      1.86 TIME LEFT: 172798.13
 STEP:  61 TIME =     0.03 SECS, INTEGRAL =      1.89 TIME LEFT: 172798.10
 STEP:  62 TIME =     0.03 SECS, INTEGRAL =      1.92 TIME LEFT: 172798.07
 STEP:  63 TIME =     0.03 SECS, INTEGRAL =      1.96 TIME LEFT: 172798.03
 STEP:  64 TIME =     0.03 SECS, INTEGRAL =      1.99 TIME LEFT: 172798.00
 STEP:  65 TIME =     0.03 SECS, INTEGRAL =      2.02 TIME LEFT: 172797.97
 STEP:  66 TIME =     0.03 SECS, INTEGRAL =      2.05 TIME LEFT: 172797.94
 STEP:  67 TIME =     0.03 SECS, INTEGRAL =      2.08 TIME LEFT: 172797.91
 STEP:  68 TIME =     0.03 SECS, INTEGRAL =      2.11 TIME LEFT: 172797.88
 STEP:  69 TIME =     0.03 SECS, INTEGRAL =      2.14 TIME LEFT: 172797.85

(To convert to Hartree/Bohr^2, multiply by (10^(-21) x N x a0^2)/(4.184 x 627.51) = 0.0642)


           FORCE MATRIX IN MILLIDYNES/ANGSTROM


                  C  1       C  2       C  3       C  4       C  5       C  6
 ------------------------------------------------------------------------------
     C    1  14.672390
     C    2   2.822829  14.645606
     C    3   3.459920   1.818834  14.422867
     C    4   1.782299   3.409024   3.742833  14.426398
     C    5   0.138502   0.009147   0.009474   0.001736  14.699407
     C    6   0.018035   0.002616   0.002055   0.000748   4.407703  14.351845
     C    7   5.106590   0.531318   0.569815   0.041193   0.822564   0.040334
     C    8   0.828458   0.055557   0.048931   0.005828   4.974497   0.718543
     O    9   0.746060   5.572068   0.045022   0.739986   0.002910   0.002694
     H   10   4.375363   0.457696   0.432266   0.025515   0.016634   0.001908
     H   11   0.421469   4.315302   0.025887   0.414285   0.001125   0.000520
     H   12   0.442849   0.032727   4.708800   0.445463   0.001194   0.000357
     H   13   0.455681   0.032736   4.664229   0.444982   0.001057   0.000476
     H   14   0.028319   0.484816   0.445894   4.686379   0.000220   0.000170
     H   15   0.033387   0.440864   0.444162   4.713248   0.000478   0.000248
     H   16   0.003178   0.001088   0.000620   0.000365   4.442170   0.434645
     H   17   0.019048   0.003035   0.001022   0.000180   4.420671   0.445833
     H   18   0.003145   0.000940   0.000435   0.000334   0.449371   4.751821
     H   19   0.000482   0.000730   0.000232   0.000283   0.464550   4.724840
     H   20   0.000774   0.000937   0.000261   0.000298   0.461157   4.745649
     H   21   0.085980   0.019720   0.002797   0.002106   0.432323   0.025839
     H   22   0.436358   0.033047   0.031852   0.002604   0.084935   0.008751
     H   23   0.046639   0.862363   0.007518   0.100866   0.001774   0.001087


                  C  7       C  8       O  9       H 10       H 11       H 12
 ------------------------------------------------------------------------------
     C    7  18.282156
     C    8  10.663774  18.177622
     O    9   0.058162   0.007430  12.010747
     H   10   0.391782   0.025110   0.037767   4.865301
     H   11   0.020569   0.011051   0.417765   0.031031   4.755441
     H   12   0.033636   0.005322   0.003913   0.027316   0.001936   5.325852
     H   13   0.027364   0.002963   0.004408   0.031997   0.002341   0.555268
     H   14   0.001591   0.000847   0.062542   0.002902   0.029895   0.023518
     H   15   0.003819   0.000842   0.043271   0.000911   0.025415   0.032422
     H   16   0.050095   0.459562   0.000749   0.000681   0.000298   0.000100
     H   17   0.032231   0.408499   0.001707   0.002827   0.000300   0.000112
     H   18   0.006741   0.052534   0.000979   0.000289   0.000160   0.000176
     H   19   0.002099   0.027132   0.000586   0.000155   0.000079   0.000049
     H   20   0.002672   0.015866   0.000891   0.000168   0.000405   0.000098
     H   21   0.470581   4.753809   0.007969   0.010147   0.018411   0.000620
     H   22   4.759028   0.469231   0.009269   0.014597   0.002247   0.001918
     H   23   0.006513   0.003937   8.297549   0.017260   0.044396   0.001546


                  H 13       H 14       H 15       H 16       H 17       H 18
 ------------------------------------------------------------------------------
     H   13   5.292701
     H   14   0.033028   5.316423
     H   15   0.023294   0.551403   5.331796
     H   16   0.000207   0.000073   0.000107   5.052158
     H   17   0.000199   0.000062   0.000096   0.566877   5.018043
     H   18   0.000133   0.000095   0.000078   0.030182   0.028564   5.488558
     H   19   0.000092   0.000115   0.000059   0.047925   0.023715   0.573863
     H   20   0.000111   0.000057   0.000076   0.024459   0.049353   0.574389
     H   21   0.000700   0.000482   0.000452   0.039594   0.017232   0.002001
     H   22   0.029518   0.000551   0.000964   0.030081   0.010368   0.001775
     H   23   0.001488   0.004803   0.010443   0.000416   0.000638   0.000412


                  H 19       H 20       H 21       H 22       H 23
 ------------------------------------------------------------------
     H   19   5.469995
     H   20   0.578859   5.483612
     H   21   0.019875   0.002632   5.136144
     H   22   0.000627   0.000491   0.108609   5.130032
     H   23   0.000327   0.000375   0.007414   0.001693   8.576780


          HEAT OF FORMATION =     -42.007675 KCALS/MOLE

          ZERO POINT ENERGY     127.415 KCAL/MOL


           NORMAL COORDINATE ANALYSIS (Total motion = 1 Angstrom)


   Root No.       1         2         3         4         5         6         7         8

                 1 A       2 A       3 A       4 A       5 A       6 A       7 A       8 A   

                  27.8      77.7      93.3     117.7     158.9     203.2     225.6     290.8
  
           1   -0.0020   -0.0071   -0.0085    0.0154    0.0024    0.0036    0.0000   -0.0112
           2    0.0015    0.0116   -0.0088   -0.0141    0.0014   -0.0062    0.0003    0.0105
           3   -0.0006    0.0110   -0.0179    0.0129   -0.0009   -0.0074    0.0014   -0.0168
           4   -0.0021   -0.0067   -0.0078    0.0158    0.0023    0.0048    0.0005   -0.0163
           5   -0.0111    0.0023   -0.0181    0.0069    0.0067    0.0019   -0.0051    0.0037
           6   -0.0077    0.0205    0.0067   -0.0072   -0.0031   -0.0072    0.0045    0.0006
           7    0.0106    0.0023    0.0005   -0.0057   -0.0013   -0.0015    0.0078   -0.0111
           8    0.0015    0.0109   -0.0088   -0.0137    0.0020   -0.0053    0.0002    0.0110
           9    0.0288   -0.0032   -0.0108   -0.0140    0.0305    0.0328   -0.0064    0.0022
          10    0.0102    0.0021    0.0032   -0.0053   -0.0037   -0.0044    0.0087   -0.0088
          11   -0.0096    0.0004   -0.0163    0.0074    0.0063    0.0019   -0.0063    0.0048
          12    0.0222   -0.0157    0.0483    0.0008   -0.0148   -0.0126    0.0114    0.0202
          13    0.0003    0.0012    0.0040   -0.0217   -0.0030   -0.0089    0.0006    0.0265
          14   -0.0229   -0.0180    0.0228   -0.0061    0.0033    0.0223   -0.0040    0.0293
          15   -0.0204   -0.0165    0.0157    0.0082   -0.0006    0.0199   -0.0040   -0.0101
          16   -0.0014    0.0375    0.0299   -0.0120   -0.0028    0.0059    0.0024   -0.0176
          17    0.0523    0.0264    0.0128    0.0114    0.0084    0.0042    0.0006    0.0000
          18    0.0227   -0.0281   -0.0153    0.0079    0.0018   -0.0043   -0.0032    0.0149
          19   -0.0050   -0.0046   -0.0175    0.0388   -0.0028   -0.0056   -0.0060    0.0366
          20   -0.0132    0.0144   -0.0016    0.0026   -0.0168   -0.0154    0.0046   -0.0107
          21   -0.0103    0.0141   -0.0184    0.0354   -0.0148   -0.0180   -0.0001   -0.0071
          22    0.0035   -0.0316   -0.0185   -0.0302    0.0013   -0.0190    0.0003    0.0342
          23   -0.0116   -0.0095    0.0016   -0.0341   -0.0131   -0.0147    0.0072   -0.0231
          24   -0.0122   -0.0304   -0.0093   -0.0137   -0.0080   -0.0080    0.0028   -0.0357
          25   -0.0120   -0.0013    0.0064    0.0063    0.0067    0.0177   -0.0484   -0.0188
          26    0.0061   -0.0334    0.0116    0.0304   -0.0025    0.0049    0.0102   -0.0233
          27   -0.0217    0.0416   -0.0007   -0.0244    0.0043   -0.0014   -0.0263    0.0144
          28   -0.0095   -0.0043   -0.0009    0.0089    0.0051    0.0086    0.0077   -0.0177
          29    0.0224    0.0079   -0.0065   -0.0373    0.0197    0.0133   -0.0033    0.0197
          30   -0.0066    0.0115   -0.0220    0.0269   -0.0107   -0.0184    0.0000   -0.0173
          31   -0.0005   -0.0174   -0.0236    0.0332    0.0022    0.0017   -0.0062   -0.0314
          32   -0.0323    0.0230   -0.0474    0.0017    0.0178    0.0089   -0.0067    0.0014
          33   -0.0181    0.0353    0.0012   -0.0187    0.0021   -0.0026    0.0073    0.0081
          34    0.0105   -0.0023    0.0378   -0.0024   -0.0307   -0.0327    0.0227    0.0019
          35    0.0222    0.0068   -0.0042   -0.0381    0.0217    0.0201   -0.0032    0.0218
          36    0.0399   -0.0026   -0.0303   -0.0291    0.0586    0.0651   -0.0171    0.0004
          37    0.0183    0.0134   -0.0335   -0.0223    0.0277    0.0284   -0.0018   -0.0221
          38   -0.0127    0.0213   -0.0082   -0.0003   -0.0206   -0.0342    0.0087    0.0022
          39    0.0396   -0.0034   -0.0268   -0.0285    0.0556    0.0618   -0.0154    0.0016
          40    0.0098   -0.0040    0.0434   -0.0007   -0.0350   -0.0374    0.0225    0.0058
          41    0.0050   -0.0249    0.0086    0.0196   -0.0023   -0.0026   -0.0021    0.0175
          42    0.0287   -0.0299    0.0778    0.0084   -0.0329   -0.0298    0.0195    0.0334
          43    0.0178    0.0127   -0.0278   -0.0215    0.0220    0.0213    0.0010   -0.0189
          44   -0.0300    0.0181   -0.0441    0.0087    0.0169    0.0107   -0.0142   -0.0121
          45    0.0298   -0.0326    0.0837    0.0099   -0.0367   -0.0335    0.0210    0.0365
          46   -0.0529   -0.0127    0.0352   -0.0113    0.0074    0.0290   -0.0080    0.0619
          47   -0.0490   -0.0340    0.0406    0.0088    0.0179    0.0503   -0.0126    0.0754
          48   -0.0570   -0.0135    0.0336    0.0020   -0.0061    0.0329   -0.0039   -0.0234
          49    0.0562    0.0213   -0.0251   -0.0316   -0.0144   -0.0467    0.0097   -0.0174
          50   -0.0651   -0.0424    0.0318   -0.0107    0.0051    0.0376   -0.0081    0.0536
          51   -0.0228    0.0026    0.0447    0.0344    0.0149    0.0501   -0.0103    0.0102
          52   -0.0003    0.0699    0.0507   -0.0042   -0.0068    0.0213    0.0041   -0.0607
          53    0.0409    0.0181    0.0441    0.0401    0.1514   -0.0864    0.0114   -0.0059
          54    0.0165   -0.0136    0.0159    0.0299    0.0853   -0.0496    0.0043   -0.0140
          55    0.0540    0.0542   -0.0111   -0.0269   -0.1050    0.0545   -0.0035   -0.0116
          56    0.0808    0.0449   -0.0162   -0.0083   -0.1115    0.0764   -0.0075   -0.0034
          57    0.0587   -0.0328   -0.0296    0.0173    0.0419   -0.0476    0.0008    0.0297
          58   -0.0594    0.0178    0.0714    0.0027    0.1040   -0.0455    0.0084   -0.0219
          59    0.0954    0.0525    0.0029    0.0171   -0.0095    0.0074    0.0016   -0.0182
          60    0.0268   -0.0481   -0.0577   -0.0244   -0.1212    0.0652   -0.0141    0.0550
          61    0.0149   -0.0698   -0.0281   -0.1009    0.0078   -0.0329    0.0065   -0.0085
          62   -0.0013   -0.0230   -0.0081   -0.0845   -0.0138   -0.0331    0.0141   -0.0560
          63   -0.0055   -0.0787   -0.0138   -0.0701    0.0049   -0.0085    0.0047   -0.0643
          64   -0.0166    0.0348   -0.0128    0.1109   -0.0147   -0.0013   -0.0134    0.0736
          65   -0.0244    0.0338    0.0054    0.0491   -0.0259   -0.0088    0.0004   -0.0052
          66   -0.0157    0.0550   -0.0193    0.0993   -0.0225   -0.0178   -0.0079    0.0491
          67   -0.0197   -0.0110   -0.0036    0.0262    0.0161    0.0509    0.5491   -0.0194
          68    0.0073   -0.0306    0.0129    0.0258   -0.0043   -0.0019   -0.1115   -0.0226
          69   -0.0390    0.0652   -0.0343   -0.0311    0.0174    0.0140    0.3527    0.0451


   Root No.       9        10        11        12        13        14        15        16

                 9 A      10 A      11 A      12 A      13 A      14 A      15 A      16 A   

                 352.2     379.8     452.5     489.8     576.0     745.8     814.5     842.1
  
           1   -0.0316   -0.0199   -0.0120    0.0213   -0.0046    0.0302   -0.0055    0.0070
           2   -0.0022    0.0224   -0.0090   -0.0189    0.0126    0.0372   -0.0024    0.0077
           3   -0.0185   -0.0106    0.0235   -0.0022    0.0579    0.0116    0.0088    0.0097
           4   -0.0268   -0.0168   -0.0135    0.0256    0.0111    0.0212   -0.0001    0.0052
           5   -0.0266    0.0024   -0.0259   -0.0003   -0.0008   -0.0364    0.0036   -0.0074
           6   -0.0257   -0.0033    0.0446    0.0173   -0.0234    0.0282   -0.0032    0.0079
           7   -0.0139    0.0212    0.0115   -0.0050   -0.0068   -0.0368    0.0035   -0.0081
           8   -0.0042    0.0306   -0.0120   -0.0289    0.0076    0.0424   -0.0035    0.0131
           9    0.0198   -0.0202   -0.0066    0.0120    0.0006    0.0050    0.0065   -0.0234
          10   -0.0166    0.0212    0.0101   -0.0062   -0.0074   -0.0376    0.0033   -0.0081
          11   -0.0271   -0.0009   -0.0354    0.0012    0.0029   -0.0319    0.0037   -0.0134
          12   -0.0014   -0.0152   -0.0258    0.0032    0.0018    0.0099    0.0014   -0.0232
          13    0.0111    0.0211    0.0093    0.0371    0.0150   -0.0041    0.0043   -0.0002
          14   -0.0007   -0.0230    0.0222    0.0063    0.0113   -0.0015    0.0334    0.0066
          15   -0.0127    0.0212   -0.0171   -0.0109   -0.0116    0.0055    0.0131    0.0035
          16   -0.0055    0.0027   -0.0073   -0.0012   -0.0037    0.0037   -0.0015    0.0003
          17   -0.0022   -0.0262    0.0120   -0.0111    0.0052   -0.0040    0.0099    0.0024
          18    0.0012    0.0456   -0.0137    0.0210   -0.0015    0.0058   -0.0021    0.0011
          19    0.0091   -0.0212   -0.0096   -0.0277   -0.0422    0.0263   -0.0094    0.0016
          20    0.0349   -0.0098   -0.0092    0.0309   -0.0079    0.0051   -0.0164   -0.0014
          21    0.0267   -0.0159    0.0133   -0.0080    0.0235   -0.0249   -0.0072    0.0018
          22    0.0076   -0.0287    0.0274   -0.0230    0.0037   -0.0089    0.0055   -0.0003
          23    0.0273   -0.0169   -0.0088    0.0263   -0.0134    0.0036   -0.0032   -0.0042
          24    0.0043   -0.0139   -0.0163   -0.0277   -0.0248   -0.0020    0.0046   -0.0029
          25    0.0530    0.0116   -0.0159   -0.0143    0.0301    0.0061    0.0018   -0.0014
          26    0.0043    0.0200    0.0509   -0.0010   -0.0186   -0.0074   -0.0008    0.0034
          27    0.0026    0.0052    0.0124   -0.0055   -0.0170   -0.0158   -0.0008    0.0028
          28   -0.0633   -0.0240   -0.0065    0.0575   -0.0251    0.0611   -0.0082    0.0290
          29    0.0042    0.0426   -0.0184   -0.0365    0.0063    0.0687    0.0109   -0.0094
          30   -0.0033   -0.0174    0.0248   -0.0119    0.0693   -0.0190    0.0035    0.0072
          31   -0.0594   -0.0411   -0.0150    0.0477    0.0434    0.0431    0.0021    0.0291
          32   -0.0407   -0.0080   -0.0382    0.0084    0.0074   -0.0680    0.0064    0.0045
          33   -0.0145    0.0041    0.0385    0.0090   -0.0360    0.0012   -0.0031    0.0017
          34   -0.0235    0.0395    0.0058   -0.0289    0.0070   -0.0127    0.0250   -0.1301
          35    0.0318    0.0351   -0.0223   -0.0214   -0.0536    0.0125   -0.0346    0.0663
          36    0.0452   -0.0288   -0.0086    0.0307   -0.0425   -0.0289   -0.0243    0.0826
          37    0.0103    0.0284    0.0348   -0.0011   -0.0270   -0.0720   -0.0197    0.1305
          38   -0.0247    0.0491    0.0118   -0.0546    0.0691    0.0872    0.0264   -0.0290
          39    0.0425   -0.0273   -0.0085    0.0285   -0.0419   -0.0351   -0.0213    0.0679
          40   -0.0281    0.0349   -0.0074   -0.0264    0.0021   -0.0734   -0.0161    0.1322
          41   -0.0195   -0.0209   -0.1085   -0.0026    0.0395   -0.1012    0.0064    0.0302
          42   -0.0034   -0.0192   -0.0702   -0.0076    0.0242   -0.0398   -0.0068    0.0659
          43    0.0050    0.0331    0.0424   -0.0109   -0.0206   -0.0112    0.0205   -0.1280
          44   -0.0450   -0.0028    0.0184    0.0257   -0.0270    0.0185    0.0043   -0.0673
          45   -0.0040   -0.0213   -0.0791   -0.0089    0.0286   -0.0402   -0.0098    0.0868
          46   -0.0151    0.0214    0.0346    0.0280    0.0551   -0.0203   -0.1368   -0.0297
          47   -0.0242   -0.0237    0.0539   -0.0040    0.0534   -0.0186   -0.0661   -0.0112
          48   -0.0159    0.0228   -0.0241   -0.0084   -0.0114    0.0048   -0.0505   -0.0143
          49    0.0367    0.0226   -0.0220    0.0476   -0.0299    0.0159    0.1531    0.0312
          50   -0.0068   -0.0328    0.0419    0.0007    0.0312   -0.0166   -0.0541   -0.0171
          51   -0.0431    0.0379   -0.0062   -0.0183    0.0219    0.0032   -0.0584   -0.0006
          52   -0.0224   -0.0273   -0.0205   -0.0587   -0.0292    0.0085   -0.0123   -0.0013
          53    0.0134   -0.0128    0.0096    0.0072    0.0095   -0.0078   -0.0333   -0.0103
          54    0.0006    0.0369   -0.0234   -0.0010   -0.0138    0.0067   -0.0347   -0.0073
          55   -0.0106    0.0036   -0.0065   -0.0045   -0.0005   -0.0007   -0.0744   -0.0193
          56   -0.0161   -0.0400    0.0115   -0.0347   -0.0005   -0.0042   -0.0045   -0.0011
          57    0.0161    0.0701   -0.0117    0.0553    0.0132   -0.0008   -0.0928   -0.0239
          58    0.0003    0.0025   -0.0076    0.0036   -0.0067    0.0089    0.0744    0.0209
          59   -0.0064   -0.0335    0.0060   -0.0317   -0.0012   -0.0089   -0.0786   -0.0219
          60    0.0001    0.0586   -0.0015    0.0514    0.0150    0.0069    0.0455    0.0144
          61   -0.0180   -0.0526    0.0327   -0.0505    0.0296   -0.0080   -0.0538   -0.0031
          62    0.0224   -0.0272    0.0001    0.0338    0.0252   -0.0131   -0.0563   -0.0100
          63   -0.0331   -0.0414   -0.0161   -0.0835   -0.0256    0.0187   -0.0308   -0.0006
          64    0.0504   -0.0060   -0.0183   -0.0032   -0.0888    0.0114    0.0177   -0.0160
          65    0.0572   -0.0037   -0.0302    0.0596   -0.0552    0.0057   -0.0108   -0.0178
          66    0.0679    0.0018    0.0237   -0.0038    0.0032   -0.0504    0.0309   -0.0078
          67    0.0887    0.0242    0.0150   -0.0237    0.0298    0.0263   -0.0011    0.0076
          68   -0.0040    0.0170    0.0427    0.0010   -0.0180   -0.0119   -0.0001    0.0012
          69   -0.0213   -0.0142   -0.0582   -0.0012   -0.0024   -0.0413    0.0033   -0.0119


   Root No.      17        18        19        20        21        22        23        24

                17 A      18 A      19 A      20 A      21 A      22 A      23 A      24 A   

                 894.5     920.2     926.4     967.8     979.6    1004.8    1026.0    1035.2
  
           1   -0.0246   -0.0060   -0.0133    0.0000    0.0099   -0.0397   -0.0018   -0.0012
           2    0.0034    0.0003    0.0027    0.0042    0.0109    0.0282   -0.0106   -0.0142
           3   -0.0081   -0.0058   -0.0115   -0.0030    0.0086   -0.0100   -0.0087   -0.0008
           4    0.0313    0.0045    0.0109    0.0045   -0.0163    0.0416    0.0036    0.0021
           5    0.0034    0.0013    0.0012    0.0050   -0.0282    0.0121   -0.0139   -0.0225
           6    0.0154    0.0022    0.0080   -0.0032    0.0072    0.0073    0.0059    0.0054
           7    0.0007    0.0006    0.0014   -0.0043    0.0118   -0.0009    0.0198    0.0336
           8    0.0085   -0.0006    0.0031   -0.0070   -0.0172   -0.0418    0.0041    0.0060
           9   -0.0101   -0.0041   -0.0181    0.0069   -0.0002    0.0089    0.0054   -0.0017
          10   -0.0045   -0.0005    0.0007    0.0015    0.0049    0.0050   -0.0194   -0.0331
          11   -0.0007   -0.0002    0.0093   -0.0133    0.0444   -0.0227    0.0069    0.0092
          12    0.0080    0.0061    0.0189   -0.0068    0.0027   -0.0056   -0.0065   -0.0072
          13   -0.0020   -0.0025   -0.0034   -0.0102   -0.0020   -0.0052   -0.0012    0.0023
          14   -0.0039    0.0017   -0.0012   -0.0078    0.0002    0.0017   -0.0218    0.0152
          15    0.0032   -0.0007    0.0022    0.0018    0.0000    0.0015   -0.0050    0.0021
          16   -0.0081    0.0058   -0.0021   -0.0152   -0.0034    0.0058   -0.0001   -0.0004
          17   -0.0037    0.0080    0.0032   -0.0102   -0.0053   -0.0022    0.0165   -0.0109
          18   -0.0024    0.0046    0.0055    0.0333    0.0092   -0.0015   -0.0074    0.0059
          19   -0.0424   -0.0029    0.0062   -0.0030   -0.0018    0.0216   -0.0045    0.0070
          20   -0.0204    0.0025    0.0108    0.0129    0.0010    0.0088   -0.0006    0.0017
          21   -0.0079    0.0034    0.0264   -0.0022   -0.0092   -0.0037    0.0021    0.0038
          22    0.0251   -0.0247    0.0051    0.0177    0.0032   -0.0079    0.0129   -0.0105
          23    0.0037   -0.0172   -0.0063    0.0054    0.0029    0.0026    0.0067   -0.0068
          24    0.0168   -0.0276   -0.0070   -0.0208   -0.0060   -0.0053    0.0180   -0.0128
          25    0.0066    0.0010    0.0057   -0.0033    0.0030   -0.0013   -0.0025   -0.0042
          26   -0.0076   -0.0015   -0.0077    0.0047   -0.0080    0.0048    0.0003    0.0016
          27   -0.0156   -0.0028   -0.0127    0.0060   -0.0064    0.0004    0.0018    0.0064
          28    0.0320   -0.0084   -0.0228    0.0106   -0.0357   -0.1600   -0.0022   -0.0555
          29    0.0265   -0.0100   -0.0414    0.0114    0.0587    0.1637    0.0510    0.0046
          30   -0.0444    0.0009    0.0158   -0.0121    0.0068   -0.0146   -0.0373    0.0179
          31    0.0604    0.0136   -0.0041    0.0219   -0.1048    0.0605    0.0192    0.0523
          32    0.0131    0.0059   -0.0235    0.0283   -0.1128    0.0473    0.0166    0.0305
          33    0.0029   -0.0006    0.0026   -0.0004    0.0116    0.0133    0.0118    0.0040
          34    0.0127    0.0125    0.0263    0.0041   -0.0836   -0.0096    0.0381    0.0986
          35    0.0684    0.0326    0.1110   -0.0302   -0.1064   -0.0892   -0.0049    0.0674
          36    0.0153    0.0071    0.0272   -0.0114    0.0076   -0.0141   -0.0119   -0.0080
          37    0.0199   -0.0022   -0.0084   -0.0161    0.0400    0.0126    0.0350    0.0351
          38   -0.0110   -0.0229   -0.0920    0.0134    0.0076    0.0169    0.0524    0.0104
          39    0.0107    0.0070    0.0289   -0.0101    0.0013   -0.0153   -0.0130   -0.0030
          40    0.0047   -0.0085   -0.0142   -0.0120    0.0309    0.0285   -0.0371   -0.0841
          41   -0.0357   -0.0197   -0.0660    0.0281    0.0027   -0.0149    0.0547    0.0899
          42   -0.0054   -0.0075   -0.0255    0.0070   -0.0036    0.0091    0.0085    0.0077
          43   -0.0356    0.0010   -0.0087    0.0257   -0.0805   -0.0774   -0.0456   -0.0554
          44    0.0626    0.0259    0.1083   -0.0678    0.1448    0.0306    0.0050    0.0009
          45   -0.0103   -0.0108   -0.0362    0.0114   -0.0064    0.0140    0.0116    0.0123
          46    0.0099   -0.0170   -0.0127   -0.0124   -0.0042   -0.0081    0.0321   -0.0203
          47   -0.0027    0.0163    0.0095    0.0369    0.0045   -0.0181    0.0424   -0.0216
          48    0.0198   -0.0415   -0.0259   -0.0654   -0.0098    0.0250   -0.0460    0.0204
          49   -0.0222    0.0155    0.0039   -0.0213   -0.0027    0.0004   -0.0370    0.0267
          50    0.0344   -0.0512   -0.0251   -0.0168    0.0055   -0.0024   -0.0604    0.0415
          51   -0.0424    0.0789    0.0394    0.0412   -0.0089    0.0008    0.1325   -0.0912
          52    0.0381   -0.0238    0.0167    0.1723    0.0503   -0.0200   -0.0557    0.0415
          53    0.0024   -0.0170   -0.0187   -0.0755   -0.0179    0.0101    0.0028   -0.0045
          54    0.0273   -0.0268    0.0033    0.1028    0.0327   -0.0086   -0.0477    0.0338
          55    0.0149   -0.0369   -0.0273   -0.0452   -0.0028    0.0158   -0.0387    0.0232
          56    0.0168   -0.0100    0.0067    0.0508    0.0129   -0.0119   -0.0054    0.0053
          57   -0.0001   -0.0333   -0.0396   -0.1145   -0.0202    0.0300   -0.0312    0.0155
          58   -0.0334    0.0523    0.0247    0.0220   -0.0018   -0.0035    0.0363   -0.0220
          59    0.0425   -0.0585   -0.0222    0.0069    0.0101   -0.0013   -0.0442    0.0282
          60   -0.0484    0.0562    0.0118   -0.0519   -0.0208    0.0108    0.0479   -0.0325
          61   -0.0180    0.2000   -0.0192    0.0226    0.0127   -0.0001   -0.0317    0.0239
          62   -0.0153    0.1275   -0.0110    0.0500    0.0080   -0.0111    0.0079    0.0009
          63   -0.0315    0.1731   -0.0413   -0.0659    0.0033    0.0253   -0.0575    0.0348
          64    0.1077    0.0927   -0.1101   -0.0068    0.0263   -0.0339    0.0057   -0.0148
          65    0.0386    0.0545   -0.0811    0.0125    0.0219   -0.0490    0.0319   -0.0097
          66    0.1703    0.0996   -0.0542   -0.0077    0.0119   -0.0233   -0.0207   -0.0195
          67   -0.0054   -0.0010   -0.0028   -0.0073    0.0339   -0.0255    0.0103    0.0193
          68   -0.0042   -0.0008   -0.0052    0.0054   -0.0152    0.0107   -0.0029   -0.0043
          69    0.0057    0.0043    0.0045    0.0097   -0.0504    0.0414   -0.0207   -0.0313


   Root No.      25        26        27        28        29        30        31        32

                25 A      26 A      27 A      28 A      29 A      30 A      31 A      32 A   

                1053.8    1086.3    1100.6    1115.8    1122.9    1129.0    1139.8    1152.1
  
           1    0.0036   -0.0181   -0.0120    0.0031    0.0004    0.0074    0.0043    0.0185
           2    0.0287    0.0024   -0.0064   -0.0011    0.0070   -0.0012   -0.0066   -0.0087
           3    0.0025   -0.0098   -0.0208   -0.0018    0.0102    0.0018    0.0001    0.0113
           4    0.0134    0.0199    0.0015   -0.0035    0.0119    0.0038   -0.0271    0.0036
           5   -0.0195    0.0047    0.0007   -0.0009   -0.0004   -0.0021   -0.0200    0.0181
           6    0.0085    0.0049    0.0153   -0.0040    0.0161    0.0065    0.0058   -0.0096
           7   -0.0088    0.0015    0.0004    0.0012   -0.0038   -0.0037   -0.0012    0.0008
           8   -0.0144    0.0017    0.0027    0.0002    0.0008    0.0034    0.0043   -0.0060
           9   -0.0136   -0.0242    0.0159   -0.0005   -0.0003   -0.0094   -0.0199   -0.0187
          10    0.0121   -0.0019    0.0012   -0.0010    0.0016    0.0016    0.0071   -0.0082
          11    0.0129   -0.0003    0.0014    0.0007   -0.0055   -0.0011    0.0162   -0.0136
          12   -0.0175    0.0271   -0.0072    0.0018   -0.0019    0.0061    0.0220    0.0071
          13   -0.0040   -0.0034    0.0000    0.0386   -0.0079    0.0332   -0.0079    0.0114
          14   -0.0020    0.0013    0.0064    0.0206    0.0073   -0.0223    0.0064    0.0059
          15    0.0032    0.0005    0.0057    0.0412   -0.0033    0.0082   -0.0007   -0.0028
          16    0.0016    0.0024   -0.0011   -0.0448    0.0077   -0.0300    0.0083    0.0010
          17    0.0022   -0.0015   -0.0013   -0.0226   -0.0124    0.0273   -0.0064   -0.0054
          18   -0.0038   -0.0001   -0.0020   -0.0425   -0.0008   -0.0043    0.0007   -0.0012
          19   -0.0062    0.0017    0.0024    0.0025   -0.0019    0.0061   -0.0002   -0.0079
          20    0.0019    0.0024    0.0099    0.0021   -0.0023   -0.0084   -0.0008   -0.0084
          21    0.0031    0.0000    0.0303    0.0022   -0.0187   -0.0031    0.0059    0.0192
          22    0.0052    0.0016   -0.0031    0.0016    0.0055   -0.0128    0.0008   -0.0112
          23    0.0009   -0.0009   -0.0100   -0.0022    0.0070   -0.0047   -0.0022   -0.0123
          24   -0.0002   -0.0030   -0.0108   -0.0074    0.0028    0.0060    0.0014    0.0140
          25   -0.0050    0.0000    0.0044   -0.0012    0.0043    0.0011    0.0021    0.0008
          26    0.0017   -0.0004   -0.0068    0.0014   -0.0054   -0.0018   -0.0046    0.0029
          27    0.0072   -0.0001   -0.0198    0.0048   -0.0206   -0.0078   -0.0031   -0.0025
          28    0.0248   -0.0009    0.1747   -0.0026   -0.0953   -0.0778   -0.0271    0.0039
          29    0.0639   -0.0687    0.0266    0.0121   -0.0855    0.0259    0.1069    0.1677
          30   -0.0243    0.0152   -0.1282   -0.0057    0.1027    0.0316   -0.0394   -0.0636
          31   -0.0299   -0.0102   -0.1078    0.0322   -0.1431   -0.0479    0.1399   -0.1036
          32   -0.0703   -0.0727    0.0839   -0.0157    0.1224    0.0684    0.1815   -0.0410
          33    0.0073   -0.0159    0.1124   -0.0301    0.1590    0.0691    0.0139    0.0198
          34    0.0045   -0.1272    0.0025   -0.0064    0.0099   -0.0321   -0.0995    0.0056
          35    0.0412   -0.0582   -0.0528   -0.0072    0.0256    0.0069   -0.0356    0.0501
          36    0.0069    0.0195   -0.0166    0.0000    0.0056    0.0092    0.0166    0.0085
          37   -0.0951    0.1728    0.0129    0.0028   -0.0110    0.0030    0.0005    0.0283
          38   -0.1293    0.0988    0.0770    0.0004   -0.0150   -0.0160   -0.0494   -0.0274
          39    0.0069    0.0051   -0.0187   -0.0001    0.0058    0.0042    0.0087    0.0051
          40   -0.0698   -0.1587    0.0204    0.0023   -0.0163   -0.0189    0.0022   -0.0425
          41    0.1365    0.0713    0.0242   -0.0116    0.0314    0.0052   -0.0319   -0.0140
          42    0.0048   -0.0110    0.0131   -0.0025    0.0084    0.0002   -0.0024   -0.0091
          43    0.0622    0.1135   -0.0139   -0.0003    0.0054    0.0342    0.1064    0.0073
          44   -0.0888   -0.0394   -0.0100    0.0064   -0.0246   -0.0198   -0.0133   -0.0159
          45    0.0112   -0.0197    0.0108   -0.0024    0.0086   -0.0022   -0.0199   -0.0022
          46   -0.0040   -0.0077   -0.0124   -0.0254   -0.0308    0.0969   -0.0262   -0.0012
          47   -0.0143   -0.0047   -0.0244   -0.0254    0.0343   -0.0551    0.0186    0.0680
          48    0.0214    0.0030    0.0320    0.0168   -0.0720    0.1384   -0.0420   -0.1078
          49   -0.0046   -0.0005    0.0139    0.1555    0.0054    0.0103   -0.0020    0.0199
          50   -0.0109   -0.0035    0.0093   -0.1572   -0.0316    0.0312    0.0029    0.0195
          51    0.0220    0.0053   -0.0232    0.2210    0.0555   -0.0637   -0.0035   -0.0435
          52   -0.0214   -0.0027   -0.0018   -0.0097    0.0051   -0.0057   -0.0016    0.0076
          53    0.0072    0.0018    0.0036    0.0337    0.0050   -0.0126    0.0051    0.0012
          54   -0.0138   -0.0008    0.0007    0.0113    0.0085   -0.0154    0.0019    0.0047
          55    0.0013    0.0067    0.0052    0.0351    0.0359   -0.0912    0.0231    0.0112
          56   -0.0065   -0.0042   -0.0011    0.0144   -0.0132    0.0414   -0.0102    0.0030
          57    0.0102    0.0106    0.0077    0.0215    0.0420   -0.1170    0.0290    0.0003
          58    0.0010   -0.0008   -0.0087   -0.1581   -0.0159    0.0124   -0.0025   -0.0118
          59   -0.0053   -0.0006    0.0074    0.1267    0.0099   -0.0017    0.0005    0.0148
          60    0.0105    0.0030   -0.0065   -0.1543   -0.0074   -0.0150    0.0042   -0.0202
          61   -0.0033    0.0015    0.0280    0.0267   -0.0180    0.0133   -0.0010   -0.0006
          62   -0.0167   -0.0160    0.0061    0.0402   -0.0291    0.0530    0.0135    0.0041
          63    0.0077    0.0148    0.0218   -0.0170    0.0080   -0.0225   -0.0195    0.0115
          64   -0.0116   -0.0116   -0.0623   -0.0057    0.0332    0.0130   -0.0033    0.0059
          65   -0.0556   -0.0162   -0.0770   -0.0022    0.0440    0.0143    0.0074    0.0740
          66    0.0660    0.0000    0.0286   -0.0071   -0.0160   -0.0217   -0.0091   -0.0563
          67    0.0235   -0.0176    0.0074   -0.0002    0.0066    0.0037    0.0456   -0.0387
          68   -0.0055    0.0034   -0.0066    0.0009   -0.0048   -0.0019   -0.0141    0.0120
          69   -0.0391    0.0292   -0.0333    0.0046   -0.0296   -0.0130   -0.0717    0.0601


   Root No.      33        34        35        36        37        38        39        40

                33 A      34 A      35 A      36 A      37 A      38 A      39 A      40 A   

                1165.2    1187.3    1208.9    1232.1    1265.2    1267.7    1328.2    1348.5
  
           1    0.0236    0.0125   -0.0255   -0.0128   -0.0012   -0.0271    0.0143    0.0118
           2    0.0188   -0.0228    0.0324   -0.0060    0.0001    0.0210    0.0213   -0.0015
           3    0.0225   -0.0111    0.0142    0.0103    0.0120    0.0038   -0.0181   -0.0033
           4   -0.0251    0.0150   -0.0109   -0.0007   -0.0021    0.0022    0.0245   -0.0274
           5    0.0127    0.0008   -0.0022    0.0008    0.0028    0.0054   -0.0019   -0.0087
           6   -0.0218    0.0042    0.0003    0.0072    0.0141    0.0176   -0.0299    0.0247
           7    0.0222   -0.0057   -0.0078   -0.0191   -0.0233    0.0465   -0.0011   -0.0079
           8   -0.0221    0.0173   -0.0236   -0.0117   -0.0369    0.0054   -0.0089   -0.0048
           9   -0.0149    0.0026   -0.0017   -0.0018   -0.0013    0.0002    0.0031    0.0026
          10   -0.0201   -0.0015    0.0166    0.0112   -0.0258   -0.0433   -0.0135    0.0088
          11   -0.0222    0.0052   -0.0066    0.0073    0.0370    0.0169    0.0046   -0.0003
          12    0.0174   -0.0056    0.0011   -0.0023   -0.0018   -0.0049    0.0079   -0.0072
          13   -0.0184   -0.0285    0.0014   -0.0130    0.0017   -0.0003    0.0036    0.0068
          14   -0.0009    0.0097   -0.0016    0.0039    0.0006   -0.0029   -0.0172   -0.0179
          15    0.0040    0.0185    0.0128   -0.0014   -0.0055    0.0072    0.0337    0.0307
          16    0.0035    0.0134    0.0025   -0.0008   -0.0007    0.0004    0.0078    0.0118
          17    0.0019   -0.0037   -0.0001    0.0026   -0.0011    0.0012    0.0012   -0.0013
          18    0.0012   -0.0031   -0.0042    0.0008    0.0016   -0.0018   -0.0013    0.0044
          19   -0.0012   -0.0024    0.0171   -0.0131    0.0131    0.0035   -0.0180   -0.0033
          20    0.0059   -0.0094   -0.0141    0.0073   -0.0008   -0.0016    0.0101    0.0135
          21   -0.0147    0.0079   -0.0065    0.0125   -0.0139    0.0002    0.0104   -0.0051
          22    0.0176    0.0143   -0.0099    0.0306   -0.0094    0.0035    0.0136    0.0092
          23    0.0112   -0.0090   -0.0098   -0.0086    0.0103   -0.0073   -0.0103    0.0028
          24   -0.0158   -0.0105    0.0128   -0.0255    0.0046   -0.0010   -0.0118   -0.0154
          25    0.0014   -0.0017    0.0016    0.0020    0.0038    0.0088   -0.0159    0.0139
          26    0.0028    0.0015   -0.0028   -0.0030   -0.0057   -0.0020    0.0016    0.0018
          27    0.0001    0.0001   -0.0004   -0.0031   -0.0071   -0.0142    0.0234   -0.0200
          28    0.0576   -0.0844    0.1043    0.0173   -0.0070    0.0496   -0.0103   -0.0266
          29    0.0329    0.0330   -0.0600    0.0353    0.0294   -0.0448   -0.0323    0.0040
          30   -0.0017    0.0110   -0.0067   -0.0236    0.0004   -0.0018    0.0195    0.0117
          31   -0.0466   -0.0458    0.0311    0.0133   -0.0042    0.0028   -0.0314    0.0444
          32    0.0670   -0.0563    0.0247   -0.0110   -0.0354   -0.0359    0.0268   -0.0014
          33    0.0155    0.0107   -0.0105   -0.0061   -0.0034   -0.0030    0.0104   -0.0065
          34    0.0313   -0.0204    0.0417    0.0343    0.1268   -0.0304    0.0121    0.0184
          35    0.0065    0.0049    0.0291    0.0629    0.0874   -0.1127   -0.0120    0.0122
          36   -0.0027    0.0035   -0.0017    0.0065   -0.0210   -0.0162   -0.0065   -0.0032
          37    0.0672   -0.0241    0.0320    0.0187    0.1258   -0.0509    0.0258    0.0114
          38   -0.0464    0.0216   -0.0006    0.0284    0.0716   -0.1264    0.0188    0.0173
          39    0.0178   -0.0083    0.0057   -0.0037    0.0095    0.0227    0.0014   -0.0005
          40   -0.0699    0.0268   -0.0431    0.0178    0.1159    0.0472    0.0220   -0.0071
          41   -0.0427   -0.0069    0.0548    0.0243   -0.0718   -0.0840   -0.0786    0.0546
          42   -0.0143    0.0013    0.0030    0.0078    0.0104   -0.0100   -0.0136    0.0111
          43   -0.0388    0.0180   -0.0347    0.0255    0.1252    0.0472    0.0086   -0.0028
          44    0.0230   -0.0264    0.0521    0.0055   -0.0931   -0.1164   -0.0183    0.0089
          45   -0.0002    0.0015   -0.0025   -0.0086   -0.0144    0.0184    0.0060   -0.0047
          46   -0.0195   -0.0703   -0.0095   -0.0129    0.0091   -0.0031   -0.0453   -0.0644
          47   -0.0720   -0.0553    0.0288   -0.0879    0.0096   -0.0010    0.0072   -0.0119
          48    0.1036    0.0570   -0.0440    0.1243   -0.0078    0.0000   -0.0608   -0.0636
          49   -0.0219   -0.0179    0.0060   -0.0061    0.0015    0.0009   -0.0378   -0.0652
          50   -0.0195    0.0163    0.0245   -0.0201   -0.0070    0.0071    0.0487    0.0554
          51    0.0461   -0.0153   -0.0484    0.0347    0.0118   -0.0158   -0.0453   -0.0202
          52   -0.0086   -0.0318   -0.0244    0.0109    0.0074   -0.0116   -0.0703   -0.0835
          53    0.0022    0.0208    0.0130   -0.0061   -0.0022    0.0040    0.0172    0.0170
          54   -0.0033   -0.0133   -0.0137    0.0054    0.0058   -0.0077   -0.0433   -0.0482
          55    0.0028    0.0297    0.0029    0.0003    0.0007   -0.0031   -0.0268   -0.0419
          56   -0.0098   -0.0215   -0.0005   -0.0065    0.0018   -0.0002   -0.0009   -0.0016
          57    0.0192    0.0531   -0.0001    0.0150   -0.0010   -0.0036   -0.0404   -0.0613
          58    0.0100    0.0003   -0.0083    0.0098    0.0009   -0.0029   -0.0274   -0.0408
          59   -0.0151   -0.0082    0.0087   -0.0138   -0.0009    0.0033    0.0358    0.0529
          60    0.0240    0.0260   -0.0059    0.0177   -0.0007   -0.0017   -0.0253   -0.0362
          61    0.0040    0.0544    0.0199    0.0148   -0.0080    0.0096    0.0119    0.0065
          62    0.0074    0.1855    0.1227   -0.0991    0.0282    0.0028   -0.0389   -0.0319
          63   -0.0336   -0.1781   -0.0973    0.0512   -0.0126   -0.0051    0.0175    0.0199
          64    0.0050    0.0030    0.0301    0.0238    0.0009    0.0166   -0.0142   -0.0089
          65   -0.0499    0.0062    0.0611    0.1940   -0.0623    0.0739    0.0308   -0.0102
          66    0.0619   -0.0065   -0.0781   -0.1517    0.0387   -0.0686   -0.0047    0.0153
          67   -0.0201   -0.0151    0.0240    0.0115    0.0129   -0.0374    0.0671   -0.0763
          68    0.0077    0.0043   -0.0077   -0.0048   -0.0072    0.0090   -0.0180    0.0225
          69    0.0313    0.0228   -0.0376   -0.0170   -0.0207    0.0629   -0.1150    0.1304


   Root No.      41        42        43        44        45        46        47        48

                41 A      42 A      43 A      44 A      45 A      46 A      47 A      48 A   

                1387.9    1401.0    1406.7    1409.1    1411.3    1414.5    1429.2    1461.1
  
           1    0.0201    0.0102    0.0024   -0.0016   -0.0042    0.0129   -0.0107    0.0318
           2    0.0246   -0.0045    0.0027    0.0050   -0.0036    0.0147   -0.0160    0.0354
           3   -0.0216   -0.0092   -0.0031   -0.0015    0.0048   -0.0164    0.0177   -0.0351
           4   -0.0036   -0.0212   -0.0018   -0.0027    0.0016   -0.0045   -0.0021   -0.0223
           5   -0.0293    0.0424    0.0002   -0.0091   -0.0009   -0.0036    0.0178    0.0305
           6   -0.0066    0.0335    0.0017   -0.0021   -0.0021    0.0042    0.0047    0.0246
           7   -0.0071   -0.0045   -0.0004    0.0150    0.0043   -0.0109    0.0166    0.0211
           8   -0.0108    0.0030   -0.0019   -0.0241   -0.0026    0.0026   -0.0057   -0.0254
           9    0.0044    0.0024    0.0006   -0.0002   -0.0009    0.0030   -0.0029    0.0042
          10   -0.0017    0.0156    0.0022    0.0147    0.0000    0.0037   -0.0102   -0.0236
          11    0.0070   -0.0017    0.0022    0.0244    0.0017    0.0017   -0.0112   -0.0247
          12   -0.0008   -0.0053   -0.0005   -0.0009    0.0005   -0.0015    0.0009   -0.0023
          13   -0.0209   -0.0128    0.0096    0.0070   -0.0014    0.0304    0.0048    0.0030
          14   -0.0080   -0.0077   -0.0018    0.0037    0.0010    0.0026   -0.0222    0.0155
          15    0.0164    0.0135    0.0016   -0.0060   -0.0023   -0.0018    0.0362   -0.0232
          16   -0.0127   -0.0023   -0.0016   -0.0006   -0.0199   -0.0253   -0.0197    0.0055
          17    0.0066    0.0017   -0.0245    0.0031   -0.0208    0.0133    0.0142   -0.0047
          18   -0.0152   -0.0035   -0.0266   -0.0004    0.0236   -0.0168   -0.0242    0.0082
          19   -0.0151   -0.0044   -0.0014    0.0007    0.0023   -0.0069    0.0082   -0.0160
          20    0.0033    0.0058   -0.0003   -0.0032    0.0009   -0.0054    0.0128   -0.0102
          21    0.0115    0.0010    0.0017    0.0014   -0.0027    0.0106   -0.0157    0.0209
          22    0.0087    0.0059   -0.0009   -0.0030    0.0003   -0.0051    0.0051   -0.0030
          23   -0.0114   -0.0005   -0.0014   -0.0013    0.0021   -0.0084    0.0101   -0.0170
          24   -0.0013   -0.0062    0.0010    0.0042   -0.0019    0.0091   -0.0157    0.0167
          25    0.0021    0.0048    0.0005    0.0014   -0.0003    0.0011    0.0002    0.0033
          26    0.0093   -0.0148   -0.0002    0.0028    0.0005    0.0006   -0.0049   -0.0089
          27   -0.0013   -0.0109   -0.0009   -0.0013    0.0006   -0.0020   -0.0010   -0.0078
          28   -0.0121   -0.0465   -0.0040    0.0086    0.0071   -0.0178    0.0076   -0.0429
          29   -0.0328    0.0145   -0.0031   -0.0142    0.0024   -0.0135    0.0170   -0.0291
          30    0.0202    0.0097    0.0027    0.0017   -0.0036    0.0116   -0.0063    0.0318
          31    0.0184    0.0284    0.0043    0.0065   -0.0043    0.0154   -0.0111    0.0291
          32    0.0367   -0.0461    0.0009    0.0172    0.0009    0.0059   -0.0219   -0.0266
          33    0.0148   -0.0354   -0.0011    0.0054    0.0017   -0.0012   -0.0102   -0.0308
          34    0.0144    0.0376    0.0011   -0.0774   -0.0194    0.0451   -0.0553   -0.0466
          35    0.0023   -0.0358    0.0018    0.1074    0.0217   -0.0451    0.0519    0.0328
          36   -0.0022   -0.0378    0.0014    0.1109    0.0233   -0.0501    0.0634    0.0666
          37    0.0177    0.0387    0.0012   -0.0862   -0.0219    0.0513   -0.0641   -0.0501
          38    0.0296   -0.0258    0.0053    0.1123    0.0170   -0.0284    0.0349    0.0671
          39   -0.0045    0.0317   -0.0022   -0.1038   -0.0203    0.0418   -0.0538   -0.0685
          40    0.0149   -0.0927   -0.0123   -0.0809    0.0002   -0.0183    0.0392    0.0570
          41   -0.0015   -0.0432   -0.0120   -0.1121   -0.0058   -0.0096    0.0422    0.0712
          42    0.0032   -0.0646   -0.0120   -0.0953   -0.0028   -0.0143    0.0420    0.0706
          43    0.0079   -0.0787   -0.0112   -0.0719    0.0007   -0.0184    0.0385    0.0509
          44    0.0045   -0.0744   -0.0124   -0.0947   -0.0026   -0.0133    0.0315    0.0348
          45   -0.0059    0.0861    0.0144    0.1086    0.0023    0.0182   -0.0472   -0.0732
          46    0.1057    0.0512   -0.0306   -0.0239   -0.0112   -0.1002   -0.0116   -0.0055
          47    0.1007    0.0553   -0.0254   -0.0249   -0.0138   -0.0837    0.0259   -0.0257
          48    0.0142    0.0012   -0.0148   -0.0026    0.0073   -0.0367   -0.0516    0.0249
          49    0.1181    0.0561   -0.0320   -0.0259   -0.0120   -0.1041   -0.0130   -0.0023
          50   -0.0566   -0.0270    0.0223    0.0140    0.0004    0.0699    0.0258   -0.0041
          51   -0.0761   -0.0418    0.0076    0.0184    0.0122    0.0451   -0.0367    0.0234
[...]
 T-DIPOLE    0.2183        C  2 --  H 11          +13.8% ( 50.4%)     0.2%
 TRAVEL      0.0926        C  1 --  C  2          +12.4% ( 47.8%)    19.7%
 RED. MASS   1.1776        C  2 --  C  4          +12.3% ( 47.7%)    37.5%
 EFF. MASS   5.6120        C  2 --  C  3          +11.0% ( 45.1%)    56.3%

 VIBRATION   43   43A       ATOM PAIR        ENERGY CONTRIBUTION    RADIAL
 FREQ.      1406.68        C  6 --  H 18          +49.9% ( 61.9%)     0.3%
 T-DIPOLE    0.0583        C  6 --  H 20          +27.1% ( 45.6%)     7.4%
 TRAVEL      0.1709        C  6 --  H 19          +13.3% ( 31.9%)    18.3%
 RED. MASS   0.4055        C  5 --  C  6           +5.6% ( 20.7%)    21.9%
 EFF. MASS   1.6421

 VIBRATION   44   44A       ATOM PAIR        ENERGY CONTRIBUTION    RADIAL
 FREQ.      1409.10        C  3 --  H 13          +17.7% ( 44.9%)     3.6%
 T-DIPOLE    0.0730        C  3 --  H 12          +17.1% ( 44.1%)     4.1%
 TRAVEL      0.1388        C  4 --  H 14          +16.8% ( 43.7%)     3.5%
 RED. MASS   0.2695        C  4 --  H 15          +15.3% ( 41.7%)     4.5%
 EFF. MASS   2.4822

 VIBRATION   45   45A       ATOM PAIR        ENERGY CONTRIBUTION    RADIAL
 FREQ.      1411.28        C  6 --  H 19          +44.5% ( 58.6%)     0.4%
 T-DIPOLE    0.0697        C  6 --  H 20          +32.4% ( 50.0%)     2.1%
 TRAVEL      0.1700        C  6 --  H 18          +14.0% ( 32.9%)    29.5%
 RED. MASS   0.3857        C  5 --  C  6           +5.4% ( 20.4%)    10.7%
 EFF. MASS   1.6537

 VIBRATION   46   46A       ATOM PAIR        ENERGY CONTRIBUTION    RADIAL
 FREQ.      1414.45        C  5 --  H 16          +11.4% ( 40.5%)     5.9%
 T-DIPOLE    0.0916        C  5 --  H 17          +11.0% ( 39.8%)     6.5%
 TRAVEL      0.1055        C  5 --  C  6          +10.7% ( 39.2%)    74.3%
 RED. MASS   0.3733        C  6 --  H 19          +10.2% ( 38.4%)     6.1%
 EFF. MASS   4.2795

 VIBRATION   47   47A       ATOM PAIR        ENERGY CONTRIBUTION    RADIAL
 FREQ.      1429.15        C  5 --  C  6          +12.3% ( 49.3%)    85.5%
 T-DIPOLE    0.0532        C  5 --  C  8           +9.3% ( 42.9%)    79.4%
 TRAVEL      0.0841        C  5 --  H 16           +7.5% ( 38.5%)     0.0%
 RED. MASS   0.7035        C  5 --  H 17           +6.8% ( 36.7%)     0.0%
 EFF. MASS   6.6667

 VIBRATION   48   48A       ATOM PAIR        ENERGY CONTRIBUTION    RADIAL
 FREQ.      1461.14        C  1 --  C  7          +10.3% ( 51.2%)    95.7%
 T-DIPOLE    0.2982        C  1 --  C  2          +10.2% ( 50.8%)    44.9%
 TRAVEL      0.0736        C  1 --  C  4           +9.2% ( 48.3%)    88.2%
 RED. MASS   1.1230        C  1 --  C  3           +8.9% ( 47.6%)    69.3%
 EFF. MASS   8.5266

 VIBRATION   49   49A       ATOM PAIR        ENERGY CONTRIBUTION    RADIAL
 FREQ.      1889.12        C  7 --  C  8          +43.5% ( 97.5%)    96.3%
 T-DIPOLE    0.0910        C  1 --  C  7          +14.4% ( 56.1%)    56.7%
 TRAVEL      0.0550        C  5 --  C  8          +14.1% ( 55.4%)    55.1%
 RED. MASS   5.3698        C  7 --  H 22          +13.2% ( 53.8%)     3.4%
 EFF. MASS  11.8196        C  8 --  H 21          +13.2% ( 53.6%)     3.5%

 VIBRATION   50   50A       ATOM PAIR        ENERGY CONTRIBUTION    RADIAL
 FREQ.      2903.42        C  2 --  H 11          +94.1% ( 99.3%)    99.9%
 T-DIPOLE    0.0546        C  1 --  H 10           +1.2% ( 11.4%)    99.7%
 TRAVEL      0.1261        C  1 --  C  2           +1.1% ( 10.9%)    17.7%
 RED. MASS   0.9033        C  2 --  C  4           +1.1% ( 10.8%)    17.3%
 EFF. MASS   1.4612

 VIBRATION   51   51A       ATOM PAIR        ENERGY CONTRIBUTION    RADIAL
 FREQ.      2936.61        C  1 --  H 10          +94.4% ( 99.2%)   100.0%
 T-DIPOLE    0.1609        C  2 --  H 11           +1.2% ( 11.1%)    99.4%
 TRAVEL      0.1263        C  1 --  C  3           +1.0% ( 10.3%)    13.3%
 RED. MASS   0.9007        C  1 --  C  4           +1.0% ( 10.2%)    28.5%
 EFF. MASS   1.4384

 VIBRATION   52   52A       ATOM PAIR        ENERGY CONTRIBUTION    RADIAL
 FREQ.      2944.98        C  5 --  H 17          +52.4% ( 75.2%)    96.9%
 T-DIPOLE    0.0187        C  5 --  H 16          +44.8% ( 69.6%)    96.1%
 TRAVEL      0.1218        C  5 --  C  6           +1.2% ( 11.2%)     0.0%
 RED. MASS   0.5166        C  5 --  C  8           +1.2% ( 11.1%)     0.2%
 EFF. MASS   1.5438

 VIBRATION   53   53A       ATOM PAIR        ENERGY CONTRIBUTION    RADIAL
 FREQ.      3024.23        C  5 --  H 16          +50.7% ( 70.3%)    98.1%
 T-DIPOLE    0.0431        C  5 --  H 17          +44.2% ( 65.6%)    97.3%
 TRAVEL      0.1315        C  8 --  H 21           +2.3% ( 14.9%)    99.8%
 RED. MASS   0.4520        C  7 --  H 22           +1.0% (  9.8%)    99.7%
 EFF. MASS   1.2892

 VIBRATION   54   54A       ATOM PAIR        ENERGY CONTRIBUTION    RADIAL
 FREQ.      3029.73        C  3 --  H 13          +36.9% ( 63.4%)    97.5%
 T-DIPOLE    0.0683        C  3 --  H 12          +27.1% ( 54.4%)    95.7%
 TRAVEL      0.1197        C  4 --  H 14          +16.3% ( 42.2%)    97.1%
 RED. MASS   0.2841        C  4 --  H 15          +13.8% ( 38.9%)    96.1%
 EFF. MASS   1.5531

 VIBRATION   55   55A       ATOM PAIR        ENERGY CONTRIBUTION    RADIAL
 FREQ.      3033.10        C  7 --  H 22          +83.9% ( 92.7%)   100.0%
 T-DIPOLE    0.3250        C  8 --  H 21          +11.1% ( 33.7%)    99.9%
 TRAVEL      0.1231        C  1 --  C  7           +1.1% ( 10.8%)    16.6%
 RED. MASS   0.6997        C  7 --  C  8           +1.0% ( 10.2%)    39.6%
 EFF. MASS   1.4663

 VIBRATION   56   56A       ATOM PAIR        ENERGY CONTRIBUTION    RADIAL
 FREQ.      3035.33        C  8 --  H 21          +83.3% ( 92.7%)   100.0%
 T-DIPOLE    0.1133        C  7 --  H 22          +10.4% ( 32.8%)    99.7%
 TRAVEL      0.1197        C  5 --  H 16           +2.3% ( 15.4%)    99.4%
 RED. MASS   0.6992        C  7 --  C  8           +1.9% ( 14.0%)    39.4%
 EFF. MASS   1.5504

 VIBRATION   57   57A       ATOM PAIR        ENERGY CONTRIBUTION    RADIAL
 FREQ.      3045.08        C  4 --  H 14          +36.1% ( 62.4%)    97.5%
 T-DIPOLE    0.1489        C  4 --  H 15          +29.3% ( 56.2%)    96.3%
 TRAVEL      0.1202        C  3 --  H 13          +18.3% ( 44.5%)    97.9%
 RED. MASS   0.2941        C  3 --  H 12          +12.7% ( 37.1%)    95.9%
 EFF. MASS   1.5322

 VIBRATION   58   58A       ATOM PAIR        ENERGY CONTRIBUTION    RADIAL
 FREQ.      3081.20        C  6 --  H 19          +63.7% ( 82.3%)    98.7%
 T-DIPOLE    0.0092        C  6 --  H 20          +29.1% ( 55.7%)    92.5%
 TRAVEL      0.1207        C  6 --  H 18           +5.9% ( 25.2%)    60.1%
 RED. MASS   0.5216        C  5 --  C  6           +1.0% ( 10.2%)     0.0%
 EFF. MASS   1.5011

 VIBRATION   59   59A       ATOM PAIR        ENERGY CONTRIBUTION    RADIAL
 FREQ.      3086.06        C  6 --  H 18          +58.5% ( 78.9%)    98.3%
 T-DIPOLE    0.0081        C  6 --  H 20          +35.9% ( 61.8%)    94.4%
 TRAVEL      0.1205        C  6 --  H 19           +4.2% ( 21.2%)    48.2%
 RED. MASS   0.5011        C  5 --  C  6           +1.0% ( 10.3%)     0.0%
 EFF. MASS   1.5042

 VIBRATION   60   60A       ATOM PAIR        ENERGY CONTRIBUTION    RADIAL
 FREQ.      3102.61        C  3 --  H 12          +54.7% ( 73.4%)    98.1%
 T-DIPOLE    0.0802        C  3 --  H 13          +38.5% ( 61.5%)    95.8%
 TRAVEL      0.1301        C  4 --  H 15           +2.8% ( 16.6%)    98.0%
 RED. MASS   0.4510        C  4 --  H 14           +1.9% ( 13.8%)    95.6%
 EFF. MASS   1.2842

 VIBRATION   61   61A       ATOM PAIR        ENERGY CONTRIBUTION    RADIAL
 FREQ.      3106.22        C  4 --  H 15          +51.3% ( 71.1%)    97.8%
 T-DIPOLE    0.1443        C  4 --  H 14          +41.8% ( 64.2%)    96.3%
 TRAVEL      0.1300        C  3 --  H 12           +2.6% ( 16.1%)    98.0%
 RED. MASS   0.4436        C  3 --  H 13           +2.1% ( 14.2%)    96.4%
 EFF. MASS   1.2854

 VIBRATION   62   62A       ATOM PAIR        ENERGY CONTRIBUTION    RADIAL
 FREQ.      3183.08        C  6 --  H 18          +34.7% ( 56.6%)    97.3%
 T-DIPOLE    0.0250        C  6 --  H 20          +34.2% ( 56.3%)    97.3%
 TRAVEL      0.1366        C  6 --  H 19          +30.8% ( 53.4%)    96.7%
 RED. MASS   0.3277        C  5 --  C  6           +0.3% (  5.1%)    99.8%
 EFF. MASS   1.1361

 VIBRATION   63   63A       ATOM PAIR        ENERGY CONTRIBUTION    RADIAL
 FREQ.      3901.14        O  9 --  H 23          +99.6% (100.0%)   100.0%
 T-DIPOLE    0.1735        C  2 --  O  9           +0.4% (  6.2%)     6.4%
 TRAVEL      0.1117
 RED. MASS   0.9481
 EFF. MASS   1.3850

 SYMMETRY NUMBER FOR POINT-GROUP C1  =  1


          SYSTEM IS A GROUND STATE


    NULL



          MOLECULE IS NOT LINEAR

          THERE ARE 63 GENUINE VIBRATIONS IN THIS SYSTEM
          THIS THERMODYNAMICS CALCULATION IS LIMITED TO
          MOLECULES WHICH HAVE NO INTERNAL ROTATIONS




                    CALCULATED THERMODYNAMIC PROPERTIES
                                          *
   TEMP. (K)   PARTITION FUNCTION   H.O.F.    ENTHALPY  HEAT CAPACITY ENTROPY
                                   KCAL/MOL   CAL/MOLE    CAL/K/MOL  CAL/K/MOL


 298.00  VIB.     0.2298D+04                  4724.8010    31.5178    31.2355
         ROT.     0.6853D+06                   888.2813     2.9808    29.6842
         INT.     0.1575D+10                  5613.0823    34.4986    60.9198
         TRA.     0.1371D+28                  1480.4688     4.9680    40.4094
         TOT.                      -42.008    7093.5511    39.4666   101.3291

 200.00  VIB.     0.1623D+03                  2191.9823    20.6256    21.0731
         ROT.     0.3768D+06                   596.1620     2.9808    28.4956
         INT.     0.6114D+08                  2788.1442    23.6064    49.5687
         TRA.     0.7536D+27                   993.6033     4.9680    38.4282
         TOT.                      -45.319    3781.7475    28.5745    87.9969

 210.00  VIB.     0.2136D+03                  2403.0865    21.6008    22.1029
         ROT.     0.4054D+06                   625.9700     2.9808    28.6410
         INT.     0.8660D+08                  3029.0565    24.5816    50.7439
         TRA.     0.8108D+27                  1043.2834     4.9680    38.6706
         TOT.                      -45.029    4072.3399    29.5496    89.4145

 220.00  VIB.     0.2808D+03                  2624.1122    22.6101    23.1309
         ROT.     0.4347D+06                   655.7781     2.9808    28.7797
         INT.     0.1221D+09                  3279.8904    25.5909    51.9106
         TRA.     0.8694D+27                  1092.9636     4.9680    38.9017
         TOT.                      -44.728    4372.8540    30.5590    90.8123

 230.00  VIB.     0.3687D+03                  2855.4043    23.6540    24.1589
         ROT.     0.4647D+06                   685.5862     2.9808    28.9122
         INT.     0.1713D+09                  3540.9906    26.6348    53.0711
         TRA.     0.9293D+27                  1142.6437     4.9680    39.1226
         TOT.                      -44.418    4683.6343    31.6028    92.1936

 240.00  VIB.     0.4834D+03                  3097.3052    24.7317    25.1883
         ROT.     0.4953D+06                   715.3943     2.9808    29.0390
         INT.     0.2395D+09                  3812.6995    27.7125    54.2273
         TRA.     0.9906D+27                  1192.3239     4.9680    39.3340
         TOT.                      -44.096    5005.0234    32.6805    93.5613

 250.00  VIB.     0.6334D+03                  3350.1440    25.8412    26.2202
         ROT.     0.5266D+06                   745.2024     2.9808    29.1607
         INT.     0.3336D+09                  4095.3465    28.8221    55.3810
         TRA.     0.1053D+28                  1242.0041     4.9680    39.5368
         TOT.                      -43.764    5337.3505    33.7901    94.9178

 260.00  VIB.     0.8292D+03                  3614.2281    26.9802    27.2559
         ROT.     0.5585D+06                   775.0105     2.9808    29.2776
         INT.     0.4631D+09                  4389.2387    29.9610    56.5335
         TRA.     0.1117D+28                  1291.6842     4.9680    39.7317
         TOT.                      -43.420    5680.9229    34.9291    96.2651

 270.00  VIB.     0.1085D+04                  3889.8364    28.1455    28.2959
         ROT.     0.5911D+06                   804.8186     2.9808    29.3901
         INT.     0.6412D+09                  4694.6551    31.1263    57.6860
         TRA.     0.1182D+28                  1341.3644     4.9680    39.9191
         TOT.                      -43.065    6036.0195    36.0944    97.6051

 280.00  VIB.     0.1419D+04                  4177.2147    29.3336    29.3409
         ROT.     0.6242D+06                   834.6267     2.9808    29.4985
         INT.     0.8856D+09                  5011.8414    32.3144    58.8394
         TRA.     0.1248D+28                  1391.0445     4.9680    40.0998
         TOT.                      -42.698    6402.8860    37.2824    98.9392

 290.00  VIB.     0.1855D+04                  4476.5725    30.5408    30.3912
         ROT.     0.6579D+06                   864.4348     2.9808    29.6031
         INT.     0.1220D+10                  5341.0073    33.5216    59.9944
         TRA.     0.1316D+28                  1440.7247     4.9680    40.2742
         TOT.                      -42.319    6781.7321    38.4896   100.2685

 300.00  VIB.     0.2424D+04                  4788.0820    31.7633    31.4472
         ROT.     0.6923D+06                   894.2429     2.9808    29.7042
         INT.     0.1678D+10                  5682.3249    34.7441    61.1514
         TRA.     0.1384D+28                  1490.4049     4.9680    40.4426
         TOT.                      -41.928    7172.7298    39.7121   101.5939

 310.00  VIB.     0.3168D+04                  5111.8774    32.9974    32.5088
         ROT.     0.7272D+06                   924.0510     2.9808    29.8019
         INT.     0.2304D+10                  6035.9284    35.9782    62.3107
         TRA.     0.1454D+28                  1540.0850     4.9680    40.6055
         TOT.                      -41.525    7576.0134    40.9462   102.9162

 320.00  VIB.     0.4141D+04                  5448.0556    34.2393    33.5760
         ROT.     0.7626D+06                   953.8591     2.9808    29.8966
         INT.     0.3158D+10                  6401.9147    37.2201    63.4726
         TRA.     0.1525D+28                  1589.7652     4.9680    40.7632
         TOT.                      -41.110    7991.6799    42.1881   104.2358

 330.00  VIB.     0.5413D+04                  5796.6778    35.4856    34.6487
         ROT.     0.7986D+06                   983.6672     2.9808    29.9883
         INT.     0.4323D+10                  6780.3450    38.4664    64.6370
         TRA.     0.1597D+28                  1639.4454     4.9680    40.9161
         TOT.                      -40.681    8419.7904    43.4344   105.5530

 340.00  VIB.     0.7076D+04                  6157.7713    36.7330    35.7265
         ROT.     0.8352D+06                  1013.4753     2.9808    30.0773
         INT.     0.5910D+10                  7171.2466    39.7138    65.8038
         TRA.     0.1670D+28                  1689.1255     4.9680    41.0644
         TOT.                      -40.241    8860.3721    44.6819   106.8682

 350.00  VIB.     0.9252D+04                  6531.3320    37.9785    36.8093
         ROT.     0.8723D+06                  1043.2834     2.9808    30.1637
         INT.     0.8071D+10                  7574.6154    40.9594    66.9730
         TRA.     0.1745D+28                  1738.8057     4.9680    41.2084
         TOT.                      -39.788    9313.4211    45.9274   108.1814

 360.00  VIB.     0.1210D+05                  6917.3267    39.2194    37.8966
         ROT.     0.9100D+06                  1073.0915     2.9808    30.2477
         INT.     0.1101D+11                  7990.4182    42.2002    68.1443
         TRA.     0.1820D+28                  1788.4859     4.9680    41.3484
         TOT.                      -39.322    9778.9041    47.1682   109.4926

 370.00  VIB.     0.1583D+05                  7315.6963    40.4531    38.9880
         ROT.     0.9482D+06                  1102.8996     2.9808    30.3293
         INT.     0.1501D+11                  8418.5959    43.4339    69.3174
         TRA.     0.1896D+28                  1838.1660     4.9680    41.4845
         TOT.                      -38.844   10256.7619    48.4019   110.8018

 380.00  VIB.     0.2072D+05                  7726.3580    41.6775    40.0831
         ROT.     0.9869D+06                  1132.7077     2.9808    30.4088
         INT.     0.2045D+11                  8859.0657    44.6583    70.4919
         TRA.     0.1974D+28                  1887.8462     4.9680    41.6170
         TOT.                      -38.354   10746.9119    49.6263   112.1089

 390.00  VIB.     0.2713D+05                  8149.2086    42.8906    41.1814
         ROT.     0.1026D+07                  1162.5158     2.9808    30.4862
         INT.     0.2784D+11                  9311.7245    45.8714    71.6677
         TRA.     0.2052D+28                  1937.5263     4.9680    41.7460
         TOT.                      -37.852   11249.2508    50.8394   113.4137

 400.00  VIB.     0.3553D+05                  8584.1269    44.0908    42.2825
         ROT.     0.1066D+07                  1192.3239     2.9808    30.5617
         INT.     0.3787D+11                  9776.4508    47.0716    72.8442
         TRA.     0.2131D+28                  1987.2065     4.9680    41.8718
         TOT.                      -37.338   11763.6573    52.0396   114.7160

   *: NOTE: HEATS OF FORMATION ARE RELATIVE TO THE
            ELEMENTS IN THEIR STANDARD STATE AT 298K
              (=  Standard Enthalpy of Formation).

            Hvib:  Zero-point energy is not included.
                   frequencies of less than zero cm-1 are not included.
            Hrot = (3/2)RT
            Htra = (3/2)RT + pV = (5/2)RT

            Heat capacity is Cp, not Cv

           For more information, see: HTTP://OpenMOPAC.net/Manual/thermochemistry.html


           FORCE CONSTANT IN CARTESIAN COORDINATES (Millidynes/A)

    ATOM   CHEMICAL       X               Y               Z
   NUMBER   SYMBOL  FORCE CONSTANT  FORCE CONSTANT  FORCE CONSTANT

      1       C        7.613024        8.283349        9.033065
      2       C        7.379918        8.270092        9.253625
      3       C        8.085807        7.849810        8.588954
      4       C        8.066244        7.823512        8.643078
      5       C        8.433840        8.350785        8.646976
      6       C        8.223925        8.251732        8.380094
      7       C        6.577981       13.218331        7.584654
      8       C        6.528210       13.074517        7.591204
      9       O        2.519768        9.789456        4.850479
     10       H        1.364397        1.301518        3.467114
     11       H        1.416176        1.297468        3.317673
     12       H        1.616181        1.465499        3.548887
     13       H        1.309257        1.494257        3.812411
     14       H        1.310845        1.379766        3.952614
     15       H        1.624742        1.586532        3.417724
     16       H        2.247857        2.501181        1.646910
     17       H        1.988386        3.059505        1.227088
     18       H        1.792660        1.642652        3.356021
     19       H        2.410137        2.744484        1.627323
     20       H        2.147191        3.289857        1.342172
     21       H        2.866536        1.893820        1.435345
     22       H        2.840626        1.927846        1.424413
     23       H        0.611605        8.197886        0.652593



 TOTAL CPU TIME:             3.30 SECONDS

 == MOPAC DONE ==
