 *******************************************************************************
 ** Site#: 14399           For non-commercial use only        Version 13.159M **
 *******************************************************************************
 ** Cite this work as: MOPAC2012, James J. P. Stewart, Stewart Computational  **
 ** Chemistry, Version 13.159M web: HTTP://OpenMOPAC.net  Days remaining:   6 **
 *******************************************************************************
 **                                                                           **
 **                                MOPAC2012                                  **
 **                                                                           **
 *******************************************************************************

                            PM3 CALCULATION RESULTS


 *******************************************************************************
 *  CALCULATION DONE:                                Mon Jun  2 11:11:27 2014  *
 *  PM3      - The PM3 Hamiltonian to be used
 *  PRECISE  - CRITERIA TO BE INCREASED BY 100 TIMES
 *  NOSYM    - POINT-GROUP SYMMETRY SET TO C1
 *  T=       - A TIME OF 172800.0 SECONDS REQUESTED
 *  DUMP=N   - RESTART FILE WRITTEN EVERY  7200.000 SECONDS
 *******************************************************************************
pm3  precise nosym
 InChI=1S/C10H14/c1-3-6-9(2)10-7-4-5-8-10/h4,6-7,9-10H,1,5,8H2,2H3

   ATOM   CHEMICAL          X               Y               Z
  NUMBER   SYMBOL      (ANGSTROMS)     (ANGSTROMS)     (ANGSTROMS)
 
     1       C         -0.84070000  *   0.77530000  *  -0.38660000  *
     2       C          0.68040000  *   0.91730000  *  -0.14550000  *
     3       C         -1.23390000  *  -0.46850000  *  -1.20280000  *
     4       C         -1.99790000  *  -1.39480000  *  -0.25670000  *
     5       C          1.04490000  *   2.23720000  *   0.54090000  *
     6       C         -1.64900000  *   0.62640000  *   0.86200000  *
     7       C         -2.26600000  *  -0.54210000  *   0.93040000  *
     8       C          1.26660000  *  -0.23420000  *   0.63000000  *
     9       C          2.99080000  *  -1.87370000  *  -0.43730000  *
    10       C          2.13100000  *  -1.05470000  *   0.09730000  *
    11       H         -1.20570000  *   1.68350000  *  -0.92320000  *
    12       H          1.15160000  *   0.97180000  *  -1.15780000  *
    13       H         -1.90910000  *  -0.16690000  *  -2.03860000  *
    14       H         -0.37350000  *  -0.99570000  *  -1.67710000  *
    15       H         -2.95200000  *  -1.75110000  *  -0.70870000  *
    16       H         -1.37790000  *  -2.26740000  *   0.05280000  *
    17       H          2.15140000  *   2.35650000  *   0.60100000  *
    18       H          0.65310000  *   3.10640000  *  -0.03510000  *
    19       H          0.63780000  *   2.29340000  *   1.57630000  *
    20       H         -1.71000000  *   1.37630000  *   1.64830000  *
    21       H         -2.87220000  *  -0.85160000  *   1.77950000  *
    22       H          0.94410000  *  -0.41580000  *   1.65070000  *
    23       H          4.00730000  *  -1.91090000  *  -0.06120000  *
    24       H          2.72890000  *  -2.41680000  *  -1.33870000  *
 


          CARTESIAN COORDINATES 

    NO.       ATOM         X         Y         Z

     1         C       -0.8407    0.7753   -0.3866
     2         C        0.6804    0.9173   -0.1455
     3         C       -1.2339   -0.4685   -1.2028
     4         C       -1.9979   -1.3948   -0.2567
     5         C        1.0449    2.2372    0.5409
     6         C       -1.6490    0.6264    0.8620
     7         C       -2.2660   -0.5421    0.9304
     8         C        1.2666   -0.2342    0.6300
     9         C        2.9908   -1.8737   -0.4373
    10         C        2.1310   -1.0547    0.0973
    11         H       -1.2057    1.6835   -0.9232
    12         H        1.1516    0.9718   -1.1578
    13         H       -1.9091   -0.1669   -2.0386
    14         H       -0.3735   -0.9957   -1.6771
    15         H       -2.9520   -1.7511   -0.7087
    16         H       -1.3779   -2.2674    0.0528
    17         H        2.1514    2.3565    0.6010
    18         H        0.6531    3.1064   -0.0351
    19         H        0.6378    2.2934    1.5763
    20         H       -1.7100    1.3763    1.6483
    21         H       -2.8722   -0.8516    1.7795
    22         H        0.9441   -0.4158    1.6507
    23         H        4.0073   -1.9109   -0.0612
    24         H        2.7289   -2.4168   -1.3387

  H: (PM3): J. J. P. STEWART, J. COMP. CHEM. 10, 209 (1989).
  C: (PM3): J. J. P. STEWART, J. COMP. CHEM. 10, 209 (1989).

           Empirical Formula: C10 H14  =    24 atoms



      MOLECULAR POINT GROUP   :   C1  


      RHF CALCULATION, NO. OF DOUBLY OCCUPIED LEVELS =   27

      Geometry optimization using EF

          DIAGONAL MATRIX USED AS START HESSIAN

 CYCLE:     1 TIME:   0.011 TIME LEFT:  2.00D  GRAD.:    63.639 HEAT: 53.94791
 CYCLE:     2 TIME:   0.021 TIME LEFT:  2.00D  GRAD.:    69.301 HEAT: 53.04468
 CYCLE:     3 TIME:   0.008 TIME LEFT:  2.00D  GRAD.:    48.747 HEAT: 51.83968
 CYCLE:     4 TIME:   0.015 TIME LEFT:  2.00D  GRAD.:    53.043 HEAT: 51.26973
 CYCLE:     5 TIME:   0.008 TIME LEFT:  2.00D  GRAD.:    61.364 HEAT: 50.74843
 CYCLE:     6 TIME:   0.008 TIME LEFT:  2.00D  GRAD.:    33.576 HEAT: 49.76281
 CYCLE:     7 TIME:   0.008 TIME LEFT:  2.00D  GRAD.:    41.974 HEAT: 49.11358
 CYCLE:     8 TIME:   0.008 TIME LEFT:  2.00D  GRAD.:    51.641 HEAT: 48.40752
 CYCLE:     9 TIME:   0.015 TIME LEFT:  2.00D  GRAD.:    48.048 HEAT: 47.97701
 CYCLE:    10 TIME:   0.008 TIME LEFT:  2.00D  GRAD.:    49.685 HEAT: 47.62808
 CYCLE:    11 TIME:   0.015 TIME LEFT:  2.00D  GRAD.:    30.731 HEAT: 47.07654
 CYCLE:    12 TIME:   0.008 TIME LEFT:  2.00D  GRAD.:    33.051 HEAT: 46.98751
 CYCLE:    13 TIME:   0.008 TIME LEFT:  2.00D  GRAD.:    39.921 HEAT: 46.81005
 CYCLE:    14 TIME:   0.008 TIME LEFT:  2.00D  GRAD.:    38.280 HEAT: 46.72156
 CYCLE:    15 TIME:   0.008 TIME LEFT:  2.00D  GRAD.:    42.259 HEAT: 46.70550
 CYCLE:    16 TIME:   0.014 TIME LEFT:  2.00D  GRAD.:    16.280 HEAT: 46.25653
 CYCLE:    17 TIME:   0.014 TIME LEFT:  2.00D  GRAD.:    15.282 HEAT: 46.21253
 CYCLE:    18 TIME:   0.008 TIME LEFT:  2.00D  GRAD.:    15.177 HEAT: 46.16632
 CYCLE:    19 TIME:   0.008 TIME LEFT:  2.00D  GRAD.:    13.334 HEAT: 46.12054
 CYCLE:    20 TIME:   0.008 TIME LEFT:  2.00D  GRAD.:    12.810 HEAT: 46.08228
 CYCLE:    21 TIME:   0.008 TIME LEFT:  2.00D  GRAD.:    10.151 HEAT: 46.03978
 CYCLE:    22 TIME:   0.008 TIME LEFT:  2.00D  GRAD.:    11.742 HEAT: 46.00897
 CYCLE:    23 TIME:   0.008 TIME LEFT:  2.00D  GRAD.:     8.363 HEAT: 45.96441
 CYCLE:    24 TIME:   0.008 TIME LEFT:  2.00D  GRAD.:    11.295 HEAT: 45.95455
 CYCLE:    25 TIME:   0.007 TIME LEFT:  2.00D  GRAD.:     5.788 HEAT: 45.91230
 CYCLE:    26 TIME:   0.008 TIME LEFT:  2.00D  GRAD.:     8.402 HEAT: 45.90016
 CYCLE:    27 TIME:   0.008 TIME LEFT:  2.00D  GRAD.:     5.288 HEAT: 45.86607
 CYCLE:    28 TIME:   0.008 TIME LEFT:  2.00D  GRAD.:     5.954 HEAT: 45.83139
 CYCLE:    29 TIME:   0.008 TIME LEFT:  2.00D  GRAD.:     5.614 HEAT: 45.80680
 CYCLE:    30 TIME:   0.008 TIME LEFT:  2.00D  GRAD.:     5.544 HEAT: 45.79623
 CYCLE:    31 TIME:   0.008 TIME LEFT:  2.00D  GRAD.:     4.205 HEAT: 45.78233
 CYCLE:    32 TIME:   0.007 TIME LEFT:  2.00D  GRAD.:     2.915 HEAT: 45.77208
 CYCLE:    33 TIME:   0.008 TIME LEFT:  2.00D  GRAD.:     4.349 HEAT: 45.76194
 CYCLE:    34 TIME:   0.008 TIME LEFT:  2.00D  GRAD.:     3.759 HEAT: 45.74766
 CYCLE:    35 TIME:   0.008 TIME LEFT:  2.00D  GRAD.:     3.304 HEAT: 45.73628
 CYCLE:    36 TIME:   0.008 TIME LEFT:  2.00D  GRAD.:     3.050 HEAT: 45.71987
 CYCLE:    37 TIME:   0.008 TIME LEFT:  2.00D  GRAD.:     2.865 HEAT: 45.70802
 CYCLE:    38 TIME:   0.008 TIME LEFT:  2.00D  GRAD.:     2.986 HEAT: 45.69665
 CYCLE:    39 TIME:   0.008 TIME LEFT:  2.00D  GRAD.:     3.343 HEAT: 45.67807
 CYCLE:    40 TIME:   0.008 TIME LEFT:  2.00D  GRAD.:     4.197 HEAT: 45.64681
 CYCLE:    41 TIME:   0.008 TIME LEFT:  2.00D  GRAD.:     4.251 HEAT: 45.61948
 CYCLE:    42 TIME:   0.008 TIME LEFT:  2.00D  GRAD.:     3.969 HEAT: 45.58699
 CYCLE:    43 TIME:   0.008 TIME LEFT:  2.00D  GRAD.:     4.644 HEAT: 45.54561
 CYCLE:    44 TIME:   0.008 TIME LEFT:  2.00D  GRAD.:     4.513 HEAT: 45.50140
 CYCLE:    45 TIME:   0.008 TIME LEFT:  2.00D  GRAD.:     4.656 HEAT: 45.46782
 CYCLE:    46 TIME:   0.008 TIME LEFT:  2.00D  GRAD.:     3.708 HEAT: 45.43630
 CYCLE:    47 TIME:   0.008 TIME LEFT:  2.00D  GRAD.:     4.221 HEAT: 45.40504
 CYCLE:    48 TIME:   0.008 TIME LEFT:  2.00D  GRAD.:     3.704 HEAT: 45.36784
 CYCLE:    49 TIME:   0.008 TIME LEFT:  2.00D  GRAD.:     3.427 HEAT: 45.33370
 CYCLE:    50 TIME:   0.008 TIME LEFT:  2.00D  GRAD.:     3.051 HEAT: 45.31373
 CYCLE:    51 TIME:   0.008 TIME LEFT:  2.00D  GRAD.:     2.957 HEAT: 45.29387
 CYCLE:    52 TIME:   0.008 TIME LEFT:  2.00D  GRAD.:     2.885 HEAT: 45.27638
 CYCLE:    53 TIME:   0.008 TIME LEFT:  2.00D  GRAD.:     3.042 HEAT: 45.26091
 CYCLE:    54 TIME:   0.008 TIME LEFT:  2.00D  GRAD.:     4.528 HEAT: 45.25704
 CYCLE:    55 TIME:   0.008 TIME LEFT:  2.00D  GRAD.:     2.485 HEAT: 45.23815
 CYCLE:    56 TIME:   0.008 TIME LEFT:  2.00D  GRAD.:     1.658 HEAT: 45.23009
 CYCLE:    57 TIME:   0.008 TIME LEFT:  2.00D  GRAD.:     1.395 HEAT: 45.22372
 CYCLE:    58 TIME:   0.008 TIME LEFT:  2.00D  GRAD.:     1.223 HEAT: 45.22007
 CYCLE:    59 TIME:   0.008 TIME LEFT:  2.00D  GRAD.:     0.892 HEAT: 45.21705
 CYCLE:    60 TIME:   0.008 TIME LEFT:  2.00D  GRAD.:     0.780 HEAT: 45.21531
 CYCLE:    61 TIME:   0.008 TIME LEFT:  2.00D  GRAD.:     0.714 HEAT: 45.21405
 CYCLE:    62 TIME:   0.008 TIME LEFT:  2.00D  GRAD.:     0.757 HEAT: 45.21288
 CYCLE:    63 TIME:   0.008 TIME LEFT:  2.00D  GRAD.:     0.783 HEAT: 45.21165
 CYCLE:    64 TIME:   0.008 TIME LEFT:  2.00D  GRAD.:     0.744 HEAT: 45.21041
 CYCLE:    65 TIME:   0.008 TIME LEFT:  2.00D  GRAD.:     0.708 HEAT: 45.20908
 CYCLE:    66 TIME:   0.008 TIME LEFT:  2.00D  GRAD.:     0.683 HEAT: 45.20778
 CYCLE:    67 TIME:   0.008 TIME LEFT:  2.00D  GRAD.:     0.596 HEAT: 45.20670
 CYCLE:    68 TIME:   0.008 TIME LEFT:  2.00D  GRAD.:     0.414 HEAT: 45.20610
 CYCLE:    69 TIME:   0.008 TIME LEFT:  2.00D  GRAD.:     0.328 HEAT: 45.20576
 CYCLE:    70 TIME:   0.008 TIME LEFT:  2.00D  GRAD.:     0.333 HEAT: 45.20549
 CYCLE:    71 TIME:   0.008 TIME LEFT:  2.00D  GRAD.:     0.361 HEAT: 45.20517
 CYCLE:    72 TIME:   0.008 TIME LEFT:  2.00D  GRAD.:     0.374 HEAT: 45.20484
 CYCLE:    73 TIME:   0.008 TIME LEFT:  2.00D  GRAD.:     0.348 HEAT: 45.20449
 CYCLE:    74 TIME:   0.008 TIME LEFT:  2.00D  GRAD.:     0.382 HEAT: 45.20413
 CYCLE:    75 TIME:   0.008 TIME LEFT:  2.00D  GRAD.:     0.447 HEAT: 45.20373
 CYCLE:    76 TIME:   0.008 TIME LEFT:  2.00D  GRAD.:     0.460 HEAT: 45.20330
 CYCLE:    77 TIME:   0.008 TIME LEFT:  2.00D  GRAD.:     0.458 HEAT: 45.20289
 CYCLE:    78 TIME:   0.008 TIME LEFT:  2.00D  GRAD.:     0.438 HEAT: 45.20246
 CYCLE:    79 TIME:   0.008 TIME LEFT:  2.00D  GRAD.:     0.479 HEAT: 45.20196
 CYCLE:    80 TIME:   0.008 TIME LEFT:  2.00D  GRAD.:     0.590 HEAT: 45.20133
 CYCLE:    81 TIME:   0.008 TIME LEFT:  2.00D  GRAD.:     0.645 HEAT: 45.20067
 CYCLE:    82 TIME:   0.008 TIME LEFT:  2.00D  GRAD.:     0.778 HEAT: 45.19937
 CYCLE:    83 TIME:   0.008 TIME LEFT:  2.00D  GRAD.:     0.728 HEAT: 45.19858
 CYCLE:    84 TIME:   0.008 TIME LEFT:  2.00D  GRAD.:     1.154 HEAT: 45.19558
 CYCLE:    85 TIME:   0.008 TIME LEFT:  2.00D  GRAD.:     0.779 HEAT: 45.19431
 CYCLE:    86 TIME:   0.008 TIME LEFT:  2.00D  GRAD.:     0.794 HEAT: 45.19200
 CYCLE:    87 TIME:   0.008 TIME LEFT:  2.00D  GRAD.:     0.639 HEAT: 45.19127
 CYCLE:    88 TIME:   0.008 TIME LEFT:  2.00D  GRAD.:     0.493 HEAT: 45.19038
 CYCLE:    89 TIME:   0.008 TIME LEFT:  2.00D  GRAD.:     0.245 HEAT: 45.19012
 CYCLE:    90 TIME:   0.008 TIME LEFT:  2.00D  GRAD.:     0.175 HEAT: 45.18998
 CYCLE:    91 TIME:   0.009 TIME LEFT:  2.00D  GRAD.:     0.185 HEAT: 45.18987
 CYCLE:    92 TIME:   0.008 TIME LEFT:  2.00D  GRAD.:     0.191 HEAT: 45.18979
 CYCLE:    93 TIME:   0.008 TIME LEFT:  2.00D  GRAD.:     0.265 HEAT: 45.18965
 CYCLE:    94 TIME:   0.008 TIME LEFT:  2.00D  GRAD.:     0.255 HEAT: 45.18954
 CYCLE:    95 TIME:   0.008 TIME LEFT:  2.00D  GRAD.:     0.448 HEAT: 45.18908
 CYCLE:    96 TIME:   0.008 TIME LEFT:  2.00D  GRAD.:     0.369 HEAT: 45.18886
 CYCLE:    97 TIME:   0.008 TIME LEFT:  2.00D  GRAD.:     0.400 HEAT: 45.18828
 CYCLE:    98 TIME:   0.008 TIME LEFT:  2.00D  GRAD.:     0.308 HEAT: 45.18808
 CYCLE:    99 TIME:   0.008 TIME LEFT:  2.00D  GRAD.:     0.368 HEAT: 45.18756
 CYCLE:   100 TIME:   0.008 TIME LEFT:  2.00D  GRAD.:     0.347 HEAT: 45.18723
 CYCLE:   101 TIME:   0.009 TIME LEFT:  2.00D  GRAD.:     0.600 HEAT: 45.18576
 CYCLE:   102 TIME:   0.008 TIME LEFT:  2.00D  GRAD.:     0.463 HEAT: 45.18530
 CYCLE:   103 TIME:   0.008 TIME LEFT:  2.00D  GRAD.:     0.397 HEAT: 45.18443
 CYCLE:   104 TIME:   0.008 TIME LEFT:  2.00D  GRAD.:     0.342 HEAT: 45.18418
 CYCLE:   105 TIME:   0.009 TIME LEFT:  2.00D  GRAD.:     0.478 HEAT: 45.18377
 CYCLE:   106 TIME:   0.008 TIME LEFT:  2.00D  GRAD.:     0.373 HEAT: 45.18344
 CYCLE:   107 TIME:   0.008 TIME LEFT:  2.00D  GRAD.:     0.337 HEAT: 45.18303
 CYCLE:   108 TIME:   0.008 TIME LEFT:  2.00D  GRAD.:     0.529 HEAT: 45.18188
 CYCLE:   109 TIME:   0.009 TIME LEFT:  2.00D  GRAD.:     0.643 HEAT: 45.18067
 CYCLE:   110 TIME:   0.009 TIME LEFT:  2.00D  GRAD.:     2.520 HEAT: 45.17851
 CYCLE:   111 TIME:   0.009 TIME LEFT:  2.00D  GRAD.:     0.764 HEAT: 45.17526
 CYCLE:   112 TIME:   0.008 TIME LEFT:  2.00D  GRAD.:     0.650 HEAT: 45.17357
 CYCLE:   113 TIME:   0.009 TIME LEFT:  2.00D  GRAD.:     1.221 HEAT: 45.17163
 CYCLE:   114 TIME:   0.008 TIME LEFT:  2.00D  GRAD.:     0.368 HEAT: 45.17064
 CYCLE:   115 TIME:   0.008 TIME LEFT:  2.00D  GRAD.:     0.320 HEAT: 45.17031
 CYCLE:   116 TIME:   0.008 TIME LEFT:  2.00D  GRAD.:     0.380 HEAT: 45.16977
 CYCLE:   117 TIME:   0.008 TIME LEFT:  2.00D  GRAD.:     0.312 HEAT: 45.16956
 CYCLE:   118 TIME:   0.008 TIME LEFT:  2.00D  GRAD.:     0.472 HEAT: 45.16892
 CYCLE:   119 TIME:   0.008 TIME LEFT:  2.00D  GRAD.:     0.489 HEAT: 45.16843
 CYCLE:   120 TIME:   0.008 TIME LEFT:  2.00D  GRAD.:     0.345 HEAT: 45.16793
 CYCLE:   121 TIME:   0.008 TIME LEFT:  2.00D  GRAD.:     0.288 HEAT: 45.16775
 CYCLE:   122 TIME:   0.008 TIME LEFT:  2.00D  GRAD.:     0.408 HEAT: 45.16759
 CYCLE:   123 TIME:   0.008 TIME LEFT:  2.00D  GRAD.:     0.268 HEAT: 45.16740
 CYCLE:   124 TIME:   0.008 TIME LEFT:  2.00D  GRAD.:     0.196 HEAT: 45.16730
 CYCLE:   125 TIME:   0.008 TIME LEFT:  2.00D  GRAD.:     0.228 HEAT: 45.16704
 CYCLE:   126 TIME:   0.008 TIME LEFT:  2.00D  GRAD.:     0.231 HEAT: 45.16694
 CYCLE:   127 TIME:   0.008 TIME LEFT:  2.00D  GRAD.:     0.301 HEAT: 45.16675
 CYCLE:   128 TIME:   0.008 TIME LEFT:  2.00D  GRAD.:     0.302 HEAT: 45.16660
 CYCLE:   129 TIME:   0.008 TIME LEFT:  2.00D  GRAD.:     0.400 HEAT: 45.16616
 CYCLE:   130 TIME:   0.008 TIME LEFT:  2.00D  GRAD.:     0.345 HEAT: 45.16584
 CYCLE:   131 TIME:   0.008 TIME LEFT:  2.00D  GRAD.:     0.447 HEAT: 45.16524
 CYCLE:   132 TIME:   0.008 TIME LEFT:  2.00D  GRAD.:     0.312 HEAT: 45.16499
 CYCLE:   133 TIME:   0.008 TIME LEFT:  2.00D  GRAD.:     0.149 HEAT: 45.16470
 CYCLE:   134 TIME:   0.008 TIME LEFT:  2.00D  GRAD.:     0.112 HEAT: 45.16462
 CYCLE:   135 TIME:   0.008 TIME LEFT:  2.00D  GRAD.:     0.087 HEAT: 45.16453
 CYCLE:   136 TIME:   0.008 TIME LEFT:  2.00D  GRAD.:     0.046 HEAT: 45.16451

     RMS GRADIENT =  0.04574  IS LESS THAN CUTOFF =  0.05000



 -------------------------------------------------------------------------------
pm3  precise nosym
 InChI=1S/C10H14/c1-3-6-9(2)10-7-4-5-8-10/h4,6-7,9-10H,1,5,8H2,2H3



     GEOMETRY OPTIMISED USING EIGENVECTOR FOLLOWING (EF).     
     SCF FIELD WAS ACHIEVED                                   


                              PM3 CALCULATION
                                                       MOPAC2012 (Version: 13.159M)
                                                       Mon Jun  2 11:11:28 2014
                                                       No. of days left =   6




          FINAL HEAT OF FORMATION =         45.16451 KCAL/MOL =     188.96830 KJ/MOL


          TOTAL ENERGY            =      -1399.10314 EV
          ELECTRONIC ENERGY       =      -7804.79642 EV  POINT GROUP:     C1  
          CORE-CORE REPULSION     =       6405.69328 EV
          COSMO AREA              =        192.83 SQUARE ANGSTROMS
          COSMO VOLUME            =        199.10 CUBIC ANGSTROMS

          GRADIENT NORM           =          0.04574
          IONIZATION POTENTIAL    =          9.543553 EV
          HOMO LUMO ENERGIES (EV) =         -9.544  1.047
          NO. OF FILLED LEVELS    =         27
          MOLECULAR WEIGHT        =        134.221

          MOLECULAR DIMENSIONS (Angstroms)

            Atom       Atom       Distance
            H    23    H    15     6.97612
            H    23    H    21     6.93614
            H    13    H    22     4.04983


          SCF CALCULATIONS        =        144
          COMPUTATION TIME        =          1.146 SECONDS




   ATOM   CHEMICAL          X               Y               Z
  NUMBER   SYMBOL      (ANGSTROMS)     (ANGSTROMS)     (ANGSTROMS)
 
     1       C         -0.84472714  *   0.71779722  *  -0.31646908  *
     2       C          0.67930005  *   0.86703944  *  -0.21013083  *
     3       C         -1.26793030  *  -0.49281411  *  -1.17765712  *
     4       C         -2.32712477  *  -1.24907239  *  -0.36298296  *
     5       C          1.05856453  *   2.19096246  *   0.43906364  *
     6       C         -1.53975305  *   0.49774492  *   0.99795080  *
     7       C         -2.35559741  *  -0.56151081  *   0.96383805  *
     8       C          1.28952000  *  -0.25655885  *   0.57153197  *
     9       C          3.22634115  *  -1.72503436  *  -0.34764450  *
    10       C          2.25994397  *  -0.99098580  *   0.10690567  *
    11       H         -1.24687437  *   1.65964434  *  -0.76341649  *
    12       H          1.08610514  *   0.85780290  *  -1.25198070  *
    13       H         -1.66172712  *  -0.16876606  *  -2.15682405  *
    14       H         -0.40159276  *  -1.14404209  *  -1.39955898  *
    15       H         -3.32365190  *  -1.21265718  *  -0.84083639  *
    16       H         -2.08008940  *  -2.32033373  *  -0.24923054  *
    17       H          2.14844138  *   2.31349374  *   0.47820546  *
    18       H          0.64929885  *   3.04216266  *  -0.12082060  *
    19       H          0.68335665  *   2.26277389  *   1.46905337  *
    20       H         -1.37112193  *   1.16365108  *   1.84470733  *
    21       H         -2.98774177  *  -0.92135285  *   1.77505372  *
    22       H          0.88016114  *  -0.44442795  *   1.57276721  *
    23       H          4.27122182  *  -1.46792085  *  -0.19735111  *
    24       H          3.04734264  *  -2.64066600  *  -0.90447075  *

           Empirical Formula: C10 H14  =    24 atoms



      MOLECULAR POINT GROUP   :   C1  


                  EIGENVALUES  
 -41.37752 -35.61247 -31.97034 -28.12998 -26.82905 -26.41234 -21.45682 -19.81434
 -18.82626 -17.68088 -17.29226 -16.53749 -15.89069 -15.06463 -14.99527 -14.11737
 -14.06221 -13.43247 -12.97546 -12.92284 -12.79885 -12.24768 -11.99333 -11.68610
 -10.24277  -9.83627  -9.54355   1.04656   1.12425   1.19818   3.03209   3.36058
   3.46175   3.65651   3.74020   3.79892   3.90388   3.96802   4.07320   4.16993
   4.27335   4.32546   4.35484   4.47228   4.57460   4.79874   4.94164   4.99441
   5.07587   5.18339   5.39944   5.62062   5.99263   6.58192


              NET ATOMIC CHARGES AND DIPOLE CONTRIBUTIONS

  ATOM NO.   TYPE          CHARGE      No. of ELECS.   s-Pop       p-Pop       
    1          C          -0.044525        4.0445     1.17603     2.86849
    2          C          -0.021607        4.0216     1.16382     2.85779
    3          C          -0.104260        4.1043     1.16961     2.93465
    4          C          -0.064841        4.0648     1.15364     2.91120
    5          C          -0.111022        4.1110     1.14169     2.96933
    6          C          -0.156555        4.1566     1.20357     2.95298
    7          C          -0.149541        4.1495     1.20219     2.94735
    8          C          -0.081426        4.0814     1.16472     2.91671
    9          C          -0.095782        4.0958     1.14655     2.94923
   10          C          -0.183092        4.1831     1.21448     2.96862
   11          H           0.069096        0.9309     0.93090
   12          H           0.066715        0.9333     0.93328
   13          H           0.050265        0.9497     0.94974
   14          H           0.060418        0.9396     0.93958
   15          H           0.055134        0.9449     0.94487
   16          H           0.056081        0.9439     0.94392
   17          H           0.043158        0.9568     0.95684
   18          H           0.039820        0.9602     0.96018
   19          H           0.041775        0.9582     0.95823
   20          H           0.114244        0.8858     0.88576
   21          H           0.110205        0.8898     0.88979
   22          H           0.118944        0.8811     0.88106
   23          H           0.093473        0.9065     0.90653
   24          H           0.093323        0.9067     0.90668
 DIPOLE           X         Y         Z       TOTAL
 POINT-CHG.    -0.086     0.095    -0.186     0.226
 HYBRID         0.014    -0.037     0.054     0.067
 SUM           -0.072     0.058    -0.132     0.161


          ATOMIC ORBITAL ELECTRON POPULATIONS

    Atom      s        px        py        pz   
    1  C   1.17603   0.94099   0.98226   0.94524
    2  C   1.16382   0.93980   0.93232   0.98567
    3  C   1.16961   0.99103   0.96991   0.97371
    4  C   1.15364   0.98338   0.98438   0.94345
    5  C   1.14169   1.00918   0.95744   1.00272
    6  C   1.20357   0.98921   0.98463   0.97914
    7  C   1.20219   0.99450   0.97474   0.97811
    8  C   1.16472   0.95853   0.96517   0.99300
    9  C   1.14655   0.95404   0.98242   1.01277
   10  C   1.21448   0.98693   0.99065   0.99104
   11  H   0.93090
   12  H   0.93328
   13  H   0.94974
   14  H   0.93958
   15  H   0.94487
   16  H   0.94392
   17  H   0.95684
   18  H   0.96018
   19  H   0.95823
   20  H   0.88576
   21  H   0.88979
   22  H   0.88106
   23  H   0.90653
   24  H   0.90668
 *******************************************************************************
 ** Site#: 14399           For non-commercial use only        Version 13.159M **
 *******************************************************************************
 ** Cite this work as: MOPAC2012, James J. P. Stewart, Stewart Computational  **
 ** Chemistry, Version 13.159M web: HTTP://OpenMOPAC.net  Days remaining:   6 **
 *******************************************************************************
 **                                                                           **
 **                                MOPAC2012                                  **
 **                                                                           **
 *******************************************************************************

                            PM3 CALCULATION RESULTS


 *******************************************************************************
 *  CALCULATION DONE:                                Mon Jun  2 11:11:28 2014  *
 *  PM3      - The PM3 Hamiltonian to be used
 *  OLDGEO   - PREVIOUS GEOMETRY TO BE USED
 *  PRECISE  - CRITERIA TO BE INCREASED BY 100 TIMES
 *  NOSYM    - POINT-GROUP SYMMETRY SET TO C1
 *  T=       - A TIME OF 172800.0 SECONDS REQUESTED
 *  DUMP=N   - RESTART FILE WRITTEN EVERY  7200.000 SECONDS
 *  THERMO   - THERMODYNAMIC QUANTITIES TO BE CALCULATED
 *******************************************************************************
oldgeo thermo nosym precise  pm3

   ATOM   CHEMICAL          X               Y               Z
  NUMBER   SYMBOL      (ANGSTROMS)     (ANGSTROMS)     (ANGSTROMS)
 
     1       C         -0.84472714  *   0.71779722  *  -0.31646908  *
     2       C          0.67930005  *   0.86703944  *  -0.21013083  *
     3       C         -1.26793030  *  -0.49281411  *  -1.17765712  *
     4       C         -2.32712477  *  -1.24907239  *  -0.36298296  *
     5       C          1.05856453  *   2.19096246  *   0.43906364  *
     6       C         -1.53975305  *   0.49774492  *   0.99795080  *
     7       C         -2.35559741  *  -0.56151081  *   0.96383805  *
     8       C          1.28952000  *  -0.25655885  *   0.57153197  *
     9       C          3.22634115  *  -1.72503436  *  -0.34764450  *
    10       C          2.25994397  *  -0.99098580  *   0.10690567  *
    11       H         -1.24687437  *   1.65964434  *  -0.76341649  *
    12       H          1.08610514  *   0.85780290  *  -1.25198070  *
    13       H         -1.66172712  *  -0.16876606  *  -2.15682405  *
    14       H         -0.40159276  *  -1.14404209  *  -1.39955898  *
    15       H         -3.32365190  *  -1.21265718  *  -0.84083639  *
    16       H         -2.08008940  *  -2.32033373  *  -0.24923054  *
    17       H          2.14844138  *   2.31349374  *   0.47820546  *
    18       H          0.64929885  *   3.04216266  *  -0.12082060  *
    19       H          0.68335665  *   2.26277389  *   1.46905337  *
    20       H         -1.37112193  *   1.16365108  *   1.84470733  *
    21       H         -2.98774177  *  -0.92135285  *   1.77505372  *
    22       H          0.88016114  *  -0.44442795  *   1.57276721  *
    23       H          4.27122182  *  -1.46792085  *  -0.19735111  *
    24       H          3.04734264  *  -2.64066600  *  -0.90447075  *
 


          CARTESIAN COORDINATES 

    NO.       ATOM         X         Y         Z

     1         C       -0.8447    0.7178   -0.3165
     2         C        0.6793    0.8670   -0.2101
     3         C       -1.2679   -0.4928   -1.1777
     4         C       -2.3271   -1.2491   -0.3630
     5         C        1.0586    2.1910    0.4391
     6         C       -1.5398    0.4977    0.9980
     7         C       -2.3556   -0.5615    0.9638
     8         C        1.2895   -0.2566    0.5715
     9         C        3.2263   -1.7250   -0.3476
    10         C        2.2599   -0.9910    0.1069
    11         H       -1.2469    1.6596   -0.7634
    12         H        1.0861    0.8578   -1.2520
    13         H       -1.6617   -0.1688   -2.1568
    14         H       -0.4016   -1.1440   -1.3996
    15         H       -3.3237   -1.2127   -0.8408
    16         H       -2.0801   -2.3203   -0.2492
    17         H        2.1484    2.3135    0.4782
    18         H        0.6493    3.0422   -0.1208
    19         H        0.6834    2.2628    1.4691
    20         H       -1.3711    1.1637    1.8447
    21         H       -2.9877   -0.9214    1.7751
    22         H        0.8802   -0.4444    1.5728
    23         H        4.2712   -1.4679   -0.1974
    24         H        3.0473   -2.6407   -0.9045

  H: (PM3): J. J. P. STEWART, J. COMP. CHEM. 10, 209 (1989).
  C: (PM3): J. J. P. STEWART, J. COMP. CHEM. 10, 209 (1989).

           Empirical Formula: C10 H14  =    24 atoms



      MOLECULAR POINT GROUP   :   C1  


      RHF CALCULATION, NO. OF DOUBLY OCCUPIED LEVELS =   27



          HEAT OF FORMATION =      45.164508 KCALS/MOLE


          INTERNAL COORDINATE DERIVATIVES

   NUMBER  ATOM       BOND         ANGLE      DIHEDRAL

     1       C      0.008809     0.002886     0.001392
     2       C      0.004044    -0.000702    -0.000297
     3       C      0.004206    -0.003532     0.003932
     4       C     -0.008249    -0.000488     0.002184
     5       C      0.003886     0.002065    -0.000963
     6       C      0.008620     0.003587    -0.000391
     7       C     -0.004883    -0.004829     0.000959
     8       C      0.007578    -0.004271     0.004393
     9       C     -0.003392    -0.010735     0.001224
    10       C      0.005222     0.020419    -0.000568
    11       H      0.006547     0.005416    -0.003778
    12       H     -0.002781     0.004882    -0.002213
    13       H      0.003358    -0.006679     0.000219
    14       H     -0.001209    -0.002815    -0.002431
    15       H     -0.002041     0.001622    -0.001761
    16       H      0.003241     0.006004    -0.000457
    17       H     -0.013435     0.001411    -0.002917
    18       H     -0.002149     0.002561    -0.002826
    19       H      0.001059     0.006764    -0.002207
    20       H     -0.007203    -0.002010    -0.003232
    21       H      0.004377    -0.002432    -0.000411
    22       H     -0.002560    -0.006905     0.007736
    23       H     -0.012535    -0.003946     0.004409
    24       H     -0.000511    -0.008273    -0.001994


          GRADIENT NORM =   0.04506


          TIME FOR SCF CALCULATION =    0.01

          TIME FOR DERIVATIVES     =    0.01

          MOLECULAR WEIGHT =  134.22



          ROTATIONAL CONSTANTS IN CM(-1)

          A =    0.06412594   B =    0.03088253   C =    0.02481494



           PRINCIPAL MOMENTS OF INERTIA IN UNITS OF 10**(-40)*GRAM-CM**2

          A =      436.5281   B =      906.4276   C =     1128.0614


          ORIENTATION OF MOLECULE IN FORCE CALCULATION

    NO.       ATOM         X         Y         Z

     1          C      -0.8001   -0.5367    0.7655
     2          C       0.7349   -0.5367    0.7655
     3          C      -1.3977    0.8878    0.7655
     4          C      -2.4664    0.9044   -0.3368
     5          C       1.2851   -1.9362    1.0039
     6          C      -1.4205   -1.1981   -0.4332
     7          C      -2.3359   -0.4189   -1.0195
     8          C       1.2856   -0.0047   -0.5227
     9          C       3.0022    1.9436   -0.6247
    10          C       2.1455    0.9728   -0.5697
    11          H      -1.1388   -1.0895    1.6756
    12          H       1.0657    0.1189    1.6091
    13          H      -1.8250    1.1421    1.7512
    14          H      -0.6162    1.6458    0.5689
    15          H      -3.4853    1.0309    0.0736
    16          H      -2.3174    1.7351   -1.0504
    17          H       2.3818   -1.9277    1.0431
    18          H       0.9228   -2.3515    1.9535
    19          H       0.9909   -2.6318    0.2062
    20          H      -1.1297   -2.2040   -0.7372
    21          H      -2.9423   -0.6700   -1.8892
    22          H       0.9303   -0.4777   -1.4475
    23          H       4.0750    1.7738   -0.5980
    24          H       2.6969    2.9835   -0.7017


    FIRST DERIVATIVES WILL BE USED IN THE CALCULATION OF SECOND DERIVATIVES

          ESTIMATED TIME TO COMPLETE CALCULATION =        3.33 SECONDS

    FOR POINT-GROUP C1   THERE ARE   1 UNIQUE SYMMETRY FUNCTIONS.

 STEP:   1 TIME =     0.04 SECS, INTEGRAL =      0.04 TIME LEFT: 172799.95
 STEP:   2 TIME =     0.04 SECS, INTEGRAL =      0.07 TIME LEFT: 172799.92
 STEP:   3 TIME =     0.04 SECS, INTEGRAL =      0.11 TIME LEFT: 172799.88
 STEP:   4 TIME =     0.04 SECS, INTEGRAL =      0.15 TIME LEFT: 172799.84
 STEP:   5 TIME =     0.04 SECS, INTEGRAL =      0.18 TIME LEFT: 172799.80
 STEP:   6 TIME =     0.04 SECS, INTEGRAL =      0.23 TIME LEFT: 172799.76
 STEP:   7 TIME =     0.04 SECS, INTEGRAL =      0.26 TIME LEFT: 172799.73
 STEP:   8 TIME =     0.04 SECS, INTEGRAL =      0.30 TIME LEFT: 172799.69
 STEP:   9 TIME =     0.04 SECS, INTEGRAL =      0.33 TIME LEFT: 172799.66
 STEP:  10 TIME =     0.04 SECS, INTEGRAL =      0.37 TIME LEFT: 172799.62
 STEP:  11 TIME =     0.04 SECS, INTEGRAL =      0.40 TIME LEFT: 172799.59
 STEP:  12 TIME =     0.04 SECS, INTEGRAL =      0.44 TIME LEFT: 172799.55
 STEP:  13 TIME =     0.03 SECS, INTEGRAL =      0.47 TIME LEFT: 172799.51
 STEP:  14 TIME =     0.03 SECS, INTEGRAL =      0.51 TIME LEFT: 172799.48
 STEP:  15 TIME =     0.03 SECS, INTEGRAL =      0.54 TIME LEFT: 172799.45
 STEP:  16 TIME =     0.04 SECS, INTEGRAL =      0.58 TIME LEFT: 172799.41
 STEP:  17 TIME =     0.04 SECS, INTEGRAL =      0.62 TIME LEFT: 172799.37
 STEP:  18 TIME =     0.04 SECS, INTEGRAL =      0.65 TIME LEFT: 172799.33
 STEP:  19 TIME =     0.04 SECS, INTEGRAL =      0.69 TIME LEFT: 172799.30
 STEP:  20 TIME =     0.04 SECS, INTEGRAL =      0.73 TIME LEFT: 172799.26
 STEP:  21 TIME =     0.04 SECS, INTEGRAL =      0.76 TIME LEFT: 172799.23
 STEP:  22 TIME =     0.04 SECS, INTEGRAL =      0.80 TIME LEFT: 172799.19
 STEP:  23 TIME =     0.04 SECS, INTEGRAL =      0.83 TIME LEFT: 172799.15
 STEP:  24 TIME =     0.04 SECS, INTEGRAL =      0.87 TIME LEFT: 172799.12
 STEP:  25 TIME =     0.04 SECS, INTEGRAL =      0.91 TIME LEFT: 172799.08
 STEP:  26 TIME =     0.04 SECS, INTEGRAL =      0.94 TIME LEFT: 172799.05
 STEP:  27 TIME =     0.04 SECS, INTEGRAL =      0.98 TIME LEFT: 172799.01
 STEP:  28 TIME =     0.04 SECS, INTEGRAL =      1.02 TIME LEFT: 172798.97
 STEP:  29 TIME =     0.04 SECS, INTEGRAL =      1.05 TIME LEFT: 172798.94
 STEP:  30 TIME =     0.04 SECS, INTEGRAL =      1.09 TIME LEFT: 172798.90
 STEP:  31 TIME =     0.04 SECS, INTEGRAL =      1.13 TIME LEFT: 172798.86
 STEP:  32 TIME =     0.04 SECS, INTEGRAL =      1.16 TIME LEFT: 172798.82
 STEP:  33 TIME =     0.04 SECS, INTEGRAL =      1.20 TIME LEFT: 172798.79
 STEP:  34 TIME =     0.04 SECS, INTEGRAL =      1.24 TIME LEFT: 172798.75
 STEP:  35 TIME =     0.04 SECS, INTEGRAL =      1.27 TIME LEFT: 172798.72
 STEP:  36 TIME =     0.04 SECS, INTEGRAL =      1.31 TIME LEFT: 172798.68
 STEP:  37 TIME =     0.04 SECS, INTEGRAL =      1.34 TIME LEFT: 172798.65
 STEP:  38 TIME =     0.04 SECS, INTEGRAL =      1.38 TIME LEFT: 172798.61
 STEP:  39 TIME =     0.03 SECS, INTEGRAL =      1.41 TIME LEFT: 172798.57
 STEP:  40 TIME =     0.04 SECS, INTEGRAL =      1.45 TIME LEFT: 172798.54
 STEP:  41 TIME =     0.04 SECS, INTEGRAL =      1.49 TIME LEFT: 172798.50
 STEP:  42 TIME =     0.04 SECS, INTEGRAL =      1.53 TIME LEFT: 172798.46
 STEP:  43 TIME =     0.03 SECS, INTEGRAL =      1.57 TIME LEFT: 172798.42
 STEP:  44 TIME =     0.04 SECS, INTEGRAL =      1.60 TIME LEFT: 172798.39
 STEP:  45 TIME =     0.04 SECS, INTEGRAL =      1.64 TIME LEFT: 172798.35
 STEP:  46 TIME =     0.04 SECS, INTEGRAL =      1.67 TIME LEFT: 172798.31
 STEP:  47 TIME =     0.04 SECS, INTEGRAL =      1.71 TIME LEFT: 172798.28
 STEP:  48 TIME =     0.04 SECS, INTEGRAL =      1.75 TIME LEFT: 172798.24
 STEP:  49 TIME =     0.03 SECS, INTEGRAL =      1.78 TIME LEFT: 172798.21
 STEP:  50 TIME =     0.04 SECS, INTEGRAL =      1.82 TIME LEFT: 172798.17
 STEP:  51 TIME =     0.04 SECS, INTEGRAL =      1.85 TIME LEFT: 172798.14
 STEP:  52 TIME =     0.04 SECS, INTEGRAL =      1.89 TIME LEFT: 172798.10
 STEP:  53 TIME =     0.04 SECS, INTEGRAL =      1.92 TIME LEFT: 172798.06
 STEP:  54 TIME =     0.04 SECS, INTEGRAL =      1.96 TIME LEFT: 172798.03
 STEP:  55 TIME =     0.04 SECS, INTEGRAL =      2.00 TIME LEFT: 172797.99
 STEP:  56 TIME =     0.04 SECS, INTEGRAL =      2.03 TIME LEFT: 172797.96
 STEP:  57 TIME =     0.03 SECS, INTEGRAL =      2.07 TIME LEFT: 172797.92
 STEP:  58 TIME =     0.04 SECS, INTEGRAL =      2.10 TIME LEFT: 172797.89
 STEP:  59 TIME =     0.03 SECS, INTEGRAL =      2.14 TIME LEFT: 172797.85
 STEP:  60 TIME =     0.04 SECS, INTEGRAL =      2.17 TIME LEFT: 172797.82
 STEP:  61 TIME =     0.04 SECS, INTEGRAL =      2.21 TIME LEFT: 172797.78
 STEP:  62 TIME =     0.04 SECS, INTEGRAL =      2.25 TIME LEFT: 172797.74
 STEP:  63 TIME =     0.04 SECS, INTEGRAL =      2.28 TIME LEFT: 172797.71
 STEP:  64 TIME =     0.04 SECS, INTEGRAL =      2.32 TIME LEFT: 172797.67
 STEP:  65 TIME =     0.04 SECS, INTEGRAL =      2.36 TIME LEFT: 172797.63
 STEP:  66 TIME =     0.04 SECS, INTEGRAL =      2.39 TIME LEFT: 172797.60
 STEP:  67 TIME =     0.03 SECS, INTEGRAL =      2.43 TIME LEFT: 172797.56
 STEP:  68 TIME =     0.04 SECS, INTEGRAL =      2.46 TIME LEFT: 172797.53
 STEP:  69 TIME =     0.04 SECS, INTEGRAL =      2.50 TIME LEFT: 172797.48
 STEP:  70 TIME =     0.04 SECS, INTEGRAL =      2.54 TIME LEFT: 172797.45
 STEP:  71 TIME =     0.03 SECS, INTEGRAL =      2.57 TIME LEFT: 172797.41
 STEP:  72 TIME =     0.04 SECS, INTEGRAL =      2.62 TIME LEFT: 172797.37

(To convert to Hartree/Bohr^2, multiply by (10^(-21) x N x a0^2)/(4.184 x 627.51) = 0.0642)


           FORCE MATRIX IN MILLIDYNES/ANGSTROM


                  C  1       C  2       C  3       C  4       C  5       C  6
 ------------------------------------------------------------------------------
     C    1  14.495137
     C    2   3.629392  14.497385
     C    3   3.481182   0.552207  14.205258
     C    4   0.723751   0.036943   3.779775  14.688537
     C    5   0.627364   4.094922   0.048153   0.006816  14.307915
     C    6   4.448907   0.588074   0.868577   1.185149   0.044203  18.324026
     C    7   1.146273   0.043224   0.893651   4.745589   0.003654  10.584656
     C    8   0.640637   4.542555   0.042095   0.003361   0.715440   0.060235
     C    9   0.010899   0.068378   0.001242   0.001059   0.011127   0.003363
     C   10   0.038756   0.892053   0.012314   0.001717   0.035267   0.007013
     H   11   4.206216   0.427693   0.420350   0.021517   0.045045   0.397755
     H   12   0.415441   4.197775   0.032726   0.002330   0.417573   0.045612
     H   13   0.439363   0.023690   4.588739   0.439067   0.003859   0.033723
     H   14   0.452589   0.064449   4.522498   0.439448   0.002622   0.019560
     H   15   0.023493   0.004810   0.436284   4.511234   0.000872   0.037629
     H   16   0.034013   0.002033   0.435860   4.532001   0.000651   0.039822
     H   17   0.049282   0.453760   0.008246   0.001167   4.758967   0.002702
     H   18   0.028557   0.456169   0.001959   0.000498   4.731260   0.002590
     H   19   0.017206   0.468336   0.001525   0.000569   4.707395   0.014532
     H   20   0.414326   0.008911   0.041199   0.113721   0.013305   4.990770
     H   21   0.113238   0.015480   0.043075   0.412370   0.000905   0.449508
     H   22   0.018772   0.447000   0.002722   0.001282   0.011556   0.016088
     H   23   0.008805   0.077518   0.000503   0.000308   0.010237   0.000997
     H   24   0.009248   0.076928   0.000541   0.000379   0.010125   0.000876


                  C  7       C  8       C  9       C 10       H 11       H 12
 ------------------------------------------------------------------------------
     C    7  18.373943
     C    8   0.011732  18.298708
     C    9   0.001555   0.776769  18.156962
     C   10   0.003236  11.499299  11.869277  24.898063
     H   11   0.036895   0.046134   0.002083   0.006007   4.669197
     H   12   0.007168   0.438370   0.004458   0.050774   0.030003   4.663812
     H   13   0.032312   0.002294   0.000432   0.000919   0.029599   0.002125
     H   14   0.023315   0.011627   0.001934   0.009329   0.030651   0.027016
     H   15   0.428576   0.000675   0.000364   0.000555   0.001720   0.000632
     H   16   0.431805   0.001374   0.000557   0.001005   0.003467   0.000283
     H   17   0.000501   0.024854   0.001034   0.003885   0.002055   0.030201
     H   18   0.000500   0.047848   0.001992   0.004938   0.029123   0.030014
     H   19   0.000631   0.022422   0.000644   0.002614   0.002155   0.045409
     H   20   0.448099   0.006579   0.001446   0.001954   0.013645   0.001868
     H   21   5.020169   0.001479   0.000895   0.001022   0.014858   0.002462
     H   22   0.007930   4.720701   0.042587   0.443533   0.002287   0.036371
     H   23   0.000612   0.046837   5.029336   0.478892   0.001473   0.001000
     H   24   0.000984   0.048189   5.028703   0.478858   0.001604   0.000693


                  H 13       H 14       H 15       H 16       H 17       H 18
 ------------------------------------------------------------------------------
     H   13   5.193965
     H   14   0.574343   5.131361
     H   15   0.030143   0.029868   5.118710
     H   16   0.023674   0.029615   0.572777   5.138058
     H   17   0.000775   0.000619   0.000253   0.000121   5.492172
     H   18   0.000195   0.000452   0.000155   0.000159   0.567315   5.470004
     H   19   0.000383   0.000504   0.000130   0.000199   0.573591   0.568756
     H   20   0.003715   0.001868   0.015978   0.014729   0.001286   0.000789
     H   21   0.003739   0.002359   0.013452   0.015532   0.000151   0.000213
     H   22   0.000690   0.001839   0.000627   0.000727   0.002804   0.001884
     H   23   0.000256   0.000405   0.000103   0.000185   0.000478   0.001805
     H   24   0.000233   0.000457   0.000175   0.000234   0.000321   0.001713


                  H 19       H 20       H 21       H 22       H 23       H 24
 ------------------------------------------------------------------------------
     H   19   5.450991
     H   20   0.021073   5.390604
     H   21   0.000455   0.046925   5.415968
     H   22   0.008117   0.006608   0.001530   5.102998
     H   23   0.000291   0.000332   0.000158   0.068266   5.407093
     H   24   0.000298   0.000306   0.000331   0.067790   0.406487   5.406702


          HEAT OF FORMATION =      45.164508 KCALS/MOLE

          ZERO POINT ENERGY     130.885 KCAL/MOL


           NORMAL COORDINATE ANALYSIS (Total motion = 1 Angstrom)


   Root No.       1         2         3         4         5         6         7         8

                 1 A       2 A       3 A       4 A       5 A       6 A       7 A       8 A   

                  43.0      71.2      86.4     167.0     197.5     218.6     241.9     325.3
  
           1   -0.0063   -0.0054   -0.0072    0.0044    0.0005   -0.0003   -0.0083   -0.0149
           2    0.0018   -0.0158   -0.0068   -0.0024   -0.0027   -0.0077   -0.0254    0.0071
           3   -0.0046   -0.0037    0.0208   -0.0087   -0.0038   -0.0174   -0.0143    0.0128
           4   -0.0066   -0.0050   -0.0067    0.0035    0.0002    0.0017   -0.0084   -0.0113
           5    0.0230    0.0051    0.0035    0.0071    0.0008    0.0003   -0.0142   -0.0011
           6   -0.0068    0.0080    0.0011   -0.0257   -0.0074   -0.0077    0.0123    0.0127
           7   -0.0266   -0.0247   -0.0140    0.0014    0.0045   -0.0180    0.0318   -0.0171
           8   -0.0068   -0.0239   -0.0094   -0.0031   -0.0006   -0.0158   -0.0074    0.0114
           9    0.0021    0.0381    0.0194    0.0038    0.0011    0.0119   -0.0217   -0.0047
          10   -0.0378    0.0014    0.0390    0.0084    0.0050    0.0049    0.0118   -0.0174
          11   -0.0220    0.0063    0.0112    0.0098    0.0068    0.0103    0.0114    0.0056
          12    0.0128    0.0134   -0.0317   -0.0023    0.0012   -0.0101    0.0001   -0.0067
          13    0.0122    0.0101    0.0068    0.0245    0.0183   -0.0074    0.0373    0.0442
          14    0.0295    0.0152    0.0045    0.0241    0.0112   -0.0021    0.0066    0.0118
          15   -0.0107    0.0329   -0.0239    0.0186    0.0086    0.0049    0.0168   -0.0324
          16   -0.0011    0.0160   -0.0094   -0.0142   -0.0083   -0.0265   -0.0236   -0.0142
          17   -0.0029    0.0154   -0.0158   -0.0025   -0.0007   -0.0067   -0.0073    0.0064
          18   -0.0047   -0.0321    0.0271    0.0016    0.0005   -0.0038   -0.0179    0.0136
          19   -0.0182    0.0209    0.0179   -0.0150   -0.0094   -0.0419   -0.0224    0.0054
          20   -0.0159    0.0275   -0.0059    0.0019    0.0027   -0.0082    0.0085    0.0112
          21    0.0046   -0.0239   -0.0019    0.0086    0.0061    0.0175   -0.0011   -0.0115
          22   -0.0105   -0.0042   -0.0271   -0.0021   -0.0040    0.0426   -0.0182    0.0092
          23    0.0316   -0.0090    0.0209   -0.0200   -0.0085   -0.0010    0.0156   -0.0200
          24   -0.0050    0.0026   -0.0006   -0.0404   -0.0135    0.0098    0.0221    0.0157
          25    0.0674   -0.0042    0.0066   -0.0114   -0.0064    0.0149    0.0020   -0.0147
          26   -0.0362   -0.0110   -0.0091   -0.0067   -0.0053    0.0242   -0.0046   -0.0025
          27    0.0097   -0.0308   -0.0033    0.0510    0.0119   -0.0181   -0.0131   -0.0032
          28    0.0269   -0.0041   -0.0117   -0.0053   -0.0047    0.0354   -0.0143    0.0290
          29   -0.0009   -0.0100    0.0072   -0.0160   -0.0079    0.0069    0.0119   -0.0391
          30    0.0020   -0.0119   -0.0013   -0.0232   -0.0110    0.0139    0.0218    0.0161
          31    0.0031   -0.0063    0.0072    0.0201    0.0012    0.0116   -0.0247   -0.0122
          32   -0.0060   -0.0495   -0.0048   -0.0049   -0.0016   -0.0197   -0.0241    0.0153
          33   -0.0058   -0.0245    0.0270   -0.0043   -0.0026   -0.0189   -0.0202    0.0179
          34   -0.0149   -0.0179    0.0006    0.0028   -0.0072   -0.0141   -0.0344   -0.0182
          35    0.0255    0.0214   -0.0042    0.0350    0.0117   -0.0001   -0.0112   -0.0048
          36   -0.0055    0.0003    0.0041   -0.0459   -0.0125   -0.0009    0.0211    0.0180
          37   -0.0201   -0.0528   -0.0659   -0.0066    0.0048   -0.0478    0.0647   -0.0182
          38   -0.0130   -0.0702   -0.0351   -0.0181   -0.0038   -0.0590    0.0230    0.0240
          39    0.0065    0.0380    0.0038    0.0043    0.0021    0.0106   -0.0157   -0.0086
          40   -0.0394   -0.0314   -0.0094   -0.0001    0.0060   -0.0243    0.0508   -0.0150
          41    0.0042   -0.0042    0.0006    0.0026   -0.0012    0.0028   -0.0341    0.0066
          42   -0.0056    0.0885    0.0775    0.0203    0.0048    0.0617   -0.0544   -0.0134
          43   -0.0363   -0.0087    0.0248    0.0088    0.0065    0.0029    0.0222   -0.0206
          44   -0.0451   -0.0085    0.0634    0.0377    0.0219    0.0777    0.0311   -0.0200
          45    0.0238   -0.0070   -0.0836   -0.0103    0.0000   -0.0370    0.0197   -0.0060
          46   -0.0619    0.0162    0.1087    0.0322    0.0159    0.0665    0.0135   -0.0347
          47   -0.0149    0.0280   -0.0101   -0.0008    0.0014   -0.0168    0.0079    0.0166
          48    0.0161    0.0417   -0.0423   -0.0099   -0.0030   -0.0297   -0.0038    0.0029
          49    0.0121    0.0101    0.0071    0.0269    0.0096   -0.0076    0.0382    0.0459
          50    0.0440    0.0272    0.0129    0.0324    0.0654   -0.0096    0.0422    0.0606
          51   -0.0105    0.0313   -0.0339   -0.0477    0.2443    0.0112   -0.0096   -0.0658
          52    0.0175    0.0159    0.0188    0.0838   -0.1618   -0.0149    0.0726    0.0904
          53    0.0218    0.0284   -0.0119    0.0758   -0.0787    0.0058    0.0099   -0.0310
          54   -0.0120    0.0409   -0.0265    0.0638   -0.0991    0.0056    0.0314   -0.0349
          55    0.0216    0.0157    0.0054   -0.0203    0.2244   -0.0085    0.0391    0.0533
          56    0.0280   -0.0018    0.0133   -0.0219    0.0558   -0.0046   -0.0130    0.0225
          57   -0.0129    0.0457   -0.0311    0.0754   -0.1061    0.0076    0.0337   -0.0454
          58    0.0144    0.0266   -0.0291   -0.0258   -0.0114   -0.0408   -0.0402   -0.0201
          59    0.0035    0.0258   -0.0286   -0.0065   -0.0016   -0.0105   -0.0090    0.0012
          60   -0.0112   -0.0563    0.0507    0.0037    0.0014   -0.0046   -0.0274    0.0250
          61   -0.0192    0.0360    0.0258   -0.0288   -0.0179   -0.0761   -0.0410    0.0298
          62   -0.0221    0.0495   -0.0088    0.0014    0.0037   -0.0173    0.0203    0.0136
          63    0.0071   -0.0408   -0.0066    0.0183    0.0118    0.0439    0.0084   -0.0292
          64   -0.0414   -0.0043   -0.0539    0.0046   -0.0047    0.0810   -0.0365    0.0248
          65    0.0627   -0.0196    0.0433   -0.0335   -0.0134   -0.0171    0.0412   -0.0354
          66   -0.0091    0.0078   -0.0018   -0.0348   -0.0105    0.0032    0.0156    0.0174
          67    0.0605   -0.0041    0.0036   -0.0111   -0.0064    0.0190   -0.0006   -0.0051
          68   -0.0829   -0.0109   -0.0315    0.0021   -0.0029    0.0534   -0.0285    0.0656
          69   -0.0072   -0.0329   -0.0281    0.0959    0.0238    0.0009   -0.0564    0.0190
          70    0.1112   -0.0043    0.0263   -0.0175   -0.0083   -0.0104    0.0219   -0.0797
          71   -0.0216   -0.0121   -0.0016   -0.0070   -0.0053    0.0135    0.0020   -0.0241
          72    0.0335   -0.0454    0.0197    0.0713    0.0203   -0.0652   -0.0009   -0.0444


   Root No.       9        10        11        12        13        14        15        16

                 9 A      10 A      11 A      12 A      13 A      14 A      15 A      16 A   

                 357.4     363.1     444.4     528.3     590.2     620.8     677.7     755.4
  
           1   -0.0017    0.0144   -0.0103   -0.0063   -0.0178   -0.0303   -0.0186    0.0019
           2   -0.0086    0.0180   -0.0152    0.0115   -0.0104   -0.0129    0.0298   -0.0230
           3   -0.0009   -0.0082    0.0007    0.0021    0.0244    0.0257   -0.0283   -0.0317
           4   -0.0011    0.0121   -0.0210   -0.0242   -0.0114   -0.0242   -0.0320   -0.0202
           5    0.0023   -0.0016    0.0327   -0.0150   -0.0267   -0.0060   -0.0191   -0.0069
           6   -0.0101    0.0211    0.0140   -0.0546   -0.0088   -0.0082   -0.0044   -0.0048
           7    0.0093   -0.0103    0.0255    0.0034   -0.0071   -0.0039    0.0099   -0.0244
           8   -0.0062    0.0098   -0.0094    0.0168    0.0009    0.0000    0.0431    0.0014
           9   -0.0002   -0.0016    0.0033    0.0098   -0.0016    0.0037    0.0236   -0.0353
          10    0.0056   -0.0020    0.0238    0.0088   -0.0079   -0.0011    0.0286   -0.0260
          11   -0.0034    0.0044   -0.0067   -0.0039    0.0048    0.0011   -0.0171    0.0586
          12    0.0054   -0.0133    0.0123    0.0065   -0.0048    0.0017    0.0145   -0.0030
          13   -0.0191    0.0112   -0.0262   -0.0020    0.0101   -0.0036    0.0034   -0.0063
          14    0.0024   -0.0085    0.0331    0.0074   -0.0272    0.0075   -0.0093    0.0006
          15    0.0162   -0.0051   -0.0200    0.0000    0.0124   -0.0049    0.0013   -0.0018
          16   -0.0078    0.0380    0.0149    0.0254    0.0112    0.0101    0.0003    0.0398
          17   -0.0100    0.0249   -0.0106    0.0025    0.0116    0.0036   -0.0187   -0.0528
          18    0.0022   -0.0244   -0.0173   -0.0004    0.0019    0.0002   -0.0140   -0.0021
          19    0.0068   -0.0255   -0.0013    0.0088   -0.0023   -0.0005    0.0036    0.0576
          20    0.0017   -0.0154   -0.0103   -0.0106    0.0000   -0.0034   -0.0177    0.0252
          21   -0.0052    0.0218    0.0100    0.0140    0.0079    0.0091   -0.0080    0.0708
          22   -0.0164   -0.0161   -0.0101   -0.0138   -0.0176    0.0286    0.0032    0.0000
          23    0.0231   -0.0037    0.0029   -0.0026    0.0285   -0.0182    0.0032    0.0015
          24   -0.0099    0.0115    0.0066   -0.0367   -0.0023   -0.0018    0.0158    0.0080
          25   -0.0081   -0.0140   -0.0050   -0.0082    0.0135    0.0061    0.0050    0.0005
          26    0.0187   -0.0106   -0.0047   -0.0109    0.0131    0.0094    0.0060    0.0006
          27   -0.0008    0.0035    0.0026   -0.0141    0.0016   -0.0001    0.0011    0.0001
          28    0.0558   -0.0029    0.0090   -0.0042    0.0187   -0.0006    0.0037    0.0004
          29   -0.0385   -0.0188   -0.0165   -0.0054    0.0015    0.0112    0.0028   -0.0002
          30   -0.0015    0.0006   -0.0058    0.0902   -0.0319   -0.0140   -0.0252   -0.0084
          31    0.0023   -0.0067   -0.0245    0.0000   -0.0261   -0.0341   -0.0556   -0.0181
          32   -0.0057    0.0027   -0.0286    0.0180   -0.0066   -0.0131    0.0374   -0.0081
          33    0.0023   -0.0250   -0.0129    0.0082    0.0223    0.0229   -0.0367   -0.0293
          34   -0.0006    0.0195   -0.0316   -0.0079   -0.0021   -0.0334   -0.0547   -0.0595
          35    0.0069   -0.0112    0.0361    0.0011   -0.0407    0.0030   -0.0358   -0.0053
          36   -0.0133    0.0245    0.0149   -0.0699   -0.0017   -0.0116    0.0179    0.0092
          37    0.0186   -0.0312    0.0495    0.0018    0.0063    0.0245   -0.0259   -0.0260
          38    0.0013   -0.0147    0.0163    0.0182    0.0436    0.0630   -0.0077   -0.0587
          39    0.0019   -0.0040    0.0068    0.0089   -0.0079   -0.0016    0.0240   -0.0208
          40    0.0133   -0.0220    0.0401    0.0023    0.0112    0.0232   -0.0088   -0.0245
          41   -0.0121    0.0271   -0.0284    0.0186   -0.0256   -0.0389    0.0778    0.0077
          42   -0.0086    0.0228   -0.0199    0.0113   -0.0342   -0.0465    0.0882    0.0000
          43    0.0068   -0.0015    0.0293    0.0079   -0.0095   -0.0030    0.0299   -0.0347
          44   -0.0165    0.0652    0.0184    0.0086    0.0360    0.0431   -0.0678    0.0180
          45    0.0129   -0.0331    0.0166   -0.0009   -0.0203   -0.0190    0.0356   -0.0048
          46   -0.0053    0.0427    0.0387    0.0171    0.0187    0.0374   -0.0180   -0.0821
          47    0.0055   -0.0320   -0.0171   -0.0193   -0.0117   -0.0199   -0.0111    0.0660
          48    0.0138   -0.0477    0.0028   -0.0100   -0.0197   -0.0164    0.0145   -0.0074
          49   -0.0199    0.0118   -0.0261   -0.0026    0.0099   -0.0030    0.0043   -0.0063
          50   -0.0133   -0.0100    0.0242    0.0446   -0.0043    0.0411    0.0552    0.0325
          51    0.0317   -0.0191   -0.0335    0.0204    0.0226   -0.0118   -0.0072   -0.0064
          52   -0.0382    0.0219   -0.0200   -0.0050    0.0130    0.0149    0.0355    0.0086
          53    0.0252   -0.0241    0.0078    0.0490   -0.0065   -0.0001   -0.0138   -0.0029
          54    0.0197   -0.0083   -0.0292    0.0177    0.0233   -0.0017    0.0110    0.0021
          55   -0.0195    0.0020   -0.0410    0.0343    0.0323    0.0141    0.0398    0.0095
          56   -0.0081    0.0049    0.0596   -0.0448   -0.0597   -0.0034   -0.0390   -0.0110
          57    0.0259   -0.0136   -0.0390    0.0335    0.0339   -0.0018    0.0150    0.0028
          58   -0.0205    0.0838    0.0325    0.0729    0.0643    0.0768   -0.0068   -0.0549
          59   -0.0156    0.0474    0.0008    0.0206    0.0389    0.0375   -0.0373   -0.0833
          60    0.0086   -0.0558   -0.0379   -0.0149   -0.0385   -0.0486    0.0415    0.0064
          61    0.0137   -0.0691   -0.0220    0.0061    0.0162    0.0260   -0.0420   -0.0010
          62    0.0123   -0.0497   -0.0025   -0.0161   -0.0040    0.0058   -0.0080   -0.0105
          63   -0.0130    0.0621    0.0224    0.0179   -0.0037   -0.0118    0.0213    0.1227
          64   -0.1214   -0.0652    0.0171    0.0445   -0.0187    0.0550    0.0056    0.0098
          65    0.1212    0.0207   -0.0399    0.0476    0.0332   -0.0316   -0.0031   -0.0050
          66   -0.0198    0.0174    0.0178   -0.0826   -0.0051   -0.0053    0.0169    0.0070
          67    0.0101   -0.0108   -0.0026   -0.0070    0.0160    0.0051    0.0053    0.0005
          68    0.1214    0.0031    0.0274   -0.0035    0.0528   -0.0197    0.0074    0.0007
          69   -0.1313   -0.0512    0.0948   -0.0298    0.1519   -0.1192    0.0075   -0.0016
          70   -0.1175   -0.0336   -0.0300   -0.0183   -0.0071    0.0287    0.0075    0.0005
          71   -0.0027   -0.0122   -0.0179   -0.0210   -0.0001    0.0260    0.0092    0.0018
          72    0.1275    0.0596   -0.0817   -0.1110   -0.1078    0.1376    0.0324    0.0173


   Root No.      17        18        19        20        21        22        23        24

                17 A      18 A      19 A      20 A      21 A      22 A      23 A      24 A   

                 785.7     825.8     885.3     895.3     944.4     955.1     973.9     984.3
  
           1    0.0084    0.0015    0.0152    0.0168   -0.0018    0.0067   -0.0102    0.0022
           2    0.0123   -0.0095    0.0068    0.0091    0.0003    0.0051   -0.0113   -0.0005
           3   -0.0305    0.0116   -0.0069   -0.0080    0.0000   -0.0063    0.0111   -0.0009
           4    0.0075   -0.0061   -0.0090   -0.0196   -0.0042    0.0068    0.0068   -0.0015
           5    0.0033   -0.0019   -0.0028   -0.0101   -0.0041   -0.0002   -0.0022   -0.0009
           6    0.0029   -0.0010   -0.0062   -0.0085    0.0045   -0.0111   -0.0070   -0.0010
           7   -0.0026    0.0225    0.0081    0.0140    0.0026   -0.0108    0.0052    0.0002
           8    0.0162   -0.0065   -0.0141   -0.0245   -0.0023   -0.0033    0.0098    0.0013
           9   -0.0011   -0.0248   -0.0053   -0.0092   -0.0015    0.0066    0.0008    0.0005
          10   -0.0135    0.0126   -0.0084   -0.0118   -0.0016    0.0075   -0.0045    0.0001
          11   -0.0037    0.0102   -0.0038   -0.0038    0.0001    0.0030   -0.0013   -0.0011
          12    0.0215   -0.0183    0.0031    0.0031    0.0004   -0.0032   -0.0016    0.0000
          13    0.0027   -0.0045   -0.0047   -0.0195   -0.0081   -0.0020    0.0111    0.0027
          14   -0.0017    0.0047   -0.0033    0.0087    0.0022    0.0092    0.0122   -0.0003
          15    0.0004   -0.0015   -0.0049   -0.0066    0.0099   -0.0203   -0.0207    0.0087
          16   -0.0183   -0.0116    0.0050    0.0090    0.0026   -0.0149    0.0155   -0.0016
          17   -0.0356    0.0034    0.0159    0.0264    0.0037   -0.0128    0.0098    0.0003
          18    0.0038    0.0166    0.0077    0.0149    0.0014    0.0079   -0.0132    0.0019
          19   -0.0028   -0.0156   -0.0008   -0.0011   -0.0007    0.0067   -0.0092    0.0014
          20   -0.0067   -0.0030    0.0007    0.0003   -0.0010    0.0040   -0.0048    0.0010
          21    0.0184    0.0112   -0.0034   -0.0039    0.0007   -0.0055    0.0091   -0.0012
          22   -0.0015   -0.0012   -0.0298    0.0143    0.0262    0.0094    0.0093   -0.0020
          23    0.0013    0.0014    0.0279   -0.0101   -0.0252   -0.0022   -0.0049    0.0026
          24    0.0077    0.0026    0.0091    0.0163   -0.0079    0.0260    0.0137   -0.0011
          25   -0.0032    0.0009    0.0147   -0.0112    0.0386   -0.0015   -0.0002   -0.0026
          26   -0.0035    0.0001   -0.0167    0.0066   -0.0284   -0.0118   -0.0064   -0.0075
          27    0.0004   -0.0002    0.0008   -0.0020    0.0023   -0.0018   -0.0038   -0.0745
          28   -0.0021    0.0006   -0.0057    0.0033   -0.0377   -0.0087   -0.0054   -0.0001
          29   -0.0021   -0.0001    0.0028   -0.0049    0.0355    0.0019    0.0022   -0.0006
          30   -0.0002   -0.0021   -0.0040   -0.0064   -0.0019   -0.0035   -0.0007    0.0244
          31    0.0192    0.0093    0.0250    0.0315   -0.0079    0.0528   -0.0506    0.0095
          32    0.0418    0.0212    0.0031    0.0034   -0.0035    0.0229   -0.0344    0.0013
          33   -0.0087    0.0340   -0.0039   -0.0031   -0.0043    0.0216   -0.0186    0.0029
          34   -0.0063   -0.0086   -0.0075   -0.0384   -0.0182    0.0159    0.0122   -0.0115
          35    0.0000   -0.0002   -0.0283   -0.0254    0.0199   -0.0359   -0.0218    0.0215
          36    0.0107   -0.0006    0.0143    0.0130   -0.0091    0.0151    0.0066   -0.0146
          37    0.0284   -0.0969    0.0246    0.0333    0.0008    0.0188   -0.0367    0.0044
          38   -0.0155   -0.1110   -0.0475   -0.0775   -0.0120    0.0372    0.0108   -0.0013
          39    0.0208   -0.0461    0.0102    0.0126    0.0004    0.0078   -0.0168    0.0029
          40   -0.0301    0.0126   -0.0106   -0.0091    0.0015   -0.0021    0.0203   -0.0058
          41    0.0422    0.0374    0.0040   -0.0001    0.0007   -0.0222    0.0031    0.0062
          42   -0.0107    0.1274   -0.0087   -0.0046    0.0062   -0.0396    0.0414   -0.0042
          43   -0.0145    0.0442   -0.0052   -0.0038    0.0021   -0.0129    0.0143   -0.0025
          44    0.1126   -0.0682    0.0351    0.0492    0.0089   -0.0457    0.0245   -0.0031
          45   -0.0240    0.0936   -0.0039    0.0027    0.0065   -0.0381    0.0380   -0.0061
          46    0.0781   -0.1190    0.0266    0.0313   -0.0003    0.0127   -0.0343    0.0036
          47   -0.0674    0.0363   -0.0125   -0.0127   -0.0032    0.0419   -0.0415   -0.0010
          48   -0.0385   -0.0103   -0.0006    0.0009   -0.0032    0.0433   -0.0541    0.0008
          49    0.0027   -0.0045   -0.0051   -0.0186   -0.0063   -0.0037    0.0081    0.0031
          50   -0.0144    0.0150    0.0312    0.1126    0.0434    0.0118   -0.0652   -0.0203
          51   -0.0006   -0.0023    0.0113   -0.0116   -0.0302    0.0308    0.0425   -0.0112
          52   -0.0019   -0.0007   -0.0020    0.0231    0.0374   -0.0425   -0.0728    0.0097
          53   -0.0019    0.0053    0.0273    0.0095   -0.0688    0.1102    0.1326   -0.0395
          54   -0.0015    0.0002    0.0105    0.0095   -0.0060    0.0107    0.0030   -0.0067
          55   -0.0056    0.0011    0.0254    0.0401   -0.0048    0.0254   -0.0071   -0.0208
          56    0.0045    0.0000   -0.0469   -0.0364    0.0431   -0.0686   -0.0407    0.0412
          57   -0.0022    0.0006    0.0236    0.0129   -0.0282    0.0404    0.0339   -0.0204
          58    0.0782    0.1111   -0.0187   -0.0119   -0.0034    0.0753   -0.0841    0.0031
          59    0.0196    0.0729   -0.0032    0.0020   -0.0021    0.0367   -0.0403    0.0052
          60   -0.0873   -0.0962    0.0491    0.0761    0.0149   -0.0696    0.0576   -0.0095
          61    0.1825    0.0458    0.0241    0.0385    0.0118   -0.0583    0.0585   -0.0065
          62    0.1229    0.0132   -0.0150   -0.0334   -0.0050   -0.0112    0.0209   -0.0049
          63   -0.1484   -0.0362   -0.0157   -0.0208   -0.0067    0.0440   -0.0457    0.0060
          64   -0.0206    0.0161    0.1684   -0.0727   -0.1006   -0.0333   -0.0273    0.0448
          65    0.0068   -0.0102   -0.1498    0.0714    0.0989    0.0163    0.0155    0.0343
          66    0.0122    0.0019    0.0239    0.0073   -0.0228    0.0327    0.0172   -0.0341
          67   -0.0038    0.0014    0.0298   -0.0208    0.0701    0.0003    0.0008   -0.0095
          68   -0.0048    0.0027    0.0834   -0.0535    0.1949    0.0109    0.0082    0.0089
          69    0.0115   -0.0049   -0.0501    0.0361    0.0117    0.0222    0.0236    0.3027
          70   -0.0048   -0.0015   -0.0904    0.0465   -0.1706   -0.0390   -0.0216   -0.0069
          71   -0.0049    0.0002   -0.0414    0.0218   -0.0874   -0.0220   -0.0112    0.0189
          72   -0.0101    0.0095    0.0599   -0.0082   -0.0232    0.0118    0.0169    0.3062


   Root No.      25        26        27        28        29        30        31        32

                25 A      26 A      27 A      28 A      29 A      30 A      31 A      32 A   

                 997.2    1007.9    1025.9    1048.9    1071.2    1079.6    1088.2    1108.1
  
           1    0.0034    0.0157   -0.0188   -0.0083    0.0002   -0.0022   -0.0017   -0.0097
           2    0.0008   -0.0033    0.0265   -0.0020   -0.0011   -0.0038    0.0045    0.0066
           3    0.0236   -0.0027   -0.0069    0.0042   -0.0013    0.0095   -0.0015    0.0092
           4    0.0016    0.0054    0.0052    0.0162   -0.0003    0.0009    0.0116   -0.0021
           5   -0.0002    0.0033    0.0077    0.0063    0.0020   -0.0126   -0.0073    0.0020
           6    0.0028    0.0025    0.0083    0.0166   -0.0117   -0.0005    0.0061    0.0041
           7   -0.0069   -0.0111   -0.0176    0.0111   -0.0081    0.0194   -0.0003   -0.0026
           8   -0.0049    0.0064   -0.0299    0.0078    0.0035    0.0072   -0.0029   -0.0132
           9   -0.0238    0.0169   -0.0138    0.0082    0.0164    0.0070   -0.0064    0.0193
          10    0.0072    0.0140    0.0149   -0.0213   -0.0069   -0.0163   -0.0017    0.0075
          11   -0.0211    0.0036    0.0191    0.0103    0.0180    0.0084   -0.0060    0.0116
          12    0.0185   -0.0183    0.0072   -0.0005   -0.0026   -0.0060    0.0043   -0.0275
          13   -0.0112   -0.0200    0.0042   -0.0140   -0.0007   -0.0013   -0.0063    0.0025
          14   -0.0004   -0.0035   -0.0057    0.0001   -0.0020    0.0124    0.0119   -0.0020
          15   -0.0023    0.0009   -0.0023   -0.0065    0.0066    0.0033    0.0036   -0.0015
          16    0.0052    0.0047    0.0122   -0.0102    0.0028    0.0073   -0.0065    0.0049
          17   -0.0072    0.0027   -0.0088   -0.0167   -0.0116   -0.0052   -0.0021   -0.0043
          18   -0.0228   -0.0081   -0.0099   -0.0009   -0.0134   -0.0177    0.0090   -0.0104
          19    0.0041   -0.0184   -0.0175    0.0106    0.0012   -0.0118    0.0059   -0.0061
          20    0.0139   -0.0063   -0.0193   -0.0018   -0.0107   -0.0115    0.0059   -0.0003
          21   -0.0005    0.0216    0.0033   -0.0174   -0.0189    0.0035    0.0006    0.0061
          22    0.0001   -0.0025   -0.0007   -0.0034    0.0032    0.0003    0.0071    0.0010
          23   -0.0014    0.0023   -0.0026   -0.0053    0.0081    0.0019    0.0114   -0.0012
          24    0.0001   -0.0019   -0.0097   -0.0183    0.0194    0.0052    0.0106    0.0019
          25    0.0015   -0.0007    0.0022    0.0060   -0.0077   -0.0017   -0.0131   -0.0001
          26    0.0013    0.0001    0.0022    0.0066   -0.0083   -0.0017   -0.0142   -0.0003
          27   -0.0016   -0.0020   -0.0034   -0.0052    0.0036    0.0017    0.0056    0.0005
          28    0.0003    0.0010    0.0006    0.0019   -0.0013    0.0001   -0.0016   -0.0003
          29    0.0008   -0.0009    0.0011    0.0022   -0.0026   -0.0011   -0.0043    0.0001
          30    0.0011    0.0023    0.0048    0.0095   -0.0073   -0.0044   -0.0141   -0.0016
          31    0.0423    0.0582   -0.0622   -0.0640    0.1377   -0.0114   -0.0928   -0.0190
          32    0.1096   -0.0779    0.0700   -0.0241    0.0289    0.1082   -0.0537    0.0709
          33    0.1033   -0.0332    0.0030   -0.0308    0.0675    0.0741   -0.0715    0.0464
          34    0.0652    0.0437    0.0568    0.1178    0.0054    0.0546    0.0970    0.0457
          35   -0.0152   -0.0233   -0.0167   -0.0481    0.0213   -0.0287   -0.0540    0.0131
          36   -0.0091    0.0092    0.0064    0.0191   -0.0276   -0.0081    0.0099   -0.0233
          37   -0.0799   -0.0153   -0.0202    0.0245   -0.0003    0.0310   -0.0295    0.1777
          38    0.0004    0.0914    0.0081   -0.0223    0.0581   -0.0287    0.0034   -0.1153
          39   -0.0553   -0.0088   -0.0237    0.0229    0.0068    0.0223   -0.0210    0.1239
          40   -0.0297    0.0252    0.0271    0.0303    0.0402    0.0278    0.0129   -0.0630
          41    0.0234   -0.0399   -0.0741   -0.0026   -0.0444    0.0105   -0.0138    0.0263
          42    0.0014   -0.0242   -0.0161    0.0471    0.0177    0.0506    0.0082   -0.0629
          43    0.0150    0.0000    0.0335   -0.0019    0.0542   -0.0600   -0.0070    0.0113
          44    0.0298   -0.0873    0.0216    0.0708    0.1041   -0.0366   -0.0013   -0.0534
          45    0.0227   -0.0218    0.0574    0.0285    0.1258   -0.1019   -0.0101    0.0004
          46    0.0335   -0.0488    0.0255   -0.0235   -0.0610    0.0399    0.0073   -0.0965
          47   -0.0579    0.0205    0.1172   -0.0191   -0.0042    0.0745   -0.0226   -0.0367
          48   -0.0208   -0.0097    0.1238   -0.0358   -0.0400    0.0826   -0.0131   -0.1052
          49   -0.0103   -0.0182    0.0049   -0.0126   -0.0001   -0.0010   -0.0050    0.0027
          50    0.0729    0.1127   -0.0082    0.0844   -0.0019    0.0084    0.0325   -0.0079
          51   -0.0051   -0.0142    0.0032   -0.0020   -0.0074   -0.0058   -0.0105    0.0016
          52    0.0208    0.0428    0.0014    0.0187    0.0141   -0.0043    0.0071   -0.0020
          53   -0.0041   -0.0333    0.0081    0.0126   -0.0337    0.0022   -0.0040    0.0056
          54    0.0079    0.0110    0.0028    0.0116   -0.0021   -0.0029    0.0011    0.0001
          55    0.0318    0.0444    0.0149    0.0453   -0.0064   -0.0165   -0.0019    0.0046
          56   -0.0297   -0.0359   -0.0242   -0.0523    0.0211    0.0370    0.0253   -0.0077
          57    0.0093    0.0074    0.0104    0.0199   -0.0122   -0.0126   -0.0091    0.0029
          58   -0.0774   -0.0590    0.0743    0.0261    0.0082   -0.0811    0.0376    0.0197
          59   -0.0251   -0.0132   -0.0327   -0.0016   -0.0202   -0.0180    0.0070   -0.0139
          60   -0.0376   -0.0153    0.1251   -0.0198    0.0155   -0.0599    0.0217    0.0359
          61   -0.0743    0.0674    0.0282   -0.0143    0.0096    0.0574   -0.0308   -0.0366
          62    0.1153    0.0492    0.0464   -0.0686   -0.0716   -0.0778    0.0481    0.1079
          63    0.0237   -0.0546   -0.0465    0.0186   -0.0077   -0.0263    0.0142   -0.0054
          64   -0.0046    0.0004   -0.0125   -0.0397    0.0472    0.0371    0.1568    0.0174
          65   -0.0058   -0.0149   -0.0123   -0.0516    0.0474    0.0314    0.1551    0.0226
          66    0.0042    0.0058   -0.0003    0.0185   -0.0161   -0.0231   -0.1155   -0.0158
          67    0.0020   -0.0013    0.0031    0.0089   -0.0124   -0.0028   -0.0220   -0.0002
          68    0.0048   -0.0027    0.0077    0.0213   -0.0304   -0.0072   -0.0568   -0.0006
          69    0.0060    0.0071    0.0094    0.0124   -0.0048   -0.0033   -0.0080   -0.0012
          70    0.0031    0.0018    0.0064    0.0200   -0.0274   -0.0056   -0.0513   -0.0011
          71    0.0025    0.0014    0.0047    0.0130   -0.0162   -0.0035   -0.0293   -0.0007
          72    0.0061    0.0074    0.0096    0.0122   -0.0060   -0.0042   -0.0112   -0.0007


   Root No.      33        34        35        36        37        38        39        40

                33 A      34 A      35 A      36 A      37 A      38 A      39 A      40 A   

                1118.4    1121.4    1141.5    1155.9    1205.6    1217.7    1233.7    1277.3
  
           1   -0.0005   -0.0037    0.0096    0.0105   -0.0318    0.0146    0.0135    0.0146
           2    0.0047   -0.0151   -0.0216   -0.0141    0.0259    0.0078    0.0289    0.0197
           3   -0.0091    0.0132    0.0168    0.0093    0.0043   -0.0065    0.0161    0.0087
           4   -0.0004   -0.0003    0.0042    0.0039   -0.0322   -0.0181   -0.0075   -0.0308
           5   -0.0177    0.0231   -0.0294    0.0171    0.0296   -0.0143   -0.0036    0.0160
           6   -0.0107    0.0016   -0.0109    0.0311   -0.0047    0.0265   -0.0094   -0.0066
           7    0.0121    0.0204   -0.0086    0.0021    0.0011    0.0011    0.0061    0.0473
           8   -0.0038    0.0181    0.0224    0.0106    0.0017   -0.0022   -0.0039   -0.0390
           9    0.0080   -0.0066   -0.0085    0.0047   -0.0212    0.0044    0.0066    0.0344
          10   -0.0170   -0.0182    0.0055   -0.0056    0.0053   -0.0037   -0.0210   -0.0136
          11    0.0000    0.0061    0.0080    0.0064   -0.0060    0.0001   -0.0070    0.0022
          12   -0.0034    0.0017    0.0013   -0.0037    0.0066   -0.0029   -0.0255   -0.0165
          13    0.0006   -0.0023   -0.0060   -0.0010    0.0148    0.0043    0.0033    0.0080
          14    0.0181   -0.0219    0.0254   -0.0037   -0.0054    0.0049   -0.0019   -0.0022
          15    0.0090   -0.0068    0.0068   -0.0079    0.0066   -0.0111    0.0013    0.0037
          16    0.0008    0.0025    0.0032    0.0028    0.0018   -0.0013    0.0129   -0.0076
          17   -0.0020   -0.0081   -0.0050   -0.0050    0.0006   -0.0032   -0.0078   -0.0173
          18   -0.0016   -0.0090   -0.0037   -0.0068   -0.0020    0.0014    0.0170   -0.0156
          19    0.0020   -0.0064   -0.0073   -0.0058    0.0045    0.0011    0.0084    0.0001
          20    0.0046   -0.0071   -0.0132   -0.0078    0.0022   -0.0014   -0.0248    0.0124
          21    0.0010   -0.0072   -0.0113   -0.0090    0.0081   -0.0019   -0.0084    0.0063
          22   -0.0036    0.0036   -0.0040    0.0042    0.0056   -0.0235    0.0020    0.0042
          23   -0.0002    0.0020   -0.0009   -0.0035   -0.0060   -0.0265    0.0023   -0.0022
          24   -0.0005    0.0097    0.0047   -0.0422   -0.0022    0.0058    0.0021    0.0002
          25    0.0025   -0.0030    0.0026   -0.0010    0.0003    0.0061    0.0000    0.0011
          26    0.0031   -0.0036    0.0031   -0.0014   -0.0001    0.0069    0.0000    0.0012
          27   -0.0007    0.0006    0.0000   -0.0011   -0.0001    0.0005    0.0001    0.0000
          28    0.0009   -0.0009    0.0007   -0.0005   -0.0014   -0.0089    0.0008    0.0001
          29   -0.0002    0.0002   -0.0006    0.0004    0.0010   -0.0103    0.0011    0.0017
          30    0.0019   -0.0011   -0.0003    0.0017    0.0001   -0.0046   -0.0002   -0.0002
          31    0.0511    0.0611    0.0395    0.0632    0.1659    0.0537   -0.0410   -0.0326
          32    0.0184   -0.0691   -0.0884    0.0227   -0.1275   -0.0179   -0.0517    0.0030
          33    0.0186    0.0045   -0.0119    0.0537   -0.0149   -0.0071   -0.0526   -0.0182
          34    0.0021   -0.0062    0.0484   -0.1983    0.1279    0.0299   -0.0510    0.0438
          35   -0.0763    0.1202   -0.0754   -0.1327   -0.1242    0.0542    0.0135   -0.0452
          36    0.0340   -0.0710    0.0066    0.2283    0.0513   -0.0431   -0.0055    0.0110
          37   -0.0256   -0.0069    0.0157    0.0108    0.0356   -0.0139    0.0304   -0.1151
          38    0.0245   -0.0239   -0.0186    0.0065   -0.0889    0.0229   -0.0046    0.1052
          39   -0.0163   -0.0078    0.0126    0.0101    0.0155   -0.0090    0.0181   -0.0732
          40    0.0988    0.0137   -0.1093   -0.0137    0.0213    0.0135    0.0472   -0.1280
          41   -0.0777    0.0400    0.1117    0.0270   -0.0113   -0.0151   -0.0357    0.1092
          42    0.0657    0.0492   -0.0572    0.0045    0.0079    0.0010    0.0382   -0.0851
          43   -0.0455   -0.0533    0.0210   -0.0041   -0.0006    0.0010    0.0179   -0.0172
          44   -0.0261   -0.0035    0.0422    0.0202   -0.0248    0.0136    0.0882    0.0453
          45   -0.0657   -0.0814    0.0321   -0.0020   -0.0063    0.0058    0.0475   -0.0303
          46   -0.0203    0.0225    0.0120   -0.0096    0.0332   -0.0062   -0.0059   -0.0627
          47   -0.0397    0.0320    0.0624    0.0236   -0.0085    0.0055    0.0726    0.0220
          48   -0.0497    0.0383    0.0625    0.0139    0.0112    0.0023    0.0673   -0.0087
          49    0.0011   -0.0023   -0.0057   -0.0022    0.0165    0.0023    0.0025    0.0092
          50   -0.0158    0.0080    0.0145   -0.0051   -0.0884   -0.0131   -0.0053   -0.0569
          51   -0.0112    0.0061   -0.0124    0.0225    0.0223    0.0141    0.0024    0.0047
          52   -0.0064    0.0158   -0.0105   -0.0099    0.0123   -0.0311   -0.0029    0.0063
          53   -0.0117   -0.0096    0.0034    0.0304   -0.0321    0.0589   -0.0020   -0.0266
          54   -0.0070    0.0056   -0.0051    0.0074   -0.0024   -0.0004   -0.0014   -0.0060
          55   -0.0356    0.0380   -0.0356    0.0131    0.0014   -0.0075   -0.0095    0.0042
          56    0.0685   -0.0680    0.0742   -0.0533   -0.0082   -0.0076    0.0083   -0.0102
          57   -0.0234    0.0190   -0.0259    0.0321    0.0129    0.0054   -0.0028    0.0098
          58    0.0738    0.0703    0.0434    0.0139   -0.0452    0.0001   -0.0979    0.0289
          59   -0.0068   -0.0204   -0.0118   -0.0114    0.0009    0.0002    0.0033   -0.0168
          60    0.0816    0.0903    0.0506    0.0216   -0.0437   -0.0088   -0.1240    0.0147
          61   -0.0485   -0.0430   -0.0241   -0.0232    0.0179   -0.0071   -0.0785    0.0147
          62    0.0909    0.0719    0.0348    0.0309   -0.0236    0.0135    0.1465   -0.0190
          63    0.0103   -0.0061   -0.0145   -0.0095    0.0075   -0.0008    0.0008    0.0046
          64   -0.0344    0.0097   -0.0172    0.0557   -0.0086    0.0702   -0.0130   -0.0136
          65   -0.0478    0.0221   -0.0335    0.0647    0.0151    0.0750   -0.0115   -0.0005
          66    0.0338   -0.0016    0.0251   -0.0959   -0.0076   -0.0814    0.0145    0.0058
          67    0.0047   -0.0057    0.0055   -0.0024    0.0011    0.0439   -0.0034   -0.0017
          68    0.0131   -0.0161    0.0166   -0.0078    0.0040    0.1952   -0.0169   -0.0138
          69    0.0013    0.0000    0.0003   -0.0018   -0.0035   -0.0148    0.0008   -0.0018
          70    0.0138   -0.0166    0.0171   -0.0081    0.0020    0.1885   -0.0163   -0.0141
          71    0.0071   -0.0083    0.0080   -0.0039    0.0008    0.0681   -0.0054   -0.0036
          72   -0.0002    0.0017   -0.0019   -0.0004    0.0031   -0.0028    0.0005    0.0026


   Root No.      41        42        43        44        45        46        47        48

                41 A      42 A      43 A      44 A      45 A      46 A      47 A      48 A   

                1319.5    1326.3    1353.0    1384.7    1401.7    1405.2    1409.7    1410.9
  
           1   -0.0019   -0.0333    0.0358    0.0502   -0.0026    0.0014    0.0149    0.0192
           2    0.0257    0.0460    0.0042    0.0182    0.0052    0.0014   -0.0004   -0.0021
           3    0.0029    0.0307    0.0170    0.0407    0.0022    0.0001    0.0094    0.0114
           4   -0.0128    0.0524   -0.0228   -0.0200    0.0137    0.0007   -0.0085   -0.0097
           5   -0.0432   -0.0118    0.0067   -0.0001   -0.0231   -0.0061    0.0067    0.0082
           6    0.0461   -0.0197   -0.0069   -0.0081    0.0075    0.0009   -0.0028   -0.0058
           7    0.0034    0.0136   -0.0117   -0.0163    0.0007   -0.0003   -0.0033   -0.0040
           8   -0.0055   -0.0158    0.0028   -0.0026    0.0117   -0.0062    0.0172    0.0241
           9    0.0000   -0.0032   -0.0084   -0.0148    0.0068   -0.0024    0.0055    0.0087
          10    0.0017    0.0036    0.0273   -0.0132    0.0018   -0.0024    0.0027    0.0030
          11    0.0037    0.0095    0.0452    0.0180   -0.0139    0.0102   -0.0188   -0.0261
          12    0.0043    0.0099    0.0570   -0.0023   -0.0067    0.0036   -0.0085   -0.0127
          13    0.0040   -0.0070    0.0038    0.0027   -0.0195   -0.0316   -0.0096    0.0097
          14    0.0035   -0.0033    0.0010    0.0066    0.0541    0.0012   -0.0142   -0.0119
          15   -0.0116    0.0024    0.0013    0.0018   -0.0075   -0.0199    0.0201   -0.0117
          16   -0.0041   -0.0052    0.0033   -0.0142   -0.0033    0.0018   -0.0074   -0.0101
          17   -0.0082   -0.0173   -0.0028   -0.0240   -0.0022   -0.0002   -0.0051   -0.0067
          18   -0.0086   -0.0212    0.0061   -0.0274   -0.0058    0.0023   -0.0109   -0.0148
          19    0.0001   -0.0005   -0.0081   -0.0081    0.0004   -0.0001   -0.0019   -0.0025
          20    0.0027    0.0041   -0.0381    0.0141    0.0081   -0.0054    0.0141    0.0199
          21    0.0011    0.0033   -0.0341   -0.0021    0.0057   -0.0036    0.0063    0.0092
          22   -0.0072   -0.0005    0.0016    0.0007   -0.0041   -0.0009    0.0003    0.0029
          23   -0.0055    0.0083   -0.0018   -0.0017   -0.0011   -0.0003   -0.0008    0.0010
          24   -0.0225    0.0090    0.0022    0.0024   -0.0002   -0.0002    0.0002    0.0013
          25    0.0200   -0.0112    0.0008    0.0013    0.0032    0.0009    0.0003   -0.0021
          26    0.0227   -0.0125    0.0008    0.0015    0.0036    0.0010    0.0003   -0.0023
          27   -0.0017    0.0009    0.0001    0.0000   -0.0002    0.0000    0.0000    0.0002
          28    0.0089   -0.0033   -0.0002   -0.0001    0.0007    0.0002   -0.0001   -0.0004
          29    0.0093   -0.0057    0.0005    0.0004    0.0000    0.0000    0.0002   -0.0001
          30    0.0004    0.0001   -0.0006   -0.0008   -0.0004   -0.0001   -0.0001   -0.0001
          31    0.0937    0.0274   -0.0594   -0.0619    0.0078   -0.0076   -0.0164   -0.0338
          32   -0.0516   -0.0791   -0.0021   -0.0299   -0.0026    0.0029    0.0012    0.0094
          33   -0.0072   -0.0232   -0.0217   -0.0297    0.0008   -0.0028   -0.0013   -0.0020
          34   -0.0019   -0.1323    0.0048   -0.0288   -0.0284   -0.0081   -0.0052    0.0034
          35    0.0784    0.0233   -0.0138   -0.0039    0.0323    0.0033   -0.0084   -0.0085
          36   -0.0511    0.0254   -0.0015   -0.0006   -0.0187   -0.0038    0.0082    0.0022
[...]
 RED. MASS   0.8413        C  2 --  C  5          +16.0% ( 48.2%)    99.9%
 EFF. MASS   4.3551

 VIBRATION   46   46A       ATOM PAIR        ENERGY CONTRIBUTION    RADIAL
 FREQ.      1405.21        C  5 --  H 18          +48.8% ( 62.6%)     0.2%
 T-DIPOLE    0.0593        C  5 --  H 17          +25.1% ( 44.9%)    10.0%
 TRAVEL      0.1646        C  5 --  H 19          +14.4% ( 33.9%)     9.9%
 RED. MASS   0.4081        C  2 --  C  5           +5.7% ( 21.5%)    30.6%
 EFF. MASS   1.7718

 VIBRATION   47   47A       ATOM PAIR        ENERGY CONTRIBUTION    RADIAL
 FREQ.      1409.70        C  5 --  H 19          +24.4% ( 50.3%)     0.1%
 T-DIPOLE    0.0858        C  5 --  H 17          +16.7% ( 41.7%)     1.5%
 TRAVEL      0.1281        C  5 --  H 18          +10.1% ( 32.3%)    22.1%
 RED. MASS   0.2551        C  3 --  H 14           +5.8% ( 24.5%)     3.2%
 EFF. MASS   2.9141

 VIBRATION   48   48A       ATOM PAIR        ENERGY CONTRIBUTION    RADIAL
 FREQ.      1410.85        C  5 --  H 17          +10.7% ( 37.8%)     1.8%
 T-DIPOLE    0.0307        C  3 --  H 14          +10.2% ( 37.0%)     3.3%
 TRAVEL      0.1052        C  4 --  C  7           +9.0% ( 34.7%)    99.9%
 RED. MASS   0.2942        C  5 --  H 19           +8.9% ( 34.5%)     5.0%
 EFF. MASS   4.3193

 VIBRATION   49   49A       ATOM PAIR        ENERGY CONTRIBUTION    RADIAL
 FREQ.      1417.53        C  4 --  H 15          +15.5% ( 44.6%)     6.3%
 T-DIPOLE    0.0532        C  4 --  H 16          +15.5% ( 44.6%)     6.5%
 TRAVEL      0.1099        C  3 --  H 13          +13.9% ( 42.2%)     4.4%
 RED. MASS   0.4025        C  3 --  H 14          +13.6% ( 41.8%)     4.4%
 EFF. MASS   3.9374        C  3 --  C  4          +11.6% ( 38.5%)    86.1%
                           C  4 --  C  7          +10.6% ( 36.9%)    74.8%

 VIBRATION   50   50A       ATOM PAIR        ENERGY CONTRIBUTION    RADIAL
 FREQ.      1521.18        C  2 --  C  8          +23.0% ( 77.1%)    76.3%
 T-DIPOLE    0.0627        C  8 --  H 22          +17.7% ( 67.5%)     0.7%
 TRAVEL      0.0636        C  8 --  C 10          +14.1% ( 60.3%)    82.1%
 RED. MASS   3.7434        C  9 --  C 10          +13.6% ( 59.3%)    99.9%
 EFF. MASS  10.9431        C  9 --  H 24          +11.1% ( 53.4%)     9.4%
                           C  9 --  H 23          +11.0% ( 53.4%)     9.4%

 VIBRATION   51   51A       ATOM PAIR        ENERGY CONTRIBUTION    RADIAL
 FREQ.      1829.17        C  6 --  C  7          +45.9% (100.2%)   100.0%
 T-DIPOLE    0.1611        C  1 --  C  6          +13.9% ( 55.2%)    24.6%
 TRAVEL      0.0557        C  4 --  C  7          +13.9% ( 55.2%)    25.5%
 RED. MASS   5.3976        C  6 --  H 20          +13.0% ( 53.3%)    10.1%
 EFF. MASS  11.8877        C  7 --  H 21          +13.0% ( 53.3%)     9.6%

 VIBRATION   52   52A       ATOM PAIR        ENERGY CONTRIBUTION    RADIAL
 FREQ.      2261.86        C  8 --  C 10          +42.8% ( 86.0%)    99.8%
 T-DIPOLE    0.5334        C  9 --  C 10          +41.3% ( 84.4%)   100.0%
 TRAVEL      0.0502        C  2 --  C  8           +4.5% ( 27.7%)    41.7%
 RED. MASS   5.8383        C  8 --  H 22           +4.4% ( 27.6%)     4.2%
 EFF. MASS  11.8450

 VIBRATION   53   53A       ATOM PAIR        ENERGY CONTRIBUTION    RADIAL
 FREQ.      2866.92        C  2 --  H 12          +81.2% ( 91.7%)   100.0%
 T-DIPOLE    0.0260        C  1 --  H 11          +15.4% ( 39.9%)   100.0%
 TRAVEL      0.1274        C  1 --  C  2           +1.1% ( 10.5%)     1.8%
 RED. MASS   0.6789        C  2 --  C  8           +0.9% (  9.7%)    11.0%
 EFF. MASS   1.4501

 VIBRATION   54   54A       ATOM PAIR        ENERGY CONTRIBUTION    RADIAL
 FREQ.      2874.35        C  1 --  H 11          +81.3% ( 91.5%)   100.0%
 T-DIPOLE    0.0669        C  2 --  H 12          +15.3% ( 39.8%)   100.0%
 TRAVEL      0.1275        C  1 --  C  2           +1.0% ( 10.3%)    16.9%
 RED. MASS   0.6777        C  1 --  C  3           +0.9% (  9.6%)     9.9%
 EFF. MASS   1.4427

 VIBRATION   55   55A       ATOM PAIR        ENERGY CONTRIBUTION    RADIAL
 FREQ.      2971.89        C  4 --  H 15          +36.6% ( 63.0%)    96.9%
 T-DIPOLE    0.0221        C  4 --  H 16          +31.9% ( 58.8%)    96.1%
 TRAVEL      0.1209        C  3 --  H 14          +17.8% ( 43.9%)    97.5%
 RED. MASS   0.3052        C  3 --  H 13          +11.2% ( 34.8%)    94.6%
 EFF. MASS   1.5524

 VIBRATION   56   56A       ATOM PAIR        ENERGY CONTRIBUTION    RADIAL
 FREQ.      2987.63        C  3 --  H 14          +43.4% ( 68.1%)    97.9%
 T-DIPOLE    0.0684        C  3 --  H 13          +25.3% ( 52.1%)    94.7%
 TRAVEL      0.1216        C  4 --  H 15          +15.6% ( 40.9%)    97.2%
 RED. MASS   0.3172        C  4 --  H 16          +13.4% ( 37.8%)    96.4%
 EFF. MASS   1.5275

 VIBRATION   57   57A       ATOM PAIR        ENERGY CONTRIBUTION    RADIAL
 FREQ.      3028.73        C  8 --  H 22          +97.0% ( 99.9%)   100.0%
 T-DIPOLE    0.3478        C  8 --  C 10           +1.6% ( 12.8%)    41.9%
 TRAVEL      0.1210        C  2 --  C  8           +1.3% ( 11.7%)    14.2%
 RED. MASS   0.9267
 EFF. MASS   1.5207

 VIBRATION   58   58A       ATOM PAIR        ENERGY CONTRIBUTION    RADIAL
 FREQ.      3055.13        C  4 --  H 16          +51.1% ( 70.5%)    98.0%
 T-DIPOLE    0.0805        C  4 --  H 15          +43.5% ( 65.0%)    97.1%
 TRAVEL      0.1311        C  3 --  H 13           +2.6% ( 15.8%)    98.7%
 RED. MASS   0.4489        C  3 --  H 14           +1.4% ( 11.6%)    94.7%
 EFF. MASS   1.2846

 VIBRATION   59   59A       ATOM PAIR        ENERGY CONTRIBUTION    RADIAL
 FREQ.      3064.79        C  3 --  H 13          +60.3% ( 76.6%)    98.8%
 T-DIPOLE    0.0775        C  3 --  H 14          +34.4% ( 57.8%)    95.3%
 TRAVEL      0.1309        C  4 --  H 15           +1.9% ( 13.7%)    97.7%
 RED. MASS   0.4752        C  4 --  H 16           +1.9% ( 13.6%)    97.8%
 EFF. MASS   1.2838

 VIBRATION   60   60A       ATOM PAIR        ENERGY CONTRIBUTION    RADIAL
 FREQ.      3076.99        C  5 --  H 19          +65.3% ( 83.4%)    98.8%
 T-DIPOLE    0.0297        C  5 --  H 18          +26.6% ( 53.2%)    91.5%
 TRAVEL      0.1207        C  5 --  H 17           +6.8% ( 26.9%)    64.1%
 RED. MASS   0.5298        C  2 --  C  5           +1.0% ( 10.3%)     0.0%
 EFF. MASS   1.5030

 VIBRATION   61   61A       ATOM PAIR        ENERGY CONTRIBUTION    RADIAL
 FREQ.      3085.00        C  5 --  H 17          +54.6% ( 76.2%)    98.0%
 T-DIPOLE    0.0136        C  5 --  H 18          +40.4% ( 65.6%)    95.3%
 TRAVEL      0.1204        C  5 --  H 19           +4.0% ( 20.7%)    45.3%
 RED. MASS   0.4924        C  2 --  C  5           +1.0% ( 10.5%)     0.1%
 EFF. MASS   1.5076

 VIBRATION   62   62A       ATOM PAIR        ENERGY CONTRIBUTION    RADIAL
 FREQ.      3110.58        C  6 --  H 20          +66.6% ( 82.9%)   100.0%
 T-DIPOLE    0.3734        C  7 --  H 21          +30.6% ( 56.2%)   100.0%
 TRAVEL      0.1215        C  6 --  C  7           +1.2% ( 10.9%)     3.5%
 RED. MASS   0.5268        C  1 --  C  6           +1.0% ( 10.3%)    24.7%
 EFF. MASS   1.4687

 VIBRATION   63   63A       ATOM PAIR        ENERGY CONTRIBUTION    RADIAL
 FREQ.      3120.42        C  9 --  H 24          +50.5% ( 71.2%)    95.4%
 T-DIPOLE    0.3491        C  9 --  H 23          +47.6% ( 69.1%)    94.8%
 TRAVEL      0.1236        C  9 --  C 10           +1.8% ( 13.4%)   100.0%
 RED. MASS   0.4863
 EFF. MASS   1.4147

 VIBRATION   64   64A       ATOM PAIR        ENERGY CONTRIBUTION    RADIAL
 FREQ.      3125.74        C  9 --  H 23          +50.8% ( 73.0%)    97.3%
 T-DIPOLE    0.2208        C  9 --  H 24          +48.0% ( 70.9%)    96.9%
 TRAVEL      0.1163        C  9 --  C 10           +1.2% ( 11.2%)     0.0%
 RED. MASS   0.5339
 EFF. MASS   1.5953

 VIBRATION   65   65A       ATOM PAIR        ENERGY CONTRIBUTION    RADIAL
 FREQ.      3131.15        C  7 --  H 21          +65.7% ( 82.6%)    99.9%
 T-DIPOLE    0.3494        C  6 --  H 20          +29.8% ( 55.6%)    99.9%
 TRAVEL      0.1144        C  6 --  C  7           +2.4% ( 15.9%)    96.1%
 RED. MASS   0.5298        C  4 --  C  7           +1.2% ( 11.3%)    21.9%
 EFF. MASS   1.6444

 VIBRATION   66   66A       ATOM PAIR        ENERGY CONTRIBUTION    RADIAL
 FREQ.      3178.77        C  5 --  H 17          +38.4% ( 59.6%)    97.8%
 T-DIPOLE    0.0307        C  5 --  H 18          +32.0% ( 54.4%)    96.9%
 TRAVEL      0.1367        C  5 --  H 19          +29.3% ( 52.1%)    96.4%
 RED. MASS   0.3303        C  2 --  C  5           +0.3% (  5.0%)    98.7%
 EFF. MASS   1.1356

 SYMMETRY NUMBER FOR POINT-GROUP C1  =  1


          SYSTEM IS A GROUND STATE


    NULL



          MOLECULE IS NOT LINEAR

          THERE ARE 66 GENUINE VIBRATIONS IN THIS SYSTEM
          THIS THERMODYNAMICS CALCULATION IS LIMITED TO
          MOLECULES WHICH HAVE NO INTERNAL ROTATIONS




                    CALCULATED THERMODYNAMIC PROPERTIES
                                          *
   TEMP. (K)   PARTITION FUNCTION   H.O.F.    ENTHALPY  HEAT CAPACITY ENTROPY
                                   KCAL/MOL   CAL/MOLE    CAL/K/MOL  CAL/K/MOL


 298.00  VIB.     0.1165D+04                  4766.6767    33.5804    30.0260
         ROT.     0.7537D+06                   888.2813     2.9808    29.8731
         INT.     0.8779D+09                  5654.9580    36.5612    59.8990
         TRA.     0.1503D+28                  1480.4688     4.9680    40.5931
         TOT.                       45.165    7135.4269    41.5292   100.4921

 200.00  VIB.     0.8532D+02                  2103.8574    21.1415    19.3552
         ROT.     0.4144D+06                   596.1620     2.9808    28.6844
         INT.     0.3536D+08                  2700.0194    24.1223    48.0396
         TRA.     0.8266D+27                   993.6033     4.9680    38.6119
         TOT.                       41.723    3693.6226    29.0904    86.6516

 210.00  VIB.     0.1112D+03                  2320.9868    22.2900    20.4144
         ROT.     0.4458D+06                   625.9700     2.9808    28.8298
         INT.     0.4957D+08                  2946.9568    25.2708    49.2442
         TRA.     0.8893D+27                  1043.2834     4.9680    38.8543
         TOT.                       42.019    3990.2402    30.2388    88.0985

 220.00  VIB.     0.1449D+03                  2549.7687    23.4720    21.4785
         ROT.     0.4781D+06                   655.7781     2.9808    28.9685
         INT.     0.6928D+08                  3205.5468    26.4528    50.4470
         TRA.     0.9536D+27                  1092.9636     4.9680    39.0854
         TOT.                       42.328    4298.5104    31.4208    89.5324

 230.00  VIB.     0.1889D+03                  2790.5340    24.6864    22.5485
         ROT.     0.5110D+06                   685.5862     2.9808    29.1010
         INT.     0.9655D+08                  3476.1203    27.6672    51.6495
         TRA.     0.1019D+28                  1142.6437     4.9680    39.3063
         TOT.                       42.648    4618.7640    32.6352    90.9558

 240.00  VIB.     0.2464D+03                  3043.5974    25.9311    23.6253
         ROT.     0.5447D+06                   715.3943     2.9808    29.2279
         INT.     0.1342D+09                  3758.9918    28.9120    52.8532
         TRA.     0.1087D+28                  1192.3239     4.9680    39.5177
         TOT.                       42.980    4951.3157    33.8800    92.3709

 250.00  VIB.     0.3216D+03                  3309.2488    27.2035    24.7096
         ROT.     0.5791D+06                   745.2024     2.9808    29.3496
         INT.     0.1862D+09                  4054.4513    30.1843    54.0592
         TRA.     0.1155D+28                  1242.0041     4.9680    39.7205
         TOT.                       43.326    5296.4553    35.1523    93.7797

 260.00  VIB.     0.4199D+03                  3587.7473    28.5000    25.8017
         ROT.     0.6142D+06                   775.0105     2.9808    29.4665
         INT.     0.2579D+09                  4362.7578    31.4808    55.2682
         TRA.     0.1225D+28                  1291.6842     4.9680    39.9154
         TOT.                       43.684    5654.4421    36.4488    95.1836

 270.00  VIB.     0.5486D+03                  3879.3165    29.8170    26.9020
         ROT.     0.6500D+06                   804.8186     2.9808    29.5790
         INT.     0.3566D+09                  4684.1352    32.7978    56.4809
         TRA.     0.1297D+28                  1341.3644     4.9680    40.1029
         TOT.                       44.055    6025.4995    37.7658    96.5838

 280.00  VIB.     0.7174D+03                  4184.1422    31.1506    28.0104
         ROT.     0.6864D+06                   834.6267     2.9808    29.6874
         INT.     0.4924D+09                  5018.7689    34.1314    57.6978
         TRA.     0.1369D+28                  1391.0445     4.9680    40.2835
         TOT.                       44.439    6409.8134    39.0994    97.9813

 290.00  VIB.     0.9388D+03                  4502.3706    32.4969    29.1270
         ROT.     0.7235D+06                   864.4348     2.9808    29.7920
         INT.     0.6792D+09                  5366.8055    35.4777    58.9189
         TRA.     0.1443D+28                  1440.7247     4.9680    40.4579
         TOT.                       44.837    6807.5302    40.4457    99.3768

 300.00  VIB.     0.1230D+04                  4834.1091    33.8519    30.2515
         ROT.     0.7613D+06                   894.2429     2.9808    29.8930
         INT.     0.9360D+09                  5728.3520    36.8328    60.1445
         TRA.     0.1518D+28                  1490.4049     4.9680    40.6263
         TOT.                       45.248    7218.7569    41.8008   100.7708

 310.00  VIB.     0.1612D+04                  5179.4262    35.2120    31.3836
         ROT.     0.7996D+06                   924.0510     2.9808    29.9908
         INT.     0.1289D+10                  6103.4772    38.1928    61.3744
         TRA.     0.1595D+28                  1540.0850     4.9680    40.7892
         TOT.                       45.673    7643.5622    43.1608   102.1636

 320.00  VIB.     0.2115D+04                  5538.3540    36.5735    32.5231
         ROT.     0.8386D+06                   953.8591     2.9808    30.0854
         INT.     0.1774D+10                  6492.2132    39.5543    62.6085
         TRA.     0.1673D+28                  1589.7652     4.9680    40.9469
         TOT.                       46.111    8081.9784    44.5223   103.5554

 330.00  VIB.     0.2778D+04                  5910.8902    37.9331    33.6693
         ROT.     0.8783D+06                   983.6672     2.9808    30.1771
         INT.     0.2440D+10                  6894.5574    40.9139    63.8465
         TRA.     0.1752D+28                  1639.4454     4.9680    41.0998
         TOT.                       46.563    8534.0028    45.8820   104.9463

 340.00  VIB.     0.3652D+04                  6297.0002    39.2878    34.8219
         ROT.     0.9185D+06                  1013.4753     2.9808    30.2661
         INT.     0.3355D+10                  7310.4755    42.2686    65.0880
         TRA.     0.1832D+28                  1689.1255     4.9680    41.2481
         TOT.                       47.029    8999.6010    47.2366   106.3361

 350.00  VIB.     0.4806D+04                  6696.6205    40.6348    35.9802
         ROT.     0.9593D+06                  1043.2834     2.9808    30.3525
         INT.     0.4611D+10                  7739.9040    43.6156    66.3327
         TRA.     0.1914D+28                  1738.8057     4.9680    41.3921
         TOT.                       47.508    9478.7096    48.5836   107.7248

 360.00  VIB.     0.6332D+04                  7109.6616    41.9716    37.1437
         ROT.     0.1001D+07                  1073.0915     2.9808    30.4365
         INT.     0.6336D+10                  8182.7531    44.9524    67.5802
         TRA.     0.1996D+28                  1788.4859     4.9680    41.5321
         TOT.                       48.000    9971.2390    49.9204   109.1122

 370.00  VIB.     0.8348D+04                  7536.0104    43.2960    38.3117
         ROT.     0.1043D+07                  1102.8996     2.9808    30.5182
         INT.     0.8705D+10                  8638.9100    46.2768    68.8299
         TRA.     0.2080D+28                  1838.1660     4.9680    41.6682
         TOT.                       48.506   10477.0760    51.2448   110.4981

 380.00  VIB.     0.1102D+05                  7975.5337    44.6062    39.4838
         ROT.     0.1085D+07                  1132.7077     2.9808    30.5977
         INT.     0.1196D+11                  9108.2415    47.5870    70.0815
         TRA.     0.2165D+28                  1887.8462     4.9680    41.8007
         TOT.                       49.025   10996.0876    52.5550   111.8821

 390.00  VIB.     0.1456D+05                  8428.0807    45.9005    40.6592
         ROT.     0.1128D+07                  1162.5158     2.9808    30.6751
         INT.     0.1642D+11                  9590.5966    48.8813    71.3343
         TRA.     0.2251D+28                  1937.5263     4.9680    41.9297
         TOT.                       49.557   11528.1229    53.8493   113.2641

 400.00  VIB.     0.1924D+05                  8893.4857    47.1775    41.8375
         ROT.     0.1172D+07                  1192.3239     2.9808    30.7506
         INT.     0.2256D+11                 10085.8096    50.1584    72.5880
         TRA.     0.2338D+28                  1987.2065     4.9680    42.0555
         TOT.                       50.102   12073.0161    55.1264   114.6435

   *: NOTE: HEATS OF FORMATION ARE RELATIVE TO THE
            ELEMENTS IN THEIR STANDARD STATE AT 298K
              (=  Standard Enthalpy of Formation).

            Hvib:  Zero-point energy is not included.
                   frequencies of less than zero cm-1 are not included.
            Hrot = (3/2)RT
            Htra = (3/2)RT + pV = (5/2)RT

            Heat capacity is Cp, not Cv

           For more information, see: HTTP://OpenMOPAC.net/Manual/thermochemistry.html


           FORCE CONSTANT IN CARTESIAN COORDINATES (Millidynes/A)

    ATOM   CHEMICAL       X               Y               Z
   NUMBER   SYMBOL  FORCE CONSTANT  FORCE CONSTANT  FORCE CONSTANT

      1       C        8.468218        7.743814        8.782371
      2       C        7.937653        8.373718        8.767821
      3       C        7.872312        8.078409        8.504692
      4       C        8.315245        9.209822        7.769879
      5       C        8.391831        8.062200        8.322488
      6       C        8.397876       11.685498        7.301213
      7       C        8.963663        9.492067        9.021069
      8       C        8.402786       10.106254        8.529792
      9       C       11.734555       12.636135        1.899393
     10       C       11.763144       14.639789        1.928928
     11       H        1.088443        1.635352        3.237268
     12       H        1.069340        2.043667        2.909063
     13       H        1.413390        0.902203        4.194041
     14       H        2.892117        2.728710        0.868280
     15       H        4.355190        0.682503        1.340769
     16       H        0.805659        3.083392        2.516383
     17       H        5.394550        0.726350        0.672374
     18       H        1.234546        1.330169        4.222505
     19       H        1.048524        2.498476        3.211350
     20       H        0.852725        4.592562        0.955315
     21       H        1.964704        0.915744        3.545652
     22       H        0.918760        1.313430        3.830082
     23       H        5.236902        0.735791        0.304084
     24       H        1.001755        4.949801        0.326667



 TOTAL CPU TIME:             3.79 SECONDS

 == MOPAC DONE ==
