 *******************************************************************************
 ** Site#: 14399           For non-commercial use only        Version 13.159M **
 *******************************************************************************
 ** Cite this work as: MOPAC2012, James J. P. Stewart, Stewart Computational  **
 ** Chemistry, Version 13.159M web: HTTP://OpenMOPAC.net  Days remaining:   6 **
 *******************************************************************************
 **                                                                           **
 **                                MOPAC2012                                  **
 **                                                                           **
 *******************************************************************************

                            PM3 CALCULATION RESULTS


 *******************************************************************************
 *  CALCULATION DONE:                                Mon Jun  2 11:10:57 2014  *
 *  PM3      - The PM3 Hamiltonian to be used
 *  PRECISE  - CRITERIA TO BE INCREASED BY 100 TIMES
 *  NOSYM    - POINT-GROUP SYMMETRY SET TO C1
 *  T=       - A TIME OF 172800.0 SECONDS REQUESTED
 *  DUMP=N   - RESTART FILE WRITTEN EVERY  7200.000 SECONDS
 *******************************************************************************
pm3  precise nosym
 InChI=1S/C10H14/c1-2-4-8-7-9-5-3-6-10(8)9/h2-3,5,8-10H,1,4,6-7H2

   ATOM   CHEMICAL          X               Y               Z
  NUMBER   SYMBOL      (ANGSTROMS)     (ANGSTROMS)     (ANGSTROMS)
 
     1       C         -0.53110000  *   0.18880000  *  -0.43100000  *
     2       C          0.31880000  *  -0.40560000  *   0.70370000  *
     3       C         -1.52080000  *  -0.99920000  *  -0.24000000  *
     4       C         -0.57860000  *  -1.59950000  *   0.79580000  *
     5       C         -1.31980000  *   1.46340000  *  -0.10820000  *
     6       C          1.77080000  *  -0.71790000  *   0.32070000  *
     7       C         -2.75090000  *  -0.35260000  *   0.30350000  *
     8       C         -2.64300000  *   0.96690000  *   0.36530000  *
     9       C          2.57320000  *   0.54460000  *   0.17780000  *
    10       C          3.15790000  *   0.90210000  *  -0.96790000  *
    11       H         -0.05080000  *   0.19080000  *  -1.43870000  *
    12       H          0.27300000  *   0.18540000  *   1.65100000  *
    13       H         -1.68470000  *  -1.60800000  *  -1.15940000  *
    14       H         -1.03330000  *  -1.73790000  *   1.80530000  *
    15       H         -0.13110000  *  -2.55110000  *   0.42320000  *
    16       H         -0.82350000  *   2.09120000  *   0.66660000  *
    17       H         -1.47170000  *   2.07560000  *  -1.02610000  *
    18       H          2.23670000  *  -1.32460000  *   1.13060000  *
    19       H          1.80800000  *  -1.34190000  *  -0.60410000  *
    20       H         -3.44200000  *   1.61530000  *   0.71920000  *
    21       H         -3.64070000  *  -0.89860000  *   0.61020000  *
    22       H          2.67720000  *   1.19540000  *   1.04520000  *
    23       H          3.07970000  *   0.28960000  *  -1.86470000  *
    24       H          3.72690000  *   1.82810000  *  -1.02330000  *
 


          CARTESIAN COORDINATES 

    NO.       ATOM         X         Y         Z

     1         C       -0.5311    0.1888   -0.4310
     2         C        0.3188   -0.4056    0.7037
     3         C       -1.5208   -0.9992   -0.2400
     4         C       -0.5786   -1.5995    0.7958
     5         C       -1.3198    1.4634   -0.1082
     6         C        1.7708   -0.7179    0.3207
     7         C       -2.7509   -0.3526    0.3035
     8         C       -2.6430    0.9669    0.3653
     9         C        2.5732    0.5446    0.1778
    10         C        3.1579    0.9021   -0.9679
    11         H       -0.0508    0.1908   -1.4387
    12         H        0.2730    0.1854    1.6510
    13         H       -1.6847   -1.6080   -1.1594
    14         H       -1.0333   -1.7379    1.8053
    15         H       -0.1311   -2.5511    0.4232
    16         H       -0.8235    2.0912    0.6666
    17         H       -1.4717    2.0756   -1.0261
    18         H        2.2367   -1.3246    1.1306
    19         H        1.8080   -1.3419   -0.6041
    20         H       -3.4420    1.6153    0.7192
    21         H       -3.6407   -0.8986    0.6102
    22         H        2.6772    1.1954    1.0452
    23         H        3.0797    0.2896   -1.8647
    24         H        3.7269    1.8281   -1.0233

  H: (PM3): J. J. P. STEWART, J. COMP. CHEM. 10, 209 (1989).
  C: (PM3): J. J. P. STEWART, J. COMP. CHEM. 10, 209 (1989).

           Empirical Formula: C10 H14  =    24 atoms



      MOLECULAR POINT GROUP   :   C1  


      RHF CALCULATION, NO. OF DOUBLY OCCUPIED LEVELS =   27

      Geometry optimization using EF

          DIAGONAL MATRIX USED AS START HESSIAN

 CYCLE:     1 TIME:   0.011 TIME LEFT:  2.00D  GRAD.:    98.217 HEAT: 33.83049
 CYCLE:     2 TIME:   0.024 TIME LEFT:  2.00D  GRAD.:    49.153 HEAT: 31.76371
 CYCLE:     3 TIME:   0.015 TIME LEFT:  2.00D  GRAD.:    36.058 HEAT: 31.23095
 CYCLE:     4 TIME:   0.008 TIME LEFT:  2.00D  GRAD.:    37.604 HEAT: 30.76626
 CYCLE:     5 TIME:   0.008 TIME LEFT:  2.00D  GRAD.:    67.095 HEAT: 30.74565
 CYCLE:     6 TIME:   0.008 TIME LEFT:  2.00D  GRAD.:    42.233 HEAT: 30.18413
 CYCLE:     7 TIME:   0.014 TIME LEFT:  2.00D  GRAD.:    18.504 HEAT: 29.73216
 CYCLE:     8 TIME:   0.015 TIME LEFT:  2.00D  GRAD.:    11.669 HEAT: 29.61106
 CYCLE:     9 TIME:   0.008 TIME LEFT:  2.00D  GRAD.:    14.044 HEAT: 29.52332
 CYCLE:    10 TIME:   0.008 TIME LEFT:  2.00D  GRAD.:    18.054 HEAT: 29.50518
 CYCLE:    11 TIME:   0.014 TIME LEFT:  2.00D  GRAD.:     8.725 HEAT: 29.42164
 CYCLE:    12 TIME:   0.014 TIME LEFT:  2.00D  GRAD.:     6.662 HEAT: 29.40567
 CYCLE:    13 TIME:   0.008 TIME LEFT:  2.00D  GRAD.:     6.941 HEAT: 29.39605
 CYCLE:    14 TIME:   0.008 TIME LEFT:  2.00D  GRAD.:     5.913 HEAT: 29.38453
 CYCLE:    15 TIME:   0.008 TIME LEFT:  2.00D  GRAD.:     5.279 HEAT: 29.37557
 CYCLE:    16 TIME:   0.014 TIME LEFT:  2.00D  GRAD.:     4.415 HEAT: 29.36808
 CYCLE:    17 TIME:   0.008 TIME LEFT:  2.00D  GRAD.:     3.724 HEAT: 29.36258
 CYCLE:    18 TIME:   0.008 TIME LEFT:  2.00D  GRAD.:     3.830 HEAT: 29.35742
 CYCLE:    19 TIME:   0.014 TIME LEFT:  2.00D  GRAD.:     4.319 HEAT: 29.35372
 CYCLE:    20 TIME:   0.008 TIME LEFT:  2.00D  GRAD.:     4.637 HEAT: 29.34790
 CYCLE:    21 TIME:   0.008 TIME LEFT:  2.00D  GRAD.:     4.425 HEAT: 29.34149
 CYCLE:    22 TIME:   0.008 TIME LEFT:  2.00D  GRAD.:     4.474 HEAT: 29.33491
 CYCLE:    23 TIME:   0.008 TIME LEFT:  2.00D  GRAD.:     4.408 HEAT: 29.32674
 CYCLE:    24 TIME:   0.008 TIME LEFT:  2.00D  GRAD.:     4.817 HEAT: 29.31907
 CYCLE:    25 TIME:   0.008 TIME LEFT:  2.00D  GRAD.:     4.720 HEAT: 29.30804
 CYCLE:    26 TIME:   0.008 TIME LEFT:  2.00D  GRAD.:     5.281 HEAT: 29.29810
 CYCLE:    27 TIME:   0.011 TIME LEFT:  2.00D  GRAD.:     3.701 HEAT: 29.28069
 CYCLE:    28 TIME:   0.009 TIME LEFT:  2.00D  GRAD.:     6.196 HEAT: 29.27496
 CYCLE:    29 TIME:   0.008 TIME LEFT:  2.00D  GRAD.:     4.152 HEAT: 29.25581
 CYCLE:    30 TIME:   0.008 TIME LEFT:  2.00D  GRAD.:     3.432 HEAT: 29.24480
 CYCLE:    31 TIME:   0.008 TIME LEFT:  2.00D  GRAD.:     4.400 HEAT: 29.23656
 CYCLE:    32 TIME:   0.008 TIME LEFT:  2.00D  GRAD.:     3.071 HEAT: 29.22712
 CYCLE:    33 TIME:   0.008 TIME LEFT:  2.00D  GRAD.:     2.445 HEAT: 29.22187
 CYCLE:    34 TIME:   0.008 TIME LEFT:  2.00D  GRAD.:     1.869 HEAT: 29.21569
 CYCLE:    35 TIME:   0.008 TIME LEFT:  2.00D  GRAD.:     1.926 HEAT: 29.20823
 CYCLE:    36 TIME:   0.008 TIME LEFT:  2.00D  GRAD.:     2.158 HEAT: 29.20194
 CYCLE:    37 TIME:   0.008 TIME LEFT:  2.00D  GRAD.:     1.967 HEAT: 29.19543
 CYCLE:    38 TIME:   0.008 TIME LEFT:  2.00D  GRAD.:     1.612 HEAT: 29.18982
 CYCLE:    39 TIME:   0.008 TIME LEFT:  2.00D  GRAD.:     1.822 HEAT: 29.18606
 CYCLE:    40 TIME:   0.008 TIME LEFT:  2.00D  GRAD.:     1.481 HEAT: 29.18260
 CYCLE:    41 TIME:   0.008 TIME LEFT:  2.00D  GRAD.:     1.558 HEAT: 29.17751
 CYCLE:    42 TIME:   0.008 TIME LEFT:  2.00D  GRAD.:     1.654 HEAT: 29.17150
 CYCLE:    43 TIME:   0.008 TIME LEFT:  2.00D  GRAD.:     1.411 HEAT: 29.16832
 CYCLE:    44 TIME:   0.008 TIME LEFT:  2.00D  GRAD.:     1.413 HEAT: 29.16445
 CYCLE:    45 TIME:   0.008 TIME LEFT:  2.00D  GRAD.:     1.548 HEAT: 29.15908
 CYCLE:    46 TIME:   0.008 TIME LEFT:  2.00D  GRAD.:     1.732 HEAT: 29.15337
 CYCLE:    47 TIME:   0.008 TIME LEFT:  2.00D  GRAD.:     1.512 HEAT: 29.14740
 CYCLE:    48 TIME:   0.008 TIME LEFT:  2.00D  GRAD.:     1.268 HEAT: 29.14289
 CYCLE:    49 TIME:   0.008 TIME LEFT:  2.00D  GRAD.:     1.149 HEAT: 29.13963
 CYCLE:    50 TIME:   0.008 TIME LEFT:  2.00D  GRAD.:     0.897 HEAT: 29.13734
 CYCLE:    51 TIME:   0.008 TIME LEFT:  2.00D  GRAD.:     0.716 HEAT: 29.13550
 CYCLE:    52 TIME:   0.008 TIME LEFT:  2.00D  GRAD.:     0.653 HEAT: 29.13418
 CYCLE:    53 TIME:   0.008 TIME LEFT:  2.00D  GRAD.:     0.616 HEAT: 29.13303
 CYCLE:    54 TIME:   0.008 TIME LEFT:  2.00D  GRAD.:     0.579 HEAT: 29.13218
 CYCLE:    55 TIME:   0.009 TIME LEFT:  2.00D  GRAD.:     0.496 HEAT: 29.13146
 CYCLE:    56 TIME:   0.008 TIME LEFT:  2.00D  GRAD.:     0.419 HEAT: 29.13095
 CYCLE:    57 TIME:   0.008 TIME LEFT:  2.00D  GRAD.:     0.340 HEAT: 29.13060
 CYCLE:    58 TIME:   0.008 TIME LEFT:  2.00D  GRAD.:     0.295 HEAT: 29.13039
 CYCLE:    59 TIME:   0.008 TIME LEFT:  2.00D  GRAD.:     0.296 HEAT: 29.13018
 CYCLE:    60 TIME:   0.008 TIME LEFT:  2.00D  GRAD.:     0.330 HEAT: 29.12991
 CYCLE:    61 TIME:   0.008 TIME LEFT:  2.00D  GRAD.:     0.362 HEAT: 29.12957
 CYCLE:    62 TIME:   0.008 TIME LEFT:  2.00D  GRAD.:     0.386 HEAT: 29.12921
 CYCLE:    63 TIME:   0.008 TIME LEFT:  2.00D  GRAD.:     0.429 HEAT: 29.12883
 CYCLE:    64 TIME:   0.008 TIME LEFT:  2.00D  GRAD.:     0.508 HEAT: 29.12833
 CYCLE:    65 TIME:   0.008 TIME LEFT:  2.00D  GRAD.:     0.646 HEAT: 29.12754
 CYCLE:    66 TIME:   0.008 TIME LEFT:  2.00D  GRAD.:     0.766 HEAT: 29.12648
 CYCLE:    67 TIME:   0.009 TIME LEFT:  2.00D  GRAD.:     0.976 HEAT: 29.12450
 CYCLE:    68 TIME:   0.008 TIME LEFT:  2.00D  GRAD.:     0.948 HEAT: 29.12294
 CYCLE:    69 TIME:   0.008 TIME LEFT:  2.00D  GRAD.:     1.502 HEAT: 29.11838
 CYCLE:    70 TIME:   0.008 TIME LEFT:  2.00D  GRAD.:     1.203 HEAT: 29.11626
 CYCLE:    71 TIME:   0.013 TIME LEFT:  2.00D  GRAD.:     1.391 HEAT: 29.10997
 CYCLE:    72 TIME:   0.008 TIME LEFT:  2.00D  GRAD.:     0.883 HEAT: 29.10808
 CYCLE:    73 TIME:   0.008 TIME LEFT:  2.00D  GRAD.:     0.701 HEAT: 29.10493
 CYCLE:    74 TIME:   0.008 TIME LEFT:  2.00D  GRAD.:     0.872 HEAT: 29.10324
 CYCLE:    75 TIME:   0.008 TIME LEFT:  2.00D  GRAD.:     0.695 HEAT: 29.10180
 CYCLE:    76 TIME:   0.008 TIME LEFT:  2.00D  GRAD.:     0.884 HEAT: 29.10113
 CYCLE:    77 TIME:   0.008 TIME LEFT:  2.00D  GRAD.:     0.375 HEAT: 29.10065
 CYCLE:    78 TIME:   0.008 TIME LEFT:  2.00D  GRAD.:     0.313 HEAT: 29.10036
 CYCLE:    79 TIME:   0.008 TIME LEFT:  2.00D  GRAD.:     0.329 HEAT: 29.10015
 CYCLE:    80 TIME:   0.008 TIME LEFT:  2.00D  GRAD.:     0.231 HEAT: 29.09997
 CYCLE:    81 TIME:   0.008 TIME LEFT:  2.00D  GRAD.:     0.187 HEAT: 29.09986
 CYCLE:    82 TIME:   0.008 TIME LEFT:  2.00D  GRAD.:     0.180 HEAT: 29.09976
 CYCLE:    83 TIME:   0.008 TIME LEFT:  2.00D  GRAD.:     0.186 HEAT: 29.09967
 CYCLE:    84 TIME:   0.008 TIME LEFT:  2.00D  GRAD.:     0.185 HEAT: 29.09955
 CYCLE:    85 TIME:   0.008 TIME LEFT:  2.00D  GRAD.:     0.171 HEAT: 29.09944
 CYCLE:    86 TIME:   0.008 TIME LEFT:  2.00D  GRAD.:     0.167 HEAT: 29.09932
 CYCLE:    87 TIME:   0.008 TIME LEFT:  2.00D  GRAD.:     0.180 HEAT: 29.09925
 CYCLE:    88 TIME:   0.008 TIME LEFT:  2.00D  GRAD.:     0.186 HEAT: 29.09916
 CYCLE:    89 TIME:   0.008 TIME LEFT:  2.00D  GRAD.:     0.196 HEAT: 29.09906
 CYCLE:    90 TIME:   0.008 TIME LEFT:  2.00D  GRAD.:     0.218 HEAT: 29.09890
 CYCLE:    91 TIME:   0.008 TIME LEFT:  2.00D  GRAD.:     0.239 HEAT: 29.09877
 CYCLE:    92 TIME:   0.008 TIME LEFT:  2.00D  GRAD.:     0.286 HEAT: 29.09855
 CYCLE:    93 TIME:   0.008 TIME LEFT:  2.00D  GRAD.:     0.264 HEAT: 29.09841
 CYCLE:    94 TIME:   0.008 TIME LEFT:  2.00D  GRAD.:     0.358 HEAT: 29.09806
 CYCLE:    95 TIME:   0.008 TIME LEFT:  2.00D  GRAD.:     0.335 HEAT: 29.09790
 CYCLE:    96 TIME:   0.008 TIME LEFT:  2.00D  GRAD.:     0.339 HEAT: 29.09707
 CYCLE:    97 TIME:   0.008 TIME LEFT:  2.00D  GRAD.:     0.365 HEAT: 29.09673
 CYCLE:    98 TIME:   0.008 TIME LEFT:  2.00D  GRAD.:     0.296 HEAT: 29.09632
 CYCLE:    99 TIME:   0.008 TIME LEFT:  2.00D  GRAD.:     0.278 HEAT: 29.09607
 CYCLE:   100 TIME:   0.008 TIME LEFT:  2.00D  GRAD.:     0.252 HEAT: 29.09586
 CYCLE:   101 TIME:   0.008 TIME LEFT:  2.00D  GRAD.:     0.150 HEAT: 29.09578
 CYCLE:   102 TIME:   0.008 TIME LEFT:  2.00D  GRAD.:     0.161 HEAT: 29.09573
 CYCLE:   103 TIME:   0.008 TIME LEFT:  2.00D  GRAD.:     0.123 HEAT: 29.09570
 CYCLE:   104 TIME:   0.011 TIME LEFT:  2.00D  GRAD.:     0.104 HEAT: 29.09561
 CYCLE:   105 TIME:   0.009 TIME LEFT:  2.00D  GRAD.:     0.096 HEAT: 29.09553
 CYCLE:   106 TIME:   0.007 TIME LEFT:  2.00D  GRAD.:     0.074 HEAT: 29.09552
 CYCLE:   107 TIME:   0.008 TIME LEFT:  2.00D  GRAD.:     0.106 HEAT: 29.09552
 CYCLE:   108 TIME:   0.007 TIME LEFT:  2.00D  GRAD.:     0.058 HEAT: 29.09550
 CYCLE:   109 TIME:   0.008 TIME LEFT:  2.00D  GRAD.:     0.050 HEAT: 29.09549

     RMS GRADIENT =  0.04995  IS LESS THAN CUTOFF =  0.05000



 -------------------------------------------------------------------------------
pm3  precise nosym
 InChI=1S/C10H14/c1-2-4-8-7-9-5-3-6-10(8)9/h2-3,5,8-10H,1,4,6-7H2



     GEOMETRY OPTIMISED USING EIGENVECTOR FOLLOWING (EF).     
     SCF FIELD WAS ACHIEVED                                   


                              PM3 CALCULATION
                                                       MOPAC2012 (Version: 13.159M)
                                                       Mon Jun  2 11:10:58 2014
                                                       No. of days left =   6




          FINAL HEAT OF FORMATION =         29.09549 KCAL/MOL =     121.73555 KJ/MOL


          TOTAL ENERGY            =      -1399.79996 EV
          ELECTRONIC ENERGY       =      -7900.24528 EV  POINT GROUP:     C1  
          CORE-CORE REPULSION     =       6500.44532 EV
          COSMO AREA              =        187.82 SQUARE ANGSTROMS
          COSMO VOLUME            =        194.28 CUBIC ANGSTROMS

          GRADIENT NORM           =          0.04995
          IONIZATION POTENTIAL    =          9.620294 EV
          HOMO LUMO ENERGIES (EV) =         -9.620  1.087
          NO. OF FILLED LEVELS    =         27
          MOLECULAR WEIGHT        =        134.221

          MOLECULAR DIMENSIONS (Angstroms)

            Atom       Atom       Distance
            H    24    H    21     8.26217
            H    17    H    18     5.10808
            H    13    H    16     3.41857


          SCF CALCULATIONS        =        119
          COMPUTATION TIME        =          0.945 SECONDS




   ATOM   CHEMICAL          X               Y               Z
  NUMBER   SYMBOL      (ANGSTROMS)     (ANGSTROMS)     (ANGSTROMS)
 
     1       C         -0.58051763  *   0.23324720  *  -0.42118727  *
     2       C          0.34988376  *  -0.33194858  *   0.68722528  *
     3       C         -1.52914203  *  -0.99637986  *  -0.23719745  *
     4       C         -0.58333943  *  -1.56073701  *   0.84439204  *
     5       C         -1.40647649  *   1.46430045  *  -0.04418755  *
     6       C          1.75585008  *  -0.67420657  *   0.23586047  *
     7       C         -2.80715582  *  -0.41648901  *   0.27346173  *
     8       C         -2.74039402  *   0.91799432  *   0.36973819  *
     9       C          2.61018465  *   0.54000555  *   0.12697738  *
    10       C          3.35266710  *   0.81174666  *  -0.93976487  *
    11       H         -0.09460473  *   0.33063305  *  -1.40961955  *
    12       H          0.38527435  *   0.30738633  *   1.59583180  *
    13       H         -1.68108307  *  -1.64840795  *  -1.11646535  *
    14       H         -1.03413539  *  -1.67128251  *   1.84167435  *
    15       H         -0.11915047  *  -2.52436489  *   0.58371962  *
    16       H         -0.94246554  *   2.04669253  *   0.77381661  *
    17       H         -1.51930788  *   2.16106043  *  -0.89505975  *
    18       H          2.21732108  *  -1.36301548  *   0.97257875  *
    19       H          1.72831354  *  -1.23266364  *  -0.72218580  *
    20       H         -3.53700927  *   1.58172057  *   0.70511866  *
    21       H         -3.65977374  *  -1.04757756  *   0.52103219  *
    22       H          2.60086878  *   1.21161620  *   0.99434689  *
    23       H          3.38500687  *   0.17700466  *  -1.82126858  *
    24       H          3.98410218  *   1.69246609  *  -1.00435103  *

           Empirical Formula: C10 H14  =    24 atoms



      MOLECULAR POINT GROUP   :   C1  


                  EIGENVALUES  
 -42.49864 -35.89261 -31.92902 -28.63349 -26.46291 -23.71704 -21.52955 -19.95933
 -18.92501 -17.98954 -17.58321 -16.61990 -15.59266 -15.29728 -14.70442 -14.27156
 -14.17325 -13.35165 -12.81418 -12.71079 -12.36189 -12.10852 -12.00053 -11.40506
 -11.32836 -10.14691  -9.62029   1.08711   1.15505   3.18756   3.24435   3.42463
   3.52261   3.60608   3.63754   3.85668   3.90416   3.92838   4.06989   4.12825
   4.13208   4.24953   4.30608   4.45184   4.54555   4.67089   4.80408   4.84570
   5.25923   5.52206   5.64388   5.71026   5.88702   6.00909


              NET ATOMIC CHARGES AND DIPOLE CONTRIBUTIONS

  ATOM NO.   TYPE          CHARGE      No. of ELECS.   s-Pop       p-Pop       
    1          C          -0.099627        4.0996     1.20144     2.89819
    2          C          -0.085430        4.0854     1.19341     2.89202
    3          C          -0.065424        4.0654     1.18519     2.88023
    4          C          -0.100874        4.1009     1.17558     2.92529
    5          C          -0.057185        4.0572     1.15306     2.90412
    6          C          -0.062277        4.0623     1.14920     2.91308
    7          C          -0.146857        4.1469     1.19994     2.94692
    8          C          -0.148199        4.1482     1.20452     2.94368
    9          C          -0.134444        4.1344     1.19529     2.93916
   10          C          -0.168721        4.1687     1.18271     2.98601
   11          H           0.082862        0.9171     0.91714
   12          H           0.076364        0.9236     0.92364
   13          H           0.080433        0.9196     0.91957
   14          H           0.060638        0.9394     0.93936
   15          H           0.057526        0.9425     0.94247
   16          H           0.061101        0.9389     0.93890
   17          H           0.056022        0.9440     0.94398
   18          H           0.057650        0.9423     0.94235
   19          H           0.057582        0.9424     0.94242
   20          H           0.108705        0.8913     0.89129
   21          H           0.112477        0.8875     0.88752
   22          H           0.096879        0.9031     0.90312
   23          H           0.081553        0.9184     0.91845
   24          H           0.079244        0.9208     0.92076
 DIPOLE           X         Y         Z       TOTAL
 POINT-CHG.     0.042    -0.049     0.113     0.130
 HYBRID        -0.011     0.017     0.024     0.031
 SUM            0.031    -0.032     0.137     0.144


          ATOMIC ORBITAL ELECTRON POPULATIONS

    Atom      s        px        py        pz   
    1  C   1.20144   0.96488   0.94570   0.98760
    2  C   1.19341   0.93239   0.97634   0.98330
    3  C   1.18519   0.92761   0.97265   0.97997
    4  C   1.17558   0.96937   0.96695   0.98897
    5  C   1.15306   0.93960   0.96158   1.00294
    6  C   1.14920   0.94157   0.95697   1.01454
    7  C   1.19994   0.97608   0.96068   1.01015
    8  C   1.20452   0.97566   0.96281   1.00520
    9  C   1.19529   0.97668   0.97959   0.98289
   10  C   1.18271   0.99922   1.00997   0.97682
   11  H   0.91714
   12  H   0.92364
   13  H   0.91957
   14  H   0.93936
   15  H   0.94247
   16  H   0.93890
   17  H   0.94398
   18  H   0.94235
   19  H   0.94242
   20  H   0.89129
   21  H   0.88752
   22  H   0.90312
   23  H   0.91845
   24  H   0.92076
 *******************************************************************************
 ** Site#: 14399           For non-commercial use only        Version 13.159M **
 *******************************************************************************
 ** Cite this work as: MOPAC2012, James J. P. Stewart, Stewart Computational  **
 ** Chemistry, Version 13.159M web: HTTP://OpenMOPAC.net  Days remaining:   6 **
 *******************************************************************************
 **                                                                           **
 **                                MOPAC2012                                  **
 **                                                                           **
 *******************************************************************************

                            PM3 CALCULATION RESULTS


 *******************************************************************************
 *  CALCULATION DONE:                                Mon Jun  2 11:10:58 2014  *
 *  PM3      - The PM3 Hamiltonian to be used
 *  OLDGEO   - PREVIOUS GEOMETRY TO BE USED
 *  PRECISE  - CRITERIA TO BE INCREASED BY 100 TIMES
 *  NOSYM    - POINT-GROUP SYMMETRY SET TO C1
 *  T=       - A TIME OF 172800.0 SECONDS REQUESTED
 *  DUMP=N   - RESTART FILE WRITTEN EVERY  7200.000 SECONDS
 *  THERMO   - THERMODYNAMIC QUANTITIES TO BE CALCULATED
 *******************************************************************************
oldgeo thermo nosym precise  pm3

   ATOM   CHEMICAL          X               Y               Z
  NUMBER   SYMBOL      (ANGSTROMS)     (ANGSTROMS)     (ANGSTROMS)
 
     1       C         -0.58051763  *   0.23324720  *  -0.42118727  *
     2       C          0.34988376  *  -0.33194858  *   0.68722528  *
     3       C         -1.52914203  *  -0.99637986  *  -0.23719745  *
     4       C         -0.58333943  *  -1.56073701  *   0.84439204  *
     5       C         -1.40647649  *   1.46430045  *  -0.04418755  *
     6       C          1.75585008  *  -0.67420657  *   0.23586047  *
     7       C         -2.80715582  *  -0.41648901  *   0.27346173  *
     8       C         -2.74039402  *   0.91799432  *   0.36973819  *
     9       C          2.61018465  *   0.54000555  *   0.12697738  *
    10       C          3.35266710  *   0.81174666  *  -0.93976487  *
    11       H         -0.09460473  *   0.33063305  *  -1.40961955  *
    12       H          0.38527435  *   0.30738633  *   1.59583180  *
    13       H         -1.68108307  *  -1.64840795  *  -1.11646535  *
    14       H         -1.03413539  *  -1.67128251  *   1.84167435  *
    15       H         -0.11915047  *  -2.52436489  *   0.58371962  *
    16       H         -0.94246554  *   2.04669253  *   0.77381661  *
    17       H         -1.51930788  *   2.16106043  *  -0.89505975  *
    18       H          2.21732108  *  -1.36301548  *   0.97257875  *
    19       H          1.72831354  *  -1.23266364  *  -0.72218580  *
    20       H         -3.53700927  *   1.58172057  *   0.70511866  *
    21       H         -3.65977374  *  -1.04757756  *   0.52103219  *
    22       H          2.60086878  *   1.21161620  *   0.99434689  *
    23       H          3.38500687  *   0.17700466  *  -1.82126858  *
    24       H          3.98410218  *   1.69246609  *  -1.00435103  *
 


          CARTESIAN COORDINATES 

    NO.       ATOM         X         Y         Z

     1         C       -0.5805    0.2332   -0.4212
     2         C        0.3499   -0.3319    0.6872
     3         C       -1.5291   -0.9964   -0.2372
     4         C       -0.5833   -1.5607    0.8444
     5         C       -1.4065    1.4643   -0.0442
     6         C        1.7559   -0.6742    0.2359
     7         C       -2.8072   -0.4165    0.2735
     8         C       -2.7404    0.9180    0.3697
     9         C        2.6102    0.5400    0.1270
    10         C        3.3527    0.8117   -0.9398
    11         H       -0.0946    0.3306   -1.4096
    12         H        0.3853    0.3074    1.5958
    13         H       -1.6811   -1.6484   -1.1165
    14         H       -1.0341   -1.6713    1.8417
    15         H       -0.1192   -2.5244    0.5837
    16         H       -0.9425    2.0467    0.7738
    17         H       -1.5193    2.1611   -0.8951
    18         H        2.2173   -1.3630    0.9726
    19         H        1.7283   -1.2327   -0.7222
    20         H       -3.5370    1.5817    0.7051
    21         H       -3.6598   -1.0476    0.5210
    22         H        2.6009    1.2116    0.9943
    23         H        3.3850    0.1770   -1.8213
    24         H        3.9841    1.6925   -1.0044

  H: (PM3): J. J. P. STEWART, J. COMP. CHEM. 10, 209 (1989).
  C: (PM3): J. J. P. STEWART, J. COMP. CHEM. 10, 209 (1989).

           Empirical Formula: C10 H14  =    24 atoms



      MOLECULAR POINT GROUP   :   C1  


      RHF CALCULATION, NO. OF DOUBLY OCCUPIED LEVELS =   27



          HEAT OF FORMATION =      29.095494 KCALS/MOLE


          INTERNAL COORDINATE DERIVATIVES

   NUMBER  ATOM       BOND         ANGLE      DIHEDRAL

     1       C      0.002434     0.001512    -0.000268
     2       C      0.003257     0.001992     0.001899
     3       C      0.001723     0.000579     0.000439
     4       C      0.001360    -0.000304     0.003568
     5       C      0.002387     0.002233     0.000884
     6       C     -0.000132    -0.002593    -0.000084
     7       C      0.000226     0.003343    -0.001834
     8       C     -0.001705     0.003041     0.001911
     9       C      0.012480     0.015745    -0.015734
    10       C     -0.015135    -0.016635     0.014260
    11       H     -0.000093    -0.002621    -0.002937
    12       H      0.001564     0.002091     0.000968
    13       H     -0.000211    -0.005398    -0.000009
    14       H      0.000550    -0.001939    -0.000957
    15       H      0.000624     0.002497    -0.001421
    16       H      0.002551     0.005810     0.004453
    17       H     -0.001316     0.003427    -0.001478
    18       H     -0.012286     0.012746    -0.006784
    19       H      0.005536    -0.014407    -0.000740
    20       H     -0.002025    -0.008734     0.001471
    21       H     -0.004755     0.005279    -0.006004
    22       H      0.004230    -0.009964    -0.001835
    23       H      0.001447     0.000030     0.009455
    24       H     -0.002711     0.002274     0.000779


          GRADIENT NORM =   0.05087


          TIME FOR SCF CALCULATION =    0.01

          TIME FOR DERIVATIVES     =    0.01

          MOLECULAR WEIGHT =  134.22



          ROTATIONAL CONSTANTS IN CM(-1)

          A =    0.09791226   B =    0.02734410   C =    0.02350689



           PRINCIPAL MOMENTS OF INERTIA IN UNITS OF 10**(-40)*GRAM-CM**2

          A =      285.8965   B =     1023.7227   C =     1190.8328


          ORIENTATION OF MOLECULE IN FORCE CALCULATION

    NO.       ATOM         X         Y         Z

     1          C      -0.7191    0.0351   -0.0002
     2          C       0.8345    0.0351   -0.0002
     3          C      -0.7086    1.5989   -0.0002
     4          C       0.8348    1.5858    0.0259
     5          C      -1.3926   -0.3830   -1.3084
     6          C       1.4790   -0.6061    1.2127
     7          C      -1.3206    1.9824   -1.3074
     8          C      -1.6974    0.9065   -2.0109
     9          C       1.4712   -2.0918    1.1197
    10          C       1.0559   -2.8786    2.1054
    11          H      -1.1687   -0.4495    0.8862
    12          H       1.2714   -0.3851   -0.9319
    13          H      -1.1897    2.1035    0.8573
    14          H       1.3166    2.0603   -0.8417
    15          H       1.2774    2.0283    0.9317
    16          H      -0.7430   -1.0305   -1.9267
    17          H      -2.3207   -0.9563   -1.1290
    18          H       2.5315   -0.2648    1.2890
    19          H       0.9821   -0.2597    2.1421
    20          H      -2.1766    0.9105   -2.9896
    21          H      -1.4250    3.0256   -1.6028
    22          H       1.8401   -2.5147    0.1771
    23          H       0.6773   -2.5003    3.0512
    24          H       1.0676   -3.9618    2.0341


    FIRST DERIVATIVES WILL BE USED IN THE CALCULATION OF SECOND DERIVATIVES

          ESTIMATED TIME TO COMPLETE CALCULATION =        3.33 SECONDS

    FOR POINT-GROUP C1   THERE ARE   1 UNIQUE SYMMETRY FUNCTIONS.

 STEP:   1 TIME =     0.04 SECS, INTEGRAL =      0.04 TIME LEFT: 172799.95
 STEP:   2 TIME =     0.04 SECS, INTEGRAL =      0.07 TIME LEFT: 172799.92
 STEP:   3 TIME =     0.04 SECS, INTEGRAL =      0.11 TIME LEFT: 172799.88
 STEP:   4 TIME =     0.04 SECS, INTEGRAL =      0.14 TIME LEFT: 172799.84
 STEP:   5 TIME =     0.04 SECS, INTEGRAL =      0.18 TIME LEFT: 172799.81
 STEP:   6 TIME =     0.04 SECS, INTEGRAL =      0.22 TIME LEFT: 172799.77
 STEP:   7 TIME =     0.04 SECS, INTEGRAL =      0.25 TIME LEFT: 172799.74
 STEP:   8 TIME =     0.04 SECS, INTEGRAL =      0.29 TIME LEFT: 172799.70
 STEP:   9 TIME =     0.04 SECS, INTEGRAL =      0.32 TIME LEFT: 172799.67
 STEP:  10 TIME =     0.04 SECS, INTEGRAL =      0.36 TIME LEFT: 172799.63
 STEP:  11 TIME =     0.04 SECS, INTEGRAL =      0.39 TIME LEFT: 172799.59
 STEP:  12 TIME =     0.03 SECS, INTEGRAL =      0.43 TIME LEFT: 172799.56
 STEP:  13 TIME =     0.04 SECS, INTEGRAL =      0.46 TIME LEFT: 172799.52
 STEP:  14 TIME =     0.04 SECS, INTEGRAL =      0.50 TIME LEFT: 172799.49
 STEP:  15 TIME =     0.04 SECS, INTEGRAL =      0.54 TIME LEFT: 172799.45
 STEP:  16 TIME =     0.04 SECS, INTEGRAL =      0.57 TIME LEFT: 172799.42
 STEP:  17 TIME =     0.04 SECS, INTEGRAL =      0.61 TIME LEFT: 172799.38
 STEP:  18 TIME =     0.04 SECS, INTEGRAL =      0.65 TIME LEFT: 172799.34
 STEP:  19 TIME =     0.04 SECS, INTEGRAL =      0.69 TIME LEFT: 172799.30
 STEP:  20 TIME =     0.04 SECS, INTEGRAL =      0.72 TIME LEFT: 172799.27
 STEP:  21 TIME =     0.04 SECS, INTEGRAL =      0.76 TIME LEFT: 172799.23
 STEP:  22 TIME =     0.04 SECS, INTEGRAL =      0.80 TIME LEFT: 172799.19
 STEP:  23 TIME =     0.04 SECS, INTEGRAL =      0.83 TIME LEFT: 172799.15
 STEP:  24 TIME =     0.04 SECS, INTEGRAL =      0.87 TIME LEFT: 172799.12
 STEP:  25 TIME =     0.04 SECS, INTEGRAL =      0.91 TIME LEFT: 172799.08
 STEP:  26 TIME =     0.04 SECS, INTEGRAL =      0.94 TIME LEFT: 172799.05
 STEP:  27 TIME =     0.04 SECS, INTEGRAL =      0.98 TIME LEFT: 172799.01
 STEP:  28 TIME =     0.04 SECS, INTEGRAL =      1.02 TIME LEFT: 172798.97
 STEP:  29 TIME =     0.04 SECS, INTEGRAL =      1.05 TIME LEFT: 172798.94
 STEP:  30 TIME =     0.04 SECS, INTEGRAL =      1.09 TIME LEFT: 172798.90
 STEP:  31 TIME =     0.04 SECS, INTEGRAL =      1.12 TIME LEFT: 172798.86
 STEP:  32 TIME =     0.04 SECS, INTEGRAL =      1.16 TIME LEFT: 172798.83
 STEP:  33 TIME =     0.04 SECS, INTEGRAL =      1.20 TIME LEFT: 172798.79
 STEP:  34 TIME =     0.04 SECS, INTEGRAL =      1.25 TIME LEFT: 172798.74
 STEP:  35 TIME =     0.04 SECS, INTEGRAL =      1.28 TIME LEFT: 172798.70
 STEP:  36 TIME =     0.04 SECS, INTEGRAL =      1.32 TIME LEFT: 172798.67
 STEP:  37 TIME =     0.04 SECS, INTEGRAL =      1.36 TIME LEFT: 172798.63
 STEP:  38 TIME =     0.04 SECS, INTEGRAL =      1.40 TIME LEFT: 172798.59
 STEP:  39 TIME =     0.04 SECS, INTEGRAL =      1.43 TIME LEFT: 172798.55
 STEP:  40 TIME =     0.04 SECS, INTEGRAL =      1.47 TIME LEFT: 172798.52
 STEP:  41 TIME =     0.04 SECS, INTEGRAL =      1.51 TIME LEFT: 172798.48
 STEP:  42 TIME =     0.04 SECS, INTEGRAL =      1.54 TIME LEFT: 172798.44
 STEP:  43 TIME =     0.04 SECS, INTEGRAL =      1.58 TIME LEFT: 172798.41
 STEP:  44 TIME =     0.04 SECS, INTEGRAL =      1.62 TIME LEFT: 172798.37
 STEP:  45 TIME =     0.04 SECS, INTEGRAL =      1.65 TIME LEFT: 172798.34
 STEP:  46 TIME =     0.04 SECS, INTEGRAL =      1.69 TIME LEFT: 172798.30
 STEP:  47 TIME =     0.04 SECS, INTEGRAL =      1.72 TIME LEFT: 172798.26
 STEP:  48 TIME =     0.04 SECS, INTEGRAL =      1.76 TIME LEFT: 172798.23
 STEP:  49 TIME =     0.03 SECS, INTEGRAL =      1.79 TIME LEFT: 172798.19
 STEP:  50 TIME =     0.04 SECS, INTEGRAL =      1.83 TIME LEFT: 172798.16
 STEP:  51 TIME =     0.04 SECS, INTEGRAL =      1.87 TIME LEFT: 172798.12
 STEP:  52 TIME =     0.04 SECS, INTEGRAL =      1.90 TIME LEFT: 172798.09
 STEP:  53 TIME =     0.04 SECS, INTEGRAL =      1.94 TIME LEFT: 172798.05
 STEP:  54 TIME =     0.04 SECS, INTEGRAL =      1.98 TIME LEFT: 172798.01
 STEP:  55 TIME =     0.04 SECS, INTEGRAL =      2.02 TIME LEFT: 172797.97
 STEP:  56 TIME =     0.04 SECS, INTEGRAL =      2.05 TIME LEFT: 172797.94
 STEP:  57 TIME =     0.04 SECS, INTEGRAL =      2.09 TIME LEFT: 172797.90
 STEP:  58 TIME =     0.04 SECS, INTEGRAL =      2.13 TIME LEFT: 172797.86
 STEP:  59 TIME =     0.04 SECS, INTEGRAL =      2.16 TIME LEFT: 172797.83
 STEP:  60 TIME =     0.04 SECS, INTEGRAL =      2.20 TIME LEFT: 172797.79
 STEP:  61 TIME =     0.04 SECS, INTEGRAL =      2.24 TIME LEFT: 172797.75
 STEP:  62 TIME =     0.03 SECS, INTEGRAL =      2.27 TIME LEFT: 172797.72
 STEP:  63 TIME =     0.04 SECS, INTEGRAL =      2.31 TIME LEFT: 172797.68
 STEP:  64 TIME =     0.04 SECS, INTEGRAL =      2.35 TIME LEFT: 172797.64
 STEP:  65 TIME =     0.04 SECS, INTEGRAL =      2.38 TIME LEFT: 172797.61
 STEP:  66 TIME =     0.04 SECS, INTEGRAL =      2.42 TIME LEFT: 172797.57
 STEP:  67 TIME =     0.04 SECS, INTEGRAL =      2.45 TIME LEFT: 172797.53
 STEP:  68 TIME =     0.04 SECS, INTEGRAL =      2.49 TIME LEFT: 172797.50
 STEP:  69 TIME =     0.04 SECS, INTEGRAL =      2.53 TIME LEFT: 172797.46
 STEP:  70 TIME =     0.04 SECS, INTEGRAL =      2.57 TIME LEFT: 172797.42
 STEP:  71 TIME =     0.04 SECS, INTEGRAL =      2.60 TIME LEFT: 172797.38
 STEP:  72 TIME =     0.04 SECS, INTEGRAL =      2.64 TIME LEFT: 172797.35

(To convert to Hartree/Bohr^2, multiply by (10^(-21) x N x a0^2)/(4.184 x 627.51) = 0.0642)


           FORCE MATRIX IN MILLIDYNES/ANGSTROM


                  C  1       C  2       C  3       C  4       C  5       C  6
 ------------------------------------------------------------------------------
     C    1  14.403961
     C    2   3.275554  14.403179
     C    3   3.007542   1.787816  14.930813
     C    4   1.778984   3.389683   3.547421  14.331915
     C    5   3.883893   0.500001   0.704884   0.046437  14.677008
     C    6   0.535578   4.251787   0.040257   0.546580   0.035276  14.779637
     C    7   0.834996   0.046590   4.760149   0.561186   1.124742   0.003798
     C    8   0.903073   0.029366   1.186598   0.043727   4.576235   0.003125
     C    9   0.023585   0.694297   0.005472   0.051198   0.002529   4.947891
     C   10   0.004373   0.042807   0.001275   0.007921   0.000896   0.834715
     H   11   4.570000   0.434913   0.418845   0.027216   0.424458   0.030296
     H   12   0.435812   4.389054   0.026721   0.426173   0.031683   0.430694
     H   13   0.409798   0.029238   4.568854   0.430054   0.031098   0.003357
     H   14   0.030568   0.440168   0.451985   4.709482   0.003646   0.032440
     H   15   0.027588   0.452055   0.444543   4.672716   0.001672   0.031301
     H   16   0.443716   0.033503   0.034211   0.002270   4.493086   0.002071
     H   17   0.438101   0.032704   0.023315   0.005558   4.522131   0.003818
     H   18   0.046721   0.438891   0.003066   0.020063   0.006082   4.413483
     H   19   0.025326   0.446100   0.002538   0.019499   0.001289   4.420319
     H   20   0.042903   0.003131   0.114907   0.016930   0.410972   0.001049
     H   21   0.041391   0.002614   0.415969   0.005825   0.114755   0.000883
     H   22   0.002467   0.028234   0.000846   0.001951   0.000904   0.432908
     H   23   0.000601   0.010499   0.000533   0.001959   0.000532   0.097035
     H   24   0.000860   0.017829   0.000440   0.002814   0.000357   0.137907


                  C  7       C  8       C  9       C 10       H 11       H 12
 ------------------------------------------------------------------------------
     C    7  18.319975
     C    8  10.479095  18.242415
     C    9   0.001749   0.001751  18.178394
     C   10   0.002164   0.002945  11.079459  18.039720
     H   11   0.033485   0.033740   0.004519   0.003149   5.077301
     H   12   0.003347   0.002124   0.040369   0.002045   0.027162   4.895929
     H   13   0.417607   0.039993   0.000845   0.000302   0.015247   0.001263
     H   14   0.020290   0.004469   0.006132   0.001147   0.001241   0.026862
     H   15   0.034856   0.004568   0.002646   0.000893   0.002666   0.030865
     H   16   0.038601   0.431911   0.000857   0.000433   0.019849   0.027536
     H   17   0.037589   0.428779   0.000558   0.000622   0.032725   0.002372
     H   18   0.000830   0.000599   0.411542   0.033778   0.002868   0.023707
     H   19   0.000790   0.000830   0.458857   0.047797   0.025212   0.041294
     H   20   0.447575   5.014018   0.000637   0.000700   0.004035   0.000785
     H   21   5.027546   0.448818   0.000647   0.000539   0.003580   0.000656
     H   22   0.000841   0.000550   4.783892   0.453621   0.001074   0.027367
     H   23   0.000499   0.000498   0.489982   5.071972   0.000847   0.000662
     H   24   0.000457   0.000522   0.462136   5.108764   0.000716   0.000635


                  H 13       H 14       H 15       H 16       H 17       H 18
 ------------------------------------------------------------------------------
     H   13   5.076625
     H   14   0.028347   5.327184
     H   15   0.024641   0.547013   5.297323
     H   16   0.004508   0.000595   0.000479   5.106399
     H   17   0.001072   0.000696   0.000356   0.565740   5.123211
     H   18   0.000650   0.001997   0.012610   0.000472   0.000841   5.003362
     H   19   0.000694   0.001254   0.015003   0.000552   0.000371   0.560402
     H   20   0.012972   0.001060   0.002183   0.014182   0.014651   0.000251
     H   21   0.013765   0.003703   0.001110   0.015317   0.015913   0.000187
     H   22   0.000317   0.000447   0.000619   0.000573   0.000297   0.018160
     H   23   0.000150   0.000325   0.000269   0.000147   0.000311   0.011797
     H   24   0.000136   0.000488   0.000215   0.000155   0.000174   0.017923


                  H 19       H 20       H 21       H 22       H 23       H 24
 ------------------------------------------------------------------------------
     H   19   5.031482
     H   20   0.000268   5.408974
     H   21   0.000210   0.047414   5.423006
     H   22   0.038906   0.000250   0.000200   5.157744
     H   23   0.028977   0.000203   0.000220   0.117595   5.468305
     H   24   0.003084   0.000107   0.000115   0.080138   0.423665   5.498169


          HEAT OF FORMATION =      29.095494 KCALS/MOLE

          ZERO POINT ENERGY     132.714 KCAL/MOL


           NORMAL COORDINATE ANALYSIS (Total motion = 1 Angstrom)


   Root No.       1         2         3         4         5         6         7         8

                 1 A       2 A       3 A       4 A       5 A       6 A       7 A       8 A   

                  60.4      76.9     115.3     189.1     272.5     306.1     374.3     395.1
  
           1   -0.0236    0.0012    0.0007   -0.0188   -0.0113   -0.0231   -0.0132   -0.0175
           2    0.0172   -0.0151   -0.0049   -0.0104   -0.0068    0.0229   -0.0146   -0.0022
           3    0.0053   -0.0266   -0.0071    0.0008    0.0211    0.0211   -0.0014    0.0123
           4   -0.0234    0.0011    0.0007   -0.0169   -0.0129   -0.0245   -0.0081   -0.0208
           5   -0.0087   -0.0139   -0.0160   -0.0129   -0.0055   -0.0056   -0.0153   -0.0142
           6    0.0129   -0.0159   -0.0002   -0.0102   -0.0024    0.0227    0.0278   -0.0036
           7    0.0027   -0.0009    0.0110   -0.0134   -0.0104   -0.0089   -0.0001    0.0111
           8    0.0172   -0.0150   -0.0050   -0.0099   -0.0064    0.0236   -0.0143   -0.0005
           9   -0.0152    0.0085   -0.0017    0.0118    0.0262   -0.0084   -0.0066    0.0083
          10    0.0020   -0.0005    0.0116   -0.0151   -0.0073   -0.0071   -0.0031    0.0095
          11   -0.0083   -0.0137   -0.0156   -0.0131   -0.0078   -0.0034   -0.0206   -0.0209
          12   -0.0026   -0.0083   -0.0297    0.0192   -0.0455   -0.0083    0.0010    0.0123
          13   -0.0240    0.0082   -0.0002   -0.0296    0.0104    0.0346   -0.0113    0.0202
          14    0.0116    0.0157    0.0065    0.0065   -0.0025    0.0074    0.0044   -0.0099
          15    0.0073   -0.0406   -0.0109    0.0000    0.0092   -0.0053   -0.0150   -0.0031
          16   -0.0353   -0.0074   -0.0123    0.0180   -0.0089    0.0252    0.0393   -0.0254
          17   -0.0067   -0.0080    0.0099   -0.0021    0.0143   -0.0198    0.0234    0.0053
          18    0.0204   -0.0078    0.0218   -0.0237    0.0035   -0.0111    0.0261   -0.0044
          19    0.0194   -0.0148   -0.0123    0.0216   -0.0052   -0.0230    0.0171    0.0260
          20    0.0103    0.0163    0.0068    0.0045   -0.0013    0.0093    0.0018   -0.0068
          21   -0.0252    0.0247    0.0132   -0.0004    0.0266   -0.0075   -0.0092    0.0018
          22    0.0047   -0.0101   -0.0191    0.0234    0.0572    0.0025   -0.0176   -0.0079
          23    0.0074    0.0324    0.0126    0.0124   -0.0007   -0.0008    0.0110   -0.0063
          24   -0.0129   -0.0022    0.0083   -0.0130   -0.0073   -0.0058   -0.0033    0.0185
          25    0.0141   -0.0137    0.0427    0.0362   -0.0170    0.0168   -0.0068   -0.0013
          26   -0.0059   -0.0091    0.0096   -0.0026    0.0154   -0.0231    0.0274    0.0118
          27    0.0039    0.0166    0.0233    0.0053   -0.0089    0.0028    0.0079   -0.0324
          28    0.0625    0.0334   -0.0208   -0.0047    0.0030   -0.0024    0.0004    0.0033
          29   -0.0320    0.0095   -0.0040    0.0228    0.0030   -0.0078   -0.0031    0.0398
          30    0.0034    0.0514   -0.0144    0.0087   -0.0113    0.0078   -0.0157   -0.0100
          31   -0.0368   -0.0045   -0.0074   -0.0123   -0.0095   -0.0495   -0.0282   -0.0323
          32    0.0369   -0.0361   -0.0053   -0.0175   -0.0160    0.0425   -0.0131    0.0056
          33    0.0093   -0.0410   -0.0113   -0.0001    0.0164    0.0168   -0.0090    0.0083
          34   -0.0269    0.0099    0.0048   -0.0286   -0.0250   -0.0500   -0.0106   -0.0317
          35   -0.0230   -0.0133   -0.0397   -0.0032   -0.0310   -0.0160   -0.0308   -0.0217
          36    0.0176   -0.0117    0.0127   -0.0196    0.0026    0.0133    0.0324   -0.0059
          37    0.0040    0.0085    0.0319   -0.0235    0.0195    0.0053   -0.0035    0.0143
          38    0.0367   -0.0362   -0.0066   -0.0122   -0.0050    0.0453   -0.0109    0.0147
          39   -0.0259    0.0263    0.0111    0.0071    0.0407   -0.0130   -0.0104    0.0010
          40    0.0172   -0.0115   -0.0023   -0.0093   -0.0559    0.0009    0.0028    0.0236
          41   -0.0248   -0.0099   -0.0370    0.0050   -0.0389   -0.0309   -0.0394   -0.0163
          42   -0.0031   -0.0124   -0.0493    0.0324   -0.0906   -0.0188   -0.0064    0.0230
          43    0.0018    0.0100    0.0330   -0.0195    0.0456   -0.0014   -0.0038    0.0132
          44   -0.0069   -0.0164    0.0002   -0.0319    0.0224    0.0089   -0.0041   -0.0420
          45   -0.0031   -0.0122   -0.0480    0.0309   -0.0872   -0.0175   -0.0065    0.0216
          46   -0.0329    0.0184    0.0054   -0.0552    0.0064    0.0903   -0.0042    0.0716
          47   -0.0097    0.0448    0.0245   -0.0283   -0.0316    0.0491    0.0235    0.0446
          48    0.0203   -0.0605   -0.0241    0.0103    0.0357    0.0074   -0.0276   -0.0091
          49   -0.0361    0.0167    0.0081   -0.0561   -0.0130    0.0591   -0.0055    0.0513
          50    0.0320   -0.0039   -0.0085    0.0496    0.0291   -0.0444   -0.0080   -0.0705
          51    0.0102   -0.0593   -0.0156    0.0021   -0.0092   -0.0486   -0.0266   -0.0419
          52   -0.0465   -0.0051   -0.0266    0.0164   -0.0091    0.0329    0.0490   -0.0363
          53    0.0222   -0.0141    0.0475    0.0114    0.0145   -0.0289    0.0084    0.0321
          54    0.0490   -0.0097    0.0528   -0.0565    0.0017   -0.0712   -0.0388    0.0226
          55   -0.0664   -0.0072   -0.0524    0.0387   -0.0086    0.0789    0.0938   -0.0545
          56   -0.0322    0.0074   -0.0053    0.0058    0.0157   -0.0127    0.0435   -0.0162
          57    0.0132   -0.0133    0.0060   -0.0152    0.0027    0.0141    0.0458   -0.0106
          58    0.0111   -0.0173   -0.0351    0.0548    0.1191    0.0010   -0.0365   -0.0372
          59    0.0026    0.0551    0.0207    0.0222    0.0018   -0.0147    0.0210   -0.0018
          60   -0.0160    0.0014    0.0161   -0.0283   -0.0374   -0.0053    0.0059    0.0329
          61    0.0408   -0.0267   -0.0221    0.0507   -0.0226   -0.0556    0.0510    0.0504
          62    0.0081    0.0236    0.0096    0.0073    0.0009    0.0062    0.0049   -0.0086
          63   -0.0404    0.0547    0.0263   -0.0009    0.0404   -0.0068   -0.0102   -0.0130
          64    0.0119   -0.0566    0.1372    0.0824   -0.0441    0.0286   -0.0709   -0.0083
          65    0.0168   -0.0262    0.0215   -0.0210    0.0243   -0.0366    0.0438    0.0124
          66   -0.0072    0.0075    0.0549    0.0320   -0.0239    0.0137   -0.0257   -0.0343
          67    0.0671    0.0763   -0.1135   -0.0510    0.0311   -0.0155    0.0682    0.0168
          68   -0.0565    0.0276   -0.0172    0.0486   -0.0101    0.0085   -0.0402    0.0771
          69    0.0150    0.0613   -0.0461   -0.0199    0.0050   -0.0038    0.0255   -0.0188
          70    0.1017    0.0327    0.0152    0.0044   -0.0061   -0.0081   -0.0607   -0.0073
          71   -0.0308    0.0081   -0.0035    0.0208    0.0042   -0.0090    0.0006    0.0381
          72   -0.0086    0.0728   -0.0165    0.0416   -0.0306    0.0250   -0.0849    0.0277


   Root No.       9        10        11        12        13        14        15        16

                 9 A      10 A      11 A      12 A      13 A      14 A      15 A      16 A   

                 474.3     498.8     613.0     664.6     746.9     771.9     810.1     847.6
  
           1   -0.0050    0.0065   -0.0026    0.0224    0.0045    0.0040    0.0199   -0.0216
           2   -0.0018   -0.0096   -0.0053   -0.0133   -0.0189    0.0064    0.0349    0.0078
           3    0.0065    0.0029   -0.0052    0.0257   -0.0306   -0.0259   -0.0288    0.0034
           4   -0.0072    0.0116   -0.0045    0.0218   -0.0180    0.0073    0.0044    0.0221
           5    0.0096    0.0149    0.0081   -0.0263   -0.0036   -0.0061   -0.0204   -0.0004
           6   -0.0252    0.0263    0.0278   -0.0148    0.0076   -0.0020   -0.0082   -0.0112
           7   -0.0094   -0.0185    0.0119   -0.0233   -0.0015   -0.0068   -0.0237   -0.0019
           8   -0.0006   -0.0117   -0.0055   -0.0163    0.0153    0.0214    0.0393    0.0122
           9    0.0157    0.0062   -0.0011   -0.0223   -0.0287   -0.0043    0.0410    0.0051
          10   -0.0134   -0.0226    0.0134   -0.0264   -0.0229   -0.0011   -0.0135   -0.0120
          11    0.0123    0.0200    0.0030   -0.0338    0.0010   -0.0096   -0.0279   -0.0053
          12   -0.0098   -0.0232    0.0029   -0.0047   -0.0059   -0.0024    0.0154   -0.0058
          13    0.0115   -0.0031   -0.0080    0.0241    0.0146   -0.0185    0.0189   -0.0221
          14   -0.0048    0.0060   -0.0057    0.0315   -0.0458   -0.0251    0.0043   -0.0143
          15    0.0016    0.0002   -0.0106    0.0353   -0.0027   -0.0001   -0.0129   -0.0091
          16   -0.0056    0.0039    0.0005    0.0052   -0.0078    0.0077    0.0039    0.0385
          17    0.0114   -0.0203    0.0011    0.0026   -0.0006   -0.0011   -0.0016    0.0022
          18   -0.0245    0.0150    0.0081    0.0067    0.0007    0.0112    0.0107    0.0058
          19    0.0350    0.0256    0.0008   -0.0111    0.0170   -0.0273    0.0022    0.0125
          20   -0.0020    0.0032   -0.0082    0.0303    0.0550    0.0229   -0.0138   -0.0006
          21   -0.0030   -0.0096    0.0060   -0.0245   -0.0067    0.0094   -0.0027    0.0009
          22   -0.0075   -0.0125   -0.0011   -0.0010    0.0387   -0.0048   -0.0053    0.0111
          23   -0.0009    0.0087   -0.0012    0.0152    0.0016   -0.0033   -0.0123   -0.0013
          24    0.0184    0.0048   -0.0042   -0.0011    0.0611    0.0327   -0.0069    0.0022
          25   -0.0127    0.0112   -0.0352   -0.0182    0.0032   -0.0021   -0.0019   -0.0046
          26    0.0079   -0.0247    0.0070    0.0083   -0.0012   -0.0004    0.0030   -0.0022
          27    0.0277   -0.0207   -0.0202   -0.0079   -0.0004   -0.0029   -0.0020   -0.0007
          28    0.0001   -0.0010    0.0077    0.0024    0.0004    0.0006    0.0008   -0.0029
          29   -0.0278    0.0100    0.0080    0.0057    0.0001    0.0009    0.0031   -0.0019
          30    0.0058    0.0031   -0.0042   -0.0036   -0.0008   -0.0014   -0.0028    0.0026
          31    0.0080    0.0100   -0.0158    0.0521   -0.0120    0.0070    0.0205   -0.0284
          32   -0.0134   -0.0252   -0.0052   -0.0176    0.0117    0.0276    0.0121    0.0351
          33    0.0062   -0.0036   -0.0119    0.0393   -0.0217   -0.0129   -0.0407    0.0128
          34   -0.0154    0.0284    0.0017    0.0240    0.0036    0.0295    0.0242    0.0142
          35    0.0158    0.0188    0.0029   -0.0379    0.0022   -0.0114   -0.0389    0.0054
          36   -0.0315    0.0318    0.0317   -0.0081    0.0140    0.0108    0.0090   -0.0156
          37   -0.0208   -0.0359    0.0179   -0.0426   -0.0255    0.0162   -0.0377    0.0101
          38    0.0004   -0.0223   -0.0087   -0.0151   -0.0215    0.0043    0.0437    0.0497
          39    0.0077    0.0019    0.0044   -0.0338   -0.0204    0.0187    0.0289   -0.0098
          40   -0.0415   -0.0753    0.0154   -0.0047    0.0010    0.0234   -0.0861   -0.0259
          41    0.0259   -0.0162   -0.0266   -0.0032   -0.0209   -0.0071   -0.0465    0.0331
          42   -0.0188   -0.0749   -0.0130    0.0261   -0.0051    0.0135   -0.0364    0.0075
          43    0.0075    0.0068    0.0189   -0.0681   -0.0446   -0.0132    0.0847   -0.0137
          44    0.0079    0.0814    0.0288   -0.0568    0.0178   -0.0268   -0.0461   -0.0269
          45   -0.0184   -0.0704   -0.0129    0.0279   -0.0039    0.0128   -0.0266    0.0066
          46    0.0486   -0.0016   -0.0226    0.0269   -0.0591    0.0098   -0.0455    0.0237
          47    0.0419    0.0238   -0.0189    0.0400   -0.1066    0.0390   -0.0642    0.0112
          48   -0.0111   -0.0168   -0.0107    0.0291   -0.0147   -0.0415   -0.0055    0.0103
          49    0.0394    0.0055   -0.0180    0.0280   -0.0273    0.0257   -0.0015   -0.0155
          50   -0.0554   -0.0065    0.0114    0.0281    0.0245   -0.0972    0.0597   -0.0434
          51   -0.0225    0.0025   -0.0043    0.0407    0.0234   -0.0073    0.0714   -0.0719
          52    0.0037   -0.0007    0.0284    0.0091   -0.0054    0.0117    0.0082    0.0238
          53   -0.0081   -0.0160   -0.0659   -0.0163    0.0035   -0.0128   -0.0099    0.0135
          54   -0.0578    0.0492   -0.0556    0.0353   -0.0449    0.0121   -0.0028    0.1347
          55    0.0204   -0.0152    0.0798   -0.0127    0.0274    0.0137    0.0175   -0.0628
          56    0.0468   -0.0549    0.0253    0.0147    0.0031    0.0007    0.0087   -0.0297
          57   -0.0247    0.0182    0.0397   -0.0068    0.0171    0.0135    0.0135   -0.0341
          58   -0.0254   -0.0214   -0.0080   -0.0030   -0.0901    0.2252   -0.0711   -0.0365
          59    0.0033    0.0115    0.0127   -0.0383   -0.0033   -0.0090   -0.0109    0.0297
          60    0.0274    0.0093   -0.0009    0.0000    0.1245   -0.0798    0.0248    0.0255
          61    0.1027    0.1003   -0.0146    0.0000   -0.1030    0.1380    0.0157   -0.0683
          62   -0.0038    0.0050   -0.0062    0.0341    0.0474    0.0064   -0.0289   -0.0020
          63   -0.0331   -0.0296    0.0183   -0.0139    0.0073   -0.1086   -0.0603    0.0236
          64    0.0221    0.0070    0.0397   -0.0014    0.0056   -0.0046   -0.0063   -0.0597
          65    0.0052   -0.0295    0.0142    0.0134    0.0011    0.0045    0.0104   -0.0138
          66    0.0410   -0.0187    0.0055   -0.0038   -0.0004   -0.0061   -0.0071   -0.0169
          67   -0.0506    0.0104   -0.1358   -0.0495    0.0104   -0.0097   -0.0068   -0.0478
          68   -0.0802    0.0624    0.0155    0.0020    0.0062    0.0092    0.0078   -0.0123
          69    0.0054   -0.0120   -0.0644   -0.0231    0.0008   -0.0087   -0.0077   -0.0112
          70    0.0696   -0.0297    0.2174    0.0902   -0.0169    0.0163    0.0150    0.0583
          71   -0.0259    0.0071    0.0049    0.0050    0.0001    0.0003    0.0030   -0.0028
          72   -0.0274    0.0547    0.0836    0.0238   -0.0011    0.0136    0.0051    0.0198


   Root No.      17        18        19        20        21        22        23        24

                17 A      18 A      19 A      20 A      21 A      22 A      23 A      24 A   

                 898.6     902.5     933.5     947.4     959.0     972.7     990.1    1008.0
  
           1   -0.0007   -0.0015   -0.0073    0.0058   -0.0113    0.0114   -0.0027    0.0095
           2    0.0088    0.0006    0.0025    0.0349    0.0129   -0.0042    0.0000    0.0074
           3    0.0004    0.0056    0.0053   -0.0177   -0.0039    0.0008   -0.0050   -0.0123
           4    0.0033   -0.0101    0.0121    0.0023    0.0051   -0.0140   -0.0123   -0.0039
           5   -0.0048    0.0005    0.0031   -0.0163    0.0013   -0.0069   -0.0015    0.0017
           6   -0.0141    0.0052    0.0043    0.0003   -0.0038    0.0048   -0.0021    0.0041
           7    0.0003    0.0017   -0.0018    0.0014   -0.0022    0.0048   -0.0053   -0.0072
           8    0.0032   -0.0043    0.0014   -0.0207   -0.0186    0.0063   -0.0071    0.0056
           9    0.0034   -0.0042   -0.0012   -0.0078   -0.0063    0.0006    0.0082    0.0041
          10   -0.0115   -0.0006   -0.0050   -0.0098    0.0122   -0.0081    0.0230   -0.0010
          11    0.0091    0.0088   -0.0064    0.0056   -0.0040    0.0068    0.0196   -0.0051
          12   -0.0276   -0.0157   -0.0057   -0.0040    0.0168   -0.0004   -0.0064   -0.0064
          13   -0.0025    0.0266    0.0028   -0.0005    0.0049    0.0090   -0.0054   -0.0169
          14   -0.0007   -0.0005   -0.0051   -0.0057   -0.0066    0.0049    0.0029    0.0019
          15   -0.0033   -0.0125   -0.0076    0.0076    0.0025   -0.0040    0.0048    0.0110
          16   -0.0095    0.0140    0.0054   -0.0051    0.0116    0.0170    0.0093    0.0016
          17    0.0064    0.0020   -0.0113   -0.0103    0.0160    0.0114   -0.0033    0.0059
          18    0.0275   -0.0047   -0.0047    0.0011   -0.0050   -0.0052    0.0118   -0.0032
          19    0.0071   -0.0144   -0.0065    0.0150   -0.0121    0.0205   -0.0058   -0.0059
          20   -0.0115   -0.0050   -0.0012   -0.0087    0.0103   -0.0090    0.0141   -0.0043
          21    0.0102    0.0145    0.0071    0.0102   -0.0002   -0.0031   -0.0148    0.0082
          22    0.0035   -0.0042    0.0024   -0.0042    0.0020   -0.0165    0.0073    0.0204
          23   -0.0005    0.0005    0.0007    0.0039    0.0029   -0.0011   -0.0033   -0.0010
          24   -0.0033    0.0016   -0.0001   -0.0036   -0.0024    0.0087    0.0001   -0.0131
          25   -0.0014    0.0035   -0.0244    0.0043   -0.0100   -0.0123   -0.0010    0.0024
          26   -0.0067   -0.0023    0.0058    0.0029   -0.0011   -0.0033   -0.0031   -0.0045
          27   -0.0029    0.0013   -0.0111   -0.0012    0.0023   -0.0033   -0.0046   -0.0012
          28    0.0036   -0.0020   -0.0078    0.0008   -0.0027   -0.0124   -0.0084   -0.0174
          29   -0.0168    0.0003    0.0183    0.0151   -0.0232   -0.0108    0.0069   -0.0024
          30   -0.0085    0.0035    0.0017    0.0034   -0.0086   -0.0049    0.0009   -0.0039
          31    0.0090   -0.0399   -0.0236   -0.0442   -0.0480   -0.0059   -0.0018    0.0581
          32    0.0142    0.0079    0.0184    0.1488    0.0722   -0.0119   -0.0320   -0.0233
          33    0.0076   -0.0099    0.0049    0.0213    0.0108   -0.0119   -0.0211   -0.0041
          34    0.0060   -0.0520    0.0131   -0.0021   -0.0133   -0.0590   -0.0613    0.0310
          35   -0.0481   -0.0219    0.0038   -0.0427    0.0158   -0.0360   -0.0678   -0.0041
          36    0.0086   -0.0043    0.0050    0.0102   -0.0190   -0.0034    0.0060    0.0220
          37    0.0230    0.0281    0.0214   -0.0514   -0.0378   -0.0123   -0.0415    0.0084
          38    0.0285   -0.0002    0.0278   -0.0864   -0.0840    0.0231   -0.1073   -0.0153
          39    0.0022    0.0092   -0.0032    0.0042    0.0131   -0.0191    0.0461    0.0259
          40    0.0188    0.0527    0.0128   -0.0227   -0.0196    0.0002   -0.0343    0.0763
          41    0.1128    0.0361   -0.0012    0.0198   -0.0410   -0.0010    0.1189   -0.0597
          42    0.0501    0.0314    0.0075   -0.0021   -0.0230    0.0006    0.0175    0.0079
          43   -0.0730   -0.0617   -0.0326   -0.0459    0.0468   -0.0193    0.0945   -0.0596
          44   -0.0720   -0.0137   -0.0045    0.0217    0.0361    0.0125   -0.0853    0.0237
          45    0.0460    0.0275    0.0076    0.0043   -0.0217    0.0022    0.0111    0.0086
          46    0.0070   -0.0422   -0.0037    0.0125    0.0174   -0.0503    0.0053    0.0329
          47   -0.0020   -0.0792   -0.0322   -0.0027   -0.0380    0.0172    0.0220    0.0438
          48    0.0079    0.0018    0.0152    0.0180    0.0486   -0.0778   -0.0059    0.0170
          49   -0.0017   -0.0187   -0.0174    0.0366   -0.0031    0.0228    0.0022    0.0193
          50   -0.0034    0.0835    0.0225   -0.0463    0.0036    0.0063   -0.0143   -0.0574
          51   -0.0097    0.0340   -0.0205    0.0649   -0.0040    0.0739   -0.0104    0.0011
          52    0.0133   -0.0047    0.0214   -0.0027    0.0052   -0.0106    0.0029   -0.0280
          53   -0.0464    0.0464   -0.0733   -0.0121    0.0274    0.0871    0.0143    0.1073
          54   -0.0351    0.0377    0.0470   -0.0217    0.0314    0.0258    0.0177   -0.0429
          55    0.0625   -0.0325   -0.0143    0.0122   -0.0307   -0.0312    0.0134    0.0094
          56    0.0531   -0.0348   -0.0160   -0.0181    0.0507   -0.0162   -0.0482   -0.0418
          57    0.0466   -0.0145   -0.0133    0.0124   -0.0398   -0.0192    0.0311    0.0192
          58   -0.0270   -0.0279   -0.0278    0.0261   -0.0254    0.0916   -0.0237   -0.0779
          59    0.0279    0.0121    0.0200    0.0345   -0.0118    0.0071   -0.0648    0.0126
          60    0.0121    0.0135    0.0149   -0.0171    0.0111   -0.0440    0.0143    0.0352
          61    0.0119    0.1278    0.0494   -0.0049    0.0555   -0.0822   -0.0211    0.0347
          62   -0.0075   -0.0042   -0.0018    0.0147    0.0174   -0.0072    0.0041   -0.0039
          63    0.0231   -0.0329   -0.0150    0.1008    0.0006    0.0402   -0.0440   -0.0044
          64    0.0515   -0.0701    0.2067   -0.0240    0.0437    0.0478    0.0108   -0.0126
          65    0.0391   -0.0205   -0.0180   -0.0137    0.0273   -0.0119   -0.0203   -0.0265
          66   -0.0024   -0.0192    0.0895   -0.0053    0.0111    0.0246    0.0078    0.0032
          67    0.0425   -0.0448    0.1258   -0.0264    0.0545    0.0735    0.0259    0.0585
          68    0.0872   -0.0203   -0.0613   -0.0433    0.0729    0.0157   -0.0287   -0.0117
          69   -0.0321   -0.0057    0.0850    0.0143   -0.0217    0.0199    0.0283    0.0305
          70   -0.0519    0.0302    0.0273    0.0189   -0.0163    0.0427    0.0455    0.0692
          71   -0.0222    0.0004    0.0235    0.0193   -0.0298   -0.0148    0.0080   -0.0046
          72    0.0900   -0.0025   -0.0817   -0.0639    0.1047    0.0607   -0.0141    0.0333


   Root No.      25        26        27        28        29        30        31        32

                25 A      26 A      27 A      28 A      29 A      30 A      31 A      32 A   

                1029.4    1040.7    1044.5    1052.4    1065.3    1082.1    1098.0    1124.8
  
           1   -0.0030   -0.0110    0.0174    0.0034   -0.0106    0.0010    0.0018    0.0066
           2   -0.0079    0.0089   -0.0106   -0.0051   -0.0060    0.0026   -0.0102    0.0052
           3    0.0031   -0.0026    0.0248   -0.0055   -0.0041    0.0168    0.0126    0.0188
           4    0.0046   -0.0008   -0.0041   -0.0015   -0.0036    0.0127   -0.0003    0.0122
           5   -0.0096    0.0315   -0.0031   -0.0067    0.0180    0.0186   -0.0028    0.0011
           6   -0.0055    0.0041   -0.0019    0.0039    0.0077    0.0038    0.0038   -0.0055
           7    0.0173   -0.0237   -0.0066    0.0143    0.0030   -0.0153    0.0085   -0.0114
           8   -0.0024   -0.0034    0.0045   -0.0002   -0.0071   -0.0077    0.0027    0.0004
           9   -0.0088    0.0036   -0.0111   -0.0055   -0.0009    0.0000    0.0071    0.0168
          10   -0.0104    0.0155    0.0096   -0.0106   -0.0074    0.0104   -0.0102   -0.0003
          11    0.0035   -0.0208    0.0073    0.0002   -0.0159   -0.0170   -0.0016   -0.0002
          12    0.0098   -0.0151    0.0114    0.0061   -0.0039   -0.0122   -0.0009    0.0064
          13    0.0064    0.0113   -0.0063   -0.0017    0.0021    0.0015    0.0048   -0.0004
          14   -0.0009   -0.0192   -0.0290    0.0004   -0.0013    0.0071   -0.0069   -0.0204
          15   -0.0015   -0.0007   -0.0092    0.0044    0.0065   -0.0116   -0.0008   -0.0208
          16   -0.0093    0.0007   -0.0028    0.0089   -0.0001   -0.0081   -0.0020   -0.0060
          17   -0.0036    0.0047   -0.0016    0.0121    0.0004    0.0050   -0.0008    0.0003
          18    0.0048   -0.0001    0.0027   -0.0021   -0.0036   -0.0039   -0.0031    0.0036
          19   -0.0039    0.0146   -0.0171   -0.0050   -0.0040    0.0026    0.0049    0.0055
          20    0.0011    0.0085    0.0057    0.0009    0.0061   -0.0089    0.0044    0.0162
          21    0.0009   -0.0093    0.0047    0.0017   -0.0033    0.0038   -0.0132   -0.0196
          22   -0.0102   -0.0263    0.0106    0.0000    0.0111    0.0048   -0.0094   -0.0131
          23    0.0025    0.0115    0.0134    0.0018    0.0022   -0.0076    0.0095    0.0043
          24    0.0033   -0.0021   -0.0191   -0.0039   -0.0138    0.0149   -0.0110   -0.0079
          25    0.0162    0.0015    0.0001   -0.0284    0.0041    0.0010    0.0000    0.0004
          26   -0.0016   -0.0033    0.0006   -0.0057    0.0013   -0.0024    0.0010   -0.0020
          27    0.0045   -0.0012    0.0002   -0.0151    0.0035   -0.0012    0.0011   -0.0019
          28   -0.0253   -0.0019   -0.0001    0.0243   -0.0034   -0.0013   -0.0002   -0.0003
          29    0.0037   -0.0019    0.0009   -0.0049   -0.0018   -0.0020   -0.0004    0.0010
          30   -0.0090    0.0024   -0.0001    0.0135   -0.0011    0.0012   -0.0004    0.0007
          31   -0.0149    0.0477    0.0833   -0.0003   -0.0577   -0.0296    0.0009    0.0854
          32    0.0284   -0.0680    0.0267    0.0185    0.0298    0.1123    0.0346    0.0657
          33    0.0165   -0.0148    0.0801    0.0056   -0.0075    0.0617    0.0385    0.0930
          34    0.0619    0.0329   -0.0712    0.0551    0.0408    0.0638    0.0143   -0.0461
          35    0.0296    0.0419   -0.0398   -0.0088    0.0983    0.0471    0.0313   -0.0486
          36    0.0043    0.0150   -0.0167    0.0318   -0.0071    0.0149   -0.0046   -0.0104
          37    0.0345   -0.0303   -0.0653    0.0438    0.1113   -0.0855    0.1054    0.1161
          38    0.0498    0.0082    0.0710    0.0271    0.0262   -0.0303   -0.1168   -0.0164
          39   -0.0302   -0.0080   -0.0848   -0.0052    0.0402   -0.0265    0.1337    0.1009
          40   -0.0975    0.0550   -0.0411   -0.0754   -0.0402    0.0327   -0.0090    0.0160
          41    0.0542   -0.0082    0.0166    0.0479    0.0353   -0.0049    0.0104   -0.0247
          42   -0.0126    0.0144   -0.0125   -0.0042    0.0054    0.0072    0.0068    0.0031
          43    0.0384    0.0383    0.0781    0.0270    0.0338    0.0216   -0.0204   -0.0351
          44   -0.0041   -0.0952   -0.0179   -0.0206   -0.0694   -0.0674    0.0006    0.0463
          45   -0.0110    0.0119   -0.0112   -0.0017    0.0038    0.0077    0.0042    0.0013
          46    0.0225    0.0358   -0.0355    0.0232   -0.0524   -0.0493    0.0141   -0.0358
          47   -0.0376   -0.1014   -0.0095   -0.0060    0.0371    0.0452   -0.0387   -0.0328
          48    0.0546    0.1112   -0.0611    0.0368   -0.0902   -0.1011    0.0431   -0.0465
          49   -0.0267    0.0117    0.0310   -0.0043    0.0590   -0.0380    0.0278   -0.0277
          50    0.0372   -0.0135   -0.0703   -0.0017   -0.0539    0.0613   -0.0257    0.0091
          51   -0.0497    0.0279    0.0472   -0.0172    0.1369   -0.0491    0.0558   -0.0649
          52   -0.0174   -0.0042   -0.0034   -0.0341    0.0064   -0.0193   -0.0033   -0.0119
          53    0.0372    0.0223   -0.0001    0.1570   -0.0225    0.0522    0.0034    0.0250
          54   -0.0545   -0.0046    0.0007   -0.0427    0.0096   -0.0465   -0.0059   -0.0225
          55    0.0263    0.0159    0.0018    0.0133   -0.0030    0.0190   -0.0055    0.0144
          56   -0.0123   -0.0417   -0.0039   -0.0625   -0.0050   -0.0281    0.0067   -0.0059
          57    0.0263    0.0257    0.0067    0.0289   -0.0031    0.0228   -0.0075    0.0172
          58    0.0265    0.0515   -0.0431   -0.0056   -0.0352    0.0110    0.0052    0.0016
          59    0.0017    0.0529    0.1423   -0.0063   -0.0602    0.0159    0.2002   -0.1161
          60   -0.0147   -0.0394    0.0078   -0.0012    0.0082    0.0122   -0.0174   -0.0182
          61    0.0179   -0.0142    0.0566    0.0222    0.0304   -0.0334   -0.1039    0.0056
          62    0.0048    0.0359    0.0194    0.0052    0.0241   -0.0307   -0.0560    0.0401
          63    0.0052    0.0930    0.0204    0.0067    0.0470   -0.0563   -0.1876    0.0607
          64   -0.0464   -0.0012   -0.0011    0.0678   -0.0066   -0.0032   -0.0004   -0.0011
          65   -0.0008   -0.0180    0.0054   -0.0449    0.0102   -0.0174    0.0077   -0.0073
          66   -0.0203    0.0047   -0.0025    0.0408   -0.0045    0.0043   -0.0021   -0.0001
          67    0.0809    0.0007    0.0000   -0.0830    0.0116    0.0012    0.0016   -0.0010
          68   -0.0103   -0.0101    0.0002   -0.0123    0.0032   -0.0066    0.0028   -0.0050
          69    0.0389    0.0071    0.0002   -0.0259    0.0032    0.0044   -0.0010    0.0027
          70    0.1034    0.0005    0.0012   -0.0946    0.0070   -0.0018   -0.0002    0.0014
          71    0.0026   -0.0027    0.0012   -0.0047   -0.0025   -0.0029   -0.0004    0.0011
          72    0.0280    0.0057   -0.0018   -0.0242    0.0111    0.0069    0.0014   -0.0031


   Root No.      33        34        35        36        37        38        39        40

                33 A      34 A      35 A      36 A      37 A      38 A      39 A      40 A   

                1139.3    1156.7    1170.0    1186.6    1208.1    1216.5    1229.5    1234.3
  
           1    0.0106    0.0228   -0.0139    0.0202    0.0176   -0.0289    0.0054   -0.0030
           2   -0.0073   -0.0245   -0.0232   -0.0025    0.0044    0.0311   -0.0082    0.0070
           3   -0.0072   -0.0024    0.0172    0.0032   -0.0010    0.0120   -0.0246   -0.0076
           4   -0.0281   -0.0195    0.0043    0.0133    0.0065   -0.0168   -0.0261   -0.0103
           5   -0.0057   -0.0025   -0.0332   -0.0045    0.0003   -0.0179   -0.0058   -0.0086
           6   -0.0140    0.0208   -0.0224    0.0298    0.0176    0.0106    0.0079   -0.0155
           7    0.0119    0.0086   -0.0063   -0.0113   -0.0061    0.0141   -0.0200   -0.0292
           8    0.0146    0.0285    0.0182    0.0019    0.0024   -0.0005   -0.0338   -0.0178
           9   -0.0073    0.0004    0.0234    0.0098    0.0000   -0.0091    0.0115   -0.0114
          10   -0.0138   -0.0171    0.0147    0.0059    0.0005    0.0065    0.0132   -0.0019
          11    0.0034    0.0095    0.0277    0.0012   -0.0085   -0.0020    0.0103    0.0264
          12   -0.0044   -0.0071   -0.0057   -0.0089   -0.0070   -0.0034   -0.0045    0.0116
          13    0.0028   -0.0033    0.0041   -0.0087   -0.0052    0.0047   -0.0030    0.0090
          14    0.0049   -0.0027   -0.0095   -0.0062   -0.0019   -0.0026    0.0088    0.0030
          15    0.0024    0.0054   -0.0028    0.0009    0.0033   -0.0145   -0.0087    0.0165
          16    0.0141    0.0000    0.0039    0.0015    0.0004    0.0083    0.0073    0.0064
          17   -0.0152    0.0095   -0.0057   -0.0285   -0.0016   -0.0071   -0.0001    0.0006
          18    0.0142   -0.0159    0.0137   -0.0366    0.0158   -0.0095   -0.0017    0.0031
          19    0.0021    0.0014   -0.0011    0.0004    0.0000   -0.0024    0.0085   -0.0015
          20   -0.0090   -0.0051    0.0097    0.0050   -0.0001   -0.0008    0.0031   -0.0043
          21    0.0061    0.0009   -0.0066   -0.0058   -0.0033    0.0008    0.0130   -0.0154
          22   -0.0030   -0.0065   -0.0070   -0.0016    0.0003    0.0028    0.0002    0.0037
          23   -0.0019    0.0025    0.0105    0.0024   -0.0029   -0.0069    0.0153   -0.0178
          24   -0.0017   -0.0111   -0.0144   -0.0033    0.0007    0.0063    0.0029    0.0125
          25   -0.0078    0.0041   -0.0039   -0.0077    0.0035   -0.0020   -0.0002    0.0001
          26    0.0064    0.0008   -0.0065    0.0215   -0.0335   -0.0034   -0.0043   -0.0063
          27    0.0040    0.0014   -0.0060    0.0209   -0.0204    0.0000   -0.0021   -0.0040
          28    0.0006    0.0006    0.0005   -0.0010   -0.0057   -0.0008   -0.0007   -0.0015
          29    0.0008   -0.0021    0.0041   -0.0041    0.0079    0.0010    0.0007    0.0012
          30    0.0054   -0.0058    0.0039    0.0011    0.0168    0.0035    0.0024    0.0049
          31    0.0679    0.0031   -0.1070   -0.0655   -0.0299    0.1673    0.0821   -0.0117
          32    0.0397    0.0620    0.0108    0.0056   -0.0079   -0.0873    0.1016    0.0028
          33    0.0481    0.0363   -0.0102   -0.0363   -0.0332    0.0490    0.0773   -0.0137
          34   -0.0417    0.0648    0.1280    0.0134   -0.0823    0.1398    0.0192    0.0633
          35    0.1553   -0.0261    0.0484   -0.0647    0.0754    0.0237    0.0178   -0.0450
          36   -0.0943    0.0721   -0.0007    0.0554   -0.0588    0.0690    0.0194    0.0362
          37   -0.0232   -0.0247   -0.0769    0.0039    0.0065   -0.0315    0.0333    0.1135
          38   -0.0595   -0.0552    0.0041    0.0296    0.0001   -0.0675    0.1246    0.0381
          39    0.0172    0.0317   -0.0071    0.0020    0.0084    0.0056   -0.0539    0.0355
          40    0.0264    0.0329    0.0961   -0.0075   -0.0113   -0.0448    0.0327    0.0645
          41   -0.0397   -0.0149   -0.0145    0.0439    0.0252    0.0593    0.0209   -0.0506
          42   -0.0071    0.0083    0.0150    0.0091    0.0054    0.0018    0.0125    0.0062
          43    0.0217    0.0520    0.0002   -0.0103    0.0018   -0.0283    0.0152    0.0921
          44   -0.0310   -0.0910    0.0522   -0.0241   -0.0315    0.0218    0.0066   -0.0184
          45   -0.0065    0.0097   -0.0098    0.0122    0.0043    0.0018   -0.0030   -0.0118
          46    0.0166    0.0192   -0.0237    0.0065    0.0064   -0.0297    0.0401   -0.0013
          47    0.0092    0.0034   -0.0352   -0.0080    0.0045    0.0039   -0.0187    0.0521
          48    0.0117    0.0220   -0.0057    0.0178    0.0079   -0.0547    0.0647   -0.0417
          49   -0.0160   -0.0203    0.0297   -0.0098   -0.0129    0.0007    0.0195   -0.0308
          50    0.0252    0.0080   -0.0358   -0.0173   -0.0026    0.0177   -0.0106    0.0572
          51   -0.0383   -0.0525    0.0583   -0.0356   -0.0380    0.0268    0.0379   -0.0288
          52    0.0083    0.0159   -0.0086   -0.0150   -0.0236    0.0009    0.0081    0.0073
          53   -0.0045   -0.0533    0.0439    0.0227    0.0883    0.0119   -0.0105   -0.0041
          54    0.0399    0.0348   -0.0201   -0.0569   -0.0430    0.0152    0.0331    0.0221
          55    0.0246   -0.0465    0.0168   -0.0555   -0.0303   -0.0345   -0.0177    0.0074
          56   -0.0974    0.0757    0.0236   -0.0894    0.1958    0.0601    0.0398    0.0052
          57    0.0517   -0.0649    0.0089   -0.0476   -0.0737   -0.0571   -0.0290    0.0015
          58    0.0028   -0.0057   -0.0098   -0.0048   -0.0007    0.0060   -0.0011    0.0080
          59   -0.0145   -0.0204   -0.0381   -0.0044    0.0166   -0.0034   -0.0802    0.1156
          60   -0.0047   -0.0125   -0.0147   -0.0023    0.0013    0.0049    0.0034    0.0128
          61    0.0204    0.0279   -0.0026   -0.0032    0.0064    0.0131   -0.0552    0.0182
          62   -0.0001    0.0141    0.0152    0.0092    0.0072    0.0043   -0.0367    0.0179
          63    0.0318    0.0568    0.0080    0.0080    0.0200    0.0142   -0.1015    0.0584
          64    0.0335   -0.0211    0.0150    0.0200    0.0295    0.0107    0.0057    0.0103
          65    0.1198   -0.0736    0.0234    0.2225    0.0714    0.0596    0.0174    0.0414
          66   -0.0306    0.0250   -0.0125   -0.0600   -0.0598   -0.0245   -0.0101   -0.0225
          67   -0.0081    0.0087   -0.0090    0.0062   -0.0188   -0.0032   -0.0026   -0.0063
          68    0.0042    0.0092   -0.0098    0.0416   -0.0541    0.0024   -0.0049   -0.0153
          69    0.0019   -0.0079    0.0052   -0.0129    0.0352    0.0015    0.0036    0.0099
          70   -0.0062    0.0017    0.0058   -0.0065    0.0184    0.0059    0.0033    0.0016
          71    0.0015   -0.0027    0.0056   -0.0027    0.0109    0.0026    0.0012    0.0013
          72    0.0062    0.0007   -0.0169    0.0140   -0.0431   -0.0141   -0.0065   -0.0017


   Root No.      41        42        43        44        45        46        47        48

                41 A      42 A      43 A      44 A      45 A      46 A      47 A      48 A   

                1244.0    1278.5    1311.2    1346.8    1358.3    1395.2    1400.9    1412.3
  
           1    0.0211    0.0037   -0.0301   -0.0208   -0.0265   -0.0028   -0.0067   -0.0160
           2    0.0149   -0.0238   -0.0277   -0.0163    0.0081    0.0041   -0.0021   -0.0084
           3    0.0020   -0.0159   -0.0222   -0.0098   -0.0283   -0.0057   -0.0048   -0.0222
           4   -0.0116   -0.0211    0.0134    0.0221    0.0101    0.0072    0.0142    0.0081
           5   -0.0302    0.0082    0.0194   -0.0085   -0.0005   -0.0071   -0.0068   -0.0034
           6    0.0149   -0.0055   -0.0052    0.0107    0.0061    0.0120    0.0130    0.0138
           7   -0.0209   -0.0130   -0.0059   -0.0083    0.0131    0.0289   -0.0082    0.0320
           8   -0.0072    0.0199    0.0185    0.0135   -0.0088   -0.0147    0.0070   -0.0163
           9    0.0066    0.0078   -0.0041   -0.0033    0.0122    0.0378   -0.0095    0.0451
          10    0.0205    0.0369    0.0060    0.0001   -0.0089   -0.0066   -0.0062   -0.0103
          11   -0.0004   -0.0278   -0.0057    0.0037    0.0062    0.0083   -0.0032    0.0027
          12   -0.0090    0.0009    0.0015   -0.0020   -0.0047   -0.0077   -0.0016   -0.0089
          13   -0.0030    0.0088    0.0099   -0.0032    0.0309   -0.0055    0.0035    0.0074
          14   -0.0053   -0.0024    0.0057    0.0119   -0.0359   -0.0326    0.0059    0.0404
          15    0.0042    0.0204    0.0098   -0.0139    0.0601   -0.0073    0.0062    0.0076
          16    0.0019    0.0011    0.0060    0.0008    0.0047   -0.0093   -0.0182   -0.0039
          17   -0.0155    0.0165   -0.0253   -0.0145   -0.0129    0.0081   -0.0297    0.0123
          18    0.0038   -0.0048    0.0105    0.0072    0.0083   -0.0157   -0.0328   -0.0074
          19   -0.0015   -0.0021    0.0015   -0.0008    0.0040   -0.0131    0.0042   -0.0208
          20    0.0037   -0.0024   -0.0070   -0.0035    0.0013    0.0177   -0.0054    0.0118
          21   -0.0126   -0.0082    0.0026   -0.0035    0.0116   -0.0240    0.0078   -0.0391
          22    0.0005   -0.0036   -0.0009    0.0038   -0.0134   -0.0015   -0.0004    0.0047
          23   -0.0070   -0.0042   -0.0036   -0.0132    0.0315   -0.0069    0.0033   -0.0316
          24    0.0037   -0.0054    0.0000    0.0100   -0.0294   -0.0037   -0.0006    0.0110
          25   -0.0084    0.0053   -0.0085    0.0000   -0.0011    0.0015   -0.0004    0.0013
          26    0.0229   -0.0073   -0.0046    0.0195    0.0115   -0.0034    0.0149   -0.0047
          27    0.0145   -0.0086    0.0147   -0.0023   -0.0001    0.0000    0.0060   -0.0010
          28    0.0079   -0.0028   -0.0001    0.0055    0.0035   -0.0016    0.0033   -0.0017
          29   -0.0012   -0.0001   -0.0029    0.0069    0.0043   -0.0022    0.0036   -0.0024
          30   -0.0176    0.0057    0.0017   -0.0127   -0.0077    0.0028   -0.0094    0.0036
          31   -0.0120   -0.0128    0.0387    0.0411    0.0429    0.0055    0.0071    0.0489
          32   -0.0157    0.0488    0.0398    0.0189   -0.0124    0.0071   -0.0047    0.0460
          33   -0.0315    0.0164    0.0503    0.0414   -0.0037    0.0007   -0.0002    0.0415
          34   -0.0020    0.0237   -0.0344   -0.0398   -0.0227   -0.0239   -0.0197   -0.0271
          35    0.1367   -0.0122   -0.0515    0.0053    0.0006    0.0183   -0.0032    0.0133
          36   -0.0563    0.0236    0.0044   -0.0251   -0.0089   -0.0145   -0.0049   -0.0091
          37    0.0250   -0.0117   -0.0041    0.0009   -0.0220   -0.0414    0.0057   -0.0446
          38    0.0284    0.0024   -0.0101   -0.0081    0.0243    0.0320   -0.0080    0.0375
          39    0.0113    0.0181    0.0136    0.0150   -0.0266   -0.0286    0.0075   -0.0298
          40   -0.0145   -0.0758    0.0019    0.0264    0.0238    0.0032    0.0337    0.0353
          41    0.0702    0.0925    0.0179    0.0279   -0.0103   -0.0341    0.0438   -0.0018
          42    0.0107    0.0033    0.0096    0.0229    0.0039   -0.0218    0.0416    0.0135
          43   -0.0246   -0.0947    0.0065    0.0337    0.0075   -0.0398    0.0487   -0.0129
          44    0.0303    0.1145    0.0247    0.0109   -0.0187   -0.0413    0.0248   -0.0071
          45   -0.0025   -0.0044   -0.0114   -0.0192    0.0001    0.0308   -0.0374   -0.0006
          46   -0.0032    0.0091    0.0269    0.0510   -0.0655    0.1397   -0.0321   -0.1157
          47    0.0113    0.0328    0.0337    0.0277    0.0213    0.1314   -0.0253   -0.0981
          48   -0.0132   -0.0145    0.0019    0.0317   -0.1029   -0.0031   -0.0036    0.0014
          49   -0.0216   -0.0209   -0.0034    0.0038   -0.0394   -0.0742    0.0143    0.0648
          50    0.0083    0.0348    0.0425    0.0345    0.0247    0.1391   -0.0268   -0.1033
          51   -0.0499   -0.0235    0.0430    0.0738   -0.1016    0.1013   -0.0234   -0.0802
          52   -0.0059    0.0156   -0.0193   -0.0020    0.0010   -0.0102   -0.0569    0.0036
          53    0.0082   -0.0384    0.0629    0.0013    0.0033    0.0100    0.1012   -0.0137
          54   -0.0154    0.0467   -0.0257   -0.0796   -0.0562    0.0637    0.2018    0.0019
          55   -0.0255    0.0191   -0.0064   -0.0589   -0.0487    0.0629    0.2094   -0.0008
          56    0.0054   -0.0179    0.0373    0.0013    0.0065    0.0080    0.1032   -0.0158
          57   -0.0176    0.0180   -0.0185   -0.0355   -0.0314    0.0292    0.0613    0.0049
          58    0.0005   -0.0031    0.0008    0.0053   -0.0141   -0.0010   -0.0006    0.0087
          59    0.0442    0.0489    0.0181    0.0147   -0.0087    0.0268   -0.0074    0.0833
[...]
 TRAVEL      0.0763        C  5 --  H 16          +14.6% ( 57.9%)     0.1%
 RED. MASS   2.1527        C  5 --  H 17          +14.0% ( 56.7%)     0.0%
 EFF. MASS   8.5315

 VIBRATION   46   46A       ATOM PAIR        ENERGY CONTRIBUTION    RADIAL
 FREQ.      1395.20        C  3 --  C  7          +14.7% ( 50.6%)    95.6%
 T-DIPOLE    0.0963        C  5 --  H 16          +12.7% ( 46.9%)     4.5%
 TRAVEL      0.0940        C  5 --  H 17          +12.1% ( 45.8%)     4.9%
 RED. MASS   0.6845        C  3 --  H 13           +8.9% ( 39.4%)     1.1%
 EFF. MASS   5.4682

 VIBRATION   47   47A       ATOM PAIR        ENERGY CONTRIBUTION    RADIAL
 FREQ.      1400.86        C  6 --  H 19          +27.6% ( 58.5%)     5.3%
 T-DIPOLE    0.0579        C  6 --  H 18          +25.8% ( 56.6%)     5.8%
 TRAVEL      0.1167        C  6 --  C  9          +10.8% ( 36.7%)    58.1%
 RED. MASS   0.5319        C  2 --  C  6          +10.8% ( 36.5%)    45.2%
 EFF. MASS   3.5317

 VIBRATION   48   48A       ATOM PAIR        ENERGY CONTRIBUTION    RADIAL
 FREQ.      1412.26        C  3 --  C  7          +15.4% ( 58.3%)    98.6%
 T-DIPOLE    0.0341        C  1 --  C  3           +8.3% ( 42.8%)     0.8%
 TRAVEL      0.0786        C  3 --  H 13           +7.7% ( 41.4%)     1.7%
 RED. MASS   1.0415        C  5 --  C  8           +7.5% ( 40.9%)    76.1%
 EFF. MASS   7.7363

 VIBRATION   49   49A       ATOM PAIR        ENERGY CONTRIBUTION    RADIAL
 FREQ.      1412.88        C  4 --  H 14          +17.6% ( 51.1%)     3.1%
 T-DIPOLE    0.0212        C  4 --  H 15          +16.8% ( 50.0%)     3.9%
 TRAVEL      0.1064        C  2 --  C  6          +10.3% ( 39.1%)    67.8%
 RED. MASS   0.4811        C  6 --  C  9           +8.4% ( 35.3%)    91.9%
 EFF. MASS   4.2180

 VIBRATION   50   50A       ATOM PAIR        ENERGY CONTRIBUTION    RADIAL
 FREQ.      1443.06        C  2 --  C  6          +13.6% ( 59.5%)    78.5%
 T-DIPOLE    0.0477        C  2 --  C  4           +9.7% ( 50.3%)    83.1%
 TRAVEL      0.0727        C  2 --  C  3           +9.6% ( 50.0%)    76.3%
 RED. MASS   1.4031        C  1 --  C  2           +8.3% ( 46.4%)    55.3%
 EFF. MASS   8.8372

 VIBRATION   51   51A       ATOM PAIR        ENERGY CONTRIBUTION    RADIAL
 FREQ.      1820.20        C  7 --  C  8          +45.8% (100.1%)   100.0%
 T-DIPOLE    0.1324        C  5 --  C  8          +14.0% ( 55.4%)    26.0%
 TRAVEL      0.0558        C  3 --  C  7          +13.8% ( 55.0%)    25.5%
 RED. MASS   5.3937        C  8 --  H 20          +13.1% ( 53.4%)     9.6%
 EFF. MASS  11.8811        C  7 --  H 21          +12.8% ( 53.0%)     9.8%

 VIBRATION   52   52A       ATOM PAIR        ENERGY CONTRIBUTION    RADIAL
 FREQ.      1861.07        C  9 --  C 10          +45.3% ( 99.3%)    98.9%
 T-DIPOLE    0.2369        C  6 --  C  9          +16.7% ( 60.3%)    54.6%
 TRAVEL      0.0554        C  9 --  H 22          +15.4% ( 58.0%)     3.9%
 RED. MASS   5.2996        C 10 --  H 23          +11.0% ( 48.9%)    10.9%
 EFF. MASS  11.7914        C 10 --  H 24          +10.8% ( 48.4%)    11.5%

 VIBRATION   53   53A       ATOM PAIR        ENERGY CONTRIBUTION    RADIAL
 FREQ.      2936.83        C  2 --  H 12          +45.5% ( 69.7%)   100.0%
 T-DIPOLE    0.0578        C  6 --  H 18          +25.6% ( 52.3%)    96.4%
 TRAVEL      0.1235        C  6 --  H 19          +25.1% ( 51.7%)    96.4%
 RED. MASS   0.3535        C  2 --  C  6           +1.2% ( 11.4%)     2.9%
 EFF. MASS   1.5053

 VIBRATION   54   54A       ATOM PAIR        ENERGY CONTRIBUTION    RADIAL
 FREQ.      2945.31        C  2 --  H 12          +47.8% ( 71.1%)   100.0%
 T-DIPOLE    0.0799        C  6 --  H 18          +25.9% ( 52.3%)    96.9%
 TRAVEL      0.1240        C  6 --  H 19          +22.5% ( 48.8%)    96.3%
 RED. MASS   0.3627        C  2 --  C  6           +1.0% ( 10.2%)    18.8%
 EFF. MASS   1.4879

 VIBRATION   55   55A       ATOM PAIR        ENERGY CONTRIBUTION    RADIAL
 FREQ.      2973.03        C  5 --  H 16          +50.5% ( 73.8%)    97.0%
 T-DIPOLE    0.0345        C  5 --  H 17          +44.6% ( 69.3%)    96.2%
 TRAVEL      0.1213        C  1 --  H 11           +2.2% ( 15.5%)    99.8%
 RED. MASS   0.4934        C  1 --  C  5           +1.2% ( 11.2%)     0.4%
 EFF. MASS   1.5404

 VIBRATION   56   56A       ATOM PAIR        ENERGY CONTRIBUTION    RADIAL
 FREQ.      2999.83        C  1 --  H 11          +53.6% ( 75.0%)   100.0%
 T-DIPOLE    0.1065        C  3 --  H 13          +39.5% ( 64.4%)   100.0%
 TRAVEL      0.1241        C  5 --  H 16           +1.2% ( 11.1%)    98.9%
 RED. MASS   0.4525        C  1 --  C  3           +1.1% ( 10.8%)     0.1%
 EFF. MASS   1.4584

 VIBRATION   57   57A       ATOM PAIR        ENERGY CONTRIBUTION    RADIAL
 FREQ.      3005.61        C  3 --  H 13          +53.9% ( 75.0%)   100.0%
 T-DIPOLE    0.1618        C  1 --  H 11          +38.8% ( 63.7%)   100.0%
 TRAVEL      0.1243        C  4 --  H 15           +1.2% ( 11.1%)    97.2%
 RED. MASS   0.4492        C  1 --  C  3           +1.0% ( 10.5%)    97.5%
 EFF. MASS   1.4513

 VIBRATION   58   58A       ATOM PAIR        ENERGY CONTRIBUTION    RADIAL
 FREQ.      3018.45        C  6 --  H 19          +50.8% ( 70.2%)    97.9%
 T-DIPOLE    0.0572        C  6 --  H 18          +47.2% ( 67.7%)    97.5%
 TRAVEL      0.1323        C  6 --  C  9           +0.6% (  7.9%)    31.0%
 RED. MASS   0.4780        C  2 --  C  6           +0.6% (  7.7%)    29.8%
 EFF. MASS   1.2766

 VIBRATION   59   59A       ATOM PAIR        ENERGY CONTRIBUTION    RADIAL
 FREQ.      3038.51        C  4 --  H 15          +53.9% ( 76.4%)    97.6%
 T-DIPOLE    0.1070        C  4 --  H 14          +40.2% ( 66.0%)    95.9%
 TRAVEL      0.1200        C  3 --  H 13           +1.9% ( 14.5%)    99.9%
 RED. MASS   0.5011        C  1 --  C  4           +1.1% ( 11.0%)     0.3%
 EFF. MASS   1.5406

 VIBRATION   60   60A       ATOM PAIR        ENERGY CONTRIBUTION    RADIAL
 FREQ.      3040.93        C  9 --  H 22          +95.7% ( 99.2%)   100.0%
 T-DIPOLE    0.2237        C  9 --  C 10           +1.4% ( 12.0%)    30.6%
 TRAVEL      0.1216        C  6 --  C  9           +1.3% ( 11.6%)    14.1%
 RED. MASS   0.9002        C 10 --  H 24           +0.9% (  9.5%)    96.2%
 EFF. MASS   1.4998

 VIBRATION   61   61A       ATOM PAIR        ENERGY CONTRIBUTION    RADIAL
 FREQ.      3050.25        C  5 --  H 17          +53.2% ( 72.0%)    98.0%
 T-DIPOLE    0.0862        C  5 --  H 16          +45.0% ( 66.2%)    97.0%
 TRAVEL      0.1312        C  1 --  C  5           +0.7% (  8.3%)    41.5%
 RED. MASS   0.4833        C  5 --  C  8           +0.7% (  8.2%)    30.9%
 EFF. MASS   1.2839

 VIBRATION   62   62A       ATOM PAIR        ENERGY CONTRIBUTION    RADIAL
 FREQ.      3101.93        C  4 --  H 14          +56.7% ( 74.7%)    98.0%
 T-DIPOLE    0.0877        C  4 --  H 15          +41.2% ( 63.7%)    95.9%
 TRAVEL      0.1302        C  1 --  C  4           +0.7% (  8.3%)    99.0%
 RED. MASS   0.4944        C  3 --  C  4           +0.7% (  8.2%)    48.9%
 EFF. MASS   1.2832

 VIBRATION   63   63A       ATOM PAIR        ENERGY CONTRIBUTION    RADIAL
 FREQ.      3115.15        C  8 --  H 20          +61.0% ( 79.3%)   100.0%
 T-DIPOLE    0.3593        C  7 --  H 21          +36.4% ( 61.3%)   100.0%
 TRAVEL      0.1215        C  7 --  C  8           +1.1% ( 10.8%)     1.4%
 RED. MASS   0.4945        C  5 --  C  8           +0.9% (  9.8%)    25.9%
 EFF. MASS   1.4658

 VIBRATION   64   64A       ATOM PAIR        ENERGY CONTRIBUTION    RADIAL
 FREQ.      3134.47        C  7 --  H 21          +60.0% ( 78.9%)    99.9%
 T-DIPOLE    0.3516        C  8 --  H 20          +35.6% ( 60.7%)    99.9%
 TRAVEL      0.1144        C  7 --  C  8           +2.4% ( 15.9%)    98.3%
 RED. MASS   0.4957        C  3 --  C  7           +1.1% ( 10.9%)    20.8%
 EFF. MASS   1.6434

 VIBRATION   65   65A       ATOM PAIR        ENERGY CONTRIBUTION    RADIAL
 FREQ.      3135.56        C 10 --  H 23          +91.2% ( 97.3%)    99.9%
 T-DIPOLE    0.1877        C 10 --  H 24           +7.4% ( 27.7%)    75.0%
 TRAVEL      0.1182        C  9 --  C 10           +1.3% ( 11.7%)    21.2%
 RED. MASS   0.8452
 EFF. MASS   1.5403

 VIBRATION   66   66A       ATOM PAIR        ENERGY CONTRIBUTION    RADIAL
 FREQ.      3148.05        C 10 --  H 24          +91.3% ( 96.2%)    99.3%
 T-DIPOLE    0.2523        C 10 --  H 23           +6.3% ( 25.3%)    45.0%
 TRAVEL      0.1210        C  9 --  C 10           +1.6% ( 12.7%)    74.4%
 RED. MASS   0.8104        C  9 --  H 22           +0.8% (  8.7%)    94.5%
 EFF. MASS   1.4626

 SYMMETRY NUMBER FOR POINT-GROUP C1  =  1


          SYSTEM IS A GROUND STATE


    NULL



          MOLECULE IS NOT LINEAR

          THERE ARE 66 GENUINE VIBRATIONS IN THIS SYSTEM
          THIS THERMODYNAMICS CALCULATION IS LIMITED TO
          MOLECULES WHICH HAVE NO INTERNAL ROTATIONS




                    CALCULATED THERMODYNAMIC PROPERTIES
                                          *
   TEMP. (K)   PARTITION FUNCTION   H.O.F.    ENTHALPY  HEAT CAPACITY ENTROPY
                                   KCAL/MOL   CAL/MOLE    CAL/K/MOL  CAL/K/MOL


 298.00  VIB.     0.2162D+03                  3940.3363    30.1446    23.9063
         ROT.     0.6660D+06                   888.2813     2.9808    29.6273
         INT.     0.1440D+09                  4828.6176    33.1254    53.5336
         TRA.     0.1503D+28                  1480.4688     4.9680    40.5931
         TOT.                       29.095    6309.0864    38.0934    94.1266

 200.00  VIB.     0.2655D+02                  1639.1240    17.3533    14.7117
         ROT.     0.3662D+06                   596.1620     2.9808    28.4386
         INT.     0.9722D+07                  2235.2859    20.3341    43.1503
         TRA.     0.8266D+27                   993.6033     4.9680    38.6119
         TOT.                       26.015    3228.8892    25.3021    81.7623

 210.00  VIB.     0.3265D+02                  1818.2903    18.4881    15.5856
         ROT.     0.3940D+06                   625.9700     2.9808    28.5841
         INT.     0.1286D+08                  2444.2603    21.4689    44.1697
         TRA.     0.8893D+27                  1043.2834     4.9680    38.8543
         TOT.                       26.274    3487.5437    26.4369    83.0240

 220.00  VIB.     0.4021D+02                  2009.0458    19.6708    16.4728
         ROT.     0.4224D+06                   655.7781     2.9808    28.7227
         INT.     0.1698D+08                  2664.8239    22.6516    45.1955
         TRA.     0.9536D+27                  1092.9636     4.9680    39.0854
         TOT.                       26.544    3757.7875    27.6197    84.2810

 230.00  VIB.     0.4958D+02                  2211.8592    20.8992    17.3742
         ROT.     0.4516D+06                   685.5862     2.9808    28.8552
         INT.     0.2239D+08                  2897.4454    23.8800    46.2294
         TRA.     0.1019D+28                  1142.6437     4.9680    39.3063
         TOT.                       26.826    4040.0891    28.8480    85.5356

 240.00  VIB.     0.6124D+02                  2427.1709    22.1699    18.2903
         ROT.     0.4813D+06                   715.3943     2.9808    28.9821
         INT.     0.2948D+08                  3142.5653    25.1507    47.2724
         TRA.     0.1087D+28                  1192.3239     4.9680    39.5177
         TOT.                       27.121    4334.8892    30.1187    86.7901

 250.00  VIB.     0.7578D+02                  2655.3849    23.4789    19.2218
         ROT.     0.5117D+06                   745.2024     2.9808    29.1038
         INT.     0.3878D+08                  3400.5873    26.4597    48.3255
         TRA.     0.1155D+28                  1242.0041     4.9680    39.7205
         TOT.                       27.429    4642.5914    31.4277    88.0460

 260.00  VIB.     0.9393D+02                  2896.8616    24.8217    20.1687
         ROT.     0.5427D+06                   775.0105     2.9808    29.2207
         INT.     0.5098D+08                  3671.8721    27.8025    49.3893
         TRA.     0.1225D+28                  1291.6842     4.9680    39.9154
         TOT.                       27.750    4963.5564    32.7705    89.3047

 270.00  VIB.     0.1166D+03                  3151.9142    26.1933    21.1311
         ROT.     0.5744D+06                   804.8186     2.9808    29.3332
         INT.     0.6699D+08                  3956.7329    29.1741    50.4643
         TRA.     0.1297D+28                  1341.3644     4.9680    40.1029
         TOT.                       28.085    5298.0973    34.1421    90.5671

 280.00  VIB.     0.1451D+03                  3420.8064    27.5887    22.1088
         ROT.     0.6066D+06                   834.6267     2.9808    29.4416
         INT.     0.8803D+08                  4255.4331    30.5695    51.5504
         TRA.     0.1369D+28                  1391.0445     4.9680    40.2835
         TOT.                       28.433    5646.4777    35.5375    91.8339

 290.00  VIB.     0.1810D+03                  3703.7512    29.0030    23.1016
         ROT.     0.6393D+06                   864.4348     2.9808    29.5462
         INT.     0.1157D+09                  4568.1860    31.9838    52.6477
         TRA.     0.1443D+28                  1440.7247     4.9680    40.4579
         TOT.                       28.795    6008.9107    36.9518    93.1056

 300.00  VIB.     0.2261D+03                  4000.9119    30.4311    24.1089
         ROT.     0.6727D+06                   894.2429     2.9808    29.6472
         INT.     0.1521D+09                  4895.1548    33.4119    53.7561
         TRA.     0.1518D+28                  1490.4049     4.9680    40.6263
         TOT.                       29.172    6385.5597    38.3799    94.3824

 310.00  VIB.     0.2831D+03                  4312.4039    31.8684    25.1301
         ROT.     0.7066D+06                   924.0510     2.9808    29.7450
         INT.     0.2000D+09                  5236.4550    34.8493    54.8751
         TRA.     0.1595D+28                  1540.0850     4.9680    40.7892
         TOT.                       29.563    6776.5400    39.8173    95.6643

 320.00  VIB.     0.3552D+03                  4638.2968    33.3106    26.1647
         ROT.     0.7411D+06                   953.8591     2.9808    29.8396
         INT.     0.2632D+09                  5592.1559    36.2914    56.0043
         TRA.     0.1673D+28                  1589.7652     4.9680    40.9469
         TOT.                       29.968    7181.9211    41.2594    96.9512

 330.00  VIB.     0.4465D+03                  4978.6173    34.7533    27.2118
         ROT.     0.7761D+06                   983.6672     2.9808    29.9313
         INT.     0.3466D+09                  5962.2846    37.7341    57.1431
         TRA.     0.1752D+28                  1639.4454     4.9680    41.0998
         TOT.                       30.388    7601.7299    42.7022    98.2429

 340.00  VIB.     0.5627D+03                  5333.3532    36.1930    28.2706
         ROT.     0.8116D+06                  1013.4753     2.9808    30.0203
         INT.     0.4567D+09                  6346.8286    39.1738    58.2910
         TRA.     0.1832D+28                  1689.1255     4.9680    41.2481
         TOT.                       30.822    8035.9541    44.1419    99.5391

 350.00  VIB.     0.7104D+03                  5702.4564    37.6262    29.3405
         ROT.     0.8477D+06                  1043.2834     2.9808    30.1067
         INT.     0.6022D+09                  6745.7398    40.6071    59.4472
         TRA.     0.1914D+28                  1738.8057     4.9680    41.3921
         TOT.                       31.271    8484.5455    45.5751   100.8393

 360.00  VIB.     0.8989D+03                  6085.8465    39.0500    30.4204
         ROT.     0.8843D+06                  1073.0915     2.9808    30.1907
         INT.     0.7949D+09                  7158.9380    42.0308    60.6111
         TRA.     0.1996D+28                  1788.4859     4.9680    41.5321
         TOT.                       31.734    8947.4239    46.9988   102.1432

 370.00  VIB.     0.1140D+04                  6483.4152    40.4615    31.5096
         ROT.     0.9214D+06                  1102.8996     2.9808    30.2724
         INT.     0.1050D+10                  7586.3148    43.4423    61.7820
         TRA.     0.2080D+28                  1838.1660     4.9680    41.6682
         TOT.                       32.211    9424.4808    48.4104   103.4502

 380.00  VIB.     0.1448D+04                  6895.0288    41.8586    32.6073
         ROT.     0.9590D+06                  1132.7077     2.9808    30.3519
         INT.     0.1388D+10                  8027.7365    44.8394    62.9591
         TRA.     0.2165D+28                  1887.8462     4.9680    41.8007
         TOT.                       32.702    9915.5827    49.8074   104.7598

 390.00  VIB.     0.1843D+04                  7320.5326    43.2392    33.7124
         ROT.     0.9971D+06                  1162.5158     2.9808    30.4293
         INT.     0.1837D+10                  8483.0484    46.2201    64.1417
         TRA.     0.2251D+28                  1937.5263     4.9680    41.9297
         TOT.                       33.207   10420.5748    51.1881   106.0715

 400.00  VIB.     0.2350D+04                  7759.7533    44.6017    34.8244
         ROT.     0.1036D+07                  1192.3239     2.9808    30.5048
         INT.     0.2434D+10                  8952.0772    47.5826    65.3291
         TRA.     0.2338D+28                  1987.2065     4.9680    42.0555
         TOT.                       33.726   10939.2837    52.5506   107.3847

   *: NOTE: HEATS OF FORMATION ARE RELATIVE TO THE
            ELEMENTS IN THEIR STANDARD STATE AT 298K
              (=  Standard Enthalpy of Formation).

            Hvib:  Zero-point energy is not included.
                   frequencies of less than zero cm-1 are not included.
            Hrot = (3/2)RT
            Htra = (3/2)RT + pV = (5/2)RT

            Heat capacity is Cp, not Cv

           For more information, see: HTTP://OpenMOPAC.net/Manual/thermochemistry.html


           FORCE CONSTANT IN CARTESIAN COORDINATES (Millidynes/A)

    ATOM   CHEMICAL       X               Y               Z
   NUMBER   SYMBOL  FORCE CONSTANT  FORCE CONSTANT  FORCE CONSTANT

      1       C        7.943935        7.572162        8.980284
      2       C        7.800493        8.051650        8.695551
      3       C        8.172187        7.606554        9.570873
      4       C        7.966184        7.711462        8.673155
      5       C        8.127594        9.457106        7.711891
      6       C        8.074326        9.111459        8.377686
      7       C        4.114599       14.524376        8.896218
      8       C        4.528978       11.838155       10.915905
      9       C        3.971360       11.442020       11.723070
     10       C        3.597098       11.467946       11.449178
     11       H        1.458477        1.502730        3.428586
     12       H        1.368121        1.311671        3.570561
     13       H        1.510274        1.579811        3.243162
     14       H        1.536107        1.509405        3.580335
     15       H        1.390715        1.424470        3.800333
     16       H        2.260918        2.073918        2.035557
     17       H        3.797922        1.752948        0.834462
     18       H        4.537427        1.023175        0.685900
     19       H        1.623123        1.140915        3.625895
     20       H        1.321366        0.713600        4.387430
     21       H        0.452645        4.972873        0.989291
     22       H        0.902738        1.440383        3.883099
     23       H        0.963919        1.291899        4.212472
     24       H        0.390012        5.417709        0.671162



 TOTAL CPU TIME:             3.62 SECONDS

 == MOPAC DONE ==
