 *******************************************************************************
 ** Site#: 14399           For non-commercial use only        Version 13.159M **
 *******************************************************************************
 ** Cite this work as: MOPAC2012, James J. P. Stewart, Stewart Computational  **
 ** Chemistry, Version 13.159M web: HTTP://OpenMOPAC.net  Days remaining:   6 **
 *******************************************************************************
 **                                                                           **
 **                                MOPAC2012                                  **
 **                                                                           **
 *******************************************************************************

                            PM3 CALCULATION RESULTS


 *******************************************************************************
 *  CALCULATION DONE:                                Mon Jun  2 11:10:18 2014  *
 *  PM3      - The PM3 Hamiltonian to be used
 *  PRECISE  - CRITERIA TO BE INCREASED BY 100 TIMES
 *  NOSYM    - POINT-GROUP SYMMETRY SET TO C1
 *  T=       - A TIME OF 172800.0 SECONDS REQUESTED
 *  DUMP=N   - RESTART FILE WRITTEN EVERY  7200.000 SECONDS
 *******************************************************************************
pm3  precise nosym
 InChI=1S/C6H10/c1-6-4-2-3-5-6/h2-3,6H,4-5H2,1H3

   ATOM   CHEMICAL          X               Y               Z
  NUMBER   SYMBOL      (ANGSTROMS)     (ANGSTROMS)     (ANGSTROMS)
 
     1       C          0.47460000  *  -0.08190000  *  -0.47770000  *
     2       C         -0.28480000  *   1.22320000  *  -0.20540000  *
     3       C         -0.38160000  *  -1.20850000  *   0.11550000  *
     4       C          1.91420000  *  -0.07140000  *   0.03610000  *
     5       C         -1.64050000  *   0.75830000  *   0.19060000  *
     6       C         -1.69260000  *  -0.55250000  *   0.36370000  *
     7       H          0.51370000  *  -0.22960000  *  -1.58440000  *
     8       H          0.14080000  *   1.81930000  *   0.63500000  *
     9       H         -0.34100000  *   1.86240000  *  -1.11650000  *
    10       H         -0.49690000  *  -2.05560000  *  -0.59940000  *
    11       H          0.00480000  *  -1.59790000  *   1.08610000  *
    12       H          2.41950000  *  -1.03320000  *  -0.20930000  *
    13       H          1.94830000  *   0.07300000  *   1.14030000  *
    14       H          2.49050000  *   0.75150000  *  -0.44490000  *
    15       H         -2.48480000  *   1.42100000  *   0.37020000  *
    16       H         -2.58420000  *  -1.07810000  *   0.70010000  *
 


          CARTESIAN COORDINATES 

    NO.       ATOM         X         Y         Z

     1         C        0.4746   -0.0819   -0.4777
     2         C       -0.2848    1.2232   -0.2054
     3         C       -0.3816   -1.2085    0.1155
     4         C        1.9142   -0.0714    0.0361
     5         C       -1.6405    0.7583    0.1906
     6         C       -1.6926   -0.5525    0.3637
     7         H        0.5137   -0.2296   -1.5844
     8         H        0.1408    1.8193    0.6350
     9         H       -0.3410    1.8624   -1.1165
    10         H       -0.4969   -2.0556   -0.5994
    11         H        0.0048   -1.5979    1.0861
    12         H        2.4195   -1.0332   -0.2093
    13         H        1.9483    0.0730    1.1403
    14         H        2.4905    0.7515   -0.4449
    15         H       -2.4848    1.4210    0.3702
    16         H       -2.5842   -1.0781    0.7001

  H: (PM3): J. J. P. STEWART, J. COMP. CHEM. 10, 209 (1989).
  C: (PM3): J. J. P. STEWART, J. COMP. CHEM. 10, 209 (1989).

           Empirical Formula: C6 H10  =    16 atoms



      MOLECULAR POINT GROUP   :   C1  


      RHF CALCULATION, NO. OF DOUBLY OCCUPIED LEVELS =   17

      Geometry optimization using EF

          DIAGONAL MATRIX USED AS START HESSIAN

 CYCLE:     1 TIME:   0.007 TIME LEFT:  2.00D  GRAD.:    56.634 HEAT:-.5867479
 CYCLE:     2 TIME:   0.012 TIME LEFT:  2.00D  GRAD.:    54.875 HEAT:-1.267766
 CYCLE:     3 TIME:   0.005 TIME LEFT:  2.00D  GRAD.:    37.406 HEAT:-1.799254
 CYCLE:     4 TIME:   0.005 TIME LEFT:  2.00D  GRAD.:    32.948 HEAT:-2.045827
 CYCLE:     5 TIME:   0.005 TIME LEFT:  2.00D  GRAD.:    31.581 HEAT:-2.186323
 CYCLE:     6 TIME:   0.007 TIME LEFT:  2.00D  GRAD.:    15.537 HEAT:-2.454672
 CYCLE:     7 TIME:   0.009 TIME LEFT:  2.00D  GRAD.:    10.106 HEAT:-2.543980
 CYCLE:     8 TIME:   0.005 TIME LEFT:  2.00D  GRAD.:    15.972 HEAT:-2.565682
 CYCLE:     9 TIME:   0.005 TIME LEFT:  2.00D  GRAD.:     7.179 HEAT:-2.669202
 CYCLE:    10 TIME:   0.008 TIME LEFT:  2.00D  GRAD.:     7.117 HEAT:-2.686092
 CYCLE:    11 TIME:   0.005 TIME LEFT:  2.00D  GRAD.:     6.861 HEAT:-2.703135
 CYCLE:    12 TIME:   0.003 TIME LEFT:  2.00D  GRAD.:     9.277 HEAT:-2.708368
 CYCLE:    13 TIME:   0.006 TIME LEFT:  2.00D  GRAD.:     5.404 HEAT:-2.729978
 CYCLE:    14 TIME:   0.003 TIME LEFT:  2.00D  GRAD.:     6.708 HEAT:-2.737625
 CYCLE:    15 TIME:   0.003 TIME LEFT:  2.00D  GRAD.:     4.838 HEAT:-2.755678
 CYCLE:    16 TIME:   0.003 TIME LEFT:  2.00D  GRAD.:     6.716 HEAT:-2.766638
 CYCLE:    17 TIME:   0.004 TIME LEFT:  2.00D  GRAD.:     3.858 HEAT:-2.785536
 CYCLE:    18 TIME:   0.005 TIME LEFT:  2.00D  GRAD.:     5.978 HEAT:-2.792052
 CYCLE:    19 TIME:   0.005 TIME LEFT:  2.00D  GRAD.:     3.006 HEAT:-2.806340
 CYCLE:    20 TIME:   0.004 TIME LEFT:  2.00D  GRAD.:     3.570 HEAT:-2.817175
 CYCLE:    21 TIME:   0.003 TIME LEFT:  2.00D  GRAD.:     3.730 HEAT:-2.833153
 CYCLE:    22 TIME:   0.003 TIME LEFT:  2.00D  GRAD.:     3.051 HEAT:-2.852673
 CYCLE:    23 TIME:   0.004 TIME LEFT:  2.00D  GRAD.:     4.676 HEAT:-2.864470
 CYCLE:    24 TIME:   0.003 TIME LEFT:  2.00D  GRAD.:     3.270 HEAT:-2.880293
 CYCLE:    25 TIME:   0.003 TIME LEFT:  2.00D  GRAD.:     3.325 HEAT:-2.901154
 CYCLE:    26 TIME:   0.003 TIME LEFT:  2.00D  GRAD.:     4.158 HEAT:-2.937034
 CYCLE:    27 TIME:   0.005 TIME LEFT:  2.00D  GRAD.:     4.533 HEAT:-2.963973
 CYCLE:    28 TIME:   0.005 TIME LEFT:  2.00D  GRAD.:     3.911 HEAT:-2.988072
 CYCLE:    29 TIME:   0.003 TIME LEFT:  2.00D  GRAD.:     3.703 HEAT:-3.014999
 CYCLE:    30 TIME:   0.005 TIME LEFT:  2.00D  GRAD.:     4.136 HEAT:-3.057834
 CYCLE:    31 TIME:   0.005 TIME LEFT:  2.00D  GRAD.:     3.324 HEAT:-3.074584
 CYCLE:    32 TIME:   0.004 TIME LEFT:  2.00D  GRAD.:     1.895 HEAT:-3.080637
 CYCLE:    33 TIME:   0.003 TIME LEFT:  2.00D  GRAD.:     1.034 HEAT:-3.084212
 CYCLE:    34 TIME:   0.003 TIME LEFT:  2.00D  GRAD.:     0.605 HEAT:-3.085622
 CYCLE:    35 TIME:   0.003 TIME LEFT:  2.00D  GRAD.:     0.412 HEAT:-3.086308
 CYCLE:    36 TIME:   0.005 TIME LEFT:  2.00D  GRAD.:     0.210 HEAT:-3.086547
 CYCLE:    37 TIME:   0.005 TIME LEFT:  2.00D  GRAD.:     0.152 HEAT:-3.086625
 CYCLE:    38 TIME:   0.004 TIME LEFT:  2.00D  GRAD.:     0.121 HEAT:-3.086660
 CYCLE:    39 TIME:   0.003 TIME LEFT:  2.00D  GRAD.:     0.088 HEAT:-3.086681
 CYCLE:    40 TIME:   0.003 TIME LEFT:  2.00D  GRAD.:     0.059 HEAT:-3.086693
 CYCLE:    41 TIME:   0.003 TIME LEFT:  2.00D  GRAD.:     0.057 HEAT:-3.086699
 CYCLE:    42 TIME:   0.004 TIME LEFT:  2.00D  GRAD.:     0.036 HEAT:-3.086702

     RMS GRADIENT =  0.03640  IS LESS THAN CUTOFF =  0.05000



 -------------------------------------------------------------------------------
pm3  precise nosym
 InChI=1S/C6H10/c1-6-4-2-3-5-6/h2-3,6H,4-5H2,1H3



     GEOMETRY OPTIMISED USING EIGENVECTOR FOLLOWING (EF).     
     SCF FIELD WAS ACHIEVED                                   


                              PM3 CALCULATION
                                                       MOPAC2012 (Version: 13.159M)
                                                       Mon Jun  2 11:10:18 2014
                                                       No. of days left =   6




          FINAL HEAT OF FORMATION =         -3.08670 KCAL/MOL =     -12.91476 KJ/MOL


          TOTAL ENERGY            =       -865.30314 EV
          ELECTRONIC ENERGY       =      -3860.31716 EV  POINT GROUP:     C1  
          CORE-CORE REPULSION     =       2995.01403 EV
          COSMO AREA              =        131.84 SQUARE ANGSTROMS
          COSMO VOLUME            =        123.58 CUBIC ANGSTROMS

          GRADIENT NORM           =          0.03640
          IONIZATION POTENTIAL    =          9.536907 EV
          HOMO LUMO ENERGIES (EV) =         -9.537  1.148
          NO. OF FILLED LEVELS    =         17
          MOLECULAR WEIGHT        =         82.145

          MOLECULAR DIMENSIONS (Angstroms)

            Atom       Atom       Distance
            H    16    H    14     5.41511
            H    10    H    15     4.05725
            H     9    H    13     3.30265


          SCF CALCULATIONS        =         49
          COMPUTATION TIME        =          0.206 SECONDS




   ATOM   CHEMICAL          X               Y               Z
  NUMBER   SYMBOL      (ANGSTROMS)     (ANGSTROMS)     (ANGSTROMS)
 
     1       C          0.49537340  *  -0.09078937  *  -0.54033537  *
     2       C         -0.30267271  *   1.21181233  *  -0.31349414  *
     3       C         -0.39941184  *  -1.22405088  *   0.00754677  *
     4       C          1.84712675  *  -0.05487735  *   0.14168221  *
     5       C         -1.60140234  *   0.77615493  *   0.28366769  *
     6       C         -1.65401593  *  -0.54888569  *   0.45829170  *
     7       H          0.65550088  *  -0.24116051  *  -1.63288525  *
     8       H          0.22293637  *   1.91205122  *   0.36325168  *
     9       H         -0.46810939  *   1.76282439  *  -1.25720914  *
    10       H         -0.61684989  *  -1.98590937  *  -0.76309545  *
    11       H          0.07700416  *  -1.76407947  *   0.84778266  *
    12       H          2.39598496  *  -0.99273291  *  -0.01429330  *
    13       H          1.75457231  *   0.09435085  *   1.22609346  *
    14       H          2.46842406  *   0.76125382  *  -0.24952983  *
    15       H         -2.38006729  *   1.49689894  *   0.53106939  *
    16       H         -2.48384303  *  -1.11816713  *   0.87575742  *

           Empirical Formula: C6 H10  =    16 atoms



      MOLECULAR POINT GROUP   :   C1  


                  EIGENVALUES  
 -40.49204 -31.14881 -28.11253 -24.40590 -19.62088 -18.59809 -17.46262 -16.03382
 -14.18427 -13.88653 -13.71024 -13.40763 -12.61399 -12.57916 -12.00361 -11.79858
  -9.53691   1.14767   3.43069   3.51670   3.77269   3.82264   3.88466   3.97391
   4.13371   4.34114   4.39063   4.53173   4.55754   4.74807   5.19333   5.28208
   5.62813   6.01584


              NET ATOMIC CHARGES AND DIPOLE CONTRIBUTIONS

  ATOM NO.   TYPE          CHARGE      No. of ELECS.   s-Pop       p-Pop       
    1          C          -0.078535        4.0785     1.18224     2.89630
    2          C          -0.067473        4.0675     1.15750     2.90997
    3          C          -0.067516        4.0675     1.15751     2.91000
    4          C          -0.107575        4.1076     1.14128     2.96629
    5          C          -0.155228        4.1552     1.20197     2.95326
    6          C          -0.155218        4.1552     1.20196     2.95326
    7          H           0.061866        0.9381     0.93813
    8          H           0.060008        0.9400     0.93999
    9          H           0.055048        0.9450     0.94495
   10          H           0.055054        0.9449     0.94495
   11          H           0.060004        0.9400     0.94000
   12          H           0.038396        0.9616     0.96160
   13          H           0.042347        0.9577     0.95765
   14          H           0.038383        0.9616     0.96162
   15          H           0.110221        0.8898     0.88978
   16          H           0.110217        0.8898     0.88978
 DIPOLE           X         Y         Z       TOTAL
 POINT-CHG.     0.187    -0.014    -0.048     0.193
 HYBRID        -0.006     0.004     0.027     0.028
 SUM            0.181    -0.010    -0.022     0.182


          ATOMIC ORBITAL ELECTRON POPULATIONS

    Atom      s        px        py        pz   
    1  C   1.18224   0.94929   0.95067   0.99633
    2  C   1.15750   0.94682   0.96379   0.99936
    3  C   1.15751   0.94583   0.96570   0.99847
    4  C   1.14128   0.95898   1.00745   0.99986
    5  C   1.20197   0.97959   0.96567   1.00800
    6  C   1.20196   0.98135   0.96179   1.01012
    7  H   0.93813
    8  H   0.93999
    9  H   0.94495
   10  H   0.94495
   11  H   0.94000
   12  H   0.96160
   13  H   0.95765
   14  H   0.96162
   15  H   0.88978
   16  H   0.88978
 *******************************************************************************
 ** Site#: 14399           For non-commercial use only        Version 13.159M **
 *******************************************************************************
 ** Cite this work as: MOPAC2012, James J. P. Stewart, Stewart Computational  **
 ** Chemistry, Version 13.159M web: HTTP://OpenMOPAC.net  Days remaining:   6 **
 *******************************************************************************
 **                                                                           **
 **                                MOPAC2012                                  **
 **                                                                           **
 *******************************************************************************

                            PM3 CALCULATION RESULTS


 *******************************************************************************
 *  CALCULATION DONE:                                Mon Jun  2 11:10:18 2014  *
 *  PM3      - The PM3 Hamiltonian to be used
 *  OLDGEO   - PREVIOUS GEOMETRY TO BE USED
 *  PRECISE  - CRITERIA TO BE INCREASED BY 100 TIMES
 *  NOSYM    - POINT-GROUP SYMMETRY SET TO C1
 *  T=       - A TIME OF 172800.0 SECONDS REQUESTED
 *  DUMP=N   - RESTART FILE WRITTEN EVERY  7200.000 SECONDS
 *  THERMO   - THERMODYNAMIC QUANTITIES TO BE CALCULATED
 *******************************************************************************
oldgeo thermo nosym precise  pm3

   ATOM   CHEMICAL          X               Y               Z
  NUMBER   SYMBOL      (ANGSTROMS)     (ANGSTROMS)     (ANGSTROMS)
 
     1       C          0.49537340  *  -0.09078937  *  -0.54033537  *
     2       C         -0.30267271  *   1.21181233  *  -0.31349414  *
     3       C         -0.39941184  *  -1.22405088  *   0.00754677  *
     4       C          1.84712675  *  -0.05487735  *   0.14168221  *
     5       C         -1.60140234  *   0.77615493  *   0.28366769  *
     6       C         -1.65401593  *  -0.54888569  *   0.45829170  *
     7       H          0.65550088  *  -0.24116051  *  -1.63288525  *
     8       H          0.22293637  *   1.91205122  *   0.36325168  *
     9       H         -0.46810939  *   1.76282439  *  -1.25720914  *
    10       H         -0.61684989  *  -1.98590937  *  -0.76309545  *
    11       H          0.07700416  *  -1.76407947  *   0.84778266  *
    12       H          2.39598496  *  -0.99273291  *  -0.01429330  *
    13       H          1.75457231  *   0.09435085  *   1.22609346  *
    14       H          2.46842406  *   0.76125382  *  -0.24952983  *
    15       H         -2.38006729  *   1.49689894  *   0.53106939  *
    16       H         -2.48384303  *  -1.11816713  *   0.87575742  *
 


          CARTESIAN COORDINATES 

    NO.       ATOM         X         Y         Z

     1         C        0.4954   -0.0908   -0.5403
     2         C       -0.3027    1.2118   -0.3135
     3         C       -0.3994   -1.2241    0.0075
     4         C        1.8471   -0.0549    0.1417
     5         C       -1.6014    0.7762    0.2837
     6         C       -1.6540   -0.5489    0.4583
     7         H        0.6555   -0.2412   -1.6329
     8         H        0.2229    1.9121    0.3633
     9         H       -0.4681    1.7628   -1.2572
    10         H       -0.6168   -1.9859   -0.7631
    11         H        0.0770   -1.7641    0.8478
    12         H        2.3960   -0.9927   -0.0143
    13         H        1.7546    0.0944    1.2261
    14         H        2.4684    0.7613   -0.2495
    15         H       -2.3801    1.4969    0.5311
    16         H       -2.4838   -1.1182    0.8758

  H: (PM3): J. J. P. STEWART, J. COMP. CHEM. 10, 209 (1989).
  C: (PM3): J. J. P. STEWART, J. COMP. CHEM. 10, 209 (1989).

           Empirical Formula: C6 H10  =    16 atoms



      MOLECULAR POINT GROUP   :   C1  


      RHF CALCULATION, NO. OF DOUBLY OCCUPIED LEVELS =   17



          HEAT OF FORMATION =      -3.086702 KCALS/MOLE


          INTERNAL COORDINATE DERIVATIVES

   NUMBER  ATOM       BOND         ANGLE      DIHEDRAL

     1       C      0.004453     0.002453    -0.002497
     2       C      0.005658    -0.001557    -0.001910
     3       C     -0.000308    -0.002532    -0.002359
     4       C      0.006602     0.008956    -0.003669
     5       C      0.001810    -0.004469     0.003833
     6       C     -0.001925    -0.004434     0.001322
     7       H     -0.003794    -0.004586     0.003980
     8       H      0.004464     0.006545     0.002132
     9       H     -0.006662     0.007589     0.001541
    10       H     -0.003004    -0.007149     0.003839
    11       H     -0.000363    -0.005636     0.000163
    12       H      0.009273     0.014101    -0.006629
    13       H      0.001715    -0.003075     0.000198
    14       H     -0.017411    -0.003184    -0.000515
    15       H      0.001283     0.004743    -0.002425
    16       H     -0.001790    -0.007767     0.002996


          GRADIENT NORM =   0.03701


          TIME FOR SCF CALCULATION =    0.00

          TIME FOR DERIVATIVES     =    0.00

          MOLECULAR WEIGHT =   82.14



          ROTATIONAL CONSTANTS IN CM(-1)

          A =    0.20987519   B =    0.11163837   C =    0.08292791



           PRINCIPAL MOMENTS OF INERTIA IN UNITS OF 10**(-40)*GRAM-CM**2

          A =      133.3782   B =      250.7451   C =      337.5555


          ORIENTATION OF MOLECULE IN FORCE CALCULATION

    NO.       ATOM         X         Y         Z

     1          C      -0.5321   -0.7000   -0.2004
     2          C       1.0123   -0.7000   -0.2004
     3          C      -0.9451    0.7882   -0.2004
     4          C      -1.1001   -1.4467    0.9885
     5          C       1.4037    0.7412   -0.2555
     6          C       0.3389    1.5507   -0.2555
     7          H      -0.9021   -1.1867   -1.1321
     8          H       1.4307   -1.1840    0.7025
     9          H       1.4239   -1.2533   -1.0641
    10          H      -1.5885    1.0368   -1.0640
    11          H      -1.5233    1.0618    0.7025
    12          H      -2.1977   -1.4245    0.9842
    13          H      -0.7672   -1.0130    1.9413
    14          H      -0.7903   -2.4998    0.9817
    15          H       2.4503    1.0420   -0.2881
    16          H       0.3489    2.6396   -0.2881


    FIRST DERIVATIVES WILL BE USED IN THE CALCULATION OF SECOND DERIVATIVES

          ESTIMATED TIME TO COMPLETE CALCULATION =        1.01 SECONDS

    FOR POINT-GROUP C1   THERE ARE   1 UNIQUE SYMMETRY FUNCTIONS.

 STEP:   1 TIME =     0.01 SECS, INTEGRAL =      0.01 TIME LEFT: 172799.98
 STEP:   2 TIME =     0.01 SECS, INTEGRAL =      0.03 TIME LEFT: 172799.97
 STEP:   3 TIME =     0.01 SECS, INTEGRAL =      0.04 TIME LEFT: 172799.95
 STEP:   4 TIME =     0.02 SECS, INTEGRAL =      0.06 TIME LEFT: 172799.94
 STEP:   5 TIME =     0.02 SECS, INTEGRAL =      0.08 TIME LEFT: 172799.92
 STEP:   6 TIME =     0.02 SECS, INTEGRAL =      0.09 TIME LEFT: 172799.90
 STEP:   7 TIME =     0.01 SECS, INTEGRAL =      0.11 TIME LEFT: 172799.89
 STEP:   8 TIME =     0.02 SECS, INTEGRAL =      0.12 TIME LEFT: 172799.87
 STEP:   9 TIME =     0.01 SECS, INTEGRAL =      0.14 TIME LEFT: 172799.86
 STEP:  10 TIME =     0.01 SECS, INTEGRAL =      0.15 TIME LEFT: 172799.84
 STEP:  11 TIME =     0.02 SECS, INTEGRAL =      0.17 TIME LEFT: 172799.82
 STEP:  12 TIME =     0.02 SECS, INTEGRAL =      0.19 TIME LEFT: 172799.80
 STEP:  13 TIME =     0.02 SECS, INTEGRAL =      0.21 TIME LEFT: 172799.78
 STEP:  14 TIME =     0.02 SECS, INTEGRAL =      0.23 TIME LEFT: 172799.76
 STEP:  15 TIME =     0.02 SECS, INTEGRAL =      0.25 TIME LEFT: 172799.75
 STEP:  16 TIME =     0.02 SECS, INTEGRAL =      0.26 TIME LEFT: 172799.73
 STEP:  17 TIME =     0.02 SECS, INTEGRAL =      0.29 TIME LEFT: 172799.71
 STEP:  18 TIME =     0.02 SECS, INTEGRAL =      0.31 TIME LEFT: 172799.69
 STEP:  19 TIME =     0.02 SECS, INTEGRAL =      0.33 TIME LEFT: 172799.67
 STEP:  20 TIME =     0.02 SECS, INTEGRAL =      0.35 TIME LEFT: 172799.65
 STEP:  21 TIME =     0.01 SECS, INTEGRAL =      0.36 TIME LEFT: 172799.63
 STEP:  22 TIME =     0.02 SECS, INTEGRAL =      0.38 TIME LEFT: 172799.61
 STEP:  23 TIME =     0.02 SECS, INTEGRAL =      0.40 TIME LEFT: 172799.59
 STEP:  24 TIME =     0.02 SECS, INTEGRAL =      0.42 TIME LEFT: 172799.58
 STEP:  25 TIME =     0.02 SECS, INTEGRAL =      0.44 TIME LEFT: 172799.56
 STEP:  26 TIME =     0.02 SECS, INTEGRAL =      0.45 TIME LEFT: 172799.54
 STEP:  27 TIME =     0.02 SECS, INTEGRAL =      0.47 TIME LEFT: 172799.52
 STEP:  28 TIME =     0.02 SECS, INTEGRAL =      0.49 TIME LEFT: 172799.50
 STEP:  29 TIME =     0.02 SECS, INTEGRAL =      0.51 TIME LEFT: 172799.48
 STEP:  30 TIME =     0.02 SECS, INTEGRAL =      0.53 TIME LEFT: 172799.46
 STEP:  31 TIME =     0.01 SECS, INTEGRAL =      0.55 TIME LEFT: 172799.45
 STEP:  32 TIME =     0.02 SECS, INTEGRAL =      0.57 TIME LEFT: 172799.43
 STEP:  33 TIME =     0.01 SECS, INTEGRAL =      0.58 TIME LEFT: 172799.41
 STEP:  34 TIME =     0.02 SECS, INTEGRAL =      0.60 TIME LEFT: 172799.40
 STEP:  35 TIME =     0.02 SECS, INTEGRAL =      0.62 TIME LEFT: 172799.38
 STEP:  36 TIME =     0.02 SECS, INTEGRAL =      0.64 TIME LEFT: 172799.36
 STEP:  37 TIME =     0.02 SECS, INTEGRAL =      0.65 TIME LEFT: 172799.34
 STEP:  38 TIME =     0.02 SECS, INTEGRAL =      0.67 TIME LEFT: 172799.32
 STEP:  39 TIME =     0.02 SECS, INTEGRAL =      0.69 TIME LEFT: 172799.30
 STEP:  40 TIME =     0.02 SECS, INTEGRAL =      0.71 TIME LEFT: 172799.29
 STEP:  41 TIME =     0.01 SECS, INTEGRAL =      0.72 TIME LEFT: 172799.28
 STEP:  42 TIME =     0.01 SECS, INTEGRAL =      0.73 TIME LEFT: 172799.26
 STEP:  43 TIME =     0.01 SECS, INTEGRAL =      0.75 TIME LEFT: 172799.25
 STEP:  44 TIME =     0.01 SECS, INTEGRAL =      0.76 TIME LEFT: 172799.23
 STEP:  45 TIME =     0.02 SECS, INTEGRAL =      0.78 TIME LEFT: 172799.22
 STEP:  46 TIME =     0.01 SECS, INTEGRAL =      0.79 TIME LEFT: 172799.20
 STEP:  47 TIME =     0.01 SECS, INTEGRAL =      0.81 TIME LEFT: 172799.19
 STEP:  48 TIME =     0.02 SECS, INTEGRAL =      0.82 TIME LEFT: 172799.17

(To convert to Hartree/Bohr^2, multiply by (10^(-21) x N x a0^2)/(4.184 x 627.51) = 0.0642)


           FORCE MATRIX IN MILLIDYNES/ANGSTROM


                  C  1       C  2       C  3       C  4       C  5       C  6
 ------------------------------------------------------------------------------
     C    1  14.296021
     C    2   3.499609  14.622490
     C    3   3.500077   0.721409  14.624803
     C    4   4.364978   0.606664   0.606980  14.436860
     C    5   0.862454   4.753940   1.185051   0.033321  18.385386
     C    6   0.862448   1.184396   4.754866   0.033609  10.582457  18.383514
     H    7   4.315434   0.424081   0.423903   0.422732   0.025118   0.025363
     H    8   0.447680   4.483889   0.025360   0.061186   0.428510   0.037503
     H    9   0.435467   4.529972   0.029650   0.026649   0.431518   0.039150
     H   10   0.435497   0.029688   4.529842   0.026524   0.038784   0.431542
     H   11   0.447802   0.025403   4.483679   0.061307   0.037239   0.428507
     H   12   0.451471   0.048050   0.020239   4.740116   0.005360   0.001887
     H   13   0.466942   0.020974   0.020643   4.716260   0.001476   0.001555
     H   14   0.451331   0.019800   0.047771   4.739291   0.001839   0.005455
     H   15   0.042403   0.412645   0.115701   0.004429   5.021490   0.450008
     H   16   0.042471   0.115651   0.412536   0.004594   0.450095   5.021800


                  H  7       H  8       H  9       H 10       H 11       H 12
 ------------------------------------------------------------------------------
     H    7   4.769024
     H    8   0.027301   5.105507
     H    9   0.028762   0.570366   5.133429
     H   10   0.028785   0.003601   0.001168   5.133313
     H   11   0.027337   0.001288   0.003603   0.570496   5.105264
     H   12   0.030752   0.002717   0.004232   0.001614   0.017246   5.476027
     H   13   0.046200   0.023188   0.001449   0.001460   0.022970   0.572585
     H   14   0.030903   0.016768   0.001623   0.004168   0.002707   0.569765
     H   15   0.002741   0.014197   0.014945   0.015608   0.015639   0.001038
     H   16   0.002727   0.015549   0.015590   0.015066   0.014226   0.000541


                  H 13       H 14       H 15       H 16
 ------------------------------------------------------
     H   13   5.459840
     H   14   0.571945   5.475943
     H   15   0.000457   0.000512   5.418401
     H   16   0.000481   0.001025   0.048082   5.419421


          HEAT OF FORMATION =      -3.086702 KCALS/MOLE

          ZERO POINT ENERGY      90.036 KCAL/MOL


           NORMAL COORDINATE ANALYSIS (Total motion = 1 Angstrom)


   Root No.       1         2         3         4         5         6         7         8

                 1 A       2 A       3 A       4 A       5 A       6 A       7 A       8 A   

                  88.8     215.5     349.4     388.6     445.2     651.4     745.3     766.6
  
           1    0.0054    0.0059    0.0214   -0.0197    0.0015    0.0356    0.0079    0.0417
           2    0.0073   -0.0043   -0.0163    0.0150    0.0018    0.0469    0.0109   -0.0314
           3    0.0110    0.0000    0.0000    0.0001    0.0567    0.0337    0.0141    0.0003
           4    0.0053    0.0061    0.0224   -0.0213    0.0017    0.0373    0.0110   -0.0063
           5    0.0077    0.0038    0.0026   -0.0011    0.0159   -0.0346   -0.0063   -0.0588
           6    0.0391    0.0092   -0.0042    0.0258   -0.0198    0.0078   -0.0151    0.0013
           7    0.0061   -0.0020    0.0034   -0.0046    0.0149   -0.0434   -0.0096    0.0546
           8    0.0073   -0.0067   -0.0223    0.0208    0.0057    0.0267    0.0086    0.0220
           9    0.0392   -0.0077    0.0043   -0.0260   -0.0197    0.0079   -0.0151   -0.0017
          10   -0.0226   -0.0005   -0.0328    0.0308   -0.0345    0.0155   -0.0013    0.0109
          11   -0.0298   -0.0002    0.0249   -0.0235   -0.0451    0.0204   -0.0016   -0.0082
          12   -0.0267   -0.0005    0.0000    0.0001    0.0173   -0.0218    0.0061    0.0001
          13    0.0042   -0.0023    0.0015   -0.0031    0.0123   -0.0203   -0.0028   -0.1020
          14    0.0054    0.0066    0.0086   -0.0105    0.0169   -0.0309   -0.0053   -0.0211
          15   -0.0331    0.0071   -0.0514   -0.0245   -0.0066    0.0014   -0.0201    0.0023
          16    0.0043   -0.0069   -0.0079    0.0093    0.0129   -0.0244   -0.0043   -0.0071
          17    0.0055    0.0005   -0.0038    0.0058    0.0163   -0.0280   -0.0053    0.1038
          18   -0.0329   -0.0082    0.0514    0.0245   -0.0067    0.0014   -0.0200   -0.0029
          19    0.0270    0.0104    0.0362   -0.0217   -0.0069    0.0545    0.0032    0.0203
          20    0.0358   -0.0068   -0.0275    0.0165   -0.0092    0.0717    0.0045   -0.0153
          21   -0.0128   -0.0004    0.0000    0.0001    0.0627    0.0113    0.0192    0.0004
          22   -0.0119    0.0047    0.0253   -0.0442    0.0562    0.0741    0.0074    0.0225
          23    0.0624    0.0069    0.0576    0.0591   -0.0306   -0.0864    0.0685   -0.0461
          24    0.0766    0.0115    0.0241    0.0711   -0.0728   -0.0383    0.0290   -0.0026
          25    0.0220    0.0146    0.0307   -0.0063   -0.0580   -0.0167    0.0126    0.0319
          26   -0.0442    0.0055   -0.0381   -0.0684    0.0610   -0.0102   -0.0815   -0.0431
          27    0.0806    0.0121    0.0267    0.0775   -0.0788   -0.0364    0.0359    0.0067
          28   -0.0483   -0.0035    0.0449    0.0646    0.0740   -0.0055   -0.0822    0.0476
          29    0.0098   -0.0150   -0.0193    0.0243   -0.0398   -0.0187   -0.0094   -0.0198
          30    0.0807   -0.0089   -0.0266   -0.0779   -0.0786   -0.0363    0.0359   -0.0058
          31    0.0634   -0.0030   -0.0487   -0.0691   -0.0444   -0.1031    0.0635    0.0521
          32    0.0054   -0.0063   -0.0398    0.0269    0.0457    0.0484    0.0256   -0.0086
          33    0.0767   -0.0084   -0.0240   -0.0714   -0.0725   -0.0382    0.0289    0.0034
          34   -0.0225    0.0033   -0.0327    0.0310   -0.0350    0.0154   -0.0016    0.0116
          35   -0.0321    0.2379    0.0681   -0.0558   -0.0460    0.0210   -0.0031    0.0383
          36   -0.0544    0.1452   -0.0394    0.0470   -0.0282   -0.0718   -0.0181   -0.0496
          37   -0.0483    0.2163   -0.0499    0.0580   -0.0747   -0.0229   -0.0237   -0.0140
          38   -0.0585   -0.1664    0.0379   -0.0443   -0.0990   -0.0299   -0.0314    0.0098
          39   -0.0045   -0.0006    0.0000    0.0000    0.0535    0.0129    0.0266    0.0006
          40   -0.0195   -0.2292   -0.0743    0.0620   -0.0362    0.0165   -0.0020   -0.0337
          41   -0.0286   -0.0658    0.0135   -0.0151   -0.0461    0.0207   -0.0021   -0.0211
          42   -0.0514   -0.1466    0.0394   -0.0469   -0.0290   -0.0719   -0.0188    0.0486
          43    0.0033   -0.0039   -0.0050    0.0008    0.0139   -0.0328   -0.0007   -0.0875
          44    0.0039    0.0129    0.0230   -0.0284    0.0114    0.0078    0.0145   -0.0733
          45   -0.0759    0.0152   -0.1264   -0.0662   -0.0047   -0.0467    0.2287    0.0055
          46    0.0032   -0.0134   -0.0235    0.0276    0.0070    0.0164    0.0135    0.0473
          47    0.0043    0.0003   -0.0014    0.0069    0.0164   -0.0297    0.0020    0.1039
          48   -0.0755   -0.0178    0.1263    0.0660   -0.0050   -0.0465    0.2286    0.0010


   Root No.       9        10        11        12        13        14        15        16

                 9 A      10 A      11 A      12 A      13 A      14 A      15 A      16 A   

                 867.3     896.7     930.7     952.8     992.0    1022.5    1032.4    1075.4
  
           1   -0.0006   -0.0095   -0.0088   -0.0174   -0.0048   -0.0037    0.0051   -0.0198
           2    0.0004   -0.0125   -0.0115    0.0133    0.0036   -0.0049   -0.0038   -0.0258
           3    0.0000   -0.0175   -0.0055    0.0000    0.0000   -0.0166    0.0000    0.0052
           4   -0.0022    0.0523    0.0108    0.0278    0.0043    0.0019    0.0005    0.0031
           5    0.0026   -0.0126   -0.0003   -0.0244   -0.0075    0.0019    0.0174    0.0133
           6    0.0358   -0.0226    0.0247    0.0014   -0.0185    0.0150   -0.0130    0.0072
           7   -0.0031   -0.0261   -0.0032    0.0310    0.0084    0.0014   -0.0167    0.0120
           8    0.0015    0.0470    0.0103   -0.0203   -0.0021    0.0024   -0.0052    0.0064
           9   -0.0359   -0.0225    0.0247   -0.0014    0.0185    0.0150    0.0131    0.0070
          10   -0.0017   -0.0236   -0.0116   -0.0310    0.0048    0.0080   -0.0162    0.0104
          11    0.0013   -0.0310   -0.0152    0.0236   -0.0037    0.0105    0.0123    0.0137
          12    0.0000    0.0284   -0.0117    0.0000    0.0000    0.0170    0.0001   -0.0192
          13   -0.0009   -0.0023   -0.0004   -0.0078    0.0030   -0.0035   -0.0074   -0.0177
          14   -0.0020   -0.0018    0.0005    0.0078    0.0059   -0.0027   -0.0143   -0.0123
          15    0.0040    0.0122   -0.0183   -0.0017    0.0378   -0.0171    0.0078    0.0030
          16    0.0017   -0.0012    0.0006   -0.0096   -0.0049   -0.0018    0.0118   -0.0071
          17    0.0013   -0.0026   -0.0001    0.0055   -0.0045   -0.0041    0.0110   -0.0203
          18   -0.0039    0.0122   -0.0182    0.0018   -0.0378   -0.0172   -0.0079    0.0038
          19    0.0490   -0.0120    0.0350   -0.0527   -0.0829   -0.0322    0.0637   -0.0823
          20   -0.0372   -0.0158    0.0458    0.0403    0.0630   -0.0420   -0.0482   -0.1066
          21    0.0000   -0.0095   -0.0513   -0.0001    0.0000    0.0150   -0.0002    0.0709
          22    0.0447    0.0150    0.0607    0.0336   -0.0853   -0.0637    0.0089    0.1186
          23   -0.1031    0.0308   -0.0532   -0.0277   -0.0065   -0.0842    0.0666    0.1090
          24   -0.0462    0.0191   -0.0296   -0.0035    0.0258   -0.0014    0.0098    0.0021
          25   -0.0532    0.1513   -0.0186    0.0147    0.0889    0.0974    0.0861    0.0074
          26    0.0987   -0.0136    0.0634   -0.0387   -0.0146    0.1127    0.0603    0.0606
          27   -0.0539    0.0264   -0.0325    0.0048    0.0287   -0.0110    0.0004   -0.0183
          28   -0.1094   -0.0532    0.0661    0.0411    0.0380    0.0827   -0.0352    0.0544
          29    0.0251    0.1423   -0.0008   -0.0041   -0.0815    0.1245   -0.0992    0.0186
          30    0.0540    0.0264   -0.0324   -0.0048   -0.0287   -0.0110   -0.0004   -0.0183
          31    0.1114    0.0254   -0.0675    0.0354   -0.0165   -0.0640   -0.0623    0.0749
          32   -0.0154    0.0224    0.0440   -0.0256    0.0844   -0.0839   -0.0273    0.1465
          33    0.0463    0.0191   -0.0295    0.0035   -0.0259   -0.0013   -0.0098    0.0020
          34   -0.0013   -0.0242   -0.0103   -0.0314    0.0046    0.0066   -0.0163    0.0105
          35   -0.0189   -0.0381   -0.0104   -0.1251    0.0207    0.0026   -0.0576    0.0217
          36    0.0186    0.0777    0.0867    0.1428   -0.0216   -0.0553    0.0676   -0.0525
          37    0.0104    0.0020    0.0741    0.0429   -0.0110   -0.0604    0.0215   -0.0009
          38   -0.0079    0.0024    0.0974   -0.0324    0.0085   -0.0793   -0.0164   -0.0012
          39    0.0000    0.0054   -0.0894   -0.0003   -0.0001    0.0791    0.0000   -0.0109
          40    0.0178   -0.0302   -0.0073    0.1120   -0.0186    0.0007    0.0510    0.0187
          41    0.0062   -0.0335   -0.0129    0.0632   -0.0099    0.0072    0.0308    0.0161
          42   -0.0184    0.0776    0.0870   -0.1425    0.0218   -0.0553   -0.0673   -0.0531
          43   -0.0020   -0.0238   -0.0026   -0.0283   -0.0112   -0.0050    0.0253   -0.0386
          44   -0.0143    0.0691    0.0191    0.0778    0.0333    0.0089   -0.1257    0.0565
          45   -0.1475   -0.0621    0.0715    0.0098   -0.1579    0.0442   -0.0195   -0.0021
          46    0.0133    0.0732    0.0190   -0.0830   -0.0353    0.0095    0.1283    0.0654
          47    0.0057   -0.0044    0.0027    0.0065    0.0019   -0.0025    0.0093   -0.0221
          48    0.1475   -0.0626    0.0713   -0.0099    0.1581    0.0442    0.0198   -0.0038


   Root No.      17        18        19        20        21        22        23        24

                17 A      18 A      19 A      20 A      21 A      22 A      23 A      24 A   

                1076.7    1100.5    1122.8    1126.1    1163.8    1241.5    1267.7    1284.1
  
           1    0.0055   -0.0069    0.0127    0.0104    0.0190    0.0210    0.0770   -0.0285
           2   -0.0047   -0.0090   -0.0097    0.0140    0.0250   -0.0160   -0.0585   -0.0375
           3    0.0001   -0.0072   -0.0001   -0.0009    0.0424    0.0000    0.0000    0.0493
           4   -0.0011    0.0034   -0.0191   -0.0233   -0.0102    0.0140   -0.0463   -0.0144
           5    0.0026   -0.0129   -0.0043    0.0194    0.0086    0.0135   -0.0073   -0.0256
           6   -0.0085    0.0075   -0.0151   -0.0074   -0.0111    0.0006    0.0044   -0.0094
           7   -0.0023   -0.0133   -0.0006    0.0250    0.0110   -0.0093   -0.0053   -0.0208
           8    0.0005   -0.0003    0.0193   -0.0177   -0.0076   -0.0170    0.0465   -0.0208
           9    0.0086    0.0075    0.0151   -0.0076   -0.0111   -0.0006   -0.0044   -0.0094
          10   -0.0030    0.0036   -0.0061   -0.0023   -0.0067   -0.0051   -0.0160    0.0069
          11    0.0026    0.0047    0.0047   -0.0032   -0.0088    0.0039    0.0121    0.0091
          12   -0.0003   -0.0062    0.0001    0.0194   -0.0329    0.0000    0.0000   -0.0055
          13   -0.0007    0.0132    0.0049   -0.0213   -0.0088   -0.0025    0.0149    0.0153
          14    0.0007    0.0159    0.0054   -0.0160   -0.0086    0.0269    0.0022    0.0193
          15    0.0325   -0.0017    0.0032    0.0019   -0.0013   -0.0018   -0.0012   -0.0005
          16   -0.0012    0.0117   -0.0040   -0.0098   -0.0060   -0.0265    0.0019    0.0145
          17   -0.0002    0.0169   -0.0066   -0.0247   -0.0108   -0.0047   -0.0149    0.0199
          18   -0.0324   -0.0018   -0.0031    0.0021   -0.0013    0.0017    0.0013   -0.0005
          19    0.0345   -0.0618    0.2326    0.1167   -0.0552   -0.0654   -0.1359    0.0758
          20   -0.0282   -0.0794   -0.1753    0.1591   -0.0729    0.0496    0.1034    0.0998
          21    0.0009    0.0497   -0.0008   -0.1187    0.1259    0.0000    0.0000   -0.0644
          22    0.1255   -0.0375   -0.1075   -0.0321   -0.1075   -0.0817   -0.0151    0.0195
          23    0.1145   -0.0756   -0.0545    0.0479   -0.0145   -0.0886    0.0557   -0.0092
          24   -0.0083   -0.0063    0.0011    0.0092    0.0234   -0.0066    0.0223   -0.0130
          25   -0.1467   -0.0773   -0.0187   -0.0079    0.0702   -0.0684   -0.0206    0.1101
          26   -0.1151   -0.0753   -0.0561    0.0438    0.0402   -0.0769    0.0631    0.0054
          27   -0.0026    0.0086    0.0160   -0.0138    0.0093    0.0175   -0.0255    0.0275
          28    0.0735   -0.0518    0.0497    0.0435    0.0201    0.0557   -0.0664   -0.0242
          29    0.1731   -0.0937    0.0324    0.0035    0.0783    0.0862    0.0031    0.1076
          30    0.0020    0.0089   -0.0163   -0.0134    0.0093   -0.0175    0.0255    0.0275
          31   -0.0741   -0.0629    0.0246    0.0547    0.0149    0.0635   -0.0576   -0.0140
          32   -0.1470   -0.0576    0.1181   -0.0200   -0.1072    0.1025   -0.0004    0.0165
          33    0.0084   -0.0060   -0.0010    0.0094    0.0234    0.0066   -0.0223   -0.0130
          34   -0.0031    0.0028   -0.0049   -0.0013   -0.0059   -0.0050   -0.0152    0.0136
          35   -0.0052    0.0028   -0.0328   -0.0039    0.0025   -0.0171   -0.0541    0.0602
          36    0.0039   -0.0147    0.0357    0.0100    0.0464    0.0232    0.0589   -0.0973
          37    0.0042   -0.0037    0.0180   -0.0135    0.0696    0.0028    0.0209    0.0476
          38   -0.0031   -0.0049   -0.0141   -0.0173    0.0914   -0.0020   -0.0157    0.0627
          39   -0.0002    0.0000    0.0002    0.0307   -0.1021    0.0000   -0.0003   -0.0495
          40    0.0045    0.0017    0.0304   -0.0042    0.0038    0.0151    0.0481    0.0544
          41    0.0048    0.0033    0.0134   -0.0027   -0.0053    0.0094    0.0289    0.0292
          42   -0.0054   -0.0145   -0.0358    0.0108    0.0465   -0.0229   -0.0585   -0.0976
          43    0.0004   -0.0343   -0.0145   -0.0738   -0.0200    0.0442   -0.0041    0.0142
          44   -0.0137    0.1825    0.0679    0.1556    0.0258   -0.1336    0.0668    0.0295
          45   -0.0640   -0.0010   -0.0085   -0.0076    0.0003    0.0039   -0.0012   -0.0032
          46    0.0144    0.1853   -0.0645    0.1712    0.0304    0.1398   -0.0653    0.0247
          47    0.0025    0.0157   -0.0046   -0.0294   -0.0123   -0.0068   -0.0139    0.0216
          48    0.0640   -0.0004    0.0083   -0.0076    0.0003   -0.0039    0.0012   -0.0032


   Root No.      25        26        27        28        29        30        31        32

                25 A      26 A      27 A      28 A      29 A      30 A      31 A      32 A   

                1371.8    1371.9    1405.9    1407.0    1410.4    1414.5    1420.4    1829.8
  
           1    0.0011   -0.0220   -0.0025    0.0015    0.0088   -0.0073    0.0329    0.0056
           2    0.0124   -0.0256   -0.0032    0.0020   -0.0067    0.0056    0.0432    0.0074
           3   -0.0030    0.0096    0.0024   -0.0048    0.0000    0.0000   -0.0401   -0.0020
           4   -0.0395    0.0228    0.0182   -0.0006   -0.0021    0.0067   -0.0185    0.0065
           5   -0.0323    0.0293   -0.0354    0.0023    0.0320   -0.0206   -0.0133   -0.0182
           6    0.0021   -0.0031    0.0005    0.0004   -0.0007    0.0003    0.0064    0.0004
           7    0.0043    0.0297   -0.0384    0.0023   -0.0319    0.0216   -0.0080   -0.0193
           8    0.0215    0.0509    0.0082    0.0001   -0.0065   -0.0010   -0.0214    0.0014
           9    0.0001   -0.0037    0.0004    0.0004    0.0007   -0.0003    0.0064    0.0005
          10    0.0004   -0.0056   -0.0013   -0.0232   -0.0145   -0.0153   -0.0292   -0.0007
          11    0.0031   -0.0065   -0.0020   -0.0299    0.0112    0.0118   -0.0384   -0.0009
          12   -0.0054    0.0174    0.0025   -0.0182    0.0001    0.0001    0.0586    0.0012
          13    0.0177   -0.0083    0.0095   -0.0005   -0.0051    0.0018    0.0035   -0.1683
          14    0.0418   -0.0030    0.0080   -0.0008   -0.0268    0.0151    0.0023    0.1601
          15   -0.0014    0.0003   -0.0006    0.0000    0.0009   -0.0006   -0.0005   -0.0010
          16   -0.0289   -0.0205    0.0047   -0.0006    0.0245   -0.0141    0.0014    0.1993
          17   -0.0182   -0.0231    0.0110   -0.0007    0.0122   -0.0058    0.0040   -0.1193
          18    0.0009    0.0010   -0.0006   -0.0001   -0.0009    0.0006   -0.0005   -0.0009
          19    0.0155    0.0198    0.0091   -0.0044   -0.0339    0.0162   -0.0444    0.0008
          20   -0.0207    0.0135    0.0113   -0.0056    0.0260   -0.0123   -0.0583    0.0012
          21    0.0084   -0.0268   -0.0098    0.0005   -0.0001    0.0000    0.0429    0.0051
          22    0.1439   -0.0486   -0.1052    0.0070    0.0303   -0.0429    0.0623   -0.0182
          23   -0.0218   -0.0567    0.1141   -0.0098   -0.0646    0.0507    0.0182   -0.0281
          24   -0.0690   -0.0134    0.1206   -0.0083   -0.0578    0.0537   -0.0132    0.0013
          25    0.1259   -0.0290   -0.0920    0.0029    0.0295   -0.0351    0.0147   -0.0185
          26   -0.0231   -0.0517    0.1082   -0.0079   -0.0591    0.0481    0.0132   -0.0300
          27    0.0648    0.0220   -0.1255    0.0072    0.0633   -0.0550    0.0031    0.0015
          28    0.0700   -0.0031    0.1279   -0.0080    0.0665   -0.0556    0.0089   -0.0240
          29   -0.0710   -0.0993   -0.0596    0.0005   -0.0133    0.0209    0.0178   -0.0259
          30   -0.0659   -0.0185   -0.1246    0.0068   -0.0648    0.0549    0.0031    0.0015
          31    0.0726   -0.0008    0.1368   -0.0110    0.0721   -0.0601    0.0010   -0.0222
          32   -0.0741   -0.1260   -0.0708    0.0036   -0.0128    0.0277    0.0651   -0.0251
          33    0.0644    0.0278    0.1196   -0.0079    0.0593   -0.0535   -0.0131    0.0014
          34   -0.0004    0.0031    0.0012   -0.0013   -0.0066   -0.0038   -0.0126   -0.0004
          35   -0.0196    0.0485    0.0244    0.3551   -0.0402   -0.0468    0.0636    0.0008
          36    0.0057   -0.1086   -0.0138    0.1005   -0.0817   -0.1263   -0.1463   -0.0002
          37    0.0087    0.0632    0.0077   -0.0778    0.1233    0.1716    0.1069    0.0010
          38   -0.0422    0.0664    0.0126   -0.1062   -0.0936   -0.1303    0.1405    0.0013
          39    0.0151   -0.0489   -0.0068    0.0639   -0.0005   -0.0006   -0.0903   -0.0004
          40   -0.0113    0.0482    0.0225    0.3448    0.0355    0.0425    0.0644    0.0009
          41   -0.0046    0.0162    0.0073    0.0926    0.0163    0.0152    0.0048   -0.0002
          42    0.0568   -0.0931   -0.0154    0.1032    0.0810    0.1253   -0.1467   -0.0002
          43    0.0427    0.0039    0.0146   -0.0008   -0.0258    0.0143    0.0005   -0.1392
          44   -0.0412   -0.0482   -0.0025   -0.0003    0.0436   -0.0272    0.0123   -0.0967
          45    0.0001    0.0013   -0.0001    0.0001   -0.0006    0.0005    0.0006    0.0063
          46    0.0690   -0.0105   -0.0054    0.0000   -0.0489    0.0300    0.0115   -0.0561
          47   -0.0196   -0.0245    0.0131   -0.0008    0.0134   -0.0065    0.0038   -0.1599
          48   -0.0008    0.0010   -0.0001    0.0001    0.0006   -0.0005    0.0006    0.0062


   Root No.      33        34        35        36        37        38        39        40

                33 A      34 A      35 A      36 A      37 A      38 A      39 A      40 A   

                2904.1    2972.4    2973.6    3051.0    3051.9    3078.3    3083.5    3116.1
  
           1   -0.0201    0.0001   -0.0013   -0.0006    0.0001   -0.0006   -0.0003   -0.0001
           2   -0.0264   -0.0002   -0.0017    0.0005    0.0001   -0.0007    0.0002    0.0000
           3   -0.0502   -0.0001   -0.0034    0.0000   -0.0004   -0.0014    0.0000    0.0001
           4   -0.0008    0.0010   -0.0011   -0.0130    0.0130    0.0004    0.0001    0.0002
           5    0.0004    0.0000    0.0001    0.0166   -0.0166   -0.0003    0.0003   -0.0001
           6    0.0053    0.0295   -0.0297    0.0016   -0.0016   -0.0003   -0.0005    0.0000
           7    0.0006    0.0003    0.0004   -0.0199   -0.0191   -0.0004   -0.0003    0.0001
           8   -0.0007   -0.0011   -0.0010    0.0082    0.0080    0.0003   -0.0002   -0.0002
           9    0.0053   -0.0314   -0.0279   -0.0017   -0.0016   -0.0003    0.0005   -0.0001
          10    0.0013    0.0000    0.0000    0.0002    0.0003   -0.0234   -0.0455   -0.0001
          11    0.0017    0.0000    0.0000   -0.0001    0.0004   -0.0308    0.0346    0.0001
          12    0.0010    0.0000    0.0003    0.0000    0.0006   -0.0317    0.0000    0.0001
          13    0.0002    0.0000    0.0000    0.0007   -0.0009   -0.0001    0.0000    0.0368
          14    0.0001    0.0000    0.0001    0.0004   -0.0006    0.0000    0.0000    0.0106
          15    0.0000   -0.0001   -0.0002    0.0000    0.0000    0.0000    0.0000   -0.0012
          16    0.0001    0.0000    0.0001   -0.0002   -0.0004    0.0000    0.0000   -0.0005
          17    0.0002    0.0000    0.0000   -0.0008   -0.0011   -0.0001    0.0000   -0.0377
          18    0.0000    0.0001   -0.0002    0.0000    0.0000    0.0000    0.0000    0.0010
          19    0.2405   -0.0021    0.0171   -0.0010    0.0026    0.0042   -0.0011   -0.0001
          20    0.3163    0.0028    0.0224    0.0008    0.0034    0.0056    0.0009    0.0000
          21    0.6066    0.0012    0.0383    0.0001    0.0059    0.0178    0.0000    0.0001
          22   -0.0115   -0.0940    0.0952    0.0750   -0.0732   -0.0002    0.0029   -0.0004
          23    0.0162    0.1072   -0.1085   -0.0840    0.0822    0.0010   -0.0012    0.0027
          24   -0.0299   -0.1956    0.1977    0.1844   -0.1806   -0.0037    0.0034   -0.0033
          25    0.0115    0.0798   -0.0804    0.0855   -0.0838   -0.0024    0.0003   -0.0006
          26   -0.0221   -0.1070    0.1076   -0.1157    0.1136    0.0031    0.0000    0.0034
          27   -0.0334   -0.1594    0.1599   -0.2040    0.2003    0.0056   -0.0003    0.0042
          28   -0.0244    0.1323    0.1176    0.1370    0.1294    0.0035   -0.0001   -0.0034
          29    0.0052   -0.0514   -0.0457   -0.0524   -0.0494   -0.0014   -0.0002   -0.0004
          30   -0.0334    0.1694    0.1502    0.2080    0.1965    0.0053    0.0000   -0.0040
          31    0.0187   -0.1366   -0.1222    0.1029    0.0968    0.0008    0.0019   -0.0026
          32   -0.0068    0.0659    0.0589   -0.0508   -0.0476    0.0002   -0.0024   -0.0003
          33   -0.0299    0.2080    0.1859   -0.1880   -0.1771   -0.0033   -0.0032    0.0033
          34   -0.0107    0.0026   -0.0030   -0.0020   -0.0013    0.2183    0.4503    0.0005
          35    0.0023   -0.0002   -0.0001    0.0003    0.0005   -0.0235    0.0023    0.0001
          36   -0.0031   -0.0001    0.0000   -0.0002    0.0002   -0.0106    0.0123    0.0001
          37   -0.0075    0.0004   -0.0011   -0.0001   -0.0025    0.1419   -0.0229   -0.0001
          38   -0.0098   -0.0004   -0.0014    0.0002   -0.0033    0.1848    0.0185    0.0002
          39   -0.0135   -0.0001   -0.0012    0.0001   -0.0075    0.4007    0.0014    0.0001
          40    0.0051    0.0010    0.0007   -0.0009    0.0010   -0.0805    0.1157    0.0001
          41   -0.0098   -0.0027   -0.0029    0.0020   -0.0015    0.2066   -0.4340   -0.0003
          42   -0.0032    0.0000   -0.0001    0.0002    0.0002   -0.0099   -0.0134    0.0002
          43    0.0022   -0.0001   -0.0002   -0.0040    0.0153    0.0010    0.0004   -0.4358
          44    0.0010    0.0000    0.0000   -0.0003    0.0033    0.0003    0.0001   -0.1285
          45    0.0000    0.0003   -0.0010    0.0001   -0.0005    0.0000    0.0000    0.0136
          46    0.0004    0.0000    0.0000   -0.0008   -0.0009    0.0000    0.0000    0.0073
          47    0.0023    0.0002   -0.0003    0.0043    0.0156    0.0009   -0.0005    0.4480
          48    0.0000   -0.0004   -0.0009   -0.0001   -0.0005    0.0000    0.0000   -0.0136


   Root No.      41        42

                41 A      42 A   

                3135.2    3178.9
  
           1    0.0006   -0.0003
           2    0.0008   -0.0004
           3    0.0002    0.0003
           4   -0.0012    0.0000
           5    0.0018    0.0001
           6    0.0001   -0.0002
           7    0.0021    0.0001
           8   -0.0007    0.0000
           9   -0.0001   -0.0002
          10    0.0000   -0.0099
          11    0.0001   -0.0129
          12    0.0002    0.0184
          13   -0.0399    0.0000
          14   -0.0062    0.0000
          15    0.0011    0.0000
          16    0.0047    0.0000
          17   -0.0406    0.0000
          18    0.0010    0.0000
          19   -0.0007    0.0003
          20   -0.0011    0.0004
          21   -0.0018    0.0028
          22    0.0039    0.0002
          23   -0.0061   -0.0014
          24    0.0118    0.0027
          25    0.0044    0.0002
          26   -0.0080   -0.0003
          27   -0.0121   -0.0007
          28   -0.0089   -0.0004
          29    0.0019    0.0001
          30   -0.0125   -0.0007
          31   -0.0071   -0.0014
          32    0.0022   -0.0001
          33    0.0115    0.0027
          34   -0.0006    0.3256
          35    0.0001   -0.0165
          36    0.0001    0.0167
          37   -0.0001   -0.1035
          38    0.0001   -0.1348
          39   -0.0002   -0.2601
          40    0.0002   -0.1012
          41   -0.0005    0.3095
          42    0.0002    0.0174
          43    0.4058    0.0002
          44    0.1171    0.0001
          45   -0.0126    0.0000
          46    0.0044    0.0000
          47    0.4284    0.0002
          48   -0.0130    0.0000


           MASS-WEIGHTED COORDINATE ANALYSIS (NORMAL COORDINATES)


   Root No.       1         2         3         4         5         6         7         8

                 1 A       2 A       3 A       4 A       5 A       6 A       7 A       8 A   

                  88.8     215.5     349.4     388.6     445.2     651.4     745.3     766.6
  
           1    0.0471    0.0419    0.1765   -0.1813    0.0119    0.2593    0.0682    0.2214
           2    0.0635   -0.0304   -0.1343    0.1380    0.0146    0.3413    0.0940   -0.1666
           3    0.0954    0.0003   -0.0003    0.0008    0.4569    0.2452    0.1217    0.0015
           4    0.0456    0.0432    0.1849   -0.1960    0.0138    0.2719    0.0945   -0.0335
           5    0.0667    0.0271    0.0218   -0.0104    0.1277   -0.2519   -0.0545   -0.3125
           6    0.3384    0.0648   -0.0350    0.2377   -0.1594    0.0570   -0.1301    0.0068
           7    0.0525   -0.0138    0.0283   -0.0421    0.1196   -0.3158   -0.0827    0.2903
           8    0.0634   -0.0475   -0.1840    0.1917    0.0461    0.1944    0.0745    0.1169
           9    0.3398   -0.0542    0.0354   -0.2387   -0.1588    0.0574   -0.1301   -0.0090
          10   -0.1957   -0.0039   -0.2702    0.2835   -0.2776    0.1128   -0.0115    0.0578
          11   -0.2578   -0.0012    0.2056   -0.2163   -0.3633    0.1484   -0.0142   -0.0435
          12   -0.2309   -0.0039   -0.0002    0.0005    0.1394   -0.1590    0.0526    0.0004
          13    0.0366   -0.0163    0.0127   -0.0286    0.0987   -0.1482   -0.0242   -0.5419
          14    0.0468    0.0465    0.0709   -0.0962    0.1358   -0.2253   -0.0456   -0.1120
          15   -0.2867    0.0501   -0.4244   -0.2253   -0.0532    0.0102   -0.1730    0.0121
          16    0.0368   -0.0488   -0.0650    0.0853    0.1039   -0.1775   -0.0370   -0.0378
          17    0.0479    0.0036   -0.0313    0.0537    0.1313   -0.2038   -0.0454    0.5514
          18   -0.2851   -0.0578    0.4244    0.2255   -0.0538    0.0102   -0.1720   -0.0154
          19    0.0678    0.0213    0.0865   -0.0579   -0.0161    0.1149    0.0079    0.0313
          20    0.0898   -0.0139   -0.0657    0.0440   -0.0214    0.1512    0.0113   -0.0236
          21   -0.0322   -0.0009   -0.0001    0.0003    0.1462    0.0239    0.0480    0.0005
          22   -0.0299    0.0096    0.0604   -0.1179    0.1310    0.1563    0.0185    0.0346
          23    0.1567    0.0142    0.1377    0.1574   -0.0714   -0.1822    0.1710   -0.0709
          24    0.1922    0.0234    0.0576    0.1894   -0.1697   -0.0807    0.0724   -0.0040
          25    0.0552    0.0298    0.0733   -0.0167   -0.1353   -0.0351    0.0314    0.0491
          26   -0.1109    0.0113   -0.0911   -0.1824    0.1422   -0.0215   -0.2034   -0.0664
          27    0.2022    0.0247    0.0639    0.2066   -0.1838   -0.0768    0.0896    0.0104
          28   -0.1213   -0.0071    0.1073    0.1721    0.1726   -0.0116   -0.2052    0.0733
          29    0.0245   -0.0307   -0.0461    0.0647   -0.0929   -0.0395   -0.0235   -0.0304
          30    0.2026   -0.0182   -0.0637   -0.2075   -0.1832   -0.0766    0.0895   -0.0089
          31    0.1591   -0.0062   -0.1164   -0.1840   -0.1035   -0.2174    0.1585    0.0802
          32    0.0135   -0.0128   -0.0950    0.0717    0.1066    0.1021    0.0640   -0.0132
          33    0.1926   -0.0173   -0.0573   -0.1904   -0.1692   -0.0806    0.0722    0.0052
          34   -0.0564    0.0067   -0.0781    0.0826   -0.0817    0.0324   -0.0041    0.0178
          35   -0.0806    0.4870    0.1627   -0.1487   -0.1073    0.0444   -0.0077    0.0589
          36   -0.1366    0.2973   -0.0943    0.1254   -0.0658   -0.1514   -0.0452   -0.0763
          37   -0.1213    0.4426   -0.1192    0.1545   -0.1742   -0.0482   -0.0592   -0.0216
          38   -0.1469   -0.3407    0.0907   -0.1179   -0.2310   -0.0630   -0.0783    0.0151
          39   -0.0113   -0.0012    0.0001    0.0001    0.1249    0.0273    0.0664    0.0009
          40   -0.0490   -0.4690   -0.1776    0.1651   -0.0844    0.0348   -0.0051   -0.0518
          41   -0.0719   -0.1346    0.0322   -0.0403   -0.1075    0.0436   -0.0052   -0.0325
          42   -0.1290   -0.3000    0.0941   -0.1251   -0.0676   -0.1517   -0.0469    0.0748
          43    0.0084   -0.0079   -0.0119    0.0021    0.0325   -0.0693   -0.0017   -0.1346
          44    0.0097    0.0264    0.0550   -0.0758    0.0266    0.0164    0.0362   -0.1128
          45   -0.1905    0.0311   -0.3021   -0.1763   -0.0110   -0.0984    0.5708    0.0084
          46    0.0081   -0.0275   -0.0563    0.0736    0.0163    0.0346    0.0336    0.0728
          47    0.0107    0.0006   -0.0033    0.0183    0.0384   -0.0626    0.0050    0.1599
          48   -0.1894   -0.0364    0.3020    0.1759   -0.0116   -0.0981    0.5704    0.0016


   Root No.       9        10        11        12        13        14        15        16

                 9 A      10 A      11 A      12 A      13 A      14 A      15 A      16 A   

                 867.3     896.7     930.7     952.8     992.0    1022.5    1032.4    1075.4
  
           1   -0.0053   -0.0725   -0.0894   -0.1495   -0.0434   -0.0368    0.0526   -0.1839
           2    0.0040   -0.0954   -0.1173    0.1145    0.0325   -0.0490   -0.0392   -0.2401
           3    0.0000   -0.1338   -0.0556   -0.0004   -0.0001   -0.1662   -0.0005    0.0481
           4   -0.0202    0.3991    0.1097    0.2383    0.0394    0.0192    0.0051    0.0285
           5    0.0236   -0.0964   -0.0033   -0.2097   -0.0676    0.0190    0.1788    0.1232
           6    0.3291   -0.1725    0.2513    0.0121   -0.1674    0.1501   -0.1341    0.0670
           7   -0.0284   -0.1991   -0.0322    0.2656    0.0757    0.0136   -0.1712    0.1116
           8    0.0138    0.3584    0.1048   -0.1743   -0.0190    0.0238   -0.0536    0.0591
           9   -0.3298   -0.1716    0.2509   -0.0120    0.1676    0.1499    0.1342    0.0653
          10   -0.0158   -0.1801   -0.1179   -0.2657    0.0435    0.0806   -0.1659    0.0966
          11    0.0116   -0.2363   -0.1550    0.2027   -0.0336    0.1054    0.1267    0.1275
          12    0.0004    0.2166   -0.1190    0.0001   -0.0002    0.1700    0.0011   -0.1784
          13   -0.0079   -0.0175   -0.0037   -0.0669    0.0276   -0.0351   -0.0756   -0.1646
          14   -0.0182   -0.0139    0.0056    0.0670    0.0536   -0.0275   -0.1465   -0.1147
          15    0.0363    0.0929   -0.1861   -0.0150    0.3425   -0.1716    0.0803    0.0277
          16    0.0154   -0.0089    0.0065   -0.0824   -0.0443   -0.0176    0.1213   -0.0660
          17    0.0123   -0.0197   -0.0015    0.0470   -0.0412   -0.0415    0.1128   -0.1883
          18   -0.0362    0.0931   -0.1856    0.0153   -0.3426   -0.1718   -0.0815    0.0358
          19    0.1304   -0.0266    0.1033   -0.1310   -0.2177   -0.0933    0.1897   -0.2216
          20   -0.0990   -0.0349    0.1352    0.1002    0.1653   -0.1218   -0.1433   -0.2869
          21    0.0000   -0.0209   -0.1513   -0.0003    0.0000    0.0435   -0.0005    0.1907
          22    0.1188    0.0331    0.1789    0.0835   -0.2239   -0.1848    0.0264    0.3192
          23   -0.2741    0.0679   -0.1570   -0.0688   -0.0171   -0.2442    0.1980    0.2933
          24   -0.1229    0.0421   -0.0872   -0.0086    0.0678   -0.0040    0.0291    0.0057
          25   -0.1414    0.3342   -0.0548    0.0366    0.2333    0.2826    0.2562    0.0198
          26    0.2627   -0.0300    0.1870   -0.0961   -0.0385    0.3268    0.1793    0.1632
          27   -0.1434    0.0584   -0.0957    0.0119    0.0753   -0.0319    0.0013   -0.0493
          28   -0.2911   -0.1175    0.1948    0.1021    0.0997    0.2397   -0.1046    0.1464
          29    0.0667    0.3143   -0.0024   -0.0101   -0.2140    0.3612   -0.2951    0.0501
          30    0.1436    0.0583   -0.0956   -0.0119   -0.0754   -0.0318   -0.0011   -0.0491
          31    0.2964    0.0562   -0.1990    0.0880   -0.0432   -0.1855   -0.1852    0.2017
          32   -0.0411    0.0494    0.1298   -0.0635    0.2215   -0.2432   -0.0813    0.3941
          33    0.1231    0.0421   -0.0870    0.0086   -0.0679   -0.0039   -0.0291    0.0053
          34   -0.0035   -0.0534   -0.0302   -0.0781    0.0120    0.0191   -0.0484    0.0282
          35   -0.0504   -0.0841   -0.0305   -0.3108    0.0542    0.0075   -0.1715    0.0584
          36    0.0496    0.1718    0.2556    0.3549   -0.0568   -0.1602    0.2011   -0.1413
          37    0.0277    0.0045    0.2186    0.1067   -0.0288   -0.1752    0.0639   -0.0023
          38   -0.0210    0.0052    0.2871   -0.0806    0.0222   -0.2301   -0.0488   -0.0033
          39    0.0000    0.0120   -0.2634   -0.0007   -0.0001    0.2295    0.0001   -0.0294
          40    0.0474   -0.0667   -0.0215    0.2782   -0.0489    0.0020    0.1518    0.0503
          41    0.0165   -0.0740   -0.0380    0.1571   -0.0259    0.0208    0.0918    0.0434
          42   -0.0490    0.1714    0.2564   -0.3540    0.0571   -0.1604   -0.2004   -0.1430
          43   -0.0053   -0.0527   -0.0075   -0.0704   -0.0295   -0.0145    0.0753   -0.1039
          44   -0.0380    0.1527    0.0562    0.1934    0.0874    0.0257   -0.3741    0.1521
          45   -0.3922   -0.1372    0.2107    0.0244   -0.4147    0.1281   -0.0581   -0.0057
          46    0.0353    0.1617    0.0561   -0.2063   -0.0928    0.0277    0.3819    0.1760
          47    0.0151   -0.0097    0.0079    0.0163    0.0049   -0.0072    0.0277   -0.0594
          48    0.3923   -0.1383    0.2101   -0.0246    0.4152    0.1283    0.0590   -0.0102


   Root No.      17        18        19        20        21        22        23        24

                17 A      18 A      19 A      20 A      21 A      22 A      23 A      24 A   

                1076.7    1100.5    1122.8    1126.1    1163.8    1241.5    1267.7    1284.1
  
           1    0.0464   -0.0639    0.1115    0.0860    0.1690    0.1982    0.5377   -0.2326
           2   -0.0397   -0.0832   -0.0846    0.1155    0.2226   -0.1508   -0.4086   -0.3057
           3    0.0011   -0.0672   -0.0004   -0.0071    0.3772   -0.0001    0.0002    0.4025
           4   -0.0092    0.0313   -0.1673   -0.1927   -0.0911    0.1316   -0.3235   -0.1177
           5    0.0221   -0.1197   -0.0372    0.1602    0.0763    0.1274   -0.0513   -0.2088
           6   -0.0719    0.0692   -0.1321   -0.0609   -0.0988    0.0061    0.0305   -0.0770
           7   -0.0195   -0.1231   -0.0053    0.2066    0.0980   -0.0876   -0.0374   -0.1699
           8    0.0039   -0.0028    0.1687   -0.1462   -0.0675   -0.1605    0.3253   -0.1697
           9    0.0730    0.0692    0.1317   -0.0627   -0.0984   -0.0060   -0.0306   -0.0769
          10   -0.0253    0.0336   -0.0534   -0.0187   -0.0595   -0.0480   -0.1115    0.0566
          11    0.0220    0.0432    0.0409   -0.0264   -0.0782    0.0364    0.0846    0.0746
          12   -0.0024   -0.0578    0.0011    0.1602   -0.2931    0.0002   -0.0003   -0.0452
          13   -0.0062    0.1220    0.0431   -0.1757   -0.0780   -0.0236    0.1038    0.1251
          14    0.0060    0.1474    0.0475   -0.1326   -0.0769    0.2534    0.0151    0.1572
          15    0.2762   -0.0157    0.0277    0.0161   -0.0118   -0.0167   -0.0087   -0.0037
          16   -0.0099    0.1086   -0.0352   -0.0811   -0.0535   -0.2503    0.0133    0.1180
          17   -0.0019    0.1570   -0.0578   -0.2038   -0.0956   -0.0447   -0.1040    0.1625
          18   -0.2752   -0.0167   -0.0271    0.0174   -0.0116    0.0163    0.0089   -0.0037
          19    0.0850   -0.1660    0.5895    0.2794   -0.1422   -0.1787   -0.2750    0.1792
          20   -0.0695   -0.2132   -0.4443    0.3808   -0.1878    0.1357    0.2093    0.2359
          21    0.0022    0.1334   -0.0021   -0.2842    0.3244    0.0001    0.0000   -0.1523
          22    0.3092   -0.1008   -0.2725   -0.0768   -0.2770   -0.2233   -0.0306    0.0462
          23    0.2822   -0.2029   -0.1381    0.1147   -0.0374   -0.2422    0.1127   -0.0217
          24   -0.0204   -0.0169    0.0029    0.0221    0.0602   -0.0180    0.0451   -0.0307
          25   -0.3614   -0.2077   -0.0473   -0.0190    0.1809   -0.1868   -0.0417    0.2604
          26   -0.2836   -0.2023   -0.1423    0.1047    0.1036   -0.2101    0.1278    0.0128
          27   -0.0063    0.0232    0.0406   -0.0330    0.0240    0.0477   -0.0515    0.0651
          28    0.1812   -0.1390    0.1261    0.1040    0.0518    0.1522   -0.1343   -0.0572
          29    0.4264   -0.2516    0.0821    0.0085    0.2017    0.2356    0.0063    0.2546
          30    0.0049    0.0238   -0.0413   -0.0321    0.0239   -0.0477    0.0516    0.0652
          31   -0.1825   -0.1689    0.0623    0.1310    0.0385    0.1735   -0.1167   -0.0331
          32   -0.3620   -0.1547    0.2993   -0.0479   -0.2763    0.2801   -0.0007    0.0390
          33    0.0207   -0.0162   -0.0026    0.0226    0.0604    0.0180   -0.0451   -0.0306
          34   -0.0077    0.0076   -0.0123   -0.0032   -0.0153   -0.0138   -0.0308    0.0323
          35   -0.0128    0.0076   -0.0832   -0.0094    0.0063   -0.0466   -0.1096    0.1423
          36    0.0097   -0.0395    0.0905    0.0240    0.1195    0.0633    0.1192   -0.2301
          37    0.0103   -0.0101    0.0457   -0.0323    0.1792    0.0076    0.0424    0.1127
          38   -0.0076   -0.0133   -0.0358   -0.0415    0.2355   -0.0055   -0.0318    0.1482
          39   -0.0006    0.0000    0.0006    0.0735   -0.2631   -0.0001   -0.0005   -0.1170
          40    0.0111    0.0045    0.0770   -0.0100    0.0098    0.0414    0.0974    0.1286
          41    0.0118    0.0089    0.0340   -0.0064   -0.0137    0.0256    0.0585    0.0691
          42   -0.0133   -0.0388   -0.0907    0.0259    0.1199   -0.0625   -0.1183   -0.2308
          43    0.0009   -0.0922   -0.0368   -0.1767   -0.0514    0.1207   -0.0082    0.0336
          44   -0.0338    0.4900    0.1721    0.3726    0.0666   -0.3651    0.1353    0.0698
          45   -0.1578   -0.0026   -0.0216   -0.0181    0.0008    0.0106   -0.0025   -0.0077
          46    0.0354    0.4977   -0.1634    0.4097    0.0783    0.3820   -0.1322    0.0585
          47    0.0062    0.0422   -0.0117   -0.0705   -0.0317   -0.0186   -0.0282    0.0510
          48    0.1578   -0.0010    0.0211   -0.0182    0.0008   -0.0106    0.0025   -0.0076


   Root No.      25        26        27        28        29        30        31        32

                25 A      26 A      27 A      28 A      29 A      30 A      31 A      32 A   

                1371.8    1371.9    1405.9    1407.0    1410.4    1414.5    1420.4    1829.8
  
           1    0.0091   -0.1862   -0.0201    0.0091    0.0839   -0.0688    0.2296    0.0167
           2    0.1044   -0.2166   -0.0251    0.0123   -0.0642    0.0524    0.3017    0.0221
           3   -0.0253    0.0815    0.0191   -0.0295    0.0004    0.0001   -0.2800   -0.0059
           4   -0.3323    0.1930    0.1435   -0.0034   -0.0200    0.0635   -0.1291    0.0192
           5   -0.2711    0.2475   -0.2787    0.0141    0.3063   -0.1940   -0.0930   -0.0539
           6    0.0173   -0.0263    0.0036    0.0024   -0.0063    0.0026    0.0444    0.0012
           7    0.0362    0.2513   -0.3026    0.0140   -0.3051    0.2036   -0.0557   -0.0571
           8    0.1806    0.4304    0.0648    0.0006   -0.0618   -0.0094   -0.1496    0.0040
           9    0.0007   -0.0315    0.0035    0.0025    0.0064   -0.0027    0.0445    0.0013
          10    0.0030   -0.0469   -0.0100   -0.1422   -0.1388   -0.1439   -0.2037   -0.0021
          11    0.0261   -0.0547   -0.0154   -0.1829    0.1073    0.1111   -0.2679   -0.0028
          12   -0.0451    0.1470    0.0198   -0.1115    0.0006    0.0012    0.4091    0.0034
          13    0.1485   -0.0704    0.0747   -0.0032   -0.0488    0.0174    0.0242   -0.4985
          14    0.3513   -0.0255    0.0627   -0.0048   -0.2564    0.1426    0.0162    0.4741
          15   -0.0115    0.0029   -0.0045   -0.0003    0.0083   -0.0056   -0.0037   -0.0029
          16   -0.2430   -0.1736    0.0370   -0.0035    0.2346   -0.1326    0.0098    0.5904
          17   -0.1530   -0.1955    0.0870   -0.0043    0.1170   -0.0548    0.0281   -0.3534
          18    0.0078    0.0089   -0.0046   -0.0003   -0.0082    0.0056   -0.0037   -0.0028
          19    0.0377    0.0486    0.0208   -0.0077   -0.0941    0.0442   -0.0898    0.0007
          20   -0.0503    0.0330    0.0259   -0.0100    0.0721   -0.0334   -0.1180    0.0010
          21    0.0204   -0.0657   -0.0223    0.0009   -0.0002    0.0000    0.0867    0.0044
          22    0.3505   -0.1189   -0.2402    0.0124    0.0840   -0.1171    0.1261   -0.0156
          23   -0.0530   -0.1387    0.2605   -0.0174   -0.1792    0.1383    0.0368   -0.0241
          24   -0.1679   -0.0328    0.2754   -0.0147   -0.1605    0.1465   -0.0266    0.0011
          25    0.3065   -0.0710   -0.2102    0.0051    0.0818   -0.0956    0.0297   -0.0159
          26   -0.0563   -0.1265    0.2471   -0.0140   -0.1639    0.1311    0.0267   -0.0257
          27    0.1579    0.0538   -0.2867    0.0127    0.1755   -0.1501    0.0063    0.0012
          28    0.1704   -0.0076    0.2920   -0.0141    0.1844   -0.1515    0.0180   -0.0206
          29   -0.1728   -0.2430   -0.1360    0.0008   -0.0369    0.0570    0.0360   -0.0222
          30   -0.1604   -0.0452   -0.2845    0.0121   -0.1799    0.1497    0.0062    0.0013
          31    0.1768   -0.0019    0.3125   -0.0195    0.2000   -0.1640    0.0019   -0.0190
          32   -0.1804   -0.3084   -0.1616    0.0063   -0.0355    0.0755    0.1316   -0.0215
          33    0.1567    0.0681    0.2732   -0.0140    0.1647   -0.1460   -0.0265    0.0012
          34   -0.0011    0.0075    0.0028   -0.0022   -0.0183   -0.0103   -0.0255   -0.0003
          35   -0.0477    0.1188    0.0557    0.6298   -0.1116   -0.1275    0.1287    0.0007
          36    0.0140   -0.2658   -0.0315    0.1782   -0.2267   -0.3444   -0.2959   -0.0001
          37    0.0212    0.1547    0.0176   -0.1379    0.3420    0.4680    0.2162    0.0008
          38   -0.1027    0.1626    0.0288   -0.1883   -0.2597   -0.3553    0.2841    0.0011
          39    0.0368   -0.1197   -0.0155    0.1133   -0.0013   -0.0017   -0.1827   -0.0004
          40   -0.0274    0.1179    0.0513    0.6115    0.0984    0.1158    0.1302    0.0008
          41   -0.0113    0.0398    0.0167    0.1642    0.0453    0.0413    0.0097   -0.0002
          42    0.1382   -0.2279   -0.0352    0.1830    0.2248    0.3418   -0.2967   -0.0002
          43    0.1040    0.0095    0.0333   -0.0014   -0.0716    0.0389    0.0010   -0.1195
          44   -0.1002   -0.1180   -0.0058   -0.0005    0.1211   -0.0743    0.0249   -0.0830
          45    0.0002    0.0031   -0.0003    0.0001   -0.0017    0.0015    0.0012    0.0054
          46    0.1680   -0.0258   -0.0124   -0.0001   -0.1357    0.0818    0.0234   -0.0481
          47   -0.0478   -0.0600    0.0299   -0.0015    0.0371   -0.0176    0.0077   -0.1372
          48   -0.0020    0.0023   -0.0003    0.0001    0.0017   -0.0014    0.0012    0.0054


   Root No.      33        34        35        36        37        38        39        40

                33 A      34 A      35 A      36 A      37 A      38 A      39 A      40 A   

                2904.1    2972.4    2973.6    3051.0    3051.9    3078.3    3083.5    3116.1
  
           1   -0.0914    0.0006   -0.0096   -0.0045    0.0007   -0.0033   -0.0014   -0.0004
           2   -0.1202   -0.0011   -0.0126    0.0034    0.0008   -0.0043    0.0011    0.0001
           3   -0.2281   -0.0008   -0.0251    0.0000   -0.0033   -0.0082    0.0000    0.0003
           4   -0.0039    0.0073   -0.0083   -0.0929    0.0965    0.0024    0.0006    0.0013
           5    0.0016   -0.0002    0.0006    0.1187   -0.1229   -0.0019    0.0017   -0.0005
           6    0.0240    0.2082   -0.2201    0.0118   -0.0122   -0.0018   -0.0024    0.0002
           7    0.0026    0.0023    0.0027   -0.1420   -0.1415   -0.0023   -0.0013    0.0006
           8   -0.0033   -0.0074   -0.0074    0.0589    0.0590    0.0017   -0.0011   -0.0011
           9    0.0240   -0.2214   -0.2068   -0.0120   -0.0121   -0.0019    0.0024   -0.0003
          10    0.0059   -0.0003    0.0002    0.0011    0.0021   -0.1382   -0.2356   -0.0004
          11    0.0077    0.0003    0.0002   -0.0010    0.0031   -0.1818    0.1793    0.0006
          12    0.0047    0.0001    0.0020   -0.0001    0.0041   -0.1868   -0.0002    0.0006
          13    0.0009   -0.0001    0.0000    0.0048   -0.0069   -0.0003   -0.0001    0.1909
          14    0.0006   -0.0002    0.0005    0.0026   -0.0048   -0.0002   -0.0001    0.0551
          15   -0.0002   -0.0007   -0.0014   -0.0002    0.0002    0.0000    0.0001   -0.0061
          16    0.0003    0.0002    0.0004   -0.0013   -0.0028    0.0000    0.0001   -0.0026
          17    0.0011    0.0002    0.0002   -0.0055   -0.0078   -0.0003    0.0001   -0.1957
          18   -0.0002    0.0006   -0.0015    0.0002    0.0001    0.0000   -0.0001    0.0051
          19    0.3168   -0.0044    0.0367   -0.0021    0.0056    0.0072   -0.0017   -0.0001
          20    0.4166    0.0057    0.0480    0.0017    0.0073    0.0096    0.0013    0.0000
          21    0.7990    0.0026    0.0821    0.0002    0.0128    0.0304    0.0000    0.0002
          22   -0.0152   -0.1923    0.2041    0.1553   -0.1573   -0.0003    0.0044   -0.0006
          23    0.0214    0.2192   -0.2328   -0.1739    0.1766    0.0016   -0.0019    0.0041
          24   -0.0393   -0.4000    0.4242    0.3818   -0.3879   -0.0063    0.0051   -0.0050
          25    0.0152    0.1633   -0.1724    0.1770   -0.1800   -0.0041    0.0004   -0.0010
          26   -0.0291   -0.2188    0.2308   -0.2395    0.2441    0.0054    0.0000    0.0050
          27   -0.0440   -0.3260    0.3431   -0.4225    0.4304    0.0096   -0.0004    0.0062
          28   -0.0321    0.2706    0.2523    0.2837    0.2780    0.0060   -0.0002   -0.0051
          29    0.0069   -0.1051   -0.0981   -0.1086   -0.1061   -0.0024   -0.0003   -0.0007
          30   -0.0440    0.3464    0.3222    0.4307    0.4221    0.0091   -0.0001   -0.0060
          31    0.0247   -0.2794   -0.2621    0.2131    0.2080    0.0013    0.0028   -0.0039
          32   -0.0089    0.1348    0.1264   -0.1051   -0.1023    0.0003   -0.0037   -0.0004
          33   -0.0393    0.4255    0.3987   -0.3893   -0.3804   -0.0057   -0.0048    0.0049
          34   -0.0142    0.0052   -0.0065   -0.0041   -0.0028    0.3729    0.6752    0.0008
          35    0.0030   -0.0005   -0.0002    0.0006    0.0011   -0.0401    0.0035    0.0001
          36   -0.0041   -0.0001   -0.0001   -0.0003    0.0004   -0.0181    0.0184    0.0002
          37   -0.0099    0.0007   -0.0023   -0.0003   -0.0055    0.2424   -0.0343   -0.0001
          38   -0.0128   -0.0007   -0.0029    0.0004   -0.0071    0.3156    0.0277    0.0003
          39   -0.0177   -0.0001   -0.0026    0.0003   -0.0160    0.6843    0.0022    0.0002
          40    0.0067    0.0019    0.0014   -0.0018    0.0021   -0.1374    0.1735    0.0001
          41   -0.0129   -0.0054   -0.0061    0.0042   -0.0032    0.3529   -0.6508   -0.0004
          42   -0.0042    0.0001   -0.0001    0.0003    0.0004   -0.0170   -0.0200    0.0003
          43    0.0028   -0.0003   -0.0005   -0.0083    0.0328    0.0017    0.0006   -0.6554
          44    0.0013   -0.0001   -0.0001   -0.0007    0.0070    0.0005    0.0002   -0.1933
          45    0.0000    0.0006   -0.0021    0.0003   -0.0010   -0.0001    0.0000    0.0205
          46    0.0005    0.0000    0.0000   -0.0016   -0.0020    0.0000    0.0000    0.0109
          47    0.0030    0.0003   -0.0006    0.0089    0.0335    0.0015   -0.0007    0.6738
          48    0.0000   -0.0007   -0.0020   -0.0003   -0.0010    0.0000    0.0000   -0.0205


   Root No.      41        42

                41 A      42 A   

                3135.2    3178.9
  
           1    0.0035   -0.0018
           2    0.0043   -0.0023
           3    0.0008    0.0018
           4   -0.0065   -0.0003
           5    0.0100    0.0008
           6    0.0007   -0.0009
           7    0.0114    0.0009
           8   -0.0039    0.0000
           9   -0.0003   -0.0010
          10    0.0001   -0.0607
          11    0.0006   -0.0793
          12    0.0009    0.1129
          13   -0.2172   -0.0001
          14   -0.0338    0.0000
          15    0.0057    0.0000
          16    0.0254    0.0000
          17   -0.2211   -0.0001
          18    0.0052    0.0000
          19   -0.0011    0.0006
          20   -0.0017    0.0008
          21   -0.0029    0.0050
          22    0.0062    0.0004
          23   -0.0096   -0.0025
          24    0.0185    0.0048
          25    0.0069    0.0004
          26   -0.0127   -0.0006
          27   -0.0190   -0.0013
          28   -0.0140   -0.0007
          29    0.0031    0.0002
          30   -0.0196   -0.0013
          31   -0.0112   -0.0025
          32    0.0034   -0.0002
          33    0.0181    0.0049
          34   -0.0010    0.5786
          35    0.0001   -0.0294
          36    0.0002    0.0296
          37   -0.0002   -0.1839
          38    0.0001   -0.2395
          39   -0.0004   -0.4623
          40    0.0003   -0.1798
          41   -0.0008    0.5501
          42    0.0004    0.0310
          43    0.6396    0.0004
          44    0.1845    0.0001
          45   -0.0199    0.0000
          46    0.0069    0.0000
          47    0.6751    0.0003
          48   -0.0204    0.0000


          DESCRIPTION OF VIBRATIONS


 VIBRATION    1    1A       ATOM PAIR        ENERGY CONTRIBUTION    RADIAL
 FREQ.        88.77        C  1 --  C  4          +11.1% (527.2%)     0.0%
 T-DIPOLE    0.0386        C  3 --  C  6          +10.0% (501.3%)     0.0%
 TRAVEL      0.0430        C  2 --  C  5          +10.0% (500.2%)     0.0%
 RED. MASS   0.8530        C  4 --  H 12           +8.1% (452.4%)    31.0%
 EFF. MASS 409.9380

 VIBRATION    2    2A       ATOM PAIR        ENERGY CONTRIBUTION    RADIAL
 FREQ.       215.47        C  4 --  H 14          +31.4% (282.0%)     0.0%
 T-DIPOLE    0.0062        C  4 --  H 12          +31.4% (281.7%)     0.0%
 TRAVEL      0.3255        C  4 --  H 13          +30.6% (278.0%)     0.0%
 RED. MASS   0.3151        C  2 --  C  5           +0.9% ( 46.4%)     0.3%
 EFF. MASS   2.9540

 VIBRATION    3    3A       ATOM PAIR        ENERGY CONTRIBUTION    RADIAL
 FREQ.       349.43        C  1 --  C  4          +14.6% (131.3%)     0.0%
 T-DIPOLE    0.0350        C  5 --  C  6          +13.4% (125.8%)     0.0%
 TRAVEL      0.0898        C  4 --  H 13           +9.2% (104.0%)     0.0%
 RED. MASS   1.0686        C  4 --  H 14           +8.2% ( 98.5%)    77.5%
 EFF. MASS  23.9443

 VIBRATION    4    4A       ATOM PAIR        ENERGY CONTRIBUTION    RADIAL
 FREQ.       388.62        C  1 --  C  4          +11.9% (123.2%)     0.0%
 T-DIPOLE    0.0311        C  4 --  H 13           +7.9% (100.5%)     0.0%
 TRAVEL      0.0863        C  3 --  H 11           +7.8% ( 99.6%)    19.1%
 RED. MASS   0.5650        C  2 --  H  8           +7.7% ( 99.3%)    18.9%
 EFF. MASS  23.2852

 VIBRATION    5    5A       ATOM PAIR        ENERGY CONTRIBUTION    RADIAL
 FREQ.       445.23        C  1 --  C  4          +15.0% (140.6%)     0.6%
 T-DIPOLE    0.1143        C  1 --  C  2          +12.5% (128.5%)     0.0%
 TRAVEL      0.0846        C  1 --  C  3          +12.5% (128.4%)     0.0%
 RED. MASS   1.2445        C  4 --  H 13          +11.3% (122.2%)    17.7%
 EFF. MASS  21.1684

 VIBRATION    6    6A       ATOM PAIR        ENERGY CONTRIBUTION    RADIAL
 FREQ.       651.43        C  1 --  C  3          +13.8% (102.3%)     0.0%
 T-DIPOLE    0.2161        C  1 --  C  2          +13.8% (102.3%)     0.0%
 TRAVEL      0.0827        C  1 --  C  4          +10.9% ( 90.9%)    12.6%
 RED. MASS   1.3728        C  3 --  C  6           +7.3% ( 74.4%)     3.8%
 EFF. MASS  15.1429

 VIBRATION    7    7A       ATOM PAIR        ENERGY CONTRIBUTION    RADIAL
 FREQ.       745.34        C  5 --  H 15          +22.9% ( 69.5%)     0.1%
 T-DIPOLE    0.5089        C  6 --  H 16          +22.9% ( 69.5%)     0.0%
 TRAVEL      0.1736        C  3 --  H 11           +6.9% ( 38.3%)     1.3%
 RED. MASS   0.2789        C  2 --  H  8           +6.9% ( 38.1%)     1.5%
 EFF. MASS   3.0022

 VIBRATION    8    8A       ATOM PAIR        ENERGY CONTRIBUTION    RADIAL
 FREQ.       766.65        C  5 --  C  6          +21.3% (119.2%)     0.0%
 T-DIPOLE    0.0097        C  2 --  C  5          +15.8% (102.6%)     1.2%
 TRAVEL      0.0738        C  3 --  C  6          +15.8% (102.5%)     1.2%
 RED. MASS   2.5555        C  5 --  H 15          +10.2% ( 82.5%)    92.2%
 EFF. MASS  16.1679        C  6 --  H 16          +10.2% ( 82.4%)    92.1%

 VIBRATION    9    9A       ATOM PAIR        ENERGY CONTRIBUTION    RADIAL
 FREQ.       867.35        C  3 --  H 11          +14.2% ( 56.5%)    11.1%
 T-DIPOLE    0.0216        C  2 --  H  8          +14.1% ( 56.4%)    11.1%
 TRAVEL      0.1380        C  3 --  H 10          +13.7% ( 55.6%)    14.2%
 RED. MASS   0.3840        C  2 --  H  9          +13.7% ( 55.5%)    14.2%
 EFF. MASS   4.0850

[...]
 T-DIPOLE    0.0059        C  6 --  H 16          +13.0% ( 46.4%)     7.5%
 TRAVEL      0.1127        C  5 --  H 15          +12.9% ( 46.2%)     7.6%
 RED. MASS   0.3327        C  3 --  C  6           +8.4% ( 37.3%)    84.5%
 EFF. MASS   4.7128

 VIBRATION   21   21A       ATOM PAIR        ENERGY CONTRIBUTION    RADIAL
 FREQ.      1163.76        C  1 --  C  4          +17.6% ( 57.3%)    14.4%
 T-DIPOLE    0.0619        C  1 --  H  7          +13.1% ( 49.3%)    39.8%
 TRAVEL      0.1012        C  1 --  C  2          +12.7% ( 48.7%)    21.4%
 RED. MASS   0.7788        C  1 --  C  3          +12.7% ( 48.7%)    21.5%
 EFF. MASS   5.6572

 VIBRATION   22   22A       ATOM PAIR        ENERGY CONTRIBUTION    RADIAL
 FREQ.      1241.54        C  5 --  H 15          +15.9% ( 46.7%)     0.3%
 T-DIPOLE    0.0064        C  6 --  H 16          +15.7% ( 46.5%)     0.3%
 TRAVEL      0.1379        C  2 --  H  8           +9.5% ( 36.1%)     0.0%
 RED. MASS   0.2582        C  3 --  H 11           +9.5% ( 36.1%)     0.0%
 EFF. MASS   2.8550

 VIBRATION   23   23A       ATOM PAIR        ENERGY CONTRIBUTION    RADIAL
 FREQ.      1267.74        C  1 --  H  7          +19.7% ( 67.7%)     0.0%
 T-DIPOLE    0.0007        C  1 --  C  2          +19.2% ( 66.8%)    85.2%
 TRAVEL      0.0786        C  1 --  C  3          +19.2% ( 66.7%)    85.2%
 RED. MASS   2.8053        C  1 --  C  4          +13.6% ( 56.3%)     0.0%
 EFF. MASS   8.6094

 VIBRATION   24   24A       ATOM PAIR        ENERGY CONTRIBUTION    RADIAL
 FREQ.      1284.07        C  1 --  H  7          +19.0% ( 61.1%)     1.1%
 T-DIPOLE    0.0240        C  1 --  C  4          +14.2% ( 52.7%)    97.8%
 TRAVEL      0.0894        C  1 --  C  3          +13.3% ( 51.0%)     5.2%
 RED. MASS   1.3253        C  1 --  C  2          +13.3% ( 51.0%)     5.2%
 EFF. MASS   6.5699

 VIBRATION   25   25A       ATOM PAIR        ENERGY CONTRIBUTION    RADIAL
 FREQ.      1371.79        C  2 --  C  5          +19.2% ( 55.0%)    85.4%
 T-DIPOLE    0.0644        C  2 --  H  8          +15.5% ( 49.5%)     0.0%
 TRAVEL      0.0918        C  2 --  H  9          +13.4% ( 45.9%)     0.1%
 RED. MASS   0.8155        C  5 --  C  6          +10.9% ( 41.5%)     0.0%
 EFF. MASS   5.8292

 VIBRATION   26   26A       ATOM PAIR        ENERGY CONTRIBUTION    RADIAL
 FREQ.      1371.90        C  3 --  C  6          +14.8% ( 52.4%)    82.0%
 T-DIPOLE    0.0770        C  3 --  H 11          +13.9% ( 50.8%)     0.2%
 TRAVEL      0.0870        C  1 --  C  3          +13.3% ( 49.6%)    41.2%
 RED. MASS   1.0559        C  3 --  H 10          +11.8% ( 46.8%)     0.0%
 EFF. MASS   6.4922

 VIBRATION   27   27A       ATOM PAIR        ENERGY CONTRIBUTION    RADIAL
 FREQ.      1405.87        C  2 --  H  8          +18.5% ( 46.0%)     4.9%
 T-DIPOLE    0.0515        C  3 --  H 11          +18.1% ( 45.6%)     4.9%
 TRAVEL      0.1226        C  2 --  H  9          +17.1% ( 44.4%)     5.8%
 RED. MASS   0.3786        C  3 --  H 10          +16.8% ( 44.0%)     5.8%
 EFF. MASS   3.1917

 VIBRATION   28   28A       ATOM PAIR        ENERGY CONTRIBUTION    RADIAL
 FREQ.      1407.00        C  4 --  H 14          +43.3% ( 57.3%)     1.9%
 T-DIPOLE    0.0407        C  4 --  H 12          +42.7% ( 56.8%)     2.0%
 TRAVEL      0.1735        C  4 --  H 13           +8.0% ( 24.6%)    74.5%
 RED. MASS   0.4323        C  1 --  C  4           +5.4% ( 20.2%)    11.6%
 EFF. MASS   1.5919

 VIBRATION   29   29A       ATOM PAIR        ENERGY CONTRIBUTION    RADIAL
 FREQ.      1410.43        C  3 --  C  6          +11.3% ( 40.3%)    95.4%
 T-DIPOLE    0.0603        C  2 --  C  5          +11.1% ( 40.0%)    95.5%
 TRAVEL      0.0986        C  4 --  H 13          +10.3% ( 38.5%)     0.0%
 RED. MASS   0.4062        C  3 --  H 11           +8.1% ( 34.1%)     5.9%
 EFF. MASS   4.9197

 VIBRATION   30   30A       ATOM PAIR        ENERGY CONTRIBUTION    RADIAL
 FREQ.      1414.52        C  4 --  H 13          +25.3% ( 50.0%)     0.0%
 T-DIPOLE    0.0036        C  4 --  H 12          +10.0% ( 31.4%)     9.7%
 TRAVEL      0.1342        C  4 --  H 14           +9.8% ( 31.1%)    10.1%
 RED. MASS   0.2325        C  2 --  H  8           +6.8% ( 25.9%)     5.7%
 EFF. MASS   2.6459

 VIBRATION   31   31A       ATOM PAIR        ENERGY CONTRIBUTION    RADIAL
 FREQ.      1420.37        C  1 --  C  4          +22.6% ( 66.2%)    98.2%
 T-DIPOLE    0.0347        C  4 --  H 13          +16.2% ( 56.0%)     3.4%
 TRAVEL      0.0836        C  4 --  H 14          +13.6% ( 51.3%)     4.1%
 RED. MASS   1.6065        C  4 --  H 12          +13.6% ( 51.3%)     4.1%
 EFF. MASS   6.7974

 VIBRATION   32   32A       ATOM PAIR        ENERGY CONTRIBUTION    RADIAL
 FREQ.      1829.80        C  5 --  C  6          +45.8% (100.0%)   100.0%
 T-DIPOLE    0.0882        C  3 --  C  6          +13.9% ( 55.1%)    25.6%
 TRAVEL      0.0557        C  2 --  C  5          +13.9% ( 55.1%)    25.6%
 RED. MASS   5.3842        C  6 --  H 16          +13.0% ( 53.2%)     9.7%
 EFF. MASS  11.8693        C  5 --  H 15          +13.0% ( 53.2%)     9.7%

 VIBRATION   33   33A       ATOM PAIR        ENERGY CONTRIBUTION    RADIAL
 FREQ.      2904.10        C  1 --  H  7          +95.4% ( 99.4%)   100.0%
 T-DIPOLE    0.0414        C  1 --  C  3           +1.1% ( 10.5%)     8.9%
 TRAVEL      0.1264        C  1 --  C  2           +1.1% ( 10.5%)     8.9%
 RED. MASS   0.9062        C  1 --  C  4           +1.1% ( 10.5%)     8.7%
 EFF. MASS   1.4537

 VIBRATION   34   34A       ATOM PAIR        ENERGY CONTRIBUTION    RADIAL
 FREQ.      2972.37        C  3 --  H 11          +29.5% ( 56.4%)    97.4%
 T-DIPOLE    0.0166        C  2 --  H  8          +26.1% ( 53.0%)    97.4%
 TRAVEL      0.1214        C  3 --  H 10          +22.3% ( 49.0%)    95.7%
 RED. MASS   0.2646        C  2 --  H  9          +19.8% ( 46.1%)    95.7%
 EFF. MASS   1.5381

 VIBRATION   35   35A       ATOM PAIR        ENERGY CONTRIBUTION    RADIAL
 FREQ.      2973.65        C  2 --  H  8          +29.4% ( 56.2%)    97.4%
 T-DIPOLE    0.0565        C  3 --  H 11          +26.0% ( 52.8%)    97.4%
 TRAVEL      0.1216        C  2 --  H  9          +22.0% ( 48.6%)    95.7%
 RED. MASS   0.2591        C  3 --  H 10          +19.4% ( 45.6%)    95.7%
 EFF. MASS   1.5335

 VIBRATION   36   36A       ATOM PAIR        ENERGY CONTRIBUTION    RADIAL
 FREQ.      3051.01        C  3 --  H 10          +29.0% ( 53.1%)    98.4%
 T-DIPOLE    0.1087        C  2 --  H  9          +27.9% ( 52.1%)    98.4%
 TRAVEL      0.1316        C  3 --  H 11          +21.3% ( 45.5%)    96.5%
 RED. MASS   0.2468        C  2 --  H  8          +20.5% ( 44.7%)    96.5%
 EFF. MASS   1.2758

 VIBRATION   37   37A       ATOM PAIR        ENERGY CONTRIBUTION    RADIAL
 FREQ.      3051.94        C  2 --  H  9          +28.9% ( 53.1%)    98.3%
 T-DIPOLE    0.0570        C  3 --  H 10          +27.8% ( 52.1%)    98.3%
 TRAVEL      0.1308        C  2 --  H  8          +21.2% ( 45.4%)    96.4%
 RED. MASS   0.2457        C  3 --  H 11          +20.3% ( 44.5%)    96.4%
 EFF. MASS   1.2910

 VIBRATION   38   38A       ATOM PAIR        ENERGY CONTRIBUTION    RADIAL
 FREQ.      3078.34        C  4 --  H 13          +67.0% ( 84.4%)    99.0%
 T-DIPOLE    0.0128        C  4 --  H 14          +16.1% ( 41.4%)    83.9%
 TRAVEL      0.1207        C  4 --  H 12          +15.8% ( 41.0%)    83.6%
 RED. MASS   0.5277        C  1 --  C  4           +1.0% ( 10.3%)     0.0%
 EFF. MASS   1.5036

 VIBRATION   39   39A       ATOM PAIR        ENERGY CONTRIBUTION    RADIAL
 FREQ.      3083.46        C  4 --  H 12          +49.1% ( 72.3%)    97.1%
 T-DIPOLE    0.0094        C  4 --  H 14          +48.9% ( 72.2%)    97.1%
 TRAVEL      0.1204        C  1 --  C  4           +1.0% ( 10.5%)     0.0%
 RED. MASS   0.5099        C  4 --  H 13           +1.0% ( 10.2%)     0.0%
 EFF. MASS   1.5079

 VIBRATION   40   40A       ATOM PAIR        ENERGY CONTRIBUTION    RADIAL
 FREQ.      3116.11        C  5 --  H 15          +49.4% ( 71.4%)   100.0%
 T-DIPOLE    0.3692        C  6 --  H 16          +48.0% ( 70.4%)    99.9%
 TRAVEL      0.1217        C  5 --  C  6           +1.1% ( 10.7%)     0.0%
 RED. MASS   0.4648        C  2 --  C  5           +0.7% (  8.7%)    27.4%
 EFF. MASS   1.4621

 VIBRATION   41   41A       ATOM PAIR        ENERGY CONTRIBUTION    RADIAL
 FREQ.      3135.16        C  6 --  H 16          +48.4% ( 70.9%)    99.9%
 T-DIPOLE    0.3391        C  5 --  H 15          +47.0% ( 69.9%)    99.9%
 TRAVEL      0.1141        C  5 --  C  6           +2.5% ( 16.0%)   100.0%
 RED. MASS   0.4655        C  3 --  C  6           +1.0% (  9.9%)    20.7%
 EFF. MASS   1.6513

 VIBRATION   42   42A       ATOM PAIR        ENERGY CONTRIBUTION    RADIAL
 FREQ.      3178.93        C  4 --  H 12          +34.4% ( 56.5%)    97.3%
 T-DIPOLE    0.0257        C  4 --  H 14          +34.4% ( 56.4%)    97.3%
 TRAVEL      0.1367        C  4 --  H 13          +30.9% ( 53.5%)    96.7%
 RED. MASS   0.3277        C  1 --  C  4           +0.3% (  5.1%)    99.8%
 EFF. MASS   1.1359

 SYMMETRY NUMBER FOR POINT-GROUP C1  =  1


          SYSTEM IS A GROUND STATE


    NULL



          MOLECULE IS NOT LINEAR

          THERE ARE 42 GENUINE VIBRATIONS IN THIS SYSTEM
          THIS THERMODYNAMICS CALCULATION IS LIMITED TO
          MOLECULES WHICH HAVE NO INTERNAL ROTATIONS




                    CALCULATED THERMODYNAMIC PROPERTIES
                                          *
   TEMP. (K)   PARTITION FUNCTION   H.O.F.    ENTHALPY  HEAT CAPACITY ENTROPY
                                   KCAL/MOL   CAL/MOLE    CAL/K/MOL  CAL/K/MOL


 298.00  VIB.     0.9000D+01                  1949.4097    16.5019    10.9079
         ROT.     0.1199D+06                   888.2813     2.9808    26.2193
         INT.     0.1079D+07                  2837.6911    19.4827    37.1272
         TRA.     0.7198D+27                  1480.4688     4.9680    39.1295
         TOT.                       -3.087    4318.1599    24.4507    76.2567

 200.00  VIB.     0.3343D+01                   730.3254     8.7432     6.0499
         ROT.     0.6590D+05                   596.1620     2.9808    25.0307
         INT.     0.2203D+06                  1326.4874    11.7240    31.0806
         TRA.     0.3957D+27                   993.6033     4.9680    37.1484
         TOT.                       -5.085    2320.0906    16.6921    68.2290

 210.00  VIB.     0.3668D+01                   821.1184     9.4206     6.4928
         ROT.     0.7090D+05                   625.9700     2.9808    25.1761
         INT.     0.2601D+06                  1447.0884    12.4014    31.6689
         TRA.     0.4258D+27                  1043.2834     4.9680    37.3907
         TOT.                       -4.914    2490.3718    17.3694    69.0596

 220.00  VIB.     0.4032D+01                   918.8421    10.1293     6.9473
         ROT.     0.7603D+05                   655.7781     2.9808    25.3148
         INT.     0.3066D+06                  1574.6203    13.1101    32.2620
         TRA.     0.4566D+27                  1092.9636     4.9680    37.6219
         TOT.                       -4.737    2667.5838    18.0781    69.8839

 230.00  VIB.     0.4440D+01                  1023.8035    10.8679     7.4137
         ROT.     0.8127D+05                   685.5862     2.9808    25.4473
         INT.     0.3609D+06                  1709.3898    13.8487    32.8610
         TRA.     0.4880D+27                  1142.6437     4.9680    37.8427
         TOT.                       -4.553    2852.0335    18.8167    70.7037

 240.00  VIB.     0.4899D+01                  1136.2938    11.6347     7.8924
         ROT.     0.8663D+05                   715.3943     2.9808    25.5741
         INT.     0.4244D+06                  1851.6882    14.6155    33.4665
         TRA.     0.5202D+27                  1192.3239     4.9680    38.0541
         TOT.                       -4.361    3044.0121    19.5835    71.5206

 250.00  VIB.     0.5416D+01                  1256.5834    12.4273     8.3833
         ROT.     0.9210D+05                   745.2024     2.9808    25.6958
         INT.     0.4988D+06                  2001.7858    15.4081    34.0791
         TRA.     0.5531D+27                  1242.0041     4.9680    38.2569
         TOT.                       -4.161    3243.7899    20.3761    72.3361

 260.00  VIB.     0.5998D+01                  1384.9173    13.2431     8.8865
         ROT.     0.9768D+05                   775.0105     2.9808    25.8127
         INT.     0.5859D+06                  2159.9278    16.2239    34.6993
         TRA.     0.5866D+27                  1291.6842     4.9680    38.4518
         TOT.                       -3.953    3451.6120    21.1919    73.1510

 270.00  VIB.     0.6656D+01                  1521.5127    14.0791     9.4019
         ROT.     0.1034D+06                   804.8186     2.9808    25.9252
         INT.     0.6880D+06                  2326.3314    17.0599    35.3272
         TRA.     0.6208D+27                  1341.3644     4.9680    38.6393
         TOT.                       -3.737    3667.6958    22.0279    73.9665

 280.00  VIB.     0.7400D+01                  1666.5572    14.9324     9.9293
         ROT.     0.1092D+06                   834.6267     2.9808    26.0336
         INT.     0.8078D+06                  2501.1839    17.9132    35.9630
         TRA.     0.6556D+27                  1391.0445     4.9680    38.8200
         TOT.                       -3.513    3892.2284    22.8812    74.7829

 290.00  VIB.     0.8243D+01                  1820.2074    15.7998    10.4684
         ROT.     0.1151D+06                   864.4348     2.9808    26.1382
         INT.     0.9485D+06                  2684.6422    18.7806    36.6067
         TRA.     0.6910D+27                  1440.7247     4.9680    38.9943
         TOT.                       -3.279    4125.3669    23.7486    75.6010

 300.00  VIB.     0.9201D+01                  1982.5899    16.6783    11.0189
         ROT.     0.1211D+06                   894.2429     2.9808    26.2393
         INT.     0.1114D+07                  2876.8328    19.6591    37.2581
         TRA.     0.7270D+27                  1490.4049     4.9680    39.1627
         TOT.                       -3.038    4367.2377    24.6272    76.4209

 310.00  VIB.     0.1029D+02                  2153.8013    17.5651    11.5802
         ROT.     0.1272D+06                   924.0510     2.9808    26.3370
         INT.     0.1309D+07                  3077.8523    20.5459    37.9172
         TRA.     0.7637D+27                  1540.0850     4.9680    39.3256
         TOT.                       -2.787    4617.9373    25.5139    77.2428

 320.00  VIB.     0.1153D+02                  2333.9097    18.4573    12.1519
         ROT.     0.1334D+06                   953.8591     2.9808    26.4317
         INT.     0.1538D+07                  3287.7688    21.4381    38.5836
         TRA.     0.8009D+27                  1589.7652     4.9680    39.4834
         TOT.                       -2.527    4877.5340    26.4061    78.0669

 330.00  VIB.     0.1294D+02                  2522.9563    19.3523    12.7336
         ROT.     0.1397D+06                   983.6672     2.9808    26.5234
         INT.     0.1808D+07                  3506.6235    22.3331    39.2570
         TRA.     0.8388D+27                  1639.4454     4.9680    39.6362
         TOT.                       -2.259    5146.0688    27.3011    78.8932

 340.00  VIB.     0.1456D+02                  2720.9572    20.2478    13.3246
         ROT.     0.1461D+06                  1013.4753     2.9808    26.6124
         INT.     0.2126D+07                  3734.4325    23.2286    39.9370
         TRA.     0.8772D+27                  1689.1255     4.9680    39.7845
         TOT.                       -1.981    5423.5580    28.1966    79.7215

 350.00  VIB.     0.1640D+02                  2927.9056    21.1415    13.9244
         ROT.     0.1526D+06                  1043.2834     2.9808    26.6988
         INT.     0.2502D+07                  3971.1890    24.1223    40.6232
         TRA.     0.9162D+27                  1738.8057     4.9680    39.9285
         TOT.                       -1.695    5709.9947    29.0903    80.5518

 360.00  VIB.     0.1851D+02                  3143.7737    22.0314    14.5325
         ROT.     0.1591D+06                  1073.0915     2.9808    26.7828
         INT.     0.2947D+07                  4216.8652    25.0122    41.3152
         TRA.     0.9557D+27                  1788.4859     4.9680    40.0685
         TOT.                       -1.400    6005.3511    29.9802    81.3837

 370.00  VIB.     0.2094D+02                  3368.5151    22.9158    15.1482
         ROT.     0.1658D+06                  1102.8996     2.9808    26.8644
         INT.     0.3472D+07                  4471.4147    25.8966    42.0126
         TRA.     0.9958D+27                  1838.1660     4.9680    40.2046
         TOT.                       -1.095    6309.5807    30.8647    82.2172

 380.00  VIB.     0.2372D+02                  3602.0667    23.7932    15.7710
         ROT.     0.1726D+06                  1132.7077     2.9808    26.9439
         INT.     0.4093D+07                  4734.7744    26.7740    42.7149
         TRA.     0.1036D+28                  1887.8462     4.9680    40.3371
         TOT.                       -0.782    6622.6206    31.7420    83.0520

 390.00  VIB.     0.2691D+02                  3844.3511    24.6622    16.4003
         ROT.     0.1795D+06                  1162.5158     2.9808    27.0213
         INT.     0.4829D+07                  5006.8669    27.6430    43.4216
         TRA.     0.1078D+28                  1937.5263     4.9680    40.4662
         TOT.                       -0.460    6944.3932    32.6110    83.8878

 400.00  VIB.     0.3059D+02                  4095.2781    25.5215    17.0355
         ROT.     0.1864D+06                  1192.3239     2.9808    27.0968
         INT.     0.5701D+07                  5287.6020    28.5024    44.1323
         TRA.     0.1119D+28                  1987.2065     4.9680    40.5919
         TOT.                       -0.130    7274.8085    33.4704    84.7243

   *: NOTE: HEATS OF FORMATION ARE RELATIVE TO THE
            ELEMENTS IN THEIR STANDARD STATE AT 298K
              (=  Standard Enthalpy of Formation).

            Hvib:  Zero-point energy is not included.
                   frequencies of less than zero cm-1 are not included.
            Hrot = (3/2)RT
            Htra = (3/2)RT + pV = (5/2)RT

            Heat capacity is Cp, not Cv

           For more information, see: HTTP://OpenMOPAC.net/Manual/thermochemistry.html


           FORCE CONSTANT IN CARTESIAN COORDINATES (Millidynes/A)

    ATOM   CHEMICAL       X               Y               Z
   NUMBER   SYMBOL  FORCE CONSTANT  FORCE CONSTANT  FORCE CONSTANT

      1       C        7.785829        8.298111        8.554184
      2       C        7.671768        9.371743        8.130032
      3       C        9.619692        7.428721        8.129427
      4       C        8.414006        8.399799        8.189511
      5       C       14.566494       10.537294        2.351359
      6       C       11.928391       13.172147        2.351885
      7       H        1.147163        1.467225        3.476531
      8       H        1.351218        1.419542        3.643737
      9       H        1.273881        1.685220        3.435724
     10       H        2.055003        0.904464        3.435162
     11       H        1.761872        1.008295        3.643878
     12       H        5.380287        0.688463        0.708997
     13       H        1.155274        1.485697        4.139130
     14       H        1.084485        4.984868        0.709841
     15       H        4.991345        1.076160        0.356113
     16       H        0.712235        5.355719        0.356381



 TOTAL CPU TIME:             1.05 SECONDS

 == MOPAC DONE ==
