 *******************************************************************************
 ** Site#: 14399           For non-commercial use only        Version 13.159M **
 *******************************************************************************
 ** Cite this work as: MOPAC2012, James J. P. Stewart, Stewart Computational  **
 ** Chemistry, Version 13.159M web: HTTP://OpenMOPAC.net  Days remaining:   6 **
 *******************************************************************************
 **                                                                           **
 **                                MOPAC2012                                  **
 **                                                                           **
 *******************************************************************************

                            PM3 CALCULATION RESULTS


 *******************************************************************************
 *  CALCULATION DONE:                                Mon Jun  2 11:04:04 2014  *
 *  PM3      - The PM3 Hamiltonian to be used
 *  PRECISE  - CRITERIA TO BE INCREASED BY 100 TIMES
 *  NOSYM    - POINT-GROUP SYMMETRY SET TO C1
 *  T=       - A TIME OF 172800.0 SECONDS REQUESTED
 *  DUMP=N   - RESTART FILE WRITTEN EVERY  7200.000 SECONDS
 *******************************************************************************
pm3  precise nosym
 InChI=1S/C12H20/c1-5-9-10(6-2)12(8-4)11(9)7-3/h5,8-12H,1,4,6-7H2,2-3H3

   ATOM   CHEMICAL          X               Y               Z
  NUMBER   SYMBOL      (ANGSTROMS)     (ANGSTROMS)     (ANGSTROMS)
 
     1       C         -1.02280000  *   0.33870000  *   0.25620000  *
     2       C          0.98150000  *  -0.42830000  *   0.07850000  *
     3       C          0.38950000  *   0.93190000  *   0.30890000  *
     4       C         -0.39010000  *  -0.96200000  *  -0.34950000  *
     5       C         -2.00620000  *   1.07900000  *  -0.65880000  *
     6       C          2.06500000  *  -0.51630000  *  -1.00590000  *
     7       C         -3.34020000  *   0.35140000  *  -0.78010000  *
     8       C          3.38130000  *   0.11660000  *  -0.56760000  *
     9       C          0.75840000  *   1.58180000  *   1.61770000  *
    10       C         -0.82250000  *  -2.24210000  *   0.31400000  *
    11       C          0.20850000  *   2.73430000  *   2.00600000  *
    12       C         -0.26140000  *  -3.41280000  *   0.00500000  *
    13       H         -1.45000000  *   0.18470000  *   1.27820000  *
    14       H          1.32980000  *  -0.92400000  *   1.01910000  *
    15       H          0.59330000  *   1.63380000  *  -0.53710000  *
    16       H         -0.52000000  *  -1.02030000  *  -1.45800000  *
    17       H         -1.57860000  *   1.22280000  *  -1.67860000  *
    18       H         -2.19440000  *   2.09250000  *  -0.23580000  *
    19       H          1.72930000  *  -0.03460000  *  -1.95410000  *
    20       H          2.25350000  *  -1.59010000  *  -1.23640000  *
    21       H         -3.20500000  *  -0.65430000  *  -1.23910000  *
    22       H         -3.81950000  *   0.23190000  *   0.21840000  *
    23       H         -4.03160000  *   0.93600000  *  -1.42840000  *
    24       H          3.25390000  *   1.20550000  *  -0.37150000  *
    25       H          4.14320000  *  -0.00150000  *  -1.37100000  *
    26       H          3.77000000  *  -0.37380000  *   0.35390000  *
    27       H          1.50740000  *   1.12280000  *   2.26210000  *
    28       H         -1.62550000  *  -2.22700000  *   1.04980000  *
    29       H         -0.53460000  *   3.24270000  *   1.39400000  *
    30       H          0.50040000  *   3.18810000  *   2.95110000  *
    31       H         -0.59870000  *  -4.32570000  *   0.49190000  *
    32       H          0.53600000  *  -3.48200000  *  -0.73300000  *
 


          CARTESIAN COORDINATES 

    NO.       ATOM         X         Y         Z

     1         C       -1.0228    0.3387    0.2562
     2         C        0.9815   -0.4283    0.0785
     3         C        0.3895    0.9319    0.3089
     4         C       -0.3901   -0.9620   -0.3495
     5         C       -2.0062    1.0790   -0.6588
     6         C        2.0650   -0.5163   -1.0059
     7         C       -3.3402    0.3514   -0.7801
     8         C        3.3813    0.1166   -0.5676
     9         C        0.7584    1.5818    1.6177
    10         C       -0.8225   -2.2421    0.3140
    11         C        0.2085    2.7343    2.0060
    12         C       -0.2614   -3.4128    0.0050
    13         H       -1.4500    0.1847    1.2782
    14         H        1.3298   -0.9240    1.0191
    15         H        0.5933    1.6338   -0.5371
    16         H       -0.5200   -1.0203   -1.4580
    17         H       -1.5786    1.2228   -1.6786
    18         H       -2.1944    2.0925   -0.2358
    19         H        1.7293   -0.0346   -1.9541
    20         H        2.2535   -1.5901   -1.2364
    21         H       -3.2050   -0.6543   -1.2391
    22         H       -3.8195    0.2319    0.2184
    23         H       -4.0316    0.9360   -1.4284
    24         H        3.2539    1.2055   -0.3715
    25         H        4.1432   -0.0015   -1.3710
    26         H        3.7700   -0.3738    0.3539
    27         H        1.5074    1.1228    2.2621
    28         H       -1.6255   -2.2270    1.0498
    29         H       -0.5346    3.2427    1.3940
    30         H        0.5004    3.1881    2.9511
    31         H       -0.5987   -4.3257    0.4919
    32         H        0.5360   -3.4820   -0.7330

  H: (PM3): J. J. P. STEWART, J. COMP. CHEM. 10, 209 (1989).
  C: (PM3): J. J. P. STEWART, J. COMP. CHEM. 10, 209 (1989).

           Empirical Formula: C12 H20  =    32 atoms



      MOLECULAR POINT GROUP   :   C1  


      RHF CALCULATION, NO. OF DOUBLY OCCUPIED LEVELS =   34

      Geometry optimization using EF

          DIAGONAL MATRIX USED AS START HESSIAN

 CYCLE:     1 TIME:   0.018 TIME LEFT:  2.00D  GRAD.:   110.684 HEAT: 16.44906
 CYCLE:     2 TIME:   0.030 TIME LEFT:  2.00D  GRAD.:   105.510 HEAT: 14.84536
 CYCLE:     3 TIME:   0.018 TIME LEFT:  2.00D  GRAD.:   103.633 HEAT: 14.75927
 CYCLE:     4 TIME:   0.026 TIME LEFT:  2.00D  GRAD.:    44.986 HEAT: 12.39131
 CYCLE:     5 TIME:   0.026 TIME LEFT:  2.00D  GRAD.:    42.908 HEAT: 12.00210
 CYCLE:     6 TIME:   0.025 TIME LEFT:  2.00D  GRAD.:    22.185 HEAT: 11.74012
 CYCLE:     7 TIME:   0.014 TIME LEFT:  2.00D  GRAD.:    28.200 HEAT: 11.67014
 CYCLE:     8 TIME:   0.014 TIME LEFT:  2.00D  GRAD.:    30.041 HEAT: 11.57167
 CYCLE:     9 TIME:   0.014 TIME LEFT:  2.00D  GRAD.:    22.801 HEAT: 11.46069
 CYCLE:    10 TIME:   0.014 TIME LEFT:  2.00D  GRAD.:    24.681 HEAT: 11.44142
 CYCLE:    11 TIME:   0.014 TIME LEFT:  2.00D  GRAD.:    24.729 HEAT: 11.38962
 CYCLE:    12 TIME:   0.025 TIME LEFT:  2.00D  GRAD.:     9.529 HEAT: 11.25752
 CYCLE:    13 TIME:   0.025 TIME LEFT:  2.00D  GRAD.:     6.821 HEAT: 11.23450
 CYCLE:    14 TIME:   0.015 TIME LEFT:  2.00D  GRAD.:     6.578 HEAT: 11.21791
 CYCLE:    15 TIME:   0.014 TIME LEFT:  2.00D  GRAD.:     8.828 HEAT: 11.20686
 CYCLE:    16 TIME:   0.013 TIME LEFT:  2.00D  GRAD.:     9.229 HEAT: 11.19322
 CYCLE:    17 TIME:   0.015 TIME LEFT:  2.00D  GRAD.:     9.602 HEAT: 11.18115
 CYCLE:    18 TIME:   0.025 TIME LEFT:  2.00D  GRAD.:     4.976 HEAT: 11.15841
 CYCLE:    19 TIME:   0.024 TIME LEFT:  2.00D  GRAD.:     3.671 HEAT: 11.15091
 CYCLE:    20 TIME:   0.013 TIME LEFT:  2.00D  GRAD.:     2.643 HEAT: 11.14295
 CYCLE:    21 TIME:   0.014 TIME LEFT:  2.00D  GRAD.:     8.634 HEAT: 11.12816
 CYCLE:    22 TIME:   0.025 TIME LEFT:  2.00D  GRAD.:    11.069 HEAT: 11.12088
 CYCLE:    23 TIME:   0.036 TIME LEFT:  2.00D  GRAD.:     5.626 HEAT: 11.09521
 CYCLE:    24 TIME:   0.024 TIME LEFT:  2.00D  GRAD.:     3.938 HEAT: 11.08650
 CYCLE:    25 TIME:   0.013 TIME LEFT:  2.00D  GRAD.:     4.434 HEAT: 11.08028
 CYCLE:    26 TIME:   0.014 TIME LEFT:  2.00D  GRAD.:     7.739 HEAT: 11.06142
 CYCLE:    27 TIME:   0.014 TIME LEFT:  2.00D  GRAD.:    11.311 HEAT: 11.05438
 CYCLE:    28 TIME:   0.013 TIME LEFT:  2.00D  GRAD.:     6.134 HEAT: 11.01073
 CYCLE:    29 TIME:   0.026 TIME LEFT:  2.00D  GRAD.:     9.260 HEAT: 11.00485
 CYCLE:    30 TIME:   0.014 TIME LEFT:  2.00D  GRAD.:     7.105 HEAT: 10.98399
 CYCLE:    31 TIME:   0.014 TIME LEFT:  2.00D  GRAD.:     7.174 HEAT: 10.96860
 CYCLE:    32 TIME:   0.014 TIME LEFT:  2.00D  GRAD.:     4.019 HEAT: 10.94544
 CYCLE:    33 TIME:   0.014 TIME LEFT:  2.00D  GRAD.:     5.356 HEAT: 10.92674
 CYCLE:    34 TIME:   0.014 TIME LEFT:  2.00D  GRAD.:     5.442 HEAT: 10.90098
 CYCLE:    35 TIME:   0.014 TIME LEFT:  2.00D  GRAD.:     8.185 HEAT: 10.87921
 CYCLE:    36 TIME:   0.014 TIME LEFT:  2.00D  GRAD.:     7.134 HEAT: 10.85201
 CYCLE:    37 TIME:   0.013 TIME LEFT:  2.00D  GRAD.:     5.669 HEAT: 10.82442
 CYCLE:    38 TIME:   0.013 TIME LEFT:  2.00D  GRAD.:     5.943 HEAT: 10.79315
 CYCLE:    39 TIME:   0.013 TIME LEFT:  2.00D  GRAD.:     6.938 HEAT: 10.74254
 CYCLE:    40 TIME:   0.014 TIME LEFT:  2.00D  GRAD.:     8.128 HEAT: 10.70633
 CYCLE:    41 TIME:   0.014 TIME LEFT:  2.00D  GRAD.:     6.626 HEAT: 10.68195
 CYCLE:    42 TIME:   0.013 TIME LEFT:  2.00D  GRAD.:     5.293 HEAT: 10.65220
 CYCLE:    43 TIME:   0.014 TIME LEFT:  2.00D  GRAD.:     5.223 HEAT: 10.62162
 CYCLE:    44 TIME:   0.014 TIME LEFT:  2.00D  GRAD.:     5.695 HEAT: 10.57780
 CYCLE:    45 TIME:   0.014 TIME LEFT:  2.00D  GRAD.:     4.535 HEAT: 10.55012
 CYCLE:    46 TIME:   0.014 TIME LEFT:  2.00D  GRAD.:     5.213 HEAT: 10.52541
 CYCLE:    47 TIME:   0.014 TIME LEFT:  2.00D  GRAD.:     4.791 HEAT: 10.50134
 CYCLE:    48 TIME:   0.014 TIME LEFT:  2.00D  GRAD.:     4.340 HEAT: 10.47966
 CYCLE:    49 TIME:   0.013 TIME LEFT:  2.00D  GRAD.:     3.125 HEAT: 10.46169
 CYCLE:    50 TIME:   0.014 TIME LEFT:  2.00D  GRAD.:     3.186 HEAT: 10.44639
 CYCLE:    51 TIME:   0.014 TIME LEFT:  2.00D  GRAD.:     2.718 HEAT: 10.43435
 CYCLE:    52 TIME:   0.014 TIME LEFT:  2.00D  GRAD.:     2.398 HEAT: 10.42655
 CYCLE:    53 TIME:   0.014 TIME LEFT:  2.00D  GRAD.:     2.651 HEAT: 10.42040
 CYCLE:    54 TIME:   0.014 TIME LEFT:  2.00D  GRAD.:     1.619 HEAT: 10.41524
 CYCLE:    55 TIME:   0.014 TIME LEFT:  2.00D  GRAD.:     1.214 HEAT: 10.41209
 CYCLE:    56 TIME:   0.014 TIME LEFT:  2.00D  GRAD.:     1.295 HEAT: 10.40914
 CYCLE:    57 TIME:   0.014 TIME LEFT:  2.00D  GRAD.:     1.302 HEAT: 10.40581
 CYCLE:    58 TIME:   0.014 TIME LEFT:  2.00D  GRAD.:     1.883 HEAT: 10.40305
 CYCLE:    59 TIME:   0.014 TIME LEFT:  2.00D  GRAD.:     1.269 HEAT: 10.39959
 CYCLE:    60 TIME:   0.014 TIME LEFT:  2.00D  GRAD.:     1.212 HEAT: 10.39605
 CYCLE:    61 TIME:   0.014 TIME LEFT:  2.00D  GRAD.:     1.213 HEAT: 10.39278
 CYCLE:    62 TIME:   0.014 TIME LEFT:  2.00D  GRAD.:     1.114 HEAT: 10.38982
 CYCLE:    63 TIME:   0.014 TIME LEFT:  2.00D  GRAD.:     1.126 HEAT: 10.38641
 CYCLE:    64 TIME:   0.014 TIME LEFT:  2.00D  GRAD.:     1.237 HEAT: 10.38289
 CYCLE:    65 TIME:   0.014 TIME LEFT:  2.00D  GRAD.:     1.232 HEAT: 10.37941
 CYCLE:    66 TIME:   0.015 TIME LEFT:  2.00D  GRAD.:     1.048 HEAT: 10.37638
 CYCLE:    67 TIME:   0.014 TIME LEFT:  2.00D  GRAD.:     0.838 HEAT: 10.37407
 CYCLE:    68 TIME:   0.017 TIME LEFT:  2.00D  GRAD.:     0.818 HEAT: 10.37228
 CYCLE:    69 TIME:   0.014 TIME LEFT:  2.00D  GRAD.:     0.843 HEAT: 10.37064
 CYCLE:    70 TIME:   0.014 TIME LEFT:  2.00D  GRAD.:     0.807 HEAT: 10.36898
 CYCLE:    71 TIME:   0.014 TIME LEFT:  2.00D  GRAD.:     0.708 HEAT: 10.36751
 CYCLE:    72 TIME:   0.014 TIME LEFT:  2.00D  GRAD.:     0.681 HEAT: 10.36637
 CYCLE:    73 TIME:   0.014 TIME LEFT:  2.00D  GRAD.:     0.750 HEAT: 10.36528
 CYCLE:    74 TIME:   0.014 TIME LEFT:  2.00D  GRAD.:     0.886 HEAT: 10.36365
 CYCLE:    75 TIME:   0.014 TIME LEFT:  2.00D  GRAD.:     0.944 HEAT: 10.36160
 CYCLE:    76 TIME:   0.014 TIME LEFT:  2.00D  GRAD.:     0.968 HEAT: 10.35877
 CYCLE:    77 TIME:   0.014 TIME LEFT:  2.00D  GRAD.:     0.779 HEAT: 10.35744
 CYCLE:    78 TIME:   0.013 TIME LEFT:  2.00D  GRAD.:     0.921 HEAT: 10.35539
 CYCLE:    79 TIME:   0.014 TIME LEFT:  2.00D  GRAD.:     0.720 HEAT: 10.35455
 CYCLE:    80 TIME:   0.014 TIME LEFT:  2.00D  GRAD.:     0.633 HEAT: 10.35245
 CYCLE:    81 TIME:   0.014 TIME LEFT:  2.00D  GRAD.:     0.596 HEAT: 10.35159
 CYCLE:    82 TIME:   0.014 TIME LEFT:  2.00D  GRAD.:     0.538 HEAT: 10.35025
 CYCLE:    83 TIME:   0.013 TIME LEFT:  2.00D  GRAD.:     0.578 HEAT: 10.34944
 CYCLE:    84 TIME:   0.014 TIME LEFT:  2.00D  GRAD.:     0.831 HEAT: 10.34762
 CYCLE:    85 TIME:   0.014 TIME LEFT:  2.00D  GRAD.:     0.925 HEAT: 10.34619
 CYCLE:    86 TIME:   0.015 TIME LEFT:  2.00D  GRAD.:     1.369 HEAT: 10.34104
 CYCLE:    87 TIME:   0.014 TIME LEFT:  2.00D  GRAD.:     1.263 HEAT: 10.33793
 CYCLE:    88 TIME:   0.018 TIME LEFT:  2.00D  GRAD.:     1.586 HEAT: 10.33032
 CYCLE:    89 TIME:   0.014 TIME LEFT:  2.00D  GRAD.:     0.918 HEAT: 10.32796
 CYCLE:    90 TIME:   0.014 TIME LEFT:  2.00D  GRAD.:     0.627 HEAT: 10.32617
 CYCLE:    91 TIME:   0.014 TIME LEFT:  2.00D  GRAD.:     0.617 HEAT: 10.32439
 CYCLE:    92 TIME:   0.014 TIME LEFT:  2.00D  GRAD.:     0.509 HEAT: 10.32350
 CYCLE:    93 TIME:   0.014 TIME LEFT:  2.00D  GRAD.:     0.389 HEAT: 10.32305
 CYCLE:    94 TIME:   0.014 TIME LEFT:  2.00D  GRAD.:     0.319 HEAT: 10.32273
 CYCLE:    95 TIME:   0.014 TIME LEFT:  2.00D  GRAD.:     0.343 HEAT: 10.32243
 CYCLE:    96 TIME:   0.013 TIME LEFT:  2.00D  GRAD.:     0.410 HEAT: 10.32207
 CYCLE:    97 TIME:   0.014 TIME LEFT:  2.00D  GRAD.:     0.443 HEAT: 10.32157
 CYCLE:    98 TIME:   0.014 TIME LEFT:  2.00D  GRAD.:     0.530 HEAT: 10.32082
 CYCLE:    99 TIME:   0.014 TIME LEFT:  2.00D  GRAD.:     0.538 HEAT: 10.32027
 CYCLE:   100 TIME:   0.015 TIME LEFT:  2.00D  GRAD.:     0.728 HEAT: 10.31875
 CYCLE:   101 TIME:   0.013 TIME LEFT:  2.00D  GRAD.:     0.625 HEAT: 10.31808
 CYCLE:   102 TIME:   0.015 TIME LEFT:  2.00D  GRAD.:     0.941 HEAT: 10.31622
 CYCLE:   103 TIME:   0.018 TIME LEFT:  2.00D  GRAD.:     0.646 HEAT: 10.31542
 CYCLE:   104 TIME:   0.015 TIME LEFT:  2.00D  GRAD.:     0.505 HEAT: 10.31468
 CYCLE:   105 TIME:   0.014 TIME LEFT:  2.00D  GRAD.:     0.588 HEAT: 10.31310
 CYCLE:   106 TIME:   0.015 TIME LEFT:  2.00D  GRAD.:     0.784 HEAT: 10.31152
 CYCLE:   107 TIME:   0.015 TIME LEFT:  2.00D  GRAD.:     0.837 HEAT: 10.30975
 CYCLE:   108 TIME:   0.015 TIME LEFT:  2.00D  GRAD.:     0.814 HEAT: 10.30768
 CYCLE:   109 TIME:   0.014 TIME LEFT:  2.00D  GRAD.:     0.744 HEAT: 10.30634
 CYCLE:   110 TIME:   0.014 TIME LEFT:  2.00D  GRAD.:     1.176 HEAT: 10.30409
 CYCLE:   111 TIME:   0.014 TIME LEFT:  2.00D  GRAD.:     1.347 HEAT: 10.30178
 CYCLE:   112 TIME:   0.015 TIME LEFT:  2.00D  GRAD.:     1.589 HEAT: 10.29567
 CYCLE:   113 TIME:   0.027 TIME LEFT:  2.00D  GRAD.:     4.086 HEAT: 10.28581
 CYCLE:   114 TIME:   0.026 TIME LEFT:  2.00D  GRAD.:     3.254 HEAT: 10.28162
 CYCLE:   115 TIME:   0.014 TIME LEFT:  2.00D  GRAD.:     2.020 HEAT: 10.27150
 CYCLE:   116 TIME:   0.014 TIME LEFT:  2.00D  GRAD.:     2.298 HEAT: 10.26323
 CYCLE:   117 TIME:   0.014 TIME LEFT:  2.00D  GRAD.:     2.956 HEAT: 10.25274
 CYCLE:   118 TIME:   0.014 TIME LEFT:  2.00D  GRAD.:     4.020 HEAT: 10.23601
 CYCLE:   119 TIME:   0.014 TIME LEFT:  2.00D  GRAD.:     3.784 HEAT: 10.22581
 CYCLE:   120 TIME:   0.014 TIME LEFT:  2.00D  GRAD.:     3.076 HEAT: 10.21732
 CYCLE:   121 TIME:   0.020 TIME LEFT:  2.00D  GRAD.:     2.993 HEAT: 10.20731
 CYCLE:   122 TIME:   0.018 TIME LEFT:  2.00D  GRAD.:     2.726 HEAT: 10.20042
 CYCLE:   123 TIME:   0.016 TIME LEFT:  2.00D  GRAD.:     2.585 HEAT: 10.19117
 CYCLE:   124 TIME:   0.016 TIME LEFT:  2.00D  GRAD.:     1.596 HEAT: 10.18509
 CYCLE:   125 TIME:   0.015 TIME LEFT:  2.00D  GRAD.:     1.824 HEAT: 10.17581
 CYCLE:   126 TIME:   0.013 TIME LEFT:  2.00D  GRAD.:     1.470 HEAT: 10.17073
 CYCLE:   127 TIME:   0.014 TIME LEFT:  2.00D  GRAD.:     1.936 HEAT: 10.16332
 CYCLE:   128 TIME:   0.014 TIME LEFT:  2.00D  GRAD.:     1.892 HEAT: 10.15521
 CYCLE:   129 TIME:   0.015 TIME LEFT:  2.00D  GRAD.:     2.238 HEAT: 10.14521
 CYCLE:   130 TIME:   0.014 TIME LEFT:  2.00D  GRAD.:     2.349 HEAT: 10.13292
 CYCLE:   131 TIME:   0.014 TIME LEFT:  2.00D  GRAD.:     3.386 HEAT: 10.12104
 CYCLE:   132 TIME:   0.014 TIME LEFT:  2.00D  GRAD.:     3.188 HEAT: 10.10712
 CYCLE:   133 TIME:   0.014 TIME LEFT:  2.00D  GRAD.:     3.083 HEAT: 10.09788
 CYCLE:   134 TIME:   0.018 TIME LEFT:  2.00D  GRAD.:     2.387 HEAT: 10.09215
 CYCLE:   135 TIME:   0.015 TIME LEFT:  2.00D  GRAD.:     1.963 HEAT: 10.08800
 CYCLE:   136 TIME:   0.014 TIME LEFT:  2.00D  GRAD.:     1.462 HEAT: 10.08396
 CYCLE:   137 TIME:   0.015 TIME LEFT:  2.00D  GRAD.:     0.980 HEAT: 10.07993
 CYCLE:   138 TIME:   0.014 TIME LEFT:  2.00D  GRAD.:     1.189 HEAT: 10.07846
 CYCLE:   139 TIME:   0.014 TIME LEFT:  2.00D  GRAD.:     0.785 HEAT: 10.07736
 CYCLE:   140 TIME:   0.014 TIME LEFT:  2.00D  GRAD.:     1.016 HEAT: 10.07614
 CYCLE:   141 TIME:   0.014 TIME LEFT:  2.00D  GRAD.:     0.759 HEAT: 10.07540
 CYCLE:   142 TIME:   0.014 TIME LEFT:  2.00D  GRAD.:     0.693 HEAT: 10.07424
 CYCLE:   143 TIME:   0.015 TIME LEFT:  2.00D  GRAD.:     0.828 HEAT: 10.07207
 CYCLE:   144 TIME:   0.014 TIME LEFT:  2.00D  GRAD.:     0.960 HEAT: 10.07123
 CYCLE:   145 TIME:   0.014 TIME LEFT:  2.00D  GRAD.:     1.311 HEAT: 10.06871
 CYCLE:   146 TIME:   0.014 TIME LEFT:  2.00D  GRAD.:     1.262 HEAT: 10.06690
 CYCLE:   147 TIME:   0.014 TIME LEFT:  2.00D  GRAD.:     2.165 HEAT: 10.06078
 CYCLE:   148 TIME:   0.014 TIME LEFT:  2.00D  GRAD.:     1.511 HEAT: 10.05786
 CYCLE:   149 TIME:   0.014 TIME LEFT:  2.00D  GRAD.:     1.663 HEAT: 10.05071
 CYCLE:   150 TIME:   0.014 TIME LEFT:  2.00D  GRAD.:     1.460 HEAT: 10.04687
 CYCLE:   151 TIME:   0.015 TIME LEFT:  2.00D  GRAD.:     3.251 HEAT: 10.04304
 CYCLE:   152 TIME:   0.014 TIME LEFT:  2.00D  GRAD.:     1.192 HEAT: 10.03728
 CYCLE:   153 TIME:   0.014 TIME LEFT:  2.00D  GRAD.:     0.787 HEAT: 10.03535
 CYCLE:   154 TIME:   0.018 TIME LEFT:  2.00D  GRAD.:     0.787 HEAT: 10.03310
 CYCLE:   155 TIME:   0.015 TIME LEFT:  2.00D  GRAD.:     0.812 HEAT: 10.03223
 CYCLE:   156 TIME:   0.016 TIME LEFT:  2.00D  GRAD.:     0.897 HEAT: 10.03102
 CYCLE:   157 TIME:   0.015 TIME LEFT:  2.00D  GRAD.:     1.032 HEAT: 10.02959
 CYCLE:   158 TIME:   0.014 TIME LEFT:  2.00D  GRAD.:     1.011 HEAT: 10.02726
 CYCLE:   159 TIME:   0.014 TIME LEFT:  2.00D  GRAD.:     0.862 HEAT: 10.02571
 CYCLE:   160 TIME:   0.015 TIME LEFT:  2.00D  GRAD.:     1.388 HEAT: 10.02237
 CYCLE:   161 TIME:   0.014 TIME LEFT:  2.00D  GRAD.:     1.804 HEAT: 10.01971
 CYCLE:   162 TIME:   0.014 TIME LEFT:  2.00D  GRAD.:     2.058 HEAT: 10.01536
 CYCLE:   163 TIME:   0.014 TIME LEFT:  2.00D  GRAD.:     1.496 HEAT: 10.00919
 CYCLE:   164 TIME:   0.014 TIME LEFT:  2.00D  GRAD.:     1.802 HEAT: 10.00630
 CYCLE:   165 TIME:   0.014 TIME LEFT:  2.00D  GRAD.:     1.339 HEAT: 10.00302
 CYCLE:   166 TIME:   0.014 TIME LEFT:  2.00D  GRAD.:     1.117 HEAT: 10.00090
 CYCLE:   167 TIME:   0.014 TIME LEFT:  2.00D  GRAD.:     0.735 HEAT: 9.998611
 CYCLE:   168 TIME:   0.014 TIME LEFT:  2.00D  GRAD.:     0.706 HEAT: 9.997680
 CYCLE:   169 TIME:   0.014 TIME LEFT:  2.00D  GRAD.:     0.444 HEAT: 9.997365
 CYCLE:   170 TIME:   0.016 TIME LEFT:  2.00D  GRAD.:     0.393 HEAT: 9.997120
 CYCLE:   171 TIME:   0.016 TIME LEFT:  2.00D  GRAD.:     0.357 HEAT: 9.996913
 CYCLE:   172 TIME:   0.014 TIME LEFT:  2.00D  GRAD.:     0.331 HEAT: 9.996726
 CYCLE:   173 TIME:   0.014 TIME LEFT:  2.00D  GRAD.:     0.290 HEAT: 9.996452
 CYCLE:   174 TIME:   0.014 TIME LEFT:  2.00D  GRAD.:     0.315 HEAT: 9.996269
 CYCLE:   175 TIME:   0.014 TIME LEFT:  2.00D  GRAD.:     0.292 HEAT: 9.996100
 CYCLE:   176 TIME:   0.014 TIME LEFT:  2.00D  GRAD.:     0.263 HEAT: 9.996018
 CYCLE:   177 TIME:   0.014 TIME LEFT:  2.00D  GRAD.:     0.230 HEAT: 9.995933
 CYCLE:   178 TIME:   0.014 TIME LEFT:  2.00D  GRAD.:     0.227 HEAT: 9.995875
 CYCLE:   179 TIME:   0.014 TIME LEFT:  2.00D  GRAD.:     0.358 HEAT: 9.995760
 CYCLE:   180 TIME:   0.013 TIME LEFT:  2.00D  GRAD.:     0.239 HEAT: 9.995689
 CYCLE:   181 TIME:   0.013 TIME LEFT:  2.00D  GRAD.:     0.152 HEAT: 9.995603
 CYCLE:   182 TIME:   0.013 TIME LEFT:  2.00D  GRAD.:     0.132 HEAT: 9.995552
 CYCLE:   183 TIME:   0.014 TIME LEFT:  2.00D  GRAD.:     0.166 HEAT: 9.995469
 CYCLE:   184 TIME:   0.013 TIME LEFT:  2.00D  GRAD.:     0.150 HEAT: 9.995444
 CYCLE:   185 TIME:   0.014 TIME LEFT:  2.00D  GRAD.:     0.129 HEAT: 9.995396
 CYCLE:   186 TIME:   0.014 TIME LEFT:  2.00D  GRAD.:     0.134 HEAT: 9.995346
 CYCLE:   187 TIME:   0.014 TIME LEFT:  2.00D  GRAD.:     0.103 HEAT: 9.995317
 CYCLE:   188 TIME:   0.014 TIME LEFT:  2.00D  GRAD.:     0.067 HEAT: 9.995301
 CYCLE:   189 TIME:   0.014 TIME LEFT:  2.00D  GRAD.:     0.078 HEAT: 9.995284
 CYCLE:   190 TIME:   0.014 TIME LEFT:  2.00D  GRAD.:     0.063 HEAT: 9.995262
 CYCLE:   191 TIME:   0.014 TIME LEFT:  2.00D  GRAD.:     0.056 HEAT: 9.995234
 CYCLE:   192 TIME:   0.013 TIME LEFT:  2.00D  GRAD.:     0.043 HEAT: 9.995235

     RMS GRADIENT =  0.04287  IS LESS THAN CUTOFF =  0.05000



 -------------------------------------------------------------------------------
pm3  precise nosym
 InChI=1S/C12H20/c1-5-9-10(6-2)12(8-4)11(9)7-3/h5,8-12H,1,4,6-7H2,2-3H3



     GEOMETRY OPTIMISED USING EIGENVECTOR FOLLOWING (EF).     
     SCF FIELD WAS ACHIEVED                                   


                              PM3 CALCULATION
                                                       MOPAC2012 (Version: 13.159M)
                                                       Mon Jun  2 11:04:07 2014
                                                       No. of days left =   6




          FINAL HEAT OF FORMATION =          9.99523 KCAL/MOL =      41.82006 KJ/MOL


          TOTAL ENERGY            =      -1729.90513 EV
          ELECTRONIC ENERGY       =     -11281.17701 EV  POINT GROUP:     C1  
          CORE-CORE REPULSION     =       9551.27188 EV
          COSMO AREA              =        232.51 SQUARE ANGSTROMS
          COSMO VOLUME            =        258.46 CUBIC ANGSTROMS

          GRADIENT NORM           =          0.04287
          IONIZATION POTENTIAL    =          9.898684 EV
          HOMO LUMO ENERGIES (EV) =         -9.899  1.182
          NO. OF FILLED LEVELS    =         34
          MOLECULAR WEIGHT        =        164.290

          MOLECULAR DIMENSIONS (Angstroms)

            Atom       Atom       Distance
            H    25    H    22     8.48224
            H    26    H    23     8.35081
            H    25    H    30     4.28319


          SCF CALCULATIONS        =        208
          COMPUTATION TIME        =          2.914 SECONDS




   ATOM   CHEMICAL          X               Y               Z
  NUMBER   SYMBOL      (ANGSTROMS)     (ANGSTROMS)     (ANGSTROMS)
 
     1       C         -1.01535110  *   0.39467287  *   0.15275930  *
     2       C          1.00961578  *  -0.43570003  *  -0.03449702  *
     3       C          0.42235840  *   0.95565275  *   0.33375688  *
     4       C         -0.42372353  *  -0.96179879  *  -0.32298895  *
     5       C         -1.85603703  *   1.13692028  *  -0.86493234  *
     6       C          1.94036162  *  -0.45953678  *  -1.22886830  *
     7       C         -3.22357029  *   0.51186097  *  -1.02593854  *
     8       C          3.30050129  *   0.10864382  *  -0.89123343  *
     9       C          0.78332230  *   1.45483048  *   1.68288520  *
    10       C         -0.87038181  *  -2.14852710  *   0.44633285  *
    11       C         -0.01962995  *   2.20476548  *   2.42862691  *
    12       C         -0.10658808  *  -3.21231983  *   0.66606573  *
    13       H         -1.56935791  *   0.31007273  *   1.11420191  *
    14       H          1.48932844  *  -0.94425516  *   0.83134940  *
    15       H          0.67949490  *   1.74360885  *  -0.41001649  *
    16       H         -0.60670285  *  -1.15760460  *  -1.40388641  *
    17       H         -1.33448635  *   1.16814196  *  -1.84311009  *
    18       H         -1.95409291  *   2.19331887  *  -0.54386956  *
    19       H          1.49292833  *   0.10138083  *  -2.07444809  *
    20       H          2.04013473  *  -1.50531980  *  -1.58248284  *
    21       H         -3.14972446  *  -0.53653787  *  -1.34599038  *
    22       H         -3.78941436  *   0.52548798  *  -0.08483308  *
    23       H         -3.82011428  *   1.04562026  *  -1.77640389  *
    24       H          3.22458768  *   1.14543138  *  -0.53575775  *
    25       H          3.96203821  *   0.10670202  *  -1.76662644  *
    26       H          3.79751230  *  -0.47035330  *  -0.10143672  *
    27       H          1.78796587  *   1.18113875  *   2.02960225  *
    28       H         -1.90358279  *  -2.10618467  *   0.81394961  *
    29       H         -1.01886003  *   2.49684075  *   2.11537101  *
    30       H          0.26929310  *   2.57879720  *   3.40576872  *
    31       H         -0.45685341  *  -4.08139876  *   1.21396531  *
    32       H          0.91922833  *  -3.28890131  *   0.31429832  *

           Empirical Formula: C12 H20  =    32 atoms



      MOLECULAR POINT GROUP   :   C1  


                  EIGENVALUES  
 -42.62918 -35.28285 -33.96427 -32.99892 -29.67759 -25.15616 -24.76518 -23.05553
 -20.45934 -20.23008 -18.86401 -18.80045 -17.21186 -16.35827 -15.78772 -15.74386
 -15.30887 -14.97403 -14.87073 -14.16875 -13.95167 -13.80901 -13.01437 -12.92019
 -12.79916 -12.46629 -12.10859 -12.04751 -11.76907 -11.59381 -11.48499 -11.06798
 -10.24535  -9.89868   1.18162   1.18581   3.18084   3.18925   3.21889   3.54775
   3.63969   3.64600   3.72385   3.86061   3.88134   3.91525   3.96794   3.98331
   4.06930   4.10543   4.23354   4.26289   4.29835   4.40869   4.43287   4.52927
   4.61444   4.69410   4.91156   4.95387   4.97337   5.01882   5.17439   5.55733
   5.62129   5.78241   5.86724   5.96838


              NET ATOMIC CHARGES AND DIPOLE CONTRIBUTIONS

  ATOM NO.   TYPE          CHARGE      No. of ELECS.   s-Pop       p-Pop       
    1          C          -0.089363        4.0894     1.19610     2.89327
    2          C          -0.089402        4.0894     1.19610     2.89330
    3          C          -0.065071        4.0651     1.18259     2.88248
    4          C          -0.065028        4.0650     1.18259     2.88244
    5          C          -0.091024        4.0910     1.15786     2.93316
    6          C          -0.091011        4.0910     1.15786     2.93315
    7          C          -0.111213        4.1112     1.13824     2.97297
    8          C          -0.111248        4.1112     1.13825     2.97300
    9          C          -0.123554        4.1236     1.19310     2.93045
   10          C          -0.123545        4.1235     1.19311     2.93043
   11          C          -0.172357        4.1724     1.18143     2.99093
   12          C          -0.172372        4.1724     1.18144     2.99094
   13          H           0.084461        0.9155     0.91554
   14          H           0.084468        0.9155     0.91553
   15          H           0.085379        0.9146     0.91462
   16          H           0.085378        0.9146     0.91462
   17          H           0.051333        0.9487     0.94867
   18          H           0.051165        0.9488     0.94883
   19          H           0.051329        0.9487     0.94867
   20          H           0.051171        0.9488     0.94883
   21          H           0.040627        0.9594     0.95937
   22          H           0.038231        0.9618     0.96177
   23          H           0.037912        0.9621     0.96209
   24          H           0.040657        0.9593     0.95934
   25          H           0.037917        0.9621     0.96208
   26          H           0.038218        0.9618     0.96178
   27          H           0.099191        0.9008     0.90081
   28          H           0.099202        0.9008     0.90080
   29          H           0.083841        0.9162     0.91616
   30          H           0.080436        0.9196     0.91956
   31          H           0.080443        0.9196     0.91956
   32          H           0.083830        0.9162     0.91617
 DIPOLE           X         Y         Z       TOTAL
 POINT-CHG.     0.012     0.101    -0.312     0.328
 HYBRID        -0.001    -0.007     0.022     0.023
 SUM            0.012     0.094    -0.290     0.305


          ATOMIC ORBITAL ELECTRON POPULATIONS

    Atom      s        px        py        pz   
    1  C   1.19610   0.94648   0.95099   0.99580
    2  C   1.19610   0.94288   0.96184   0.98858
    3  C   1.18259   0.95898   0.96086   0.96264
    4  C   1.18259   0.95713   0.92924   0.99607
    5  C   1.15786   0.95932   0.98726   0.98658
    6  C   1.15786   0.95579   1.00894   0.96842
    7  C   1.13824   0.96102   1.00347   1.00848
    8  C   1.13825   0.96122   1.00510   1.00668
    9  C   1.19310   0.99032   0.98191   0.95822
   10  C   1.19311   0.99043   0.95590   0.98410
   11  C   1.18143   0.99703   0.99938   0.99452
   12  C   1.18144   0.99867   0.97511   1.01715
   13  H   0.91554
   14  H   0.91553
   15  H   0.91462
   16  H   0.91462
   17  H   0.94867
   18  H   0.94883
   19  H   0.94867
   20  H   0.94883
   21  H   0.95937
   22  H   0.96177
   23  H   0.96209
   24  H   0.95934
   25  H   0.96208
   26  H   0.96178
   27  H   0.90081
   28  H   0.90080
   29  H   0.91616
   30  H   0.91956
   31  H   0.91956
   32  H   0.91617
 *******************************************************************************
 ** Site#: 14399           For non-commercial use only        Version 13.159M **
 *******************************************************************************
 ** Cite this work as: MOPAC2012, James J. P. Stewart, Stewart Computational  **
 ** Chemistry, Version 13.159M web: HTTP://OpenMOPAC.net  Days remaining:   6 **
 *******************************************************************************
 **                                                                           **
 **                                MOPAC2012                                  **
 **                                                                           **
 *******************************************************************************

                            PM3 CALCULATION RESULTS


 *******************************************************************************
 *  CALCULATION DONE:                                Mon Jun  2 11:04:07 2014  *
 *  PM3      - The PM3 Hamiltonian to be used
 *  OLDGEO   - PREVIOUS GEOMETRY TO BE USED
 *  PRECISE  - CRITERIA TO BE INCREASED BY 100 TIMES
 *  NOSYM    - POINT-GROUP SYMMETRY SET TO C1
 *  T=       - A TIME OF 172800.0 SECONDS REQUESTED
 *  DUMP=N   - RESTART FILE WRITTEN EVERY  7200.000 SECONDS
 *  THERMO   - THERMODYNAMIC QUANTITIES TO BE CALCULATED
 *******************************************************************************
oldgeo thermo nosym precise  pm3

   ATOM   CHEMICAL          X               Y               Z
  NUMBER   SYMBOL      (ANGSTROMS)     (ANGSTROMS)     (ANGSTROMS)
 
     1       C         -1.01535110  *   0.39467287  *   0.15275930  *
     2       C          1.00961578  *  -0.43570003  *  -0.03449702  *
     3       C          0.42235840  *   0.95565275  *   0.33375688  *
     4       C         -0.42372353  *  -0.96179879  *  -0.32298895  *
     5       C         -1.85603703  *   1.13692028  *  -0.86493234  *
     6       C          1.94036162  *  -0.45953678  *  -1.22886830  *
     7       C         -3.22357029  *   0.51186097  *  -1.02593854  *
     8       C          3.30050129  *   0.10864382  *  -0.89123343  *
     9       C          0.78332230  *   1.45483048  *   1.68288520  *
    10       C         -0.87038181  *  -2.14852710  *   0.44633285  *
    11       C         -0.01962995  *   2.20476548  *   2.42862691  *
    12       C         -0.10658808  *  -3.21231983  *   0.66606573  *
    13       H         -1.56935791  *   0.31007273  *   1.11420191  *
    14       H          1.48932844  *  -0.94425516  *   0.83134940  *
    15       H          0.67949490  *   1.74360885  *  -0.41001649  *
    16       H         -0.60670285  *  -1.15760460  *  -1.40388641  *
    17       H         -1.33448635  *   1.16814196  *  -1.84311009  *
    18       H         -1.95409291  *   2.19331887  *  -0.54386956  *
    19       H          1.49292833  *   0.10138083  *  -2.07444809  *
    20       H          2.04013473  *  -1.50531980  *  -1.58248284  *
    21       H         -3.14972446  *  -0.53653787  *  -1.34599038  *
    22       H         -3.78941436  *   0.52548798  *  -0.08483308  *
    23       H         -3.82011428  *   1.04562026  *  -1.77640389  *
    24       H          3.22458768  *   1.14543138  *  -0.53575775  *
    25       H          3.96203821  *   0.10670202  *  -1.76662644  *
    26       H          3.79751230  *  -0.47035330  *  -0.10143672  *
    27       H          1.78796587  *   1.18113875  *   2.02960225  *
    28       H         -1.90358279  *  -2.10618467  *   0.81394961  *
    29       H         -1.01886003  *   2.49684075  *   2.11537101  *
    30       H          0.26929310  *   2.57879720  *   3.40576872  *
    31       H         -0.45685341  *  -4.08139876  *   1.21396531  *
    32       H          0.91922833  *  -3.28890131  *   0.31429832  *
 


          CARTESIAN COORDINATES 

    NO.       ATOM         X         Y         Z

     1         C       -1.0154    0.3947    0.1528
     2         C        1.0096   -0.4357   -0.0345
     3         C        0.4224    0.9557    0.3338
     4         C       -0.4237   -0.9618   -0.3230
     5         C       -1.8560    1.1369   -0.8649
     6         C        1.9404   -0.4595   -1.2289
     7         C       -3.2236    0.5119   -1.0259
     8         C        3.3005    0.1086   -0.8912
     9         C        0.7833    1.4548    1.6829
    10         C       -0.8704   -2.1485    0.4463
    11         C       -0.0196    2.2048    2.4286
    12         C       -0.1066   -3.2123    0.6661
    13         H       -1.5694    0.3101    1.1142
    14         H        1.4893   -0.9443    0.8313
    15         H        0.6795    1.7436   -0.4100
    16         H       -0.6067   -1.1576   -1.4039
    17         H       -1.3345    1.1681   -1.8431
    18         H       -1.9541    2.1933   -0.5439
    19         H        1.4929    0.1014   -2.0744
    20         H        2.0401   -1.5053   -1.5825
    21         H       -3.1497   -0.5365   -1.3460
    22         H       -3.7894    0.5255   -0.0848
    23         H       -3.8201    1.0456   -1.7764
    24         H        3.2246    1.1454   -0.5358
    25         H        3.9620    0.1067   -1.7666
    26         H        3.7975   -0.4704   -0.1014
    27         H        1.7880    1.1811    2.0296
    28         H       -1.9036   -2.1062    0.8139
    29         H       -1.0189    2.4968    2.1154
    30         H        0.2693    2.5788    3.4058
    31         H       -0.4569   -4.0814    1.2140
    32         H        0.9192   -3.2889    0.3143

  H: (PM3): J. J. P. STEWART, J. COMP. CHEM. 10, 209 (1989).
  C: (PM3): J. J. P. STEWART, J. COMP. CHEM. 10, 209 (1989).

           Empirical Formula: C12 H20  =    32 atoms



      MOLECULAR POINT GROUP   :   C1  


      RHF CALCULATION, NO. OF DOUBLY OCCUPIED LEVELS =   34



          HEAT OF FORMATION =       9.995235 KCALS/MOLE


          INTERNAL COORDINATE DERIVATIVES

   NUMBER  ATOM       BOND         ANGLE      DIHEDRAL

     1       C     -0.000173    -0.001294    -0.002136
     2       C     -0.002707    -0.001048    -0.000134
     3       C     -0.003887    -0.001623    -0.001844
     4       C      0.000319     0.000428    -0.000459
     5       C      0.000614    -0.003130    -0.002433
     6       C     -0.001744     0.000337    -0.000011
     7       C     -0.003275    -0.003622    -0.000783
     8       C     -0.000454     0.000667     0.001951
     9       C     -0.002911     0.002020     0.000042
    10       C     -0.010590     0.008143    -0.010921
    11       C      0.009770    -0.001420     0.002385
    12       C      0.004695    -0.006056     0.013455
    13       H     -0.003041    -0.002480    -0.001499
    14       H     -0.003540     0.000650     0.000369
    15       H      0.010191     0.001151    -0.001659
    16       H      0.001521    -0.003653     0.002137
    17       H     -0.000416    -0.002066    -0.000094
    18       H      0.005993     0.003160    -0.000123
    19       H     -0.001496     0.001767    -0.002541
    20       H      0.003163     0.001071    -0.000431
    21       H     -0.001986    -0.002683    -0.001534
    22       H      0.002740    -0.003538     0.003017
    23       H     -0.006320     0.001354     0.000878
    24       H      0.002004     0.003559     0.005623
    25       H     -0.001830     0.010883    -0.001100
    26       H      0.001609    -0.002221     0.000334
    27       H      0.001913    -0.000438    -0.002210
    28       H     -0.010611    -0.000544     0.005545
    29       H     -0.012021     0.000597    -0.003768
    30       H      0.012773    -0.000495     0.000561
    31       H     -0.001192    -0.000105     0.000798
    32       H      0.010887     0.000633    -0.003414


          GRADIENT NORM =   0.04292


          TIME FOR SCF CALCULATION =    0.01

          TIME FOR DERIVATIVES     =    0.01

          MOLECULAR WEIGHT =  164.29



          ROTATIONAL CONSTANTS IN CM(-1)

          A =    0.02904799   B =    0.02451737   C =    0.01897851



           PRINCIPAL MOMENTS OF INERTIA IN UNITS OF 10**(-40)*GRAM-CM**2

          A =      963.6734   B =     1141.7527   C =     1474.9726


          ORIENTATION OF MOLECULE IN FORCE CALCULATION

    NO.       ATOM         X         Y         Z

     1          C      -1.0984    0.0015   -0.0304
     2          C       1.0983    0.0015   -0.0304
     3          C      -0.0005    1.1011   -0.0304
     4          C       0.0004   -1.0923   -0.1434
     5          C      -2.0672    0.0807   -1.1917
     6          C       2.0671    0.0423   -1.1936
     7          C      -3.0778   -1.0436   -1.1568
     8          C       3.0774    1.1574   -1.0430
     9          C       0.0286    2.0207    1.1327
    10          C      -0.0283   -2.1264    0.9194
    11          C      -1.0587    2.5618    1.6697
    12          C       1.0592   -2.7202    1.3970
    13          H      -1.6590   -0.0480    0.9296
    14          H       1.6589   -0.0480    0.9296
    15          H       0.0021    1.7142   -0.9600
    16          H      -0.0021   -1.6069   -1.1310
    17          H      -1.5148    0.0661   -2.1532
    18          H      -2.5843    1.0606   -1.1582
    19          H       1.5147    0.1558   -2.1485
    20          H       2.5846   -0.9356   -1.2613
    21          H      -2.5862   -2.0255   -1.1910
    22          H      -3.6849   -1.0155   -0.2421
    23          H      -3.7656   -0.9881   -2.0100
    24          H       2.5852    2.1370   -0.9716
    25          H       3.7626    1.1931   -1.8992
    26          H       3.6871    1.0331   -0.1381
    27          H       1.0286    2.2533    1.5204
    28          H      -1.0282   -2.3970    1.2822
    29          H      -2.0636    2.3561    1.3094
    30          H      -1.0171    3.2496    2.5084
    31          H       1.0181   -3.4903    2.1608
    32          H       2.0638   -2.4789    1.0587


    FIRST DERIVATIVES WILL BE USED IN THE CALCULATION OF SECOND DERIVATIVES

          ESTIMATED TIME TO COMPLETE CALCULATION =        7.42 SECONDS

    FOR POINT-GROUP C1   THERE ARE   1 UNIQUE SYMMETRY FUNCTIONS.

 STEP:   1 TIME =     0.06 SECS, INTEGRAL =      0.06 TIME LEFT: 172799.92
 STEP:   2 TIME =     0.06 SECS, INTEGRAL =      0.12 TIME LEFT: 172799.86
 STEP:   3 TIME =     0.06 SECS, INTEGRAL =      0.19 TIME LEFT: 172799.79
 STEP:   4 TIME =     0.06 SECS, INTEGRAL =      0.25 TIME LEFT: 172799.73
 STEP:   5 TIME =     0.06 SECS, INTEGRAL =      0.31 TIME LEFT: 172799.67
 STEP:   6 TIME =     0.06 SECS, INTEGRAL =      0.37 TIME LEFT: 172799.61
 STEP:   7 TIME =     0.06 SECS, INTEGRAL =      0.43 TIME LEFT: 172799.55
 STEP:   8 TIME =     0.06 SECS, INTEGRAL =      0.49 TIME LEFT: 172799.49
 STEP:   9 TIME =     0.06 SECS, INTEGRAL =      0.55 TIME LEFT: 172799.43
 STEP:  10 TIME =     0.06 SECS, INTEGRAL =      0.62 TIME LEFT: 172799.37
 STEP:  11 TIME =     0.06 SECS, INTEGRAL =      0.68 TIME LEFT: 172799.30
 STEP:  12 TIME =     0.06 SECS, INTEGRAL =      0.74 TIME LEFT: 172799.24
 STEP:  13 TIME =     0.06 SECS, INTEGRAL =      0.80 TIME LEFT: 172799.18
 STEP:  14 TIME =     0.06 SECS, INTEGRAL =      0.86 TIME LEFT: 172799.12
 STEP:  15 TIME =     0.06 SECS, INTEGRAL =      0.92 TIME LEFT: 172799.06
 STEP:  16 TIME =     0.06 SECS, INTEGRAL =      0.98 TIME LEFT: 172799.00
 STEP:  17 TIME =     0.06 SECS, INTEGRAL =      1.04 TIME LEFT: 172798.94
 STEP:  18 TIME =     0.06 SECS, INTEGRAL =      1.10 TIME LEFT: 172798.88
 STEP:  19 TIME =     0.06 SECS, INTEGRAL =      1.16 TIME LEFT: 172798.82
 STEP:  20 TIME =     0.06 SECS, INTEGRAL =      1.22 TIME LEFT: 172798.76
 STEP:  21 TIME =     0.06 SECS, INTEGRAL =      1.28 TIME LEFT: 172798.70
 STEP:  22 TIME =     0.06 SECS, INTEGRAL =      1.34 TIME LEFT: 172798.64
 STEP:  23 TIME =     0.06 SECS, INTEGRAL =      1.40 TIME LEFT: 172798.58
 STEP:  24 TIME =     0.06 SECS, INTEGRAL =      1.46 TIME LEFT: 172798.52
 STEP:  25 TIME =     0.06 SECS, INTEGRAL =      1.52 TIME LEFT: 172798.46
 STEP:  26 TIME =     0.06 SECS, INTEGRAL =      1.58 TIME LEFT: 172798.40
 STEP:  27 TIME =     0.06 SECS, INTEGRAL =      1.64 TIME LEFT: 172798.34
 STEP:  28 TIME =     0.06 SECS, INTEGRAL =      1.70 TIME LEFT: 172798.28
 STEP:  29 TIME =     0.06 SECS, INTEGRAL =      1.76 TIME LEFT: 172798.22
 STEP:  30 TIME =     0.06 SECS, INTEGRAL =      1.82 TIME LEFT: 172798.16
 STEP:  31 TIME =     0.06 SECS, INTEGRAL =      1.88 TIME LEFT: 172798.10
 STEP:  32 TIME =     0.07 SECS, INTEGRAL =      1.95 TIME LEFT: 172798.03
 STEP:  33 TIME =     0.06 SECS, INTEGRAL =      2.01 TIME LEFT: 172797.97
 STEP:  34 TIME =     0.06 SECS, INTEGRAL =      2.07 TIME LEFT: 172797.91
 STEP:  35 TIME =     0.06 SECS, INTEGRAL =      2.13 TIME LEFT: 172797.85
 STEP:  36 TIME =     0.06 SECS, INTEGRAL =      2.19 TIME LEFT: 172797.79
 STEP:  37 TIME =     0.07 SECS, INTEGRAL =      2.26 TIME LEFT: 172797.72
 STEP:  38 TIME =     0.06 SECS, INTEGRAL =      2.32 TIME LEFT: 172797.66
 STEP:  39 TIME =     0.07 SECS, INTEGRAL =      2.39 TIME LEFT: 172797.59
 STEP:  40 TIME =     0.06 SECS, INTEGRAL =      2.45 TIME LEFT: 172797.53
 STEP:  41 TIME =     0.06 SECS, INTEGRAL =      2.51 TIME LEFT: 172797.47
 STEP:  42 TIME =     0.06 SECS, INTEGRAL =      2.57 TIME LEFT: 172797.41
 STEP:  43 TIME =     0.06 SECS, INTEGRAL =      2.64 TIME LEFT: 172797.34
 STEP:  44 TIME =     0.06 SECS, INTEGRAL =      2.70 TIME LEFT: 172797.28
 STEP:  45 TIME =     0.06 SECS, INTEGRAL =      2.76 TIME LEFT: 172797.22
 STEP:  46 TIME =     0.06 SECS, INTEGRAL =      2.82 TIME LEFT: 172797.16
 STEP:  47 TIME =     0.06 SECS, INTEGRAL =      2.88 TIME LEFT: 172797.10
 STEP:  48 TIME =     0.06 SECS, INTEGRAL =      2.94 TIME LEFT: 172797.04
 STEP:  49 TIME =     0.06 SECS, INTEGRAL =      3.01 TIME LEFT: 172796.97
 STEP:  50 TIME =     0.06 SECS, INTEGRAL =      3.07 TIME LEFT: 172796.91
 STEP:  51 TIME =     0.06 SECS, INTEGRAL =      3.13 TIME LEFT: 172796.85
 STEP:  52 TIME =     0.06 SECS, INTEGRAL =      3.19 TIME LEFT: 172796.79
 STEP:  53 TIME =     0.06 SECS, INTEGRAL =      3.26 TIME LEFT: 172796.72
 STEP:  54 TIME =     0.06 SECS, INTEGRAL =      3.32 TIME LEFT: 172796.66
 STEP:  55 TIME =     0.06 SECS, INTEGRAL =      3.38 TIME LEFT: 172796.60
 STEP:  56 TIME =     0.06 SECS, INTEGRAL =      3.44 TIME LEFT: 172796.54
 STEP:  57 TIME =     0.06 SECS, INTEGRAL =      3.50 TIME LEFT: 172796.48
 STEP:  58 TIME =     0.06 SECS, INTEGRAL =      3.57 TIME LEFT: 172796.42
 STEP:  59 TIME =     0.06 SECS, INTEGRAL =      3.62 TIME LEFT: 172796.36
 STEP:  60 TIME =     0.06 SECS, INTEGRAL =      3.69 TIME LEFT: 172796.29
 STEP:  61 TIME =     0.07 SECS, INTEGRAL =      3.75 TIME LEFT: 172796.23
 STEP:  62 TIME =     0.06 SECS, INTEGRAL =      3.81 TIME LEFT: 172796.17
 STEP:  63 TIME =     0.06 SECS, INTEGRAL =      3.87 TIME LEFT: 172796.11
 STEP:  64 TIME =     0.06 SECS, INTEGRAL =      3.93 TIME LEFT: 172796.05
 STEP:  65 TIME =     0.06 SECS, INTEGRAL =      4.00 TIME LEFT: 172795.98
 STEP:  66 TIME =     0.06 SECS, INTEGRAL =      4.06 TIME LEFT: 172795.92
 STEP:  67 TIME =     0.06 SECS, INTEGRAL =      4.12 TIME LEFT: 172795.86
 STEP:  68 TIME =     0.06 SECS, INTEGRAL =      4.18 TIME LEFT: 172795.80
 STEP:  69 TIME =     0.06 SECS, INTEGRAL =      4.24 TIME LEFT: 172795.74
 STEP:  70 TIME =     0.07 SECS, INTEGRAL =      4.31 TIME LEFT: 172795.67
 STEP:  71 TIME =     0.06 SECS, INTEGRAL =      4.37 TIME LEFT: 172795.61
 STEP:  72 TIME =     0.06 SECS, INTEGRAL =      4.43 TIME LEFT: 172795.55
 STEP:  73 TIME =     0.07 SECS, INTEGRAL =      4.49 TIME LEFT: 172795.49
 STEP:  74 TIME =     0.06 SECS, INTEGRAL =      4.56 TIME LEFT: 172795.42
 STEP:  75 TIME =     0.06 SECS, INTEGRAL =      4.62 TIME LEFT: 172795.36
 STEP:  76 TIME =     0.06 SECS, INTEGRAL =      4.68 TIME LEFT: 172795.30
 STEP:  77 TIME =     0.07 SECS, INTEGRAL =      4.74 TIME LEFT: 172795.24
 STEP:  78 TIME =     0.06 SECS, INTEGRAL =      4.81 TIME LEFT: 172795.18
 STEP:  79 TIME =     0.06 SECS, INTEGRAL =      4.86 TIME LEFT: 172795.12
 STEP:  80 TIME =     0.06 SECS, INTEGRAL =      4.93 TIME LEFT: 172795.05
 STEP:  81 TIME =     0.07 SECS, INTEGRAL =      5.00 TIME LEFT: 172794.98
 STEP:  82 TIME =     0.06 SECS, INTEGRAL =      5.06 TIME LEFT: 172794.92
 STEP:  83 TIME =     0.06 SECS, INTEGRAL =      5.12 TIME LEFT: 172794.86
 STEP:  84 TIME =     0.06 SECS, INTEGRAL =      5.19 TIME LEFT: 172794.80
 STEP:  85 TIME =     0.06 SECS, INTEGRAL =      5.25 TIME LEFT: 172794.73
 STEP:  86 TIME =     0.06 SECS, INTEGRAL =      5.31 TIME LEFT: 172794.67
 STEP:  87 TIME =     0.06 SECS, INTEGRAL =      5.37 TIME LEFT: 172794.61
 STEP:  88 TIME =     0.06 SECS, INTEGRAL =      5.44 TIME LEFT: 172794.54
 STEP:  89 TIME =     0.06 SECS, INTEGRAL =      5.50 TIME LEFT: 172794.48
 STEP:  90 TIME =     0.06 SECS, INTEGRAL =      5.56 TIME LEFT: 172794.42
 STEP:  91 TIME =     0.06 SECS, INTEGRAL =      5.62 TIME LEFT: 172794.36
 STEP:  92 TIME =     0.06 SECS, INTEGRAL =      5.68 TIME LEFT: 172794.30
 STEP:  93 TIME =     0.06 SECS, INTEGRAL =      5.74 TIME LEFT: 172794.24
 STEP:  94 TIME =     0.06 SECS, INTEGRAL =      5.80 TIME LEFT: 172794.18
 STEP:  95 TIME =     0.06 SECS, INTEGRAL =      5.86 TIME LEFT: 172794.12
 STEP:  96 TIME =     0.06 SECS, INTEGRAL =      5.93 TIME LEFT: 172794.05

(To convert to Hartree/Bohr^2, multiply by (10^(-21) x N x a0^2)/(4.184 x 627.51) = 0.0642)


           FORCE MATRIX IN MILLIDYNES/ANGSTROM


                  C  1       C  2       C  3       C  4       C  5       C  6
 ------------------------------------------------------------------------------
     C    1  14.372753
     C    2   1.779855  14.372852
     C    3   3.236542   3.232848  14.739289
     C    4   3.232715   3.236827   1.786564  14.739704
     C    5   4.307302   0.041602   0.536952   0.527686  14.487028
     C    6   0.041873   4.307339   0.527968   0.536748   0.005525  14.487326
     C    7   0.660907   0.005396   0.049771   0.031270   4.464846   0.001053
     C    8   0.005313   0.661210   0.031392   0.049585   0.001099   4.464302
     C    9   0.543042   0.566484   5.070089   0.040828   0.033319   0.034215
     C   10   0.566157   0.543470   0.041170   5.070372   0.034125   0.033355
     C   11   0.050809   0.046287   0.825848   0.006372   0.005622   0.006322
     C   12   0.046433   0.050981   0.006354   0.825876   0.006538   0.005337
     H   13   4.353450   0.025581   0.435822   0.438396   0.427904   0.001286
     H   14   0.025581   4.353650   0.438327   0.435917   0.001383   0.427920
     H   15   0.442100   0.442349   4.311251   0.025448   0.036613   0.031507
     H   16   0.442289   0.442147   0.025440   4.311700   0.031412   0.036489
     H   17   0.449990   0.001926   0.021340   0.023895   4.427885   0.002479
     H   18   0.431712   0.003669   0.019552   0.046026   4.446869   0.001038
     H   19   0.001924   0.449969   0.023908   0.021300   0.002456   4.427851
     H   20   0.003726   0.431661   0.046024   0.019520   0.001072   4.447174
     H   21   0.021445   0.000516   0.001771   0.006871   0.461765   0.000425
     H   22   0.023578   0.000366   0.001600   0.001950   0.463742   0.000258
     H   23   0.051905   0.000744   0.008429   0.002080   0.450950   0.000380
     H   24   0.000551   0.021548   0.006893   0.001736   0.000374   0.462624
     H   25   0.000736   0.051856   0.002106   0.008384   0.000355   0.451000
     H   26   0.000279   0.023469   0.001917   0.001658   0.000247   0.463696
     H   27   0.035336   0.030530   0.434945   0.002307   0.004368   0.002490
     H   28   0.030562   0.035354   0.002285   0.434880   0.002522   0.004344
     H   29   0.018171   0.004659   0.098811   0.001695   0.004604   0.001183
     H   30   0.007019   0.010340   0.133321   0.001497   0.000911   0.001389
     H   31   0.010385   0.006991   0.001550   0.133583   0.001470   0.000854
     H   32   0.004654   0.018172   0.001763   0.098752   0.001220   0.004685


                  C  7       C  8       C  9       C 10       C 11       C 12
 ------------------------------------------------------------------------------
     C    7  14.370936
     C    8   0.000464  14.370317
     C    9   0.006858   0.005202  18.283199
     C   10   0.005232   0.006840   0.006345  18.283197
     C   11   0.000887   0.000731  11.061393   0.001670  18.012897
     C   12   0.000800   0.001014   0.001775  11.060705   0.001094  18.011783
     H   13   0.031562   0.000519   0.024613   0.033696   0.015570   0.003098
     H   14   0.000620   0.031600   0.033740   0.024597   0.003051   0.015475
     H   15   0.002957   0.008147   0.389615   0.001430   0.025866   0.000780
     H   16   0.008127   0.002851   0.001460   0.389728   0.000818   0.025768
     H   17   0.437755   0.000408   0.001213   0.001556   0.001059   0.000738
     H   18   0.438844   0.000378   0.001717   0.006007   0.002515   0.001497
     H   19   0.000386   0.437820   0.001526   0.001174   0.000668   0.001065
     H   20   0.000385   0.438812   0.005933   0.001786   0.001607   0.002552
     H   21   4.711002   0.000225   0.000734   0.002812   0.000417   0.000724
     H   22   4.723858   0.000253   0.000838   0.000966   0.000479   0.000465
     H   23   4.756274   0.000190   0.001348   0.000817   0.000287   0.000493
     H   24   0.000183   4.710203   0.002866   0.000762   0.000735   0.000420
     H   25   0.000166   4.756511   0.000766   0.001297   0.000435   0.000268
     H   26   0.000197   4.723902   0.000989   0.000745   0.000486   0.000419
     H   27   0.001345   0.001827   4.769446   0.001354   0.455184   0.000889
     H   28   0.001791   0.001342   0.001397   4.769384   0.000974   0.455169
     H   29   0.001034   0.000562   0.493357   0.000981   5.057946   0.000652
     H   30   0.000570   0.000382   0.463633   0.000672   5.113341   0.000411
     H   31   0.000449   0.000657   0.000746   0.463579   0.000472   5.113218
     H   32   0.000507   0.001057   0.001017   0.493279   0.000506   5.057784


                  H 13       H 14       H 15       H 16       H 17       H 18
 ------------------------------------------------------------------------------
     H   13   4.868424
     H   14   0.002291   4.868571
     H   15   0.029939   0.030233   4.808655
     H   16   0.030224   0.029978   0.002315   4.809071
     H   17   0.041705   0.000516   0.020979   0.026692   5.042171
     H   18   0.026126   0.000548   0.010429   0.003151   0.566766   5.051181
     H   19   0.000497   0.041704   0.026731   0.020927   0.006749   0.000226
     H   20   0.000536   0.026107   0.003169   0.010401   0.000236   0.000231
     H   21   0.002138   0.000244   0.000506   0.010071   0.024145   0.047219
     H   22   0.021259   0.000089   0.000497   0.000545   0.047794   0.025395
     H   23   0.001915   0.000117   0.000710   0.000629   0.030848   0.028209
     H   24   0.000228   0.002149   0.010128   0.000466   0.000131   0.000141
     H   25   0.000120   0.001933   0.000607   0.000706   0.000098   0.000143
     H   26   0.000100   0.021089   0.000541   0.000498   0.000148   0.000047
     H   27   0.002914   0.028546   0.014207   0.000484   0.000368   0.000364
     H   28   0.028572   0.002912   0.000493   0.014171   0.000684   0.000585
     H   29   0.024769   0.000783   0.011970   0.000389   0.000734   0.008646
     H   30   0.001283   0.000673   0.015078   0.000155   0.000294   0.000590
     H   31   0.000675   0.001266   0.000129   0.015131   0.000211   0.000309
     H   32   0.000768   0.024779   0.000405   0.011960   0.000245   0.000221


                  H 19       H 20       H 21       H 22       H 23       H 24
 ------------------------------------------------------------------------------
     H   19   5.042059
     H   20   0.566640   5.051463
     H   21   0.000154   0.000143   5.447364
     H   22   0.000154   0.000073   0.577554   5.466540
     H   23   0.000109   0.000151   0.568997   0.571058   5.490886
     H   24   0.023757   0.047723   0.000069   0.000080   0.000057   5.446559
     H   25   0.030961   0.028057   0.000063   0.000071   0.000057   0.569030
     H   26   0.047810   0.025536   0.000076   0.000052   0.000073   0.577305
     H   27   0.000680   0.000587   0.000173   0.000218   0.000294   0.005473
     H   28   0.000365   0.000379   0.005373   0.001621   0.000560   0.000160
     H   29   0.000210   0.000226   0.000291   0.000295   0.000296   0.000241
     H   30   0.000207   0.000298   0.000137   0.000136   0.000090   0.000203
     H   31   0.000278   0.000594   0.000270   0.000141   0.000132   0.000133
     H   32   0.000780   0.008652   0.000255   0.000173   0.000119   0.000320


                  H 25       H 26       H 27       H 28       H 29       H 30
 ------------------------------------------------------------------------------
     H   25   5.491118
     H   26   0.571016   5.466632
     H   27   0.000530   0.001583   5.133854
     H   28   0.000287   0.000192   0.000511   5.133752
     H   29   0.000148   0.000175   0.118653   0.000567   5.447524
     H   30   0.000163   0.000128   0.079180   0.000365   0.417422   5.499794
     H   31   0.000101   0.000144   0.000356   0.079634   0.000184   0.000158
     H   32   0.000315   0.000260   0.000577   0.118968   0.000223   0.000182


                  H 31       H 32
 ------------------------------
     H   31   5.499892
     H   32   0.417653   5.447481


          HEAT OF FORMATION =       9.995235 KCALS/MOLE

          ZERO POINT ENERGY     179.432 KCAL/MOL


           NORMAL COORDINATE ANALYSIS (Total motion = 1 Angstrom)


   Root No.       1         2         3         4         5         6         7         8

                 1 A       2 A       3 A       4 A       5 A       6 A       7 A       8 A   

                  40.3      75.1      77.1      92.5     107.8     142.2     143.0     170.8
  
           1    0.0002    0.0081   -0.0031   -0.0007   -0.0047   -0.0112    0.0034    0.0072
           2   -0.0021   -0.0088   -0.0010   -0.0026    0.0085   -0.0123    0.0029   -0.0026
           3    0.0028   -0.0105   -0.0089    0.0049   -0.0066    0.0001   -0.0049    0.0009
           4   -0.0003    0.0082   -0.0030   -0.0003   -0.0047   -0.0113    0.0033    0.0072
           5    0.0020   -0.0062    0.0078    0.0030    0.0074   -0.0112    0.0049   -0.0025
           6    0.0031    0.0016   -0.0133    0.0061    0.0060   -0.0054   -0.0032   -0.0015
           7   -0.0020    0.0067   -0.0075   -0.0027   -0.0043   -0.0105    0.0013    0.0066
           8    0.0002   -0.0079    0.0034    0.0000    0.0083   -0.0120    0.0040   -0.0031
           9   -0.0082   -0.0031   -0.0085    0.0128   -0.0132   -0.0027    0.0031   -0.0047
          10    0.0020    0.0100    0.0013    0.0018   -0.0047   -0.0092    0.0046    0.0065
          11    0.0008   -0.0079    0.0034   -0.0005    0.0071   -0.0126    0.0034   -0.0035
          12   -0.0080   -0.0040   -0.0087    0.0146    0.0115    0.0025    0.0014    0.0043
          13   -0.0152    0.0140   -0.0049    0.0139    0.0032   -0.0011    0.0119    0.0013
          14   -0.0054   -0.0062   -0.0057    0.0019   -0.0082   -0.0080   -0.0175    0.0058
          15    0.0158   -0.0152   -0.0077   -0.0074   -0.0147   -0.0095   -0.0133    0.0070
          16    0.0153    0.0134   -0.0058   -0.0134    0.0052   -0.0090   -0.0089    0.0012
          17    0.0036   -0.0015    0.0104   -0.0026   -0.0092    0.0068    0.0193    0.0070
          18    0.0165    0.0061   -0.0156   -0.0054    0.0142   -0.0017   -0.0136   -0.0068
          19   -0.0191   -0.0326   -0.0162   -0.0067   -0.0011   -0.0158    0.0090   -0.0011
          20   -0.0013    0.0369    0.0049    0.0209   -0.0041    0.0052   -0.0149    0.0083
          21    0.0381    0.0200    0.0099   -0.0113   -0.0005   -0.0225    0.0156   -0.0004
          22    0.0191   -0.0140    0.0343    0.0063   -0.0016   -0.0187    0.0017   -0.0010
          23   -0.0027    0.0252   -0.0304   -0.0200   -0.0015    0.0122    0.0083    0.0085
          24    0.0380   -0.0062    0.0178   -0.0127    0.0023    0.0309    0.0006    0.0017
          25   -0.0059   -0.0024   -0.0071   -0.0167    0.0023    0.0164    0.0032   -0.0013
          26    0.0135   -0.0102   -0.0027   -0.0067    0.0193   -0.0057   -0.0040    0.0053
          27   -0.0189   -0.0011   -0.0035    0.0187   -0.0221   -0.0091    0.0097   -0.0119
          28    0.0059    0.0029    0.0068    0.0171   -0.0004    0.0100   -0.0113   -0.0014
          29   -0.0112   -0.0062    0.0088    0.0072    0.0168   -0.0024    0.0056    0.0047
          30   -0.0197   -0.0025   -0.0031    0.0228    0.0211    0.0138    0.0029    0.0130
          31   -0.0085   -0.0074   -0.0077   -0.0244    0.0058    0.0362    0.0070   -0.0104
          32    0.0226   -0.0178   -0.0265    0.0114   -0.0223    0.0222    0.0114   -0.0151
          33   -0.0331   -0.0036    0.0191   -0.0145    0.0264    0.0017    0.0017   -0.0095
          34    0.0085   -0.0005    0.0105    0.0255    0.0020    0.0225   -0.0248   -0.0107
          35   -0.0195    0.0022    0.0311   -0.0121   -0.0162    0.0094   -0.0208   -0.0162
          36   -0.0358    0.0157    0.0161   -0.0197   -0.0249    0.0010    0.0000    0.0078
          37    0.0123    0.0031   -0.0024   -0.0112   -0.0110   -0.0161   -0.0038    0.0105
          38   -0.0027   -0.0095   -0.0038   -0.0024    0.0188   -0.0097    0.0063   -0.0009
          39    0.0099   -0.0134   -0.0085   -0.0014   -0.0097   -0.0033   -0.0090    0.0034
          40   -0.0125    0.0041    0.0001    0.0092   -0.0124   -0.0100    0.0116    0.0108
          41    0.0020   -0.0053    0.0102    0.0049    0.0170   -0.0119    0.0013   -0.0008
          42    0.0103    0.0040   -0.0148    0.0005    0.0110   -0.0055   -0.0086   -0.0040
          43   -0.0029    0.0108   -0.0123   -0.0019   -0.0003   -0.0165   -0.0002    0.0062
          44   -0.0107   -0.0067    0.0074    0.0064   -0.0015   -0.0140    0.0107   -0.0076
          45   -0.0155   -0.0023   -0.0057    0.0170   -0.0195   -0.0044    0.0076   -0.0080
          46    0.0029    0.0161    0.0019    0.0015   -0.0007   -0.0129    0.0090    0.0062
          47    0.0122   -0.0094   -0.0004   -0.0088   -0.0026   -0.0196   -0.0008   -0.0088
          48   -0.0139   -0.0031   -0.0066    0.0189    0.0165    0.0065    0.0034    0.0074
          49   -0.0290    0.0151   -0.0074    0.0254    0.0096    0.0089    0.0179   -0.0048
          50   -0.0139   -0.0584   -0.0232   -0.0153   -0.0279   -0.0158   -0.0460    0.0154
          51    0.0081   -0.0137   -0.0089   -0.0006   -0.0108   -0.0038   -0.0095    0.0034
          52   -0.0109    0.0532    0.0047    0.0302    0.0063    0.0094    0.0154    0.0029
          53   -0.0031    0.0156   -0.0003    0.0112   -0.0060   -0.0022   -0.0149    0.0064
          54    0.0168   -0.0469   -0.0190   -0.0218   -0.0368   -0.0172   -0.0441    0.0215
          55    0.0292    0.0156   -0.0048   -0.0237    0.0133   -0.0050   -0.0190   -0.0050
          56    0.0125   -0.0287    0.0590    0.0110   -0.0297    0.0215    0.0450    0.0171
          57    0.0096    0.0016   -0.0103    0.0020    0.0071   -0.0020   -0.0048   -0.0021
          58    0.0110    0.0365   -0.0396   -0.0291    0.0103   -0.0031   -0.0175    0.0024
          59    0.0012    0.0096   -0.0053   -0.0103   -0.0082    0.0113    0.0169    0.0090
          60    0.0177    0.0235   -0.0479   -0.0174    0.0377   -0.0174   -0.0419   -0.0221
          61   -0.0226   -0.0724   -0.0258   -0.0246   -0.0043   -0.0291    0.0098   -0.0080
          62   -0.0034    0.0156   -0.0004    0.0117   -0.0065   -0.0012   -0.0173    0.0082
          63    0.0471    0.0640    0.0269   -0.0013    0.0235   -0.0256    0.0913   -0.0898
          64   -0.0119   -0.0404   -0.0170   -0.0156   -0.0087   -0.0218   -0.0232    0.0530
          65    0.0126    0.0986    0.0263    0.0372    0.0167    0.0079    0.0395   -0.0448
          66    0.0425    0.0130    0.0088   -0.0177   -0.0062   -0.0266   -0.0073    0.0372
          67   -0.0255   -0.0224   -0.0148    0.0029    0.0063   -0.0093    0.0391   -0.0515
          68   -0.0099    0.0312   -0.0025    0.0291   -0.0191    0.0200   -0.0648    0.0638
          69    0.0428    0.0113    0.0083   -0.0186   -0.0074   -0.0269   -0.0118    0.0437
          70    0.0227   -0.0376    0.0686    0.0236   -0.0071   -0.0297    0.0090   -0.0071
          71   -0.0015    0.0150   -0.0165   -0.0120   -0.0024    0.0029    0.0079   -0.0009
          72    0.0465   -0.0280    0.0613   -0.0058   -0.0220    0.0868    0.0565    0.0903
          73    0.0258   -0.0082    0.0270   -0.0015    0.0068   -0.0347   -0.0246   -0.0507
          74    0.0050    0.0258   -0.0206   -0.0296   -0.0152    0.0614    0.0402    0.0680
          75    0.0437   -0.0015    0.0124   -0.0194    0.0084    0.0204   -0.0191   -0.0355
          76    0.0117   -0.0183    0.0393    0.0133   -0.0101   -0.0009    0.0291    0.0522
          77   -0.0165    0.0562   -0.0871   -0.0325    0.0195   -0.0230   -0.0324   -0.0406
          78    0.0411    0.0009    0.0067   -0.0191    0.0109    0.0142   -0.0234   -0.0409
          79   -0.0078   -0.0050   -0.0048   -0.0248    0.0104    0.0263    0.0029   -0.0031
          80    0.0148   -0.0055    0.0132   -0.0274    0.0635   -0.0213   -0.0221    0.0283
          81   -0.0149    0.0029   -0.0186    0.0513   -0.0688   -0.0244    0.0214   -0.0214
          82    0.0079   -0.0007    0.0067    0.0265    0.0065    0.0179   -0.0164   -0.0031
          83   -0.0122   -0.0125   -0.0064    0.0302    0.0530   -0.0029    0.0271    0.0279
          84   -0.0151   -0.0169   -0.0148    0.0653    0.0667    0.0346    0.0055    0.0260
          85   -0.0061   -0.0050   -0.0104   -0.0163   -0.0036    0.0268    0.0072   -0.0078
          86    0.0206   -0.0225   -0.0412    0.0299   -0.0621    0.0398    0.0297   -0.0393
          87   -0.0387   -0.0076    0.0351   -0.0479    0.0754    0.0186   -0.0088   -0.0034
          88   -0.0133   -0.0143   -0.0055   -0.0396    0.0186    0.0640    0.0105   -0.0217
          89    0.0318   -0.0197   -0.0321    0.0085   -0.0178    0.0285    0.0068   -0.0090
          90   -0.0404   -0.0018    0.0237   -0.0114    0.0222   -0.0048    0.0054   -0.0141
          91    0.0134   -0.0074    0.0130    0.0432    0.0127    0.0415   -0.0423   -0.0220
          92   -0.0279    0.0039    0.0360   -0.0085   -0.0119    0.0175   -0.0209   -0.0100
          93   -0.0440    0.0171    0.0212   -0.0153   -0.0200    0.0102   -0.0011    0.0135
          94    0.0059    0.0032    0.0113    0.0158   -0.0062    0.0151   -0.0199   -0.0083
          95   -0.0175    0.0076    0.0450   -0.0319   -0.0482    0.0114   -0.0437   -0.0408
          96   -0.0420    0.0307    0.0284   -0.0632   -0.0722   -0.0200   -0.0011   -0.0021


   Root No.       9        10        11        12        13        14        15        16

                 9 A      10 A      11 A      12 A      13 A      14 A      15 A      16 A   

                 190.4     212.5     220.1     275.8     378.7     387.6     415.9     429.0
  
           1    0.0004    0.0002    0.0033   -0.0038    0.0049   -0.0064    0.0061    0.0120
           2   -0.0001   -0.0098   -0.0067   -0.0133   -0.0027    0.0206    0.0006    0.0060
           3    0.0108    0.0076    0.0099   -0.0024   -0.0158    0.0095    0.0285   -0.0258
           4   -0.0005   -0.0007    0.0033    0.0038   -0.0051   -0.0061    0.0061    0.0120
           5   -0.0012    0.0093   -0.0052    0.0135    0.0054    0.0211    0.0035    0.0034
           6    0.0105    0.0091   -0.0101   -0.0011   -0.0157   -0.0067   -0.0283    0.0262
           7    0.0004   -0.0099    0.0027   -0.0125   -0.0119   -0.0020    0.0038    0.0209
           8   -0.0001    0.0009   -0.0073   -0.0012    0.0062    0.0216    0.0095    0.0093
           9    0.0044    0.0075   -0.0025   -0.0043   -0.0122   -0.0284    0.0097    0.0113
          10   -0.0004    0.0095    0.0032    0.0126    0.0118   -0.0028    0.0038    0.0209
          11   -0.0006   -0.0012   -0.0076    0.0016   -0.0039    0.0189    0.0104    0.0104
          12    0.0047    0.0076    0.0022   -0.0041   -0.0110    0.0311   -0.0087   -0.0103
          13    0.0036    0.0136   -0.0051   -0.0234    0.0001   -0.0031    0.0157   -0.0217
          14    0.0090   -0.0149    0.0128   -0.0064    0.0217   -0.0043   -0.0273   -0.0080
          15    0.0086   -0.0050    0.0189    0.0124   -0.0081    0.0032    0.0214   -0.0049
          16   -0.0039   -0.0133   -0.0059    0.0234   -0.0002   -0.0029    0.0157   -0.0216
          17   -0.0095    0.0142    0.0156    0.0052   -0.0209   -0.0029   -0.0250   -0.0084
          18    0.0072   -0.0022   -0.0177    0.0129   -0.0104   -0.0032   -0.0241    0.0040
          19    0.0059   -0.0069    0.0006   -0.0271    0.0170   -0.0068   -0.0107   -0.0243
          20    0.0072    0.0040    0.0080   -0.0050    0.0101   -0.0011   -0.0056   -0.0128
          21   -0.0089   -0.0080   -0.0092   -0.0197    0.0122   -0.0073   -0.0120   -0.0092
          22   -0.0059    0.0066    0.0009    0.0272   -0.0174   -0.0059   -0.0107   -0.0242
          23   -0.0063   -0.0036    0.0070    0.0071   -0.0113   -0.0013   -0.0068   -0.0137
          24   -0.0088   -0.0085    0.0097   -0.0191    0.0114    0.0066    0.0114    0.0078
          25   -0.0025   -0.0040    0.0034   -0.0073   -0.0276    0.0138   -0.0023    0.0181
          26    0.0187    0.0207    0.0031   -0.0092   -0.0003   -0.0114    0.0143    0.0119
          27   -0.0111   -0.0085   -0.0122    0.0028   -0.0038   -0.0040    0.0112    0.0119
          28    0.0028    0.0040    0.0035    0.0073    0.0282    0.0124   -0.0022    0.0181
          29   -0.0172   -0.0196    0.0008    0.0089    0.0001   -0.0114    0.0154    0.0131
          30   -0.0121   -0.0108    0.0120    0.0038   -0.0035    0.0033   -0.0097   -0.0105
          31   -0.0071    0.0042   -0.0033    0.0066   -0.0065    0.0070   -0.0100    0.0029
          32   -0.0012    0.0177   -0.0119    0.0106    0.0195   -0.0200    0.0069   -0.0027
          33   -0.0001    0.0108   -0.0107    0.0104    0.0208   -0.0113    0.0067   -0.0047
          34    0.0074   -0.0036   -0.0038   -0.0067    0.0068    0.0068   -0.0100    0.0029
          35    0.0008   -0.0181   -0.0140   -0.0118   -0.0227   -0.0198    0.0075   -0.0033
          36    0.0002    0.0080    0.0099    0.0093    0.0190    0.0080   -0.0059    0.0044
          37    0.0016   -0.0050    0.0106    0.0046    0.0063   -0.0041    0.0150    0.0159
          38   -0.0036   -0.0141   -0.0095   -0.0209   -0.0098    0.0451   -0.0022   -0.0019
          39    0.0108    0.0036    0.0140    0.0023   -0.0149    0.0113    0.0327   -0.0233
          40   -0.0015    0.0041    0.0109   -0.0045   -0.0065   -0.0036    0.0150    0.0159
          41    0.0024    0.0145   -0.0073    0.0206    0.0138    0.0452    0.0013   -0.0042
          42    0.0108    0.0060   -0.0147    0.0044   -0.0141   -0.0061   -0.0328    0.0229
          43    0.0011   -0.0163   -0.0049   -0.0207   -0.0121   -0.0117   -0.0170    0.0426
          44   -0.0098   -0.0062   -0.0115   -0.0007    0.0109    0.0200    0.0111    0.0142
          45   -0.0026    0.0022   -0.0060   -0.0034   -0.0089   -0.0278    0.0111    0.0147
          46   -0.0014    0.0163   -0.0040    0.0208    0.0116   -0.0125   -0.0170    0.0426
          47    0.0095    0.0065   -0.0118    0.0010   -0.0091    0.0174    0.0122    0.0156
          48   -0.0010    0.0029    0.0049   -0.0032   -0.0081    0.0304   -0.0100   -0.0131
          49    0.0092    0.0252   -0.0086   -0.0326   -0.0146    0.0069    0.0386   -0.0450
          50    0.0189   -0.0354    0.0405    0.0194    0.0382   -0.0138   -0.0502    0.0088
          51    0.0114    0.0017    0.0164    0.0069   -0.0162    0.0087    0.0338   -0.0178
          52    0.0019    0.0284   -0.0102   -0.0274   -0.0049   -0.0047    0.0274   -0.0325
          53    0.0079   -0.0063    0.0095   -0.0090    0.0184   -0.0044   -0.0202   -0.0142
          54    0.0146   -0.0244    0.0465    0.0415    0.0145   -0.0135   -0.0089    0.0189
          55   -0.0096   -0.0245   -0.0099    0.0325    0.0148    0.0064    0.0387   -0.0449
          56   -0.0186    0.0322    0.0440   -0.0198   -0.0368   -0.0111   -0.0465    0.0069
          57    0.0091    0.0061   -0.0119    0.0048   -0.0204   -0.0092   -0.0387    0.0185
          58   -0.0025   -0.0277   -0.0117    0.0273    0.0046   -0.0047    0.0274   -0.0324
          59   -0.0091    0.0078    0.0148    0.0048   -0.0200   -0.0047   -0.0210   -0.0122
          60    0.0123   -0.0204   -0.0467    0.0420    0.0131    0.0123    0.0068   -0.0203
          61    0.0122   -0.0283    0.0089   -0.0295    0.0351   -0.0117   -0.0408   -0.0260
          62    0.0076   -0.0048    0.0102   -0.0065    0.0185   -0.0033   -0.0197   -0.0134
          63    0.0665   -0.0557    0.0433   -0.0047    0.0217   -0.0132   -0.0263   -0.0069
          64   -0.0537    0.0224   -0.0511   -0.0592    0.0278   -0.0116   -0.0288   -0.0330
          65    0.0453   -0.0132    0.0276   -0.0042    0.0124   -0.0055   -0.0080   -0.0136
          66   -0.0497    0.0120   -0.0443   -0.0413    0.0195   -0.0106   -0.0245   -0.0151
          67    0.0617   -0.0329    0.0488    0.0028    0.0061   -0.0020    0.0084   -0.0175
          68   -0.0327    0.0460   -0.0178   -0.0012   -0.0149    0.0094    0.0358   -0.0112
          69   -0.0563    0.0155   -0.0498   -0.0440    0.0199   -0.0109   -0.0255   -0.0151
          70   -0.0117    0.0271    0.0101    0.0299   -0.0358   -0.0100   -0.0411   -0.0260
          71   -0.0146    0.0096    0.0156    0.0071   -0.0209   -0.0036   -0.0226   -0.0140
          72    0.0685   -0.0511   -0.0462   -0.0042    0.0204    0.0118    0.0243    0.0056
          73   -0.0626    0.0295    0.0515   -0.0027   -0.0064   -0.0016    0.0082   -0.0175
          74    0.0401   -0.0453   -0.0260    0.0056    0.0133    0.0078    0.0332   -0.0125
          75   -0.0522    0.0078    0.0488   -0.0436    0.0219    0.0107    0.0290    0.0138
          76    0.0544   -0.0191   -0.0533    0.0592   -0.0282   -0.0102   -0.0286   -0.0328
          77   -0.0415    0.0099    0.0241    0.0085   -0.0146   -0.0057   -0.0103   -0.0151
          78   -0.0545    0.0107    0.0487   -0.0408    0.0186    0.0091    0.0235    0.0136
          79   -0.0010    0.0025    0.0032   -0.0040   -0.0239    0.0091   -0.0055    0.0139
          80    0.0516    0.0442    0.0230   -0.0308   -0.0154   -0.0593    0.0265    0.0272
          81   -0.0350   -0.0387   -0.0243    0.0083   -0.0022    0.0363    0.0112    0.0127
          82    0.0013   -0.0023    0.0030    0.0039    0.0243    0.0078   -0.0054    0.0139
          83   -0.0468   -0.0408    0.0184    0.0300    0.0128   -0.0556    0.0275    0.0284
          84   -0.0384   -0.0435    0.0244    0.0116   -0.0025   -0.0417   -0.0085   -0.0097
          85   -0.0084   -0.0035   -0.0015    0.0006   -0.0211    0.0172   -0.0071    0.0137
          86   -0.0341   -0.0029   -0.0349    0.0378    0.0535    0.0244   -0.0078   -0.0308
          87    0.0220    0.0446   -0.0033    0.0125    0.0440   -0.0659    0.0066   -0.0197
          88   -0.0103    0.0202   -0.0121    0.0271    0.0345   -0.0124   -0.0214   -0.0276
          89    0.0136    0.0349   -0.0030    0.0016    0.0080   -0.0735    0.0139    0.0070
          90   -0.0121   -0.0040   -0.0177    0.0169    0.0290    0.0331    0.0016   -0.0116
          91    0.0104   -0.0188   -0.0134   -0.0272   -0.0349   -0.0105   -0.0215   -0.0276
          92   -0.0126   -0.0345   -0.0066   -0.0035   -0.0149   -0.0695    0.0140    0.0056
          93   -0.0132   -0.0092    0.0170    0.0167    0.0256   -0.0426   -0.0001    0.0122
          94    0.0086    0.0040   -0.0015   -0.0007    0.0220    0.0163   -0.0071    0.0137
          95    0.0304    0.0000   -0.0353   -0.0391   -0.0568    0.0206   -0.0072   -0.0327
          96    0.0249    0.0440    0.0020    0.0084    0.0415    0.0659   -0.0072    0.0164


   Root No.      17        18        19        20        21        22        23        24

                17 A      18 A      19 A      20 A      21 A      22 A      23 A      24 A   

                 487.5     499.5     573.0     625.9     671.8     705.6     824.2     827.4
  
           1   -0.0223   -0.0070    0.0031   -0.0140    0.0033    0.0249    0.0000   -0.0011
           2    0.0024    0.0208    0.0200    0.0139    0.0187    0.0050    0.0034   -0.0018
           3    0.0122   -0.0142    0.0082    0.0162    0.0006   -0.0140    0.0006    0.0010
           4   -0.0222    0.0072   -0.0031    0.0139    0.0040   -0.0248    0.0002    0.0011
           5    0.0035   -0.0194   -0.0206   -0.0159    0.0186   -0.0033    0.0036    0.0011
           6   -0.0120   -0.0162    0.0062    0.0147    0.0018   -0.0144    0.0000    0.0012
           7   -0.0158    0.0189    0.0189    0.0070    0.0025    0.0094    0.0102    0.0066
           8   -0.0001    0.0010    0.0073   -0.0231    0.0086    0.0197   -0.0071   -0.0081
           9    0.0189    0.0153   -0.0111   -0.0024   -0.0163   -0.0173    0.0060    0.0084
          10   -0.0160   -0.0188   -0.0188   -0.0070    0.0026   -0.0093    0.0092   -0.0079
          11    0.0017   -0.0027   -0.0060    0.0230    0.0078   -0.0178   -0.0054    0.0081
          12   -0.0187    0.0152   -0.0116   -0.0005    0.0176   -0.0190   -0.0053    0.0100
          13    0.0008   -0.0203    0.0033    0.0000   -0.0013    0.0135   -0.0134    0.0131
          14    0.0050    0.0040   -0.0077    0.0005   -0.0003   -0.0122    0.0118   -0.0116
          15   -0.0101   -0.0174    0.0084    0.0048    0.0036    0.0157    0.0071   -0.0097
          16    0.0010    0.0204   -0.0034    0.0000   -0.0010   -0.0135   -0.0151   -0.0112
          17    0.0038   -0.0022    0.0068   -0.0009   -0.0003    0.0105    0.0140    0.0106
          18    0.0104   -0.0178    0.0091    0.0048   -0.0039    0.0169   -0.0070   -0.0076
          19    0.0065   -0.0131   -0.0034    0.0013   -0.0016    0.0021   -0.0049    0.0031
          20    0.0009   -0.0091   -0.0037   -0.0001   -0.0004   -0.0006    0.0016   -0.0035
          21    0.0034   -0.0036   -0.0034   -0.0005   -0.0013    0.0014    0.0009   -0.0017
          22    0.0066    0.0131    0.0033   -0.0012   -0.0016   -0.0022   -0.0054   -0.0025
          23    0.0013    0.0095    0.0040    0.0001   -0.0006    0.0005    0.0022    0.0035
          24   -0.0033   -0.0026   -0.0030   -0.0005    0.0012    0.0015   -0.0009   -0.0012
          25    0.0262   -0.0032   -0.0101   -0.0198   -0.0070   -0.0008   -0.0017   -0.0018
          26    0.0052    0.0129    0.0120   -0.0339   -0.0337   -0.0083   -0.0012   -0.0018
          27    0.0137    0.0157   -0.0121   -0.0118    0.0112    0.0117   -0.0036   -0.0047
          28    0.0263    0.0029    0.0101    0.0199   -0.0067    0.0007   -0.0014    0.0020
          29    0.0065   -0.0144   -0.0109    0.0355   -0.0318    0.0066   -0.0013    0.0025
          30   -0.0129    0.0145   -0.0134   -0.0079   -0.0150    0.0123    0.0028   -0.0050
          31    0.0051   -0.0100   -0.0062   -0.0001    0.0014   -0.0014   -0.0008   -0.0003
          32   -0.0106    0.0114    0.0027   -0.0033   -0.0030    0.0021   -0.0016   -0.0021
          33   -0.0150    0.0087    0.0085   -0.0054   -0.0055    0.0015   -0.0024   -0.0030
          34    0.0052    0.0100    0.0062    0.0000    0.0014    0.0014   -0.0008    0.0004
          35   -0.0124   -0.0120   -0.0036    0.0039   -0.0035   -0.0022   -0.0015    0.0026
          36    0.0139    0.0073    0.0083   -0.0052    0.0050    0.0013    0.0018   -0.0031
          37   -0.0310   -0.0201    0.0161   -0.0150    0.0073    0.0501    0.0134   -0.0220
          38   -0.0145    0.0373    0.0458    0.0283    0.0450    0.0167   -0.0018    0.0108
          39    0.0050   -0.0211    0.0165    0.0162    0.0045    0.0022    0.0075   -0.0100
          40   -0.0309    0.0203   -0.0160    0.0149    0.0088   -0.0500    0.0164    0.0199
          41   -0.0142   -0.0351   -0.0469   -0.0308    0.0454   -0.0163   -0.0023   -0.0095
          42   -0.0067   -0.0248    0.0117    0.0132    0.0003    0.0005   -0.0092   -0.0099
          43   -0.0351    0.0409    0.0444    0.0282    0.0081    0.0229    0.0298    0.0210
          44    0.0080    0.0142   -0.0083   -0.0306    0.0346    0.0479   -0.0121   -0.0138
          45    0.0237    0.0241   -0.0211   -0.0079    0.0014    0.0019    0.0023    0.0043
          46   -0.0354   -0.0406   -0.0443   -0.0283    0.0083   -0.0227    0.0266   -0.0249
          47    0.0101   -0.0169    0.0107    0.0305    0.0361   -0.0474   -0.0098    0.0148
          48   -0.0226    0.0226   -0.0201   -0.0049    0.0023   -0.0030   -0.0027    0.0062
          49    0.0195   -0.0286    0.0169    0.0233    0.0021   -0.0011    0.0142   -0.0166
          50   -0.0160    0.0021   -0.0278   -0.0253   -0.0079    0.0048   -0.0807    0.0892
          51    0.0006   -0.0214    0.0156    0.0176    0.0053    0.0070    0.0219   -0.0253
          52    0.0037   -0.0332    0.0036    0.0030   -0.0052    0.0108    0.0278   -0.0343
          53    0.0069   -0.0029   -0.0070    0.0028   -0.0019   -0.0139    0.0339   -0.0371
          54   -0.0411   -0.0235   -0.0210   -0.0340   -0.0092    0.0420   -0.0801    0.0828
          55    0.0198    0.0285   -0.0169   -0.0233    0.0018    0.0011    0.0163    0.0144
          56   -0.0160    0.0003    0.0260    0.0235   -0.0069   -0.0058   -0.0897   -0.0749
          57   -0.0024   -0.0215    0.0183    0.0202   -0.0060    0.0064   -0.0346   -0.0299
          58    0.0040    0.0333   -0.0037   -0.0029   -0.0050   -0.0107    0.0328    0.0305
          59    0.0027    0.0054    0.0090    0.0009   -0.0031    0.0095    0.0293    0.0247
          60    0.0415   -0.0234   -0.0201   -0.0342    0.0077    0.0434    0.0945    0.0740
          61    0.0141   -0.0028   -0.0141    0.0031   -0.0035   -0.0273    0.0550   -0.0612
          62    0.0043   -0.0042   -0.0086    0.0009   -0.0011   -0.0144    0.0302   -0.0343
          63    0.0048    0.0003   -0.0106   -0.0056   -0.0051   -0.0073   -0.0161    0.0182
          64    0.0181   -0.0068   -0.0126   -0.0015   -0.0069   -0.0148   -0.0213    0.0229
          65    0.0025   -0.0097   -0.0076   -0.0070   -0.0048    0.0034   -0.0589    0.0632
          66    0.0113    0.0006   -0.0098   -0.0023   -0.0049   -0.0102   -0.0100    0.0116
[...]
 RED. MASS   2.6450        C  4 --  C 10           +8.2% ( 42.3%)    59.0%
 EFF. MASS  11.8251

 VIBRATION   71   71A       ATOM PAIR        ENERGY CONTRIBUTION    RADIAL
 FREQ.      2915.14        C  3 --  H 15          +45.8% ( 69.3%)   100.0%
 T-DIPOLE    0.1055        C  4 --  H 16          +34.9% ( 60.5%)   100.0%
 TRAVEL      0.1259        C  1 --  H 13           +7.3% ( 27.6%)   100.0%
 RED. MASS   0.3482        C  2 --  H 14           +7.2% ( 27.5%)   100.0%
 EFF. MASS   1.4603

 VIBRATION   72   72A       ATOM PAIR        ENERGY CONTRIBUTION    RADIAL
 FREQ.      2916.20        C  4 --  H 16          +53.4% ( 74.6%)   100.0%
 T-DIPOLE    0.0754        C  3 --  H 15          +42.6% ( 66.6%)   100.0%
 TRAVEL      0.1274        C  3 --  C  4           +0.9% (  9.8%)     0.1%
 RED. MASS   0.4702        C  1 --  C  4           +0.6% (  7.6%)    14.1%
 EFF. MASS   1.4254

 VIBRATION   73   73A       ATOM PAIR        ENERGY CONTRIBUTION    RADIAL
 FREQ.      2929.81        C  1 --  H 13          +45.6% ( 69.1%)   100.0%
 T-DIPOLE    0.1014        C  2 --  H 14          +44.9% ( 68.5%)   100.0%
 TRAVEL      0.1264        C  5 --  H 17           +1.5% ( 12.7%)    96.5%
 RED. MASS   0.4170        C  6 --  H 19           +1.5% ( 12.6%)    96.6%
 EFF. MASS   1.4396

 VIBRATION   74   74A       ATOM PAIR        ENERGY CONTRIBUTION    RADIAL
 FREQ.      2934.50        C  2 --  H 14          +36.7% ( 61.9%)   100.0%
 T-DIPOLE    0.1889        C  1 --  H 13          +35.9% ( 61.2%)   100.0%
 TRAVEL      0.1256        C  4 --  H 16           +7.3% ( 27.6%)    99.9%
 RED. MASS   0.2810        C  3 --  H 15           +7.2% ( 27.4%)    99.9%
 EFF. MASS   1.4577

 VIBRATION   75   75A       ATOM PAIR        ENERGY CONTRIBUTION    RADIAL
 FREQ.      2948.76        C  5 --  H 17          +24.7% ( 51.5%)    96.9%
 T-DIPOLE    0.0537        C  6 --  H 19          +22.7% ( 49.4%)    96.9%
 TRAVEL      0.1221        C  5 --  H 18          +21.6% ( 48.2%)    96.1%
 RED. MASS   0.2175        C  6 --  H 20          +19.8% ( 46.1%)    96.1%
 EFF. MASS   1.5326

 VIBRATION   76   76A       ATOM PAIR        ENERGY CONTRIBUTION    RADIAL
 FREQ.      2949.52        C  6 --  H 19          +25.1% ( 51.9%)    96.8%
 T-DIPOLE    0.0293        C  6 --  H 20          +23.1% ( 49.8%)    96.3%
 TRAVEL      0.1220        C  5 --  H 17          +23.0% ( 49.7%)    96.8%
 RED. MASS   0.2330        C  5 --  H 18          +21.3% ( 47.8%)    96.3%
 EFF. MASS   1.5352

 VIBRATION   77   77A       ATOM PAIR        ENERGY CONTRIBUTION    RADIAL
 FREQ.      3025.97        C  5 --  H 18          +26.7% ( 50.9%)    98.1%
 T-DIPOLE    0.0227        C  6 --  H 20          +26.2% ( 50.4%)    98.1%
 TRAVEL      0.1322        C  5 --  H 17          +22.9% ( 47.2%)    97.2%
 RED. MASS   0.2407        C  6 --  H 19          +22.4% ( 46.6%)    97.2%
 EFF. MASS   1.2758

 VIBRATION   78   78A       ATOM PAIR        ENERGY CONTRIBUTION    RADIAL
 FREQ.      3026.99        C  6 --  H 20          +26.1% ( 50.3%)    98.0%
 T-DIPOLE    0.0302        C  5 --  H 18          +25.5% ( 49.7%)    97.9%
 TRAVEL      0.1322        C  6 --  H 19          +23.6% ( 47.8%)    97.4%
 RED. MASS   0.2400        C  5 --  H 17          +23.1% ( 47.3%)    97.4%
 EFF. MASS   1.2753

 VIBRATION   79   79A       ATOM PAIR        ENERGY CONTRIBUTION    RADIAL
 FREQ.      3034.60        C 10 --  H 28          +90.1% ( 96.3%)   100.0%
 T-DIPOLE    0.1720        C  9 --  H 27           +6.3% ( 25.4%)   100.0%
 TRAVEL      0.1215        C 10 --  C 12           +1.3% ( 11.8%)    31.3%
 RED. MASS   0.8039        C  4 --  C 10           +1.3% ( 11.5%)    13.6%
 EFF. MASS   1.5062

 VIBRATION   80   80A       ATOM PAIR        ENERGY CONTRIBUTION    RADIAL
 FREQ.      3034.61        C  9 --  H 27          +90.1% ( 96.3%)   100.0%
 T-DIPOLE    0.2923        C 10 --  H 28           +6.3% ( 25.4%)   100.0%
 TRAVEL      0.1215        C  9 --  C 11           +1.3% ( 11.8%)    31.3%
 RED. MASS   0.8039        C  3 --  C  9           +1.3% ( 11.5%)    13.6%
 EFF. MASS   1.5064

 VIBRATION   81   81A       ATOM PAIR        ENERGY CONTRIBUTION    RADIAL
 FREQ.      3075.40        C  8 --  H 24          +56.9% ( 77.8%)    98.1%
 T-DIPOLE    0.0114        C  8 --  H 26          +38.8% ( 64.3%)    95.5%
 TRAVEL      0.1208        C  8 --  H 25           +1.7% ( 13.4%)    18.3%
 RED. MASS   0.5016        C  6 --  C  8           +1.0% ( 10.2%)     0.0%
 EFF. MASS   1.5013

 VIBRATION   82   82A       ATOM PAIR        ENERGY CONTRIBUTION    RADIAL
 FREQ.      3075.48        C  7 --  H 21          +56.5% ( 77.6%)    98.0%
 T-DIPOLE    0.0129        C  7 --  H 22          +39.2% ( 64.6%)    95.5%
 TRAVEL      0.1208        C  7 --  H 23           +1.6% ( 13.1%)    16.9%
 RED. MASS   0.5009        C  5 --  C  7           +1.0% ( 10.2%)     0.0%
 EFF. MASS   1.5013

 VIBRATION   83   83A       ATOM PAIR        ENERGY CONTRIBUTION    RADIAL
 FREQ.      3084.86        C  7 --  H 23          +59.9% ( 79.8%)    98.6%
 T-DIPOLE    0.0031        C  7 --  H 22          +26.4% ( 53.0%)    90.9%
 TRAVEL      0.1206        C  7 --  H 21          +12.0% ( 35.7%)    77.6%
 RED. MASS   0.4721        C  5 --  C  7           +1.0% ( 10.3%)     0.0%
 EFF. MASS   1.5041

 VIBRATION   84   84A       ATOM PAIR        ENERGY CONTRIBUTION    RADIAL
 FREQ.      3084.88        C  8 --  H 25          +59.8% ( 79.7%)    98.6%
 T-DIPOLE    0.0026        C  8 --  H 26          +26.8% ( 53.4%)    91.1%
 TRAVEL      0.1206        C  8 --  H 24          +11.7% ( 35.3%)    77.1%
 RED. MASS   0.4719        C  6 --  C  8           +1.0% ( 10.3%)     0.0%
 EFF. MASS   1.5041

 VIBRATION   85   85A       ATOM PAIR        ENERGY CONTRIBUTION    RADIAL
 FREQ.      3130.53        C 12 --  H 32          +78.8% ( 90.1%)   100.0%
 T-DIPOLE    0.1002        C 11 --  H 29          +17.6% ( 42.5%)   100.0%
 TRAVEL      0.1193        C 12 --  H 31           +1.8% ( 13.8%)    41.4%
 RED. MASS   0.6439        C 10 --  C 12           +1.1% ( 10.7%)    33.8%
 EFF. MASS   1.5123

 VIBRATION   86   86A       ATOM PAIR        ENERGY CONTRIBUTION    RADIAL
 FREQ.      3130.56        C 11 --  H 29          +78.8% ( 90.1%)   100.0%
 T-DIPOLE    0.2778        C 12 --  H 32          +17.6% ( 42.5%)   100.0%
 TRAVEL      0.1194        C 11 --  H 30           +1.8% ( 13.7%)    40.9%
 RED. MASS   0.6442        C  9 --  C 11           +1.1% ( 10.7%)    34.0%
 EFF. MASS   1.5118

 VIBRATION   87   87A       ATOM PAIR        ENERGY CONTRIBUTION    RADIAL
 FREQ.      3148.01        C 11 --  H 30          +69.2% ( 84.1%)    99.9%
 T-DIPOLE    0.2626        C 12 --  H 31          +26.7% ( 52.2%)    99.9%
 TRAVEL      0.1198        C 11 --  H 29           +1.3% ( 11.5%)     1.2%
 RED. MASS   0.5360        C  9 --  C 11           +1.1% ( 10.6%)    58.9%
 EFF. MASS   1.4913

 VIBRATION   88   88A       ATOM PAIR        ENERGY CONTRIBUTION    RADIAL
 FREQ.      3148.10        C 12 --  H 31          +69.2% ( 84.0%)    99.9%
 T-DIPOLE    0.2406        C 11 --  H 30          +26.7% ( 52.2%)    99.9%
 TRAVEL      0.1199        C 12 --  H 32           +1.3% ( 11.6%)     1.2%
 RED. MASS   0.5355        C 10 --  C 12           +1.1% ( 10.6%)    59.2%
 EFF. MASS   1.4910

 VIBRATION   89   89A       ATOM PAIR        ENERGY CONTRIBUTION    RADIAL
 FREQ.      3178.90        C  8 --  H 25          +37.9% ( 59.2%)    97.7%
 T-DIPOLE    0.0165        C  8 --  H 26          +32.8% ( 55.1%)    97.0%
 TRAVEL      0.1366        C  8 --  H 24          +29.0% ( 51.8%)    96.3%
 RED. MASS   0.3298        C  6 --  C  8           +0.3% (  5.1%)    99.1%
 EFF. MASS   1.1371

 VIBRATION   90   90A       ATOM PAIR        ENERGY CONTRIBUTION    RADIAL
 FREQ.      3178.93        C  7 --  H 23          +37.8% ( 59.1%)    97.7%
 T-DIPOLE    0.0167        C  7 --  H 22          +32.7% ( 55.1%)    97.0%
 TRAVEL      0.1366        C  7 --  H 21          +29.1% ( 51.9%)    96.3%
 RED. MASS   0.3296        C  5 --  C  7           +0.3% (  5.1%)    99.1%
 EFF. MASS   1.1371

 SYMMETRY NUMBER FOR POINT-GROUP C1  =  1


          SYSTEM IS A GROUND STATE


    NULL



          MOLECULE IS NOT LINEAR

          THERE ARE 90 GENUINE VIBRATIONS IN THIS SYSTEM
          THIS THERMODYNAMICS CALCULATION IS LIMITED TO
          MOLECULES WHICH HAVE NO INTERNAL ROTATIONS




                    CALCULATED THERMODYNAMIC PROPERTIES
                                          *
   TEMP. (K)   PARTITION FUNCTION   H.O.F.    ENTHALPY  HEAT CAPACITY ENTROPY
                                   KCAL/MOL   CAL/MOLE    CAL/K/MOL  CAL/K/MOL


 298.00  VIB.     0.5434D+05                  7045.0276    46.6049    45.3074
         ROT.     0.1437D+07                   888.2813     2.9808    31.1557
         INT.     0.7809D+11                  7933.3089    49.5857    76.4631
         TRA.     0.2036D+28                  1480.4688     4.9680    41.1956
         TOT.                        9.995    9413.7777    54.5537   117.6588

 200.00  VIB.     0.1039D+04                  3270.5094    30.9824    30.1549
         ROT.     0.7901D+06                   596.1620     2.9808    29.9670
         INT.     0.8206D+09                  3866.6714    33.9633    60.1219
         TRA.     0.1119D+28                   993.6033     4.9680    39.2145
         TOT.                        5.442    4860.2746    38.9313    99.3364

 210.00  VIB.     0.1566D+04                  3587.4307    32.4087    31.7009
         ROT.     0.8501D+06                   625.9700     2.9808    30.1124
         INT.     0.1331D+10                  4213.4007    35.3895    61.8133
         TRA.     0.1204D+28                  1043.2834     4.9680    39.4569
         TOT.                        5.838    5256.6841    40.3575   101.2702

 220.00  VIB.     0.2355D+04                  3918.8247    33.8772    33.2423
         ROT.     0.9116D+06                   655.7781     2.9808    30.2511
         INT.     0.2147D+10                  4574.6029    36.8580    63.4934
         TRA.     0.1291D+28                  1092.9636     4.9680    39.6880
         TOT.                        6.249    5667.5664    41.8260   103.1814

 230.00  VIB.     0.3537D+04                  4265.1175    35.3884    34.7814
         ROT.     0.9744D+06                   685.5862     2.9808    30.3836
         INT.     0.3446D+10                  4950.7037    38.3692    65.1650
         TRA.     0.1380D+28                  1142.6437     4.9680    39.9088
         TOT.                        6.675    6093.3475    43.3372   105.0738

 240.00  VIB.     0.5302D+04                  4626.7321    36.9413    36.3201
         ROT.     0.1039D+07                   715.3943     2.9808    30.5105
         INT.     0.5507D+10                  5342.1264    39.9221    66.8306
         TRA.     0.1471D+28                  1192.3239     4.9680    40.1203
         TOT.                        7.116    6534.4503    44.8901   106.9509

 250.00  VIB.     0.7938D+04                  5004.0749    38.5336    37.8603
         ROT.     0.1104D+07                   745.2024     2.9808    30.6322
         INT.     0.8766D+10                  5749.2774    41.5144    68.4925
         TRA.     0.1564D+28                  1242.0041     4.9680    40.3231
         TOT.                        7.573    6991.2814    46.4824   108.8156

 260.00  VIB.     0.1187D+05                  5397.5248    40.1621    39.4032
         ROT.     0.1171D+07                   775.0105     2.9808    30.7491
         INT.     0.1390D+11                  6172.5354    43.1429    70.1523
         TRA.     0.1659D+28                  1291.6842     4.9680    40.5179
         TOT.                        8.046    7464.2196    48.1109   110.6702

 270.00  VIB.     0.1773D+05                  5807.4242    41.8228    40.9500
         ROT.     0.1239D+07                   804.8186     2.9808    30.8616
         INT.     0.2198D+11                  6612.2428    44.8036    71.8116
         TRA.     0.1756D+28                  1341.3644     4.9680    40.7054
         TOT.                        8.535    7953.6072    49.7716   112.5170

 280.00  VIB.     0.2647D+05                  6234.0729    43.5112    42.5015
         ROT.     0.1309D+07                   834.6267     2.9808    30.9700
         INT.     0.3464D+11                  7068.6996    46.4920    73.4714
         TRA.     0.1854D+28                  1391.0445     4.9680    40.8861
         TOT.                        9.041    8459.7442    51.4600   114.3575

 290.00  VIB.     0.3948D+05                  6677.7246    45.2226    44.0581
         ROT.     0.1380D+07                   864.4348     2.9808    31.0746
         INT.     0.5446D+11                  7542.1594    48.2034    75.1327
         TRA.     0.1954D+28                  1440.7247     4.9680    41.0604
         TOT.                        9.564    8982.8841    53.1714   116.1931

 300.00  VIB.     0.5885D+05                  7138.5844    46.9520    45.6203
         ROT.     0.1452D+07                   894.2429     2.9808    31.1756
         INT.     0.8543D+11                  8032.8273    49.9328    76.7959
         TRA.     0.2056D+28                  1490.4049     4.9680    41.2289
         TOT.                       10.105    9523.2322    54.9008   118.0248

 310.00  VIB.     0.8771D+05                  7616.8084    48.6946    47.1883
         ROT.     0.1525D+07                   924.0510     2.9808    31.2734
         INT.     0.1337D+12                  8540.8594    51.6754    78.4616
         TRA.     0.2160D+28                  1540.0850     4.9680    41.3918
         TOT.                       10.662   10080.9444    56.6434   119.8534

 320.00  VIB.     0.1307D+06                  8112.5045    50.4456    48.7619
         ROT.     0.1599D+07                   953.8591     2.9808    31.3680
         INT.     0.2090D+12                  9066.3636    53.4265    80.1299
         TRA.     0.2265D+28                  1589.7652     4.9680    41.5495
         TOT.                       11.238   10656.1288    58.3945   121.6794

 330.00  VIB.     0.1947D+06                  8625.7342    52.2006    50.3410
         ROT.     0.1675D+07                   983.6672     2.9808    31.4597
         INT.     0.3260D+12                  9609.4014    55.1814    81.8008
         TRA.     0.2372D+28                  1639.4454     4.9680    41.7024
         TOT.                       11.830   11248.8468    60.1494   123.5031

 340.00  VIB.     0.2900D+06                  9156.5149    53.9552    51.9254
         ROT.     0.1751D+07                  1013.4753     2.9808    31.5487
         INT.     0.5079D+12                 10169.9902    56.9360    83.4742
         TRA.     0.2481D+28                  1689.1255     4.9680    41.8507
         TOT.                       12.441   11859.1158    61.9040   125.3248

 350.00  VIB.     0.4321D+06                  9704.8232    55.7055    53.5147
         ROT.     0.1829D+07                  1043.2834     2.9808    31.6351
         INT.     0.7903D+12                 10748.1067    58.6863    85.1498
         TRA.     0.2591D+28                  1738.8057     4.9680    41.9947
         TOT.                       13.068   12486.9123    63.6543   127.1445

 360.00  VIB.     0.6438D+06                 10270.5981    57.4479    55.1085
         ROT.     0.1908D+07                  1073.0915     2.9808    31.7191
         INT.     0.1228D+13                 11343.6896    60.4287    86.8275
         TRA.     0.2703D+28                  1788.4859     4.9680    42.1347
         TOT.                       13.714   13132.1755    65.3967   128.9622

 370.00  VIB.     0.9593D+06                 10853.7444    59.1793    56.7061
         ROT.     0.1988D+07                  1102.8996     2.9808    31.8008
         INT.     0.1907D+13                 11956.6441    62.1601    88.5069
         TRA.     0.2817D+28                  1838.1660     4.9680    42.2708
         TOT.                       14.376   13794.8101    67.1281   130.7776

 380.00  VIB.     0.1430D+07                 11454.1368    60.8967    58.3072
         ROT.     0.2069D+07                  1132.7077     2.9808    31.8802
         INT.     0.2959D+13                 12586.8445    63.8775    90.1874
         TRA.     0.2932D+28                  1887.8462     4.9680    42.4033
         TOT.                       15.056   14474.6907    68.8455   132.5907

 390.00  VIB.     0.2131D+07                 12071.6229    62.5976    59.9110
         ROT.     0.2152D+07                  1162.5158     2.9808    31.9577
         INT.     0.4586D+13                 13234.1387    65.5784    91.8687
         TRA.     0.3048D+28                  1937.5263     4.9680    42.5323
         TOT.                       15.753   15171.6650    70.5464   134.4010

 400.00  VIB.     0.3178D+07                 12706.0272    64.2800    61.5171
         ROT.     0.2235D+07                  1192.3239     2.9808    32.0331
         INT.     0.7102D+13                 13898.3511    67.2608    93.5502
         TRA.     0.3166D+28                  1987.2065     4.9680    42.6581
         TOT.                       16.467   15885.5576    72.2288   136.2083

   *: NOTE: HEATS OF FORMATION ARE RELATIVE TO THE
            ELEMENTS IN THEIR STANDARD STATE AT 298K
              (=  Standard Enthalpy of Formation).

            Hvib:  Zero-point energy is not included.
                   frequencies of less than zero cm-1 are not included.
            Hrot = (3/2)RT
            Htra = (3/2)RT + pV = (5/2)RT

            Heat capacity is Cp, not Cv

           For more information, see: HTTP://OpenMOPAC.net/Manual/thermochemistry.html


           FORCE CONSTANT IN CARTESIAN COORDINATES (Millidynes/A)

    ATOM   CHEMICAL       X               Y               Z
   NUMBER   SYMBOL  FORCE CONSTANT  FORCE CONSTANT  FORCE CONSTANT

      1       C        9.584772        6.259135        8.688161
      2       C        9.584773        6.259763        8.687978
      3       C        6.334783        9.796823        8.961027
      4       C        6.334147        9.920722        8.838316
      5       C        8.369326        8.431914        8.289133
      6       C        8.369255        8.420908        8.300740
      7       C        8.362056        8.199304        8.326631
      8       C        8.361805        8.201188        8.323895
      9       C       13.331737        6.404547        7.581712
     10       C       13.332330        7.318800        6.670112
     11       C       13.124347        6.009051        7.350026
     12       C       13.124429        6.963617        6.390907
     13       H        1.814282        0.718472        3.707669
     14       H        1.814134        0.717594        3.708541
     15       H        0.676712        1.989986        3.432916
     16       H        0.676717        1.625426        3.797741
     17       H        1.804694        0.715080        3.867096
     18       H        1.676990        3.983129        0.698716
     19       H        1.804981        0.775846        3.806248
     20       H        1.678410        3.986186        0.694565
     21       H        1.722647        4.354439        0.670207
     22       H        2.078050        0.715517        3.985149
     23       H        2.482044        0.724061        3.587030
     24       H        1.724667        4.337036        0.683208
     25       H        2.468820        0.699806        3.624590
     26       H        2.090598        0.790804        3.897578
     27       H        4.310939        0.737625        1.137589
     28       H        4.309201        0.850030        1.026065
     29       H        4.698130        0.669398        1.072849
     30       H        0.701140        2.391127        3.390680
     31       H        0.700909        2.910221        2.870903
     32       H        4.695927        0.769490        0.974611



 TOTAL CPU TIME:             8.90 SECONDS

 == MOPAC DONE ==
