 *******************************************************************************
 ** Site#: 14399           For non-commercial use only        Version 13.159M **
 *******************************************************************************
 ** Cite this work as: MOPAC2012, James J. P. Stewart, Stewart Computational  **
 ** Chemistry, Version 13.159M web: HTTP://OpenMOPAC.net  Days remaining:   6 **
 *******************************************************************************
 **                                                                           **
 **                                MOPAC2012                                  **
 **                                                                           **
 *******************************************************************************

                            PM3 CALCULATION RESULTS


 *******************************************************************************
 *  CALCULATION DONE:                                Mon Jun  2 11:04:42 2014  *
 *  PM3      - The PM3 Hamiltonian to be used
 *  PRECISE  - CRITERIA TO BE INCREASED BY 100 TIMES
 *  NOSYM    - POINT-GROUP SYMMETRY SET TO C1
 *  T=       - A TIME OF 172800.0 SECONDS REQUESTED
 *  DUMP=N   - RESTART FILE WRITTEN EVERY  7200.000 SECONDS
 *******************************************************************************
pm3  precise nosym
 InChI=1S/C11H18/c1-4-10-7-6-8-11(5-2)9(10)3/h4,6,8-11H,1,5,7H2,2-3H3

   ATOM   CHEMICAL          X               Y               Z
  NUMBER   SYMBOL      (ANGSTROMS)     (ANGSTROMS)     (ANGSTROMS)
 
     1       C          0.15680000  *  -0.47510000  *  -0.60770000  *
     2       C         -0.96270000  *  -0.09470000  *   0.40300000  *
     3       C          1.49020000  *   0.24750000  *  -0.30170000  *
     4       C         -2.38790000  *  -0.50970000  *  -0.01860000  *
     5       C          1.27130000  *   1.77050000  *  -0.28380000  *
     6       C          0.34690000  *  -1.99080000  *  -0.76520000  *
     7       C         -2.92960000  *   0.14580000  *  -1.28820000  *
     8       C         -0.93380000  *   1.36300000  *   0.81720000  *
     9       C          2.12500000  *  -0.21070000  *   0.99350000  *
    10       C          0.06800000  *   2.19970000  *   0.51110000  *
    11       C          3.31170000  *  -0.82150000  *   1.04340000  *
    12       H         -0.14390000  *  -0.10750000  *  -1.61680000  *
    13       H          2.19000000  *   0.04760000  *  -1.14970000  *
    14       H         -0.76380000  *  -0.65130000  *   1.34910000  *
    15       H         -3.09510000  *  -0.27790000  *   0.81260000  *
    16       H         -2.45400000  *  -1.61530000  *  -0.13340000  *
    17       H          1.12890000  *   2.14770000  *  -1.32300000  *
    18       H          2.17660000  *   2.29110000  *   0.10710000  *
    19       H         -2.38730000  *  -0.20710000  *  -2.19330000  *
    20       H         -3.99990000  *  -0.13030000  *  -1.42380000  *
    21       H         -2.86930000  *   1.25600000  *  -1.23090000  *
    22       H          1.18810000  *  -2.21730000  *  -1.45960000  *
    23       H          0.56270000  *  -2.47950000  *   0.21210000  *
    24       H         -0.55510000  *  -2.47070000  *  -1.20610000  *
    25       H          1.59660000  *  -0.03720000  *   1.93010000  *
    26       H          0.00660000  *   3.23790000  *   0.83410000  *
    27       H         -1.75010000  *   1.74750000  *   1.42820000  *
    28       H          3.72470000  *  -1.13190000  *   2.00130000  *
    29       H          3.88840000  *  -1.02590000  *   0.14310000  *
 


          CARTESIAN COORDINATES 

    NO.       ATOM         X         Y         Z

     1         C        0.1568   -0.4751   -0.6077
     2         C       -0.9627   -0.0947    0.4030
     3         C        1.4902    0.2475   -0.3017
     4         C       -2.3879   -0.5097   -0.0186
     5         C        1.2713    1.7705   -0.2838
     6         C        0.3469   -1.9908   -0.7652
     7         C       -2.9296    0.1458   -1.2882
     8         C       -0.9338    1.3630    0.8172
     9         C        2.1250   -0.2107    0.9935
    10         C        0.0680    2.1997    0.5111
    11         C        3.3117   -0.8215    1.0434
    12         H       -0.1439   -0.1075   -1.6168
    13         H        2.1900    0.0476   -1.1497
    14         H       -0.7638   -0.6513    1.3491
    15         H       -3.0951   -0.2779    0.8126
    16         H       -2.4540   -1.6153   -0.1334
    17         H        1.1289    2.1477   -1.3230
    18         H        2.1766    2.2911    0.1071
    19         H       -2.3873   -0.2071   -2.1933
    20         H       -3.9999   -0.1303   -1.4238
    21         H       -2.8693    1.2560   -1.2309
    22         H        1.1881   -2.2173   -1.4596
    23         H        0.5627   -2.4795    0.2121
    24         H       -0.5551   -2.4707   -1.2061
    25         H        1.5966   -0.0372    1.9301
    26         H        0.0066    3.2379    0.8341
    27         H       -1.7501    1.7475    1.4282
    28         H        3.7247   -1.1319    2.0013
    29         H        3.8884   -1.0259    0.1431

  H: (PM3): J. J. P. STEWART, J. COMP. CHEM. 10, 209 (1989).
  C: (PM3): J. J. P. STEWART, J. COMP. CHEM. 10, 209 (1989).

           Empirical Formula: C11 H18  =    29 atoms



      MOLECULAR POINT GROUP   :   C1  


      RHF CALCULATION, NO. OF DOUBLY OCCUPIED LEVELS =   31

      Geometry optimization using EF

          DIAGONAL MATRIX USED AS START HESSIAN

 CYCLE:     1 TIME:   0.016 TIME LEFT:  2.00D  GRAD.:    61.940 HEAT: 6.790671
 CYCLE:     2 TIME:   0.030 TIME LEFT:  2.00D  GRAD.:    48.416 HEAT: 5.525507
 CYCLE:     3 TIME:   0.012 TIME LEFT:  2.00D  GRAD.:    54.396 HEAT: 4.950667
 CYCLE:     4 TIME:   0.012 TIME LEFT:  2.00D  GRAD.:    63.981 HEAT: 4.935679
 CYCLE:     5 TIME:   0.021 TIME LEFT:  2.00D  GRAD.:    37.698 HEAT: 4.043424
 CYCLE:     6 TIME:   0.022 TIME LEFT:  2.00D  GRAD.:    25.851 HEAT: 3.781928
 CYCLE:     7 TIME:   0.011 TIME LEFT:  2.00D  GRAD.:    22.940 HEAT: 3.619501
 CYCLE:     8 TIME:   0.011 TIME LEFT:  2.00D  GRAD.:    25.313 HEAT: 3.473533
 CYCLE:     9 TIME:   0.011 TIME LEFT:  2.00D  GRAD.:    20.529 HEAT: 3.285200
 CYCLE:    10 TIME:   0.021 TIME LEFT:  2.00D  GRAD.:    19.038 HEAT: 3.184857
 CYCLE:    11 TIME:   0.012 TIME LEFT:  2.00D  GRAD.:    18.317 HEAT: 3.112347
 CYCLE:    12 TIME:   0.012 TIME LEFT:  2.00D  GRAD.:    17.845 HEAT: 3.049987
 CYCLE:    13 TIME:   0.011 TIME LEFT:  2.00D  GRAD.:    17.185 HEAT: 2.994598
 CYCLE:    14 TIME:   0.020 TIME LEFT:  2.00D  GRAD.:    10.063 HEAT: 2.921174
 CYCLE:    15 TIME:   0.020 TIME LEFT:  2.00D  GRAD.:     6.807 HEAT: 2.886235
 CYCLE:    16 TIME:   0.011 TIME LEFT:  2.00D  GRAD.:     7.627 HEAT: 2.855240
 CYCLE:    17 TIME:   0.011 TIME LEFT:  2.00D  GRAD.:     7.978 HEAT: 2.804598
 CYCLE:    18 TIME:   0.011 TIME LEFT:  2.00D  GRAD.:    17.065 HEAT: 2.783326
 CYCLE:    19 TIME:   0.011 TIME LEFT:  2.00D  GRAD.:    10.961 HEAT: 2.671419
 CYCLE:    20 TIME:   0.029 TIME LEFT:  2.00D  GRAD.:    10.446 HEAT: 2.647496
 CYCLE:    21 TIME:   0.011 TIME LEFT:  2.00D  GRAD.:     8.263 HEAT: 2.616405
 CYCLE:    22 TIME:   0.011 TIME LEFT:  2.00D  GRAD.:    11.315 HEAT: 2.603789
 CYCLE:    23 TIME:   0.011 TIME LEFT:  2.00D  GRAD.:     8.809 HEAT: 2.564853
 CYCLE:    24 TIME:   0.020 TIME LEFT:  2.00D  GRAD.:    10.227 HEAT: 2.555627
 CYCLE:    25 TIME:   0.011 TIME LEFT:  2.00D  GRAD.:     5.342 HEAT: 2.519863
 CYCLE:    26 TIME:   0.020 TIME LEFT:  2.00D  GRAD.:     6.796 HEAT: 2.513894
 CYCLE:    27 TIME:   0.011 TIME LEFT:  2.00D  GRAD.:     3.740 HEAT: 2.494443
 CYCLE:    28 TIME:   0.011 TIME LEFT:  2.00D  GRAD.:     5.587 HEAT: 2.477932
 CYCLE:    29 TIME:   0.011 TIME LEFT:  2.00D  GRAD.:     4.050 HEAT: 2.447959
 CYCLE:    30 TIME:   0.011 TIME LEFT:  2.00D  GRAD.:     5.801 HEAT: 2.420583
 CYCLE:    31 TIME:   0.011 TIME LEFT:  2.00D  GRAD.:     3.784 HEAT: 2.400233
 CYCLE:    32 TIME:   0.011 TIME LEFT:  2.00D  GRAD.:     4.639 HEAT: 2.390596
 CYCLE:    33 TIME:   0.011 TIME LEFT:  2.00D  GRAD.:     3.855 HEAT: 2.375677
 CYCLE:    34 TIME:   0.011 TIME LEFT:  2.00D  GRAD.:     6.324 HEAT: 2.348602
 CYCLE:    35 TIME:   0.013 TIME LEFT:  2.00D  GRAD.:     5.301 HEAT: 2.328444
 CYCLE:    36 TIME:   0.011 TIME LEFT:  2.00D  GRAD.:     4.730 HEAT: 2.303336
 CYCLE:    37 TIME:   0.012 TIME LEFT:  2.00D  GRAD.:     7.167 HEAT: 2.273291
 CYCLE:    38 TIME:   0.013 TIME LEFT:  2.00D  GRAD.:    10.207 HEAT: 2.252176
 CYCLE:    39 TIME:   0.014 TIME LEFT:  2.00D  GRAD.:     5.379 HEAT: 2.206670
 CYCLE:    40 TIME:   0.011 TIME LEFT:  2.00D  GRAD.:     5.136 HEAT: 2.173224
 CYCLE:    41 TIME:   0.011 TIME LEFT:  2.00D  GRAD.:     7.216 HEAT: 2.118637
 CYCLE:    42 TIME:   0.011 TIME LEFT:  2.00D  GRAD.:     8.852 HEAT: 2.047733
 CYCLE:    43 TIME:   0.011 TIME LEFT:  2.00D  GRAD.:     9.489 HEAT: 2.016625
 CYCLE:    44 TIME:   0.016 TIME LEFT:  2.00D  GRAD.:     8.024 HEAT: 1.928180
 CYCLE:    45 TIME:   0.013 TIME LEFT:  2.00D  GRAD.:    12.128 HEAT: 1.860550
 CYCLE:    46 TIME:   0.011 TIME LEFT:  2.00D  GRAD.:     9.167 HEAT: 1.783377
 CYCLE:    47 TIME:   0.011 TIME LEFT:  2.00D  GRAD.:     6.644 HEAT: 1.704911
 CYCLE:    48 TIME:   0.011 TIME LEFT:  2.00D  GRAD.:     6.197 HEAT: 1.638782
 CYCLE:    49 TIME:   0.011 TIME LEFT:  2.00D  GRAD.:     5.654 HEAT: 1.589936
 CYCLE:    50 TIME:   0.011 TIME LEFT:  2.00D  GRAD.:     4.549 HEAT: 1.549286
 CYCLE:    51 TIME:   0.011 TIME LEFT:  2.00D  GRAD.:     3.701 HEAT: 1.518812
 CYCLE:    52 TIME:   0.011 TIME LEFT:  2.00D  GRAD.:     4.912 HEAT: 1.504718
 CYCLE:    53 TIME:   0.011 TIME LEFT:  2.00D  GRAD.:     2.790 HEAT: 1.487795
 CYCLE:    54 TIME:   0.011 TIME LEFT:  2.00D  GRAD.:     2.295 HEAT: 1.474934
 CYCLE:    55 TIME:   0.011 TIME LEFT:  2.00D  GRAD.:     2.190 HEAT: 1.462833
 CYCLE:    56 TIME:   0.012 TIME LEFT:  2.00D  GRAD.:     1.592 HEAT: 1.457473
 CYCLE:    57 TIME:   0.011 TIME LEFT:  2.00D  GRAD.:     1.299 HEAT: 1.452534
 CYCLE:    58 TIME:   0.011 TIME LEFT:  2.00D  GRAD.:     1.346 HEAT: 1.448811
 CYCLE:    59 TIME:   0.011 TIME LEFT:  2.00D  GRAD.:     1.151 HEAT: 1.446069
 CYCLE:    60 TIME:   0.011 TIME LEFT:  2.00D  GRAD.:     0.874 HEAT: 1.444245
 CYCLE:    61 TIME:   0.011 TIME LEFT:  2.00D  GRAD.:     0.766 HEAT: 1.442869
 CYCLE:    62 TIME:   0.011 TIME LEFT:  2.00D  GRAD.:     0.711 HEAT: 1.441746
 CYCLE:    63 TIME:   0.011 TIME LEFT:  2.00D  GRAD.:     0.581 HEAT: 1.440902
 CYCLE:    64 TIME:   0.011 TIME LEFT:  2.00D  GRAD.:     0.492 HEAT: 1.440277
 CYCLE:    65 TIME:   0.012 TIME LEFT:  2.00D  GRAD.:     0.531 HEAT: 1.439692
 CYCLE:    66 TIME:   0.011 TIME LEFT:  2.00D  GRAD.:     0.563 HEAT: 1.439052
 CYCLE:    67 TIME:   0.011 TIME LEFT:  2.00D  GRAD.:     0.527 HEAT: 1.438360
 CYCLE:    68 TIME:   0.011 TIME LEFT:  2.00D  GRAD.:     0.468 HEAT: 1.437745
 CYCLE:    69 TIME:   0.011 TIME LEFT:  2.00D  GRAD.:     0.443 HEAT: 1.437184
 CYCLE:    70 TIME:   0.011 TIME LEFT:  2.00D  GRAD.:     0.427 HEAT: 1.436705
 CYCLE:    71 TIME:   0.011 TIME LEFT:  2.00D  GRAD.:     0.373 HEAT: 1.436277
 CYCLE:    72 TIME:   0.011 TIME LEFT:  2.00D  GRAD.:     0.329 HEAT: 1.435918
 CYCLE:    73 TIME:   0.011 TIME LEFT:  2.00D  GRAD.:     0.341 HEAT: 1.435623
 CYCLE:    74 TIME:   0.011 TIME LEFT:  2.00D  GRAD.:     0.355 HEAT: 1.435349
 CYCLE:    75 TIME:   0.011 TIME LEFT:  2.00D  GRAD.:     0.332 HEAT: 1.435068
 CYCLE:    76 TIME:   0.011 TIME LEFT:  2.00D  GRAD.:     0.301 HEAT: 1.434802
 CYCLE:    77 TIME:   0.011 TIME LEFT:  2.00D  GRAD.:     0.300 HEAT: 1.434556
 CYCLE:    78 TIME:   0.011 TIME LEFT:  2.00D  GRAD.:     0.314 HEAT: 1.434317
 CYCLE:    79 TIME:   0.011 TIME LEFT:  2.00D  GRAD.:     0.320 HEAT: 1.434066
 CYCLE:    80 TIME:   0.012 TIME LEFT:  2.00D  GRAD.:     0.290 HEAT: 1.433808
 CYCLE:    81 TIME:   0.013 TIME LEFT:  2.00D  GRAD.:     0.244 HEAT: 1.433597
 CYCLE:    82 TIME:   0.013 TIME LEFT:  2.00D  GRAD.:     0.197 HEAT: 1.433454
 CYCLE:    83 TIME:   0.011 TIME LEFT:  2.00D  GRAD.:     0.149 HEAT: 1.433388
 CYCLE:    84 TIME:   0.011 TIME LEFT:  2.00D  GRAD.:     0.111 HEAT: 1.433342
 CYCLE:    85 TIME:   0.011 TIME LEFT:  2.00D  GRAD.:     0.115 HEAT: 1.433316
 CYCLE:    86 TIME:   0.011 TIME LEFT:  2.00D  GRAD.:     0.149 HEAT: 1.433280
 CYCLE:    87 TIME:   0.011 TIME LEFT:  2.00D  GRAD.:     0.122 HEAT: 1.433250
 CYCLE:    88 TIME:   0.011 TIME LEFT:  2.00D  GRAD.:     0.114 HEAT: 1.433194
 CYCLE:    89 TIME:   0.011 TIME LEFT:  2.00D  GRAD.:     0.098 HEAT: 1.433172
 CYCLE:    90 TIME:   0.011 TIME LEFT:  2.00D  GRAD.:     0.083 HEAT: 1.433127
 CYCLE:    91 TIME:   0.011 TIME LEFT:  2.00D  GRAD.:     0.077 HEAT: 1.433113
 CYCLE:    92 TIME:   0.011 TIME LEFT:  2.00D  GRAD.:     0.070 HEAT: 1.433103
 CYCLE:    93 TIME:   0.011 TIME LEFT:  2.00D  GRAD.:     0.045 HEAT: 1.433095

     RMS GRADIENT =  0.04496  IS LESS THAN CUTOFF =  0.05000



 -------------------------------------------------------------------------------
pm3  precise nosym
 InChI=1S/C11H18/c1-4-10-7-6-8-11(5-2)9(10)3/h4,6,8-11H,1,5,7H2,2-3H3



     GEOMETRY OPTIMISED USING EIGENVECTOR FOLLOWING (EF).     
     SCF FIELD WAS ACHIEVED                                   


                              PM3 CALCULATION
                                                       MOPAC2012 (Version: 13.159M)
                                                       Mon Jun  2 11:04:43 2014
                                                       No. of days left =   6




          FINAL HEAT OF FORMATION =          1.43309 KCAL/MOL =       5.99607 KJ/MOL


          TOTAL ENERGY            =      -1580.97065 EV
          ELECTRONIC ENERGY       =      -9999.86126 EV  POINT GROUP:     C1  
          CORE-CORE REPULSION     =       8418.89061 EV
          COSMO AREA              =        200.56 SQUARE ANGSTROMS
          COSMO VOLUME            =        220.60 CUBIC ANGSTROMS

          GRADIENT NORM           =          0.04496
          IONIZATION POTENTIAL    =          9.620016 EV
          HOMO LUMO ENERGIES (EV) =         -9.620  1.117
          NO. OF FILLED LEVELS    =         31
          MOLECULAR WEIGHT        =        150.263

          MOLECULAR DIMENSIONS (Angstroms)

            Atom       Atom       Distance
            H    28    H    20     8.32342
            H    26    H    22     6.01283
            H    17    H    15     4.59780


          SCF CALCULATIONS        =        105
          COMPUTATION TIME        =          1.178 SECONDS




   ATOM   CHEMICAL          X               Y               Z
  NUMBER   SYMBOL      (ANGSTROMS)     (ANGSTROMS)     (ANGSTROMS)
 
     1       C          0.11605164  *  -0.46230328  *  -0.59844714  *
     2       C         -0.95166749  *  -0.10749429  *   0.45087277  *
     3       C          1.45389832  *   0.23911944  *  -0.32322908  *
     4       C         -2.33431431  *  -0.55420142  *  -0.03824842  *
     5       C          1.25334864  *   1.75637103  *  -0.28352442  *
     6       C          0.28751880  *  -1.96949797  *  -0.68901146  *
     7       C         -2.79569077  *   0.20577209  *  -1.26185598  *
     8       C         -0.94669350  *   1.34508424  *   0.79488394  *
     9       C          2.08553002  *  -0.22010945  *   0.95531762  *
    10       C          0.04870856  *   2.17393885  *   0.47934606  *
    11       C          3.27647883  *  -0.80493898  *   1.00485559  *
    12       H         -0.26779726  *  -0.08858022  *  -1.58891360  *
    13       H          2.14119688  *  -0.00214577  *  -1.17300779  *
    14       H         -0.72219640  *  -0.65974604  *   1.39800715  *
    15       H         -3.07418015  *  -0.45011426  *   0.77809040  *
    16       H         -2.27468525  *  -1.64192054  *  -0.27178355  *
    17       H          1.15732569  *   2.15020894  *  -1.31585552  *
    18       H          2.15205546  *   2.24162634  *   0.14584451  *
    19       H         -2.01430948  *   0.19235280  *  -2.04084422  *
    20       H         -3.70750665  *  -0.22913407  *  -1.68783544  *
    21       H         -3.00425314  *   1.25842410  *  -1.02924383  *
    22       H          0.88782223  *  -2.25455797  *  -1.56155283  *
    23       H          0.78409791  *  -2.37684847  *   0.20227104  *
    24       H         -0.69749147  *  -2.45842823  *  -0.77537945  *
    25       H          1.50628345  *  -0.03291812  *   1.86836653  *
    26       H          0.00551078  *   3.23067394  *   0.76676173  *
    27       H         -1.82369916  *   1.70556726  *   1.34584624  *
    28       H          3.73124907  *  -1.12504614  *   1.93730116  *
    29       H          3.88123087  *  -1.00667115  *   0.12459229  *

           Empirical Formula: C11 H18  =    29 atoms



      MOLECULAR POINT GROUP   :   C1  


                  EIGENVALUES  
 -42.51987 -35.70794 -33.05643 -30.94185 -28.36135 -25.59471 -23.57136 -21.58947
 -20.11190 -19.75720 -17.22606 -16.99498 -16.52168 -15.89382 -15.36002 -14.96310
 -14.56681 -14.34943 -13.76149 -13.74679 -13.38514 -13.12246 -12.73013 -12.65558
 -12.33987 -11.92443 -11.51592 -11.43291 -10.99295 -10.20740  -9.62002   1.11740
   1.22550   3.33549   3.37480   3.48051   3.59931   3.64281   3.66908   3.82768
   3.94002   3.96739   3.99337   4.07302   4.15837   4.19734   4.27815   4.41115
   4.50102   4.52241   4.58350   4.65217   4.84861   4.93122   4.94889   5.01559
   5.13217   5.21875   5.66161   5.78493   5.93318   6.01646


              NET ATOMIC CHARGES AND DIPOLE CONTRIBUTIONS

  ATOM NO.   TYPE          CHARGE      No. of ELECS.   s-Pop       p-Pop       
    1          C          -0.080008        4.0800     1.18088     2.89913
    2          C          -0.042854        4.0429     1.16773     2.87513
    3          C          -0.039734        4.0397     1.16892     2.87081
    4          C          -0.099121        4.0991     1.16281     2.93631
    5          C          -0.056013        4.0560     1.14871     2.90731
    6          C          -0.122948        4.1229     1.14409     2.97886
    7          C          -0.119313        4.1193     1.14020     2.97912
    8          C          -0.144620        4.1446     1.19528     2.94934
    9          C          -0.133193        4.1332     1.19737     2.93582
   10          C          -0.148434        4.1484     1.19344     2.95499
   11          C          -0.166908        4.1669     1.18299     2.98392
   12          H           0.074459        0.9255     0.92554
   13          H           0.064583        0.9354     0.93542
   14          H           0.071053        0.9289     0.92895
   15          H           0.050167        0.9498     0.94983
   16          H           0.055413        0.9446     0.94459
   17          H           0.055586        0.9444     0.94441
   18          H           0.058675        0.9413     0.94132
   19          H           0.045575        0.9544     0.95442
   20          H           0.038432        0.9616     0.96157
   21          H           0.042611        0.9574     0.95739
   22          H           0.040582        0.9594     0.95942
   23          H           0.047469        0.9525     0.95253
   24          H           0.046875        0.9531     0.95313
   25          H           0.104574        0.8954     0.89543
   26          H           0.096934        0.9031     0.90307
   27          H           0.100276        0.8997     0.89972
   28          H           0.078841        0.9212     0.92116
   29          H           0.081043        0.9190     0.91896
 DIPOLE           X         Y         Z       TOTAL
 POINT-CHG.    -0.107    -0.091    -0.213     0.256
 HYBRID         0.008     0.044     0.045     0.064
 SUM           -0.100    -0.047    -0.168     0.201


          ATOMIC ORBITAL ELECTRON POPULATIONS

    Atom      s        px        py        pz   
    1  C   1.18088   0.94524   0.95668   0.99721
    2  C   1.16773   0.94891   0.94519   0.98103
    3  C   1.16892   0.96269   0.94799   0.96013
    4  C   1.16281   0.95818   0.99811   0.98003
    5  C   1.14871   0.96571   0.94832   0.99327
    6  C   1.14409   1.01255   0.95129   1.01502
    7  C   1.14020   1.00198   1.00041   0.97673
    8  C   1.19528   0.98271   0.95833   1.00831
    9  C   1.19737   0.96893   0.98284   0.98405
   10  C   1.19344   0.96675   0.98464   1.00360
   11  C   1.18299   0.96839   1.00454   1.01099
   12  H   0.92554
   13  H   0.93542
   14  H   0.92895
   15  H   0.94983
   16  H   0.94459
   17  H   0.94441
   18  H   0.94132
   19  H   0.95442
   20  H   0.96157
   21  H   0.95739
   22  H   0.95942
   23  H   0.95253
   24  H   0.95313
   25  H   0.89543
   26  H   0.90307
   27  H   0.89972
   28  H   0.92116
   29  H   0.91896
 *******************************************************************************
 ** Site#: 14399           For non-commercial use only        Version 13.159M **
 *******************************************************************************
 ** Cite this work as: MOPAC2012, James J. P. Stewart, Stewart Computational  **
 ** Chemistry, Version 13.159M web: HTTP://OpenMOPAC.net  Days remaining:   6 **
 *******************************************************************************
 **                                                                           **
 **                                MOPAC2012                                  **
 **                                                                           **
 *******************************************************************************

                            PM3 CALCULATION RESULTS


 *******************************************************************************
 *  CALCULATION DONE:                                Mon Jun  2 11:04:43 2014  *
 *  PM3      - The PM3 Hamiltonian to be used
 *  OLDGEO   - PREVIOUS GEOMETRY TO BE USED
 *  PRECISE  - CRITERIA TO BE INCREASED BY 100 TIMES
 *  NOSYM    - POINT-GROUP SYMMETRY SET TO C1
 *  T=       - A TIME OF 172800.0 SECONDS REQUESTED
 *  DUMP=N   - RESTART FILE WRITTEN EVERY  7200.000 SECONDS
 *  THERMO   - THERMODYNAMIC QUANTITIES TO BE CALCULATED
 *******************************************************************************
oldgeo thermo nosym precise  pm3

   ATOM   CHEMICAL          X               Y               Z
  NUMBER   SYMBOL      (ANGSTROMS)     (ANGSTROMS)     (ANGSTROMS)
 
     1       C          0.11605164  *  -0.46230328  *  -0.59844714  *
     2       C         -0.95166749  *  -0.10749429  *   0.45087277  *
     3       C          1.45389832  *   0.23911944  *  -0.32322908  *
     4       C         -2.33431431  *  -0.55420142  *  -0.03824842  *
     5       C          1.25334864  *   1.75637103  *  -0.28352442  *
     6       C          0.28751880  *  -1.96949797  *  -0.68901146  *
     7       C         -2.79569077  *   0.20577209  *  -1.26185598  *
     8       C         -0.94669350  *   1.34508424  *   0.79488394  *
     9       C          2.08553002  *  -0.22010945  *   0.95531762  *
    10       C          0.04870856  *   2.17393885  *   0.47934606  *
    11       C          3.27647883  *  -0.80493898  *   1.00485559  *
    12       H         -0.26779726  *  -0.08858022  *  -1.58891360  *
    13       H          2.14119688  *  -0.00214577  *  -1.17300779  *
    14       H         -0.72219640  *  -0.65974604  *   1.39800715  *
    15       H         -3.07418015  *  -0.45011426  *   0.77809040  *
    16       H         -2.27468525  *  -1.64192054  *  -0.27178355  *
    17       H          1.15732569  *   2.15020894  *  -1.31585552  *
    18       H          2.15205546  *   2.24162634  *   0.14584451  *
    19       H         -2.01430948  *   0.19235280  *  -2.04084422  *
    20       H         -3.70750665  *  -0.22913407  *  -1.68783544  *
    21       H         -3.00425314  *   1.25842410  *  -1.02924383  *
    22       H          0.88782223  *  -2.25455797  *  -1.56155283  *
    23       H          0.78409791  *  -2.37684847  *   0.20227104  *
    24       H         -0.69749147  *  -2.45842823  *  -0.77537945  *
    25       H          1.50628345  *  -0.03291812  *   1.86836653  *
    26       H          0.00551078  *   3.23067394  *   0.76676173  *
    27       H         -1.82369916  *   1.70556726  *   1.34584624  *
    28       H          3.73124907  *  -1.12504614  *   1.93730116  *
    29       H          3.88123087  *  -1.00667115  *   0.12459229  *
 


          CARTESIAN COORDINATES 

    NO.       ATOM         X         Y         Z

     1         C        0.1161   -0.4623   -0.5984
     2         C       -0.9517   -0.1075    0.4509
     3         C        1.4539    0.2391   -0.3232
     4         C       -2.3343   -0.5542   -0.0382
     5         C        1.2533    1.7564   -0.2835
     6         C        0.2875   -1.9695   -0.6890
     7         C       -2.7957    0.2058   -1.2619
     8         C       -0.9467    1.3451    0.7949
     9         C        2.0855   -0.2201    0.9553
    10         C        0.0487    2.1739    0.4793
    11         C        3.2765   -0.8049    1.0049
    12         H       -0.2678   -0.0886   -1.5889
    13         H        2.1412   -0.0021   -1.1730
    14         H       -0.7222   -0.6597    1.3980
    15         H       -3.0742   -0.4501    0.7781
    16         H       -2.2747   -1.6419   -0.2718
    17         H        1.1573    2.1502   -1.3159
    18         H        2.1521    2.2416    0.1458
    19         H       -2.0143    0.1924   -2.0408
    20         H       -3.7075   -0.2291   -1.6878
    21         H       -3.0043    1.2584   -1.0292
    22         H        0.8878   -2.2546   -1.5616
    23         H        0.7841   -2.3768    0.2023
    24         H       -0.6975   -2.4584   -0.7754
    25         H        1.5063   -0.0329    1.8684
    26         H        0.0055    3.2307    0.7668
    27         H       -1.8237    1.7056    1.3458
    28         H        3.7312   -1.1250    1.9373
    29         H        3.8812   -1.0067    0.1246

  H: (PM3): J. J. P. STEWART, J. COMP. CHEM. 10, 209 (1989).
  C: (PM3): J. J. P. STEWART, J. COMP. CHEM. 10, 209 (1989).

           Empirical Formula: C11 H18  =    29 atoms



      MOLECULAR POINT GROUP   :   C1  


      RHF CALCULATION, NO. OF DOUBLY OCCUPIED LEVELS =   31



          HEAT OF FORMATION =       1.433095 KCALS/MOLE


          INTERNAL COORDINATE DERIVATIVES

   NUMBER  ATOM       BOND         ANGLE      DIHEDRAL

     1       C      0.000394    -0.004301    -0.002949
     2       C      0.000556     0.001528    -0.000921
     3       C      0.000275     0.000983     0.000426
     4       C     -0.000473    -0.000055    -0.000711
     5       C     -0.001845    -0.000687     0.001244
     6       C     -0.001364     0.001814    -0.008720
     7       C     -0.000913     0.002734     0.004129
     8       C     -0.003318    -0.002705     0.002296
     9       C     -0.003838     0.007552     0.002483
    10       C     -0.002788     0.003188    -0.005939
    11       C      0.002083    -0.001385    -0.002137
    12       H      0.005504    -0.005382    -0.000377
    13       H      0.000504     0.001774     0.004180
    14       H     -0.003852     0.007105    -0.004681
    15       H      0.003431    -0.005914    -0.001321
    16       H     -0.002757     0.003841    -0.007841
    17       H      0.003576    -0.007216    -0.000467
    18       H     -0.006700     0.002204    -0.001479
    19       H      0.006059    -0.003414     0.004139
    20       H      0.000429     0.012157     0.012337
    21       H      0.001976    -0.003688     0.008509
    22       H      0.004535     0.004251     0.001299
    23       H     -0.007175    -0.002712    -0.002467
    24       H     -0.006395     0.006484    -0.000537
    25       H     -0.007027     0.013963    -0.000802
    26       H      0.002111    -0.004974    -0.001952
    27       H      0.002211    -0.012261    -0.000542
    28       H      0.011454    -0.006818     0.004910
    29       H      0.003347    -0.008067    -0.002108


          GRADIENT NORM =   0.04569


          TIME FOR SCF CALCULATION =    0.01

          TIME FOR DERIVATIVES     =    0.01

          MOLECULAR WEIGHT =  150.26



          ROTATIONAL CONSTANTS IN CM(-1)

          A =    0.05663663   B =    0.02869670   C =    0.02259992



           PRINCIPAL MOMENTS OF INERTIA IN UNITS OF 10**(-40)*GRAM-CM**2

          A =      494.2521   B =      975.4703   C =     1238.6229


          ORIENTATION OF MOLECULE IN FORCE CALCULATION

    NO.       ATOM         X         Y         Z

     1          C      -0.5595   -0.6282   -0.1058
     2          C       0.9790   -0.6282   -0.1058
     3          C      -1.1385    0.7939   -0.1058
     4          C       1.5020   -2.0310    0.2245
     5          C      -0.6223    1.5715    1.1078
     6          C      -1.0878   -1.4429   -1.2747
     7          C       1.1629   -2.4651    1.6331
     8          C       1.5452    0.3901    0.8274
     9          C      -0.8107    1.5425   -1.3615
    10          C       0.8303    1.3832    1.3566
    11          C      -1.7383    2.0064   -2.1905
    12          H      -0.8824   -1.1281    0.8501
    13          H      -2.2507    0.7042   -0.0183
    14          H       1.3384   -0.3551   -1.1310
    15          H       2.5962   -2.0722    0.0646
    16          H       1.0505   -2.7404   -0.5063
    17          H      -1.1689    1.2530    2.0187
    18          H      -0.8412    2.6502    0.9820
    19          H       0.0862   -2.3257    1.8304
    20          H       1.4049   -3.5213    1.8000
    21          H       1.7090   -1.8747    2.3807
    22          H      -2.1653   -1.6263   -1.1831
    23          H      -0.9185   -0.9352   -2.2341
    24          H      -0.5759   -2.4190   -1.3184
    25          H       0.2572    1.7014   -1.5579
    26          H       1.3001    2.1106    2.0285
    27          H       2.6128    0.2841    1.0549
    28          H      -1.4918    2.5571   -3.0931
    29          H      -2.8049    1.8712   -2.0312


    FIRST DERIVATIVES WILL BE USED IN THE CALCULATION OF SECOND DERIVATIVES

          ESTIMATED TIME TO COMPLETE CALCULATION =        6.02 SECONDS

    FOR POINT-GROUP C1   THERE ARE   1 UNIQUE SYMMETRY FUNCTIONS.

 STEP:   1 TIME =     0.05 SECS, INTEGRAL =      0.05 TIME LEFT: 172799.93
 STEP:   2 TIME =     0.05 SECS, INTEGRAL =      0.10 TIME LEFT: 172799.88
 STEP:   3 TIME =     0.05 SECS, INTEGRAL =      0.15 TIME LEFT: 172799.83
 STEP:   4 TIME =     0.05 SECS, INTEGRAL =      0.20 TIME LEFT: 172799.78
 STEP:   5 TIME =     0.05 SECS, INTEGRAL =      0.25 TIME LEFT: 172799.73
 STEP:   6 TIME =     0.05 SECS, INTEGRAL =      0.30 TIME LEFT: 172799.68
 STEP:   7 TIME =     0.05 SECS, INTEGRAL =      0.35 TIME LEFT: 172799.63
 STEP:   8 TIME =     0.05 SECS, INTEGRAL =      0.40 TIME LEFT: 172799.58
 STEP:   9 TIME =     0.05 SECS, INTEGRAL =      0.45 TIME LEFT: 172799.53
 STEP:  10 TIME =     0.05 SECS, INTEGRAL =      0.50 TIME LEFT: 172799.48
 STEP:  11 TIME =     0.05 SECS, INTEGRAL =      0.55 TIME LEFT: 172799.43
 STEP:  12 TIME =     0.05 SECS, INTEGRAL =      0.60 TIME LEFT: 172799.38
 STEP:  13 TIME =     0.05 SECS, INTEGRAL =      0.65 TIME LEFT: 172799.33
 STEP:  14 TIME =     0.05 SECS, INTEGRAL =      0.70 TIME LEFT: 172799.29
 STEP:  15 TIME =     0.05 SECS, INTEGRAL =      0.75 TIME LEFT: 172799.24
 STEP:  16 TIME =     0.05 SECS, INTEGRAL =      0.80 TIME LEFT: 172799.19
 STEP:  17 TIME =     0.05 SECS, INTEGRAL =      0.85 TIME LEFT: 172799.14
 STEP:  18 TIME =     0.05 SECS, INTEGRAL =      0.89 TIME LEFT: 172799.09
 STEP:  19 TIME =     0.05 SECS, INTEGRAL =      0.94 TIME LEFT: 172799.04
 STEP:  20 TIME =     0.05 SECS, INTEGRAL =      0.99 TIME LEFT: 172798.99
 STEP:  21 TIME =     0.05 SECS, INTEGRAL =      1.04 TIME LEFT: 172798.94
 STEP:  22 TIME =     0.05 SECS, INTEGRAL =      1.09 TIME LEFT: 172798.89
 STEP:  23 TIME =     0.05 SECS, INTEGRAL =      1.14 TIME LEFT: 172798.85
 STEP:  24 TIME =     0.05 SECS, INTEGRAL =      1.19 TIME LEFT: 172798.80
 STEP:  25 TIME =     0.05 SECS, INTEGRAL =      1.24 TIME LEFT: 172798.75
 STEP:  26 TIME =     0.06 SECS, INTEGRAL =      1.29 TIME LEFT: 172798.69
 STEP:  27 TIME =     0.05 SECS, INTEGRAL =      1.34 TIME LEFT: 172798.64
 STEP:  28 TIME =     0.05 SECS, INTEGRAL =      1.39 TIME LEFT: 172798.59
 STEP:  29 TIME =     0.05 SECS, INTEGRAL =      1.44 TIME LEFT: 172798.54
 STEP:  30 TIME =     0.05 SECS, INTEGRAL =      1.49 TIME LEFT: 172798.49
 STEP:  31 TIME =     0.05 SECS, INTEGRAL =      1.54 TIME LEFT: 172798.44
 STEP:  32 TIME =     0.05 SECS, INTEGRAL =      1.59 TIME LEFT: 172798.39
 STEP:  33 TIME =     0.05 SECS, INTEGRAL =      1.64 TIME LEFT: 172798.34
 STEP:  34 TIME =     0.05 SECS, INTEGRAL =      1.69 TIME LEFT: 172798.29
 STEP:  35 TIME =     0.05 SECS, INTEGRAL =      1.74 TIME LEFT: 172798.24
 STEP:  36 TIME =     0.05 SECS, INTEGRAL =      1.79 TIME LEFT: 172798.19
 STEP:  37 TIME =     0.05 SECS, INTEGRAL =      1.84 TIME LEFT: 172798.15
 STEP:  38 TIME =     0.05 SECS, INTEGRAL =      1.89 TIME LEFT: 172798.09
 STEP:  39 TIME =     0.05 SECS, INTEGRAL =      1.94 TIME LEFT: 172798.04
 STEP:  40 TIME =     0.05 SECS, INTEGRAL =      1.99 TIME LEFT: 172797.99
 STEP:  41 TIME =     0.05 SECS, INTEGRAL =      2.04 TIME LEFT: 172797.94
 STEP:  42 TIME =     0.05 SECS, INTEGRAL =      2.09 TIME LEFT: 172797.89
 STEP:  43 TIME =     0.05 SECS, INTEGRAL =      2.14 TIME LEFT: 172797.85
 STEP:  44 TIME =     0.05 SECS, INTEGRAL =      2.19 TIME LEFT: 172797.80
 STEP:  45 TIME =     0.05 SECS, INTEGRAL =      2.24 TIME LEFT: 172797.75
 STEP:  46 TIME =     0.05 SECS, INTEGRAL =      2.29 TIME LEFT: 172797.69
 STEP:  47 TIME =     0.05 SECS, INTEGRAL =      2.34 TIME LEFT: 172797.64
 STEP:  48 TIME =     0.05 SECS, INTEGRAL =      2.39 TIME LEFT: 172797.59
 STEP:  49 TIME =     0.05 SECS, INTEGRAL =      2.44 TIME LEFT: 172797.54
 STEP:  50 TIME =     0.05 SECS, INTEGRAL =      2.49 TIME LEFT: 172797.49
 STEP:  51 TIME =     0.05 SECS, INTEGRAL =      2.54 TIME LEFT: 172797.44
 STEP:  52 TIME =     0.05 SECS, INTEGRAL =      2.59 TIME LEFT: 172797.39
 STEP:  53 TIME =     0.05 SECS, INTEGRAL =      2.64 TIME LEFT: 172797.35
 STEP:  54 TIME =     0.05 SECS, INTEGRAL =      2.69 TIME LEFT: 172797.29
 STEP:  55 TIME =     0.05 SECS, INTEGRAL =      2.74 TIME LEFT: 172797.25
 STEP:  56 TIME =     0.05 SECS, INTEGRAL =      2.79 TIME LEFT: 172797.20
 STEP:  57 TIME =     0.05 SECS, INTEGRAL =      2.84 TIME LEFT: 172797.14
 STEP:  58 TIME =     0.05 SECS, INTEGRAL =      2.89 TIME LEFT: 172797.09
 STEP:  59 TIME =     0.05 SECS, INTEGRAL =      2.94 TIME LEFT: 172797.05
 STEP:  60 TIME =     0.05 SECS, INTEGRAL =      2.99 TIME LEFT: 172797.00
 STEP:  61 TIME =     0.05 SECS, INTEGRAL =      3.04 TIME LEFT: 172796.95
 STEP:  62 TIME =     0.05 SECS, INTEGRAL =      3.09 TIME LEFT: 172796.90
 STEP:  63 TIME =     0.05 SECS, INTEGRAL =      3.14 TIME LEFT: 172796.85
 STEP:  64 TIME =     0.05 SECS, INTEGRAL =      3.18 TIME LEFT: 172796.80
 STEP:  65 TIME =     0.05 SECS, INTEGRAL =      3.23 TIME LEFT: 172796.75
 STEP:  66 TIME =     0.05 SECS, INTEGRAL =      3.28 TIME LEFT: 172796.70
 STEP:  67 TIME =     0.05 SECS, INTEGRAL =      3.33 TIME LEFT: 172796.65
 STEP:  68 TIME =     0.05 SECS, INTEGRAL =      3.39 TIME LEFT: 172796.60
 STEP:  69 TIME =     0.05 SECS, INTEGRAL =      3.43 TIME LEFT: 172796.55
 STEP:  70 TIME =     0.05 SECS, INTEGRAL =      3.48 TIME LEFT: 172796.50
 STEP:  71 TIME =     0.05 SECS, INTEGRAL =      3.53 TIME LEFT: 172796.45
 STEP:  72 TIME =     0.05 SECS, INTEGRAL =      3.58 TIME LEFT: 172796.40
 STEP:  73 TIME =     0.05 SECS, INTEGRAL =      3.63 TIME LEFT: 172796.35
 STEP:  74 TIME =     0.05 SECS, INTEGRAL =      3.68 TIME LEFT: 172796.30
 STEP:  75 TIME =     0.05 SECS, INTEGRAL =      3.73 TIME LEFT: 172796.25
 STEP:  76 TIME =     0.05 SECS, INTEGRAL =      3.79 TIME LEFT: 172796.20
 STEP:  77 TIME =     0.05 SECS, INTEGRAL =      3.84 TIME LEFT: 172796.15
 STEP:  78 TIME =     0.05 SECS, INTEGRAL =      3.89 TIME LEFT: 172796.10
 STEP:  79 TIME =     0.05 SECS, INTEGRAL =      3.93 TIME LEFT: 172796.05
 STEP:  80 TIME =     0.05 SECS, INTEGRAL =      3.99 TIME LEFT: 172796.00
 STEP:  81 TIME =     0.05 SECS, INTEGRAL =      4.04 TIME LEFT: 172795.94
 STEP:  82 TIME =     0.05 SECS, INTEGRAL =      4.09 TIME LEFT: 172795.89
 STEP:  83 TIME =     0.05 SECS, INTEGRAL =      4.14 TIME LEFT: 172795.84
 STEP:  84 TIME =     0.05 SECS, INTEGRAL =      4.19 TIME LEFT: 172795.79
 STEP:  85 TIME =     0.05 SECS, INTEGRAL =      4.24 TIME LEFT: 172795.75
 STEP:  86 TIME =     0.06 SECS, INTEGRAL =      4.29 TIME LEFT: 172795.69
 STEP:  87 TIME =     0.06 SECS, INTEGRAL =      4.35 TIME LEFT: 172795.63

(To convert to Hartree/Bohr^2, multiply by (10^(-21) x N x a0^2)/(4.184 x 627.51) = 0.0642)


           FORCE MATRIX IN MILLIDYNES/ANGSTROM


                  C  1       C  2       C  3       C  4       C  5       C  6
 ------------------------------------------------------------------------------
     C    1  14.196350
     C    2   3.581335  14.543819
     C    3   3.635013   0.583843  14.572549
     C    4   0.625595   3.733525   0.050082  14.245923
     C    5   0.645030   0.098789   3.823095   0.009389  14.671287
     C    6   4.192566   0.638095   0.620429   0.080255   0.052947  14.338774
     C    7   0.076045   0.619360   0.005292   4.448911   0.000953   0.005876
     C    8   0.643457   4.767416   0.055576   0.681440   0.834728   0.051966
     C    9   0.630437   0.050427   4.634113   0.004281   0.688525   0.057533
     C   10   0.062925   0.808892   0.656753   0.045362   5.020923   0.004352
     C   11   0.040547   0.003711   0.805188   0.001115   0.041355   0.017216
     H   12   3.964646   0.428390   0.422703   0.054831   0.029500   0.417389
     H   13   0.419844   0.045647   4.167558   0.008163   0.414091   0.025964
     H   14   0.436415   4.121464   0.011061   0.422244   0.012967   0.038483
     H   15   0.047851   0.440153   0.008590   4.497779   0.001034   0.004462
     H   16   0.040409   0.432929   0.001841   4.267472   0.001333   0.081721
     H   17   0.014936   0.013899   0.440422   0.000847   4.411654   0.001168
     H   18   0.045657   0.008996   0.439421   0.000750   4.461553   0.009012
     H   19   0.081428   0.028777   0.002199   0.463761   0.000668   0.001623
     H   20   0.005643   0.051236   0.000672   0.452065   0.000233   0.000807
     H   21   0.003135   0.014589   0.000573   0.464197   0.000635   0.000660
     H   22   0.453881   0.048394   0.019556   0.004137   0.001720   4.770747
     H   23   0.469778   0.017727   0.027046   0.003174   0.002175   4.710384
     H   24   0.454641   0.045021   0.049165   0.084248   0.009298   4.562548
     H   25   0.011329   0.018811   0.437274   0.001593   0.016460   0.004202
     H   26   0.004274   0.120280   0.042373   0.015192   0.425477   0.000988
     H   27   0.040456   0.431702   0.004427   0.032440   0.121231   0.007875
     H   28   0.017903   0.001030   0.134454   0.000205   0.017984   0.001178
     H   29   0.011622   0.000809   0.097680   0.000450   0.011753   0.001034


                  C  7       C  8       C  9       C 10       C 11       H 12
 ------------------------------------------------------------------------------
     C    7  14.333461
     C    8   0.052465  18.260413
     C    9   0.001581   0.019339  18.132673
     C   10   0.006331  10.719111   0.035358  18.221436
     C   11   0.000942   0.002995  11.085460   0.002959  18.034847
     H   12   0.095455   0.011922   0.044952   0.007524   0.006284   4.496461
     H   13   0.000460   0.004254   0.440957   0.046933   0.062111   0.037338
     H   14   0.048966   0.387302   0.013438   0.031464   0.001738   0.040456
     H   15   0.438541   0.023749   0.000689   0.002085   0.000458   0.002307
     H   16   0.437647   0.050837   0.000976   0.008351   0.000567   0.004390
     H   17   0.000466   0.030287   0.045026   0.409926   0.005701   0.010237
     H   18   0.000193   0.043183   0.048248   0.432131   0.003726   0.001952
     H   19   4.550933   0.003111   0.000643   0.001204   0.000493   0.090207
     H   20   4.781433   0.004182   0.000280   0.000694   0.000236   0.002528
     H   21   4.729724   0.009029   0.000518   0.004024   0.000398   0.000917
     H   22   0.000742   0.008766   0.002703   0.001009   0.000842   0.034287
     H   23   0.000625   0.001697   0.021388   0.000860   0.008991   0.043733
     H   24   0.002048   0.002299   0.003469   0.001646   0.000899   0.026272
     H   25   0.000642   0.007121   4.773945   0.007118   0.450410   0.001799
     H   26   0.000961   0.442920   0.002365   4.816321   0.001033   0.000522
     H   27   0.009355   4.793128   0.001791   0.443288   0.000942   0.001026
     H   28   0.000324   0.000618   0.461306   0.000919   5.105294   0.002654
     H   29   0.000201   0.000696   0.491178   0.001366   5.064321   0.002147


                  H 13       H 14       H 15       H 16       H 17       H 18
 ------------------------------------------------------------------------------
     H   13   4.635712
     H   14   0.001336   4.592704
     H   15   0.001705   0.036620   5.096675
     H   16   0.000447   0.033676   0.535926   4.890245
     H   17   0.037920   0.001864   0.000337   0.000190   5.001752
     H   18   0.020428   0.000965   0.000259   0.000381   0.561968   5.058582
     H   19   0.000323   0.002554   0.048179   0.022286   0.000392   0.000226
     H   20   0.000174   0.008181   0.023934   0.033376   0.000190   0.000131
     H   21   0.000088   0.001706   0.028567   0.047551   0.000274   0.000220
     H   22   0.014369   0.002311   0.000306   0.001455   0.000196   0.000311
     H   23   0.001845   0.017122   0.000490   0.000750   0.000492   0.000415
     H   24   0.001692   0.004924   0.001370   0.067960   0.000339   0.001759
     H   25   0.038404   0.024200   0.000310   0.000540   0.002033   0.003970
     H   26   0.006666   0.015727   0.000558   0.002482   0.019621   0.035998
     H   27   0.000794   0.019440   0.019576   0.002277   0.016860   0.013829
     H   28   0.002022   0.000443   0.000119   0.000287   0.002811   0.000743
     H   29   0.030183   0.000432   0.000173   0.000240   0.001884   0.000702


                  H 19       H 20       H 21       H 22       H 23       H 24
 ------------------------------------------------------------------------------
     H   19   5.308023
     H   20   0.545704   5.498457
     H   21   0.566708   0.563663   5.459584
     H   22   0.000446   0.000248   0.000326   5.487251
     H   23   0.000456   0.000309   0.000217   0.569967   5.437100
     H   24   0.001070   0.000465   0.000549   0.540431   0.551595   5.299944
     H   25   0.000243   0.000259   0.000191   0.000585   0.002522   0.000573
     H   26   0.000258   0.000180   0.000645   0.000251   0.000299   0.000356
     H   27   0.000880   0.000841   0.008358   0.001572   0.000336   0.000513
     H   28   0.000126   0.000153   0.000131   0.000204   0.000899   0.000192
     H   29   0.000153   0.000129   0.000107   0.000597   0.000887   0.000300


                  H 25       H 26       H 27       H 28       H 29
 ------------------------------------------------------------------
     H   25   5.145180
     H   26   0.001446   5.190736
     H   27   0.001472   0.069085   5.174813
     H   28   0.078960   0.000277   0.000312   5.494654
     H   29   0.118863   0.000332   0.000238   0.424014   5.462699


          HEAT OF FORMATION =       1.433095 KCALS/MOLE

          ZERO POINT ENERGY     163.282 KCAL/MOL


           NORMAL COORDINATE ANALYSIS (Total motion = 1 Angstrom)


   Root No.       1         2         3         4         5         6         7         8

                 1 A       2 A       3 A       4 A       5 A       6 A       7 A       8 A   

                  62.7      92.6      98.1     150.1     219.2     231.6     237.4     275.7
  
           1    0.0056   -0.0121    0.0007   -0.0031    0.0069   -0.0047   -0.0113    0.0004
           2   -0.0117   -0.0074    0.0004    0.0031    0.0028   -0.0014   -0.0073    0.0025
           3   -0.0115    0.0041    0.0143   -0.0067   -0.0080    0.0052    0.0065   -0.0017
           4    0.0056   -0.0119    0.0005   -0.0032    0.0069   -0.0049   -0.0111   -0.0006
           5   -0.0117   -0.0008    0.0055   -0.0049    0.0025    0.0014   -0.0049   -0.0162
           6   -0.0013   -0.0114    0.0102    0.0010   -0.0149   -0.0006    0.0099    0.0138
           7   -0.0002   -0.0091    0.0006    0.0023    0.0085   -0.0030   -0.0067    0.0005
           8   -0.0144   -0.0058    0.0006    0.0057    0.0029   -0.0012   -0.0045    0.0072
           9   -0.0115   -0.0018   -0.0096   -0.0065   -0.0079    0.0064    0.0132   -0.0157
          10    0.0007   -0.0006    0.0123   -0.0129    0.0057   -0.0033   -0.0020    0.0004
          11   -0.0083    0.0044    0.0049   -0.0110    0.0047    0.0011   -0.0029   -0.0191
          12    0.0224   -0.0089   -0.0123   -0.0084   -0.0034   -0.0085    0.0014    0.0114
          13   -0.0020   -0.0196   -0.0032    0.0044    0.0072    0.0009    0.0019   -0.0045
          14   -0.0110   -0.0190    0.0220    0.0105   -0.0036    0.0025    0.0133    0.0020
          15   -0.0128    0.0111   -0.0214   -0.0105   -0.0022    0.0026   -0.0028   -0.0107
          16    0.0169   -0.0258   -0.0056   -0.0045   -0.0102    0.0035   -0.0025   -0.0001
          17   -0.0119   -0.0176   -0.0182    0.0135   -0.0126    0.0025    0.0256   -0.0076
          18   -0.0165    0.0180    0.0302   -0.0135    0.0112   -0.0007   -0.0228    0.0066
          19   -0.0045    0.0303    0.0080    0.0433   -0.0147    0.0028    0.0158    0.0266
          20    0.0148    0.0205   -0.0269    0.0214    0.0278    0.0058   -0.0074   -0.0316
          21    0.0284    0.0034   -0.0234    0.0151   -0.0007   -0.0063    0.0033    0.0131
          22    0.0033   -0.0104   -0.0083   -0.0080    0.0043   -0.0016   -0.0070   -0.0048
          23   -0.0004    0.0060   -0.0012   -0.0238   -0.0121   -0.0005   -0.0008   -0.0085
          24   -0.0126   -0.0186    0.0232    0.0247    0.0037   -0.0005    0.0026    0.0072
          25   -0.0088    0.0227    0.0021   -0.0048    0.0001    0.0013    0.0024   -0.0084
          26   -0.0089    0.0004   -0.0162    0.0006    0.0089   -0.0103   -0.0240    0.0488
          27   -0.0103    0.0100   -0.0196   -0.0118   -0.0065    0.0024    0.0035    0.0051
          28    0.0001   -0.0144   -0.0101   -0.0058   -0.0002    0.0009    0.0025   -0.0012
          29    0.0000   -0.0038    0.0062   -0.0215   -0.0263    0.0007    0.0127    0.0100
          30   -0.0178   -0.0051    0.0070    0.0227    0.0233    0.0007   -0.0101   -0.0217
          31   -0.0171    0.0466    0.0020   -0.0108   -0.0086    0.0055    0.0119   -0.0113
          32    0.0601    0.0218    0.0240   -0.0002    0.0021   -0.0029   -0.0053    0.0164
          33    0.0374   -0.0045    0.0029   -0.0057   -0.0012    0.0023    0.0041   -0.0110
          34   -0.0006    0.0002    0.0062   -0.0046    0.0135   -0.0055   -0.0139   -0.0004
          35   -0.0131   -0.0001    0.0142    0.0005    0.0116   -0.0073   -0.0280    0.0094
          36   -0.0141    0.0122    0.0232   -0.0083   -0.0007    0.0016   -0.0063    0.0025
          37    0.0003   -0.0108    0.0004    0.0023    0.0085   -0.0032   -0.0065    0.0006
          38   -0.0204    0.0008    0.0014    0.0078    0.0013    0.0035    0.0024   -0.0016
          39   -0.0088   -0.0218   -0.0108   -0.0019   -0.0062    0.0081    0.0173   -0.0210
          40    0.0129   -0.0229   -0.0025    0.0051    0.0070   -0.0079   -0.0134    0.0065
          41   -0.0269   -0.0045    0.0209    0.0070    0.0049    0.0059   -0.0032   -0.0179
          42   -0.0028   -0.0162    0.0132    0.0075   -0.0132   -0.0008    0.0089    0.0156
          43    0.0011   -0.0039    0.0137   -0.0211    0.0080   -0.0042   -0.0031   -0.0018
          44   -0.0140    0.0059    0.0192   -0.0332    0.0057    0.0015    0.0046   -0.0164
          45    0.0264   -0.0317   -0.0067   -0.0580    0.0126   -0.0145   -0.0093   -0.0054
          46    0.0008   -0.0139    0.0241   -0.0575    0.0170   -0.0090   -0.0043   -0.0088
          47   -0.0179   -0.0046    0.0132   -0.0137   -0.0043   -0.0004   -0.0024   -0.0181
          48    0.0317    0.0081   -0.0276    0.0217   -0.0010   -0.0032    0.0022    0.0159
          49    0.0037   -0.0102   -0.0219   -0.0215   -0.0146    0.0018    0.0073    0.0055
          50   -0.0159   -0.0448    0.0535    0.0412    0.0109    0.0077    0.0312   -0.0141
          51   -0.0111    0.0077   -0.0216   -0.0154   -0.0103    0.0049    0.0065   -0.0102
          52   -0.0111   -0.0370    0.0164    0.0371    0.0319    0.0031    0.0039   -0.0182
          53   -0.0127   -0.0202    0.0227    0.0148    0.0007    0.0025    0.0118    0.0009
          54   -0.0114    0.0321   -0.0509   -0.0322   -0.0094   -0.0019   -0.0207    0.0034
          55   -0.0050    0.0343    0.0068    0.0579   -0.0346   -0.0162    0.0031    0.0160
          56    0.0188    0.0232   -0.0344    0.0673   -0.0593   -0.0935   -0.0820   -0.0983
          57    0.0226    0.0238   -0.0249    0.0636   -0.0495   -0.0415   -0.0147    0.0001
          58   -0.0062    0.0338    0.0110    0.0106    0.0738    0.1056    0.0947    0.1002
          59    0.0172    0.0225   -0.0297    0.0147    0.0565    0.0354    0.0139   -0.0133
          60    0.0461    0.0107   -0.0455    0.0191    0.0517    0.0310    0.0230    0.0229
          61   -0.0063    0.0461    0.0028    0.1036   -0.0993   -0.0777   -0.0379   -0.0182
          62    0.0263    0.0293   -0.0415    0.0112    0.1082    0.0841    0.0469    0.0127
          63    0.0206   -0.0152   -0.0082   -0.0207   -0.0016   -0.0088    0.0000    0.0110
          64    0.0154   -0.0230   -0.0040   -0.0096    0.0025   -0.0257    0.0110    0.0014
          65   -0.0093   -0.0246   -0.0218    0.0365   -0.0632    0.1318   -0.0417   -0.0135
          66   -0.0292    0.0373    0.0427   -0.0279    0.0627   -0.0892    0.0014    0.0133
          67    0.0299   -0.0453   -0.0165    0.0193   -0.0806    0.1494   -0.0635   -0.0079
          68   -0.0139   -0.0220   -0.0303    0.0097    0.0010   -0.0641    0.0890   -0.0118
          69   -0.0152    0.0124    0.0219   -0.0113    0.0063   -0.0104   -0.0006    0.0033
          70    0.0154   -0.0198   -0.0022   -0.0248    0.0308   -0.0999    0.0510    0.0043
          71   -0.0132   -0.0144   -0.0167    0.0026    0.0100   -0.0555    0.0568   -0.0055
          72   -0.0083    0.0157    0.0372   -0.0065   -0.0188    0.0928   -0.0935    0.0099
          73   -0.0082    0.0286    0.0037   -0.0061   -0.0023    0.0027    0.0057   -0.0121
          74   -0.0627   -0.0106   -0.0595   -0.0035    0.0190   -0.0246   -0.0566    0.1232
          75   -0.0497    0.0323   -0.0458   -0.0215   -0.0101   -0.0020   -0.0060    0.0457
          76   -0.0011   -0.0140   -0.0165   -0.0099   -0.0076    0.0031    0.0105    0.0039
          77    0.0081   -0.0013    0.0028   -0.0392   -0.0491    0.0002    0.0210    0.0277
          78   -0.0258   -0.0082    0.0153    0.0450    0.0533   -0.0003   -0.0246   -0.0444
          79    0.0048   -0.0060   -0.0140   -0.0145    0.0024   -0.0012   -0.0074   -0.0073
          80    0.0073    0.0177   -0.0109   -0.0421   -0.0177   -0.0017   -0.0052   -0.0103
          81   -0.0161   -0.0340    0.0456    0.0469    0.0103   -0.0030    0.0029    0.0180
          82   -0.0236    0.0739    0.0040   -0.0175   -0.0190    0.0109    0.0245   -0.0174
          83    0.0678    0.0267    0.0159   -0.0038    0.0072   -0.0114   -0.0224    0.0619
          84    0.0404    0.0060   -0.0015   -0.0098   -0.0009   -0.0014   -0.0029    0.0150
          85   -0.0180    0.0414    0.0001   -0.0098   -0.0065    0.0041    0.0088   -0.0079
          86    0.1148    0.0362    0.0691    0.0028   -0.0093    0.0124    0.0297   -0.0609
          87    0.0775   -0.0279    0.0278    0.0038    0.0035    0.0058    0.0119   -0.0531


   Root No.       9        10        11        12        13        14        15        16

                 9 A      10 A      11 A      12 A      13 A      14 A      15 A      16 A   

                 331.4     352.1     366.8     398.5     406.8     464.4     505.3     579.3
  
           1   -0.0107   -0.0039    0.0132   -0.0271   -0.0232   -0.0016   -0.0128    0.0032
           2   -0.0129    0.0001   -0.0105   -0.0105    0.0053    0.0135   -0.0139    0.0262
           3    0.0013   -0.0015   -0.0115   -0.0079    0.0002    0.0285    0.0408   -0.0069
           4   -0.0113   -0.0025    0.0104   -0.0253   -0.0267   -0.0026   -0.0126    0.0026
           5   -0.0032   -0.0096   -0.0044   -0.0023    0.0037   -0.0275    0.0071    0.0244
           6   -0.0079   -0.0115   -0.0062    0.0114    0.0008   -0.0048    0.0200   -0.0267
           7   -0.0127   -0.0045    0.0258    0.0055    0.0120   -0.0024   -0.0014   -0.0311
           8   -0.0124    0.0034   -0.0116    0.0044    0.0204    0.0197   -0.0203    0.0027
           9    0.0151    0.0024   -0.0101   -0.0065   -0.0073    0.0006   -0.0196   -0.0033
          10    0.0033    0.0341    0.0055    0.0294   -0.0185    0.0260   -0.0075   -0.0186
          11    0.0032    0.0105   -0.0045    0.0227    0.0082   -0.0216    0.0119    0.0336
          12   -0.0065    0.0292   -0.0002    0.0060    0.0049   -0.0117   -0.0042    0.0156
          13    0.0085   -0.0001   -0.0150    0.0178    0.0042   -0.0198    0.0054   -0.0053
          14    0.0289    0.0087    0.0131   -0.0126    0.0049    0.0079   -0.0247   -0.0109
          15   -0.0167   -0.0030   -0.0161    0.0018    0.0094    0.0078   -0.0252   -0.0185
          16    0.0196   -0.0220   -0.0311   -0.0210    0.0234    0.0262    0.0066    0.0094
          17   -0.0247    0.0196    0.0097   -0.0096   -0.0221    0.0224    0.0232    0.0099
          18   -0.0071   -0.0056   -0.0063   -0.0148   -0.0054    0.0203    0.0122    0.0098
          19   -0.0074    0.0112   -0.0039    0.0029    0.0099   -0.0037   -0.0043    0.0038
          20    0.0143   -0.0208    0.0020    0.0145   -0.0141    0.0148    0.0078   -0.0092
          21   -0.0055    0.0155   -0.0001   -0.0031    0.0039   -0.0089   -0.0060    0.0123
          22   -0.0087   -0.0009   -0.0165   -0.0075   -0.0074   -0.0173    0.0240    0.0151
          23   -0.0089    0.0045    0.0090   -0.0244    0.0108   -0.0247    0.0062   -0.0264
          24   -0.0058   -0.0314    0.0009    0.0254   -0.0216   -0.0083   -0.0038    0.0055
          25   -0.0049   -0.0083    0.0476    0.0068    0.0267    0.0104    0.0067    0.0104
          26    0.0077    0.0021    0.0032    0.0048    0.0082    0.0075   -0.0062   -0.0042
          27    0.0310   -0.0007    0.0064   -0.0071   -0.0123   -0.0048   -0.0139    0.0117
          28    0.0017   -0.0085   -0.0188    0.0211    0.0007   -0.0173    0.0043   -0.0021
          29   -0.0023   -0.0266    0.0136    0.0107   -0.0048   -0.0152   -0.0137   -0.0219
          30   -0.0056    0.0148   -0.0077   -0.0074    0.0174   -0.0237    0.0037   -0.0330
          31    0.0123    0.0001   -0.0008   -0.0039   -0.0057   -0.0030   -0.0029    0.0069
          32    0.0022    0.0048   -0.0237   -0.0005   -0.0098   -0.0040    0.0050   -0.0104
          33    0.0108   -0.0089    0.0471    0.0011    0.0131    0.0029    0.0018    0.0167
          34   -0.0131    0.0024    0.0145   -0.0437   -0.0333   -0.0105   -0.0253    0.0328
          35   -0.0169   -0.0051   -0.0101   -0.0117    0.0104    0.0302   -0.0073    0.0245
          36   -0.0024   -0.0024   -0.0105   -0.0148   -0.0009    0.0329    0.0384    0.0035
          37   -0.0109   -0.0040    0.0234    0.0037    0.0090   -0.0040   -0.0038   -0.0312
          38   -0.0133    0.0034   -0.0189    0.0291    0.0441    0.0171   -0.0088   -0.0011
          39    0.0244    0.0059   -0.0322   -0.0011   -0.0167   -0.0182   -0.0312   -0.0095
          40   -0.0201   -0.0112    0.0195   -0.0315   -0.0364   -0.0173   -0.0477    0.0128
          41    0.0021   -0.0389   -0.0046    0.0217   -0.0096   -0.0260    0.0154    0.0182
          42   -0.0097   -0.0224   -0.0026    0.0151   -0.0072   -0.0098    0.0091   -0.0244
          43    0.0053    0.0418    0.0054    0.0374   -0.0196    0.0306   -0.0084   -0.0172
          44    0.0156    0.0549   -0.0130    0.0799    0.0215    0.0032    0.0153    0.0388
          45    0.0038    0.0674    0.0038    0.0418   -0.0091    0.0122   -0.0110    0.0190
          46    0.0198    0.0803   -0.0011    0.0843   -0.0149    0.0569   -0.0100   -0.0120
          47   -0.0065   -0.0015   -0.0003    0.0083    0.0020   -0.0365    0.0182    0.0264
          48   -0.0067    0.0133   -0.0004   -0.0118    0.0080   -0.0144   -0.0090    0.0185
          49   -0.0084   -0.0295   -0.0298    0.0429   -0.0109   -0.0117   -0.0101    0.0174
          50    0.1078    0.0525    0.0329   -0.0553   -0.0020   -0.0122   -0.0153   -0.0174
          51   -0.0005   -0.0060   -0.0186    0.0027   -0.0021    0.0060   -0.0314   -0.0068
          52    0.0533    0.0455   -0.0167   -0.0149    0.0146   -0.0224    0.0171   -0.0033
          53    0.0318    0.0152    0.0101   -0.0160    0.0080    0.0099   -0.0234   -0.0088
          54   -0.0813   -0.0320   -0.0440    0.0356    0.0186    0.0335   -0.0359   -0.0032
          55   -0.0043    0.0090   -0.0038    0.0019    0.0099   -0.0041   -0.0031    0.0041
          56    0.0367   -0.0183    0.0086    0.0318   -0.0340    0.0442    0.0063   -0.0429
          57   -0.0034    0.0010   -0.0040   -0.0189    0.0165   -0.0282    0.0022    0.0320
          58   -0.0317    0.0006   -0.0120   -0.0202    0.0336   -0.0322   -0.0046    0.0342
          59    0.0094   -0.0280    0.0009    0.0084   -0.0121    0.0151    0.0070   -0.0123
          60   -0.0016   -0.0120    0.0048   -0.0096   -0.0161    0.0300   -0.0116   -0.0452
          61    0.0058    0.0039   -0.0035    0.0013    0.0100   -0.0044    0.0000    0.0030
          62    0.0045   -0.0487    0.0011   -0.0037   -0.0156    0.0275    0.0050   -0.0366
          63   -0.0074    0.0423    0.0003    0.0126    0.0047   -0.0177   -0.0069    0.0340
          64    0.0215   -0.0286   -0.0366   -0.0234    0.0292    0.0278    0.0040    0.0115
          65   -0.0443    0.0537    0.0494   -0.0021   -0.0645    0.0038    0.0246    0.0018
          66   -0.0286   -0.0146    0.0135   -0.0301   -0.0294   -0.0064   -0.0190    0.0171
          67    0.0307    0.0006   -0.0316   -0.0041    0.0275    0.0403    0.0281    0.0035
          68   -0.0246    0.0157    0.0056   -0.0160   -0.0250    0.0412    0.0690   -0.0059
          69   -0.0050   -0.0040   -0.0085   -0.0151   -0.0061    0.0318    0.0386    0.0006
          70    0.0365   -0.0447   -0.0632   -0.0213    0.0582    0.0432    0.0050    0.0164
          71   -0.0170    0.0079   -0.0059   -0.0103   -0.0058    0.0311    0.0249    0.0125
          72    0.0042    0.0021   -0.0137    0.0008    0.0116    0.0143   -0.0243    0.0257
          73   -0.0026   -0.0071    0.0408    0.0047    0.0227    0.0097    0.0033    0.0152
          74    0.0489   -0.0009    0.0417    0.0098   -0.0016   -0.0100    0.0502   -0.0211
          75    0.0737    0.0021    0.0082   -0.0129   -0.0365   -0.0195    0.0152    0.0260
          76    0.0098   -0.0099   -0.0211    0.0317    0.0057    0.0023   -0.0202   -0.0151
          77   -0.0140   -0.0577    0.0171    0.0280   -0.0222   -0.0110   -0.0107   -0.0310
          78    0.0017    0.0497   -0.0099   -0.0343    0.0323   -0.0419    0.0172   -0.0143
          79   -0.0113    0.0067   -0.0192   -0.0147    0.0016   -0.0192    0.0311   -0.0059
          80   -0.0214    0.0238    0.0152   -0.0612    0.0187   -0.0186    0.0184   -0.0779
          81    0.0018   -0.0568    0.0169    0.0440   -0.0603    0.0044   -0.0341    0.0803
          82    0.0321    0.0122   -0.0738   -0.0193   -0.0541   -0.0244   -0.0214   -0.0085
          83    0.0363    0.0017    0.0126    0.0012   -0.0265   -0.0300    0.0928   -0.0252
          84    0.0370   -0.0077    0.0506   -0.0020   -0.0097   -0.0184    0.0505    0.0046
          85    0.0107   -0.0021    0.0132   -0.0013    0.0020   -0.0002    0.0020    0.0098
          86   -0.0384    0.0111   -0.0916   -0.0081   -0.0139    0.0080   -0.0711   -0.0077
          87   -0.0360   -0.0192    0.0906    0.0134    0.0662    0.0350   -0.0273    0.0411


   Root No.      17        18        19        20        21        22        23        24

                17 A      18 A      19 A      20 A      21 A      22 A      23 A      24 A   

                 646.8     693.5     747.9     804.0     848.9     867.3     903.8     915.0
  
           1    0.0108   -0.0100   -0.0133   -0.0078    0.0080    0.0044   -0.0005   -0.0184
           2   -0.0033    0.0308    0.0039   -0.0229    0.0018    0.0112   -0.0139    0.0036
           3    0.0061   -0.0220    0.0023    0.0152   -0.0040   -0.0084    0.0091    0.0061
           4   -0.0040    0.0052    0.0039    0.0142   -0.0079   -0.0106    0.0146    0.0108
           5    0.0020   -0.0032   -0.0026    0.0041   -0.0034   -0.0079    0.0041    0.0099
           6   -0.0338    0.0167   -0.0005    0.0103    0.0151    0.0192   -0.0153   -0.0240
           7    0.0232   -0.0290   -0.0222    0.0146    0.0174    0.0236   -0.0155    0.0157
           8   -0.0022    0.0195    0.0037    0.0110    0.0013    0.0026    0.0081    0.0085
           9    0.0061    0.0017   -0.0057    0.0124    0.0027   -0.0043   -0.0036   -0.0045
          10   -0.0089    0.0111    0.0140    0.0073   -0.0266    0.0047   -0.0003    0.0031
          11    0.0080   -0.0145   -0.0222    0.0132   -0.0055    0.0112    0.0010   -0.0084
          12    0.0042   -0.0020   -0.0027    0.0044   -0.0073    0.0050   -0.0012   -0.0029
          13    0.0059   -0.0049    0.0117   -0.0192   -0.0067    0.0039    0.0073   -0.0017
          14    0.0131    0.0060    0.0019    0.0270    0.0120    0.0072    0.0319   -0.0083
          15    0.0152    0.0090   -0.0253    0.0217   -0.0020   -0.0190   -0.0232   -0.0040
          16    0.0095   -0.0048   -0.0031   -0.0114    0.0003    0.0054   -0.0061   -0.0146
          17    0.0059   -0.0018    0.0003   -0.0186   -0.0008    0.0070   -0.0119   -0.0025
          18    0.0070   -0.0070   -0.0006   -0.0141   -0.0042    0.0006   -0.0017    0.0002
          19   -0.0011    0.0039    0.0018   -0.0008   -0.0047    0.0041   -0.0040   -0.0001
          20   -0.0036   -0.0016   -0.0050    0.0052   -0.0028    0.0071   -0.0003   -0.0083
          21    0.0066   -0.0027    0.0001   -0.0010   -0.0047   -0.0048    0.0039    0.0067
          22   -0.0357    0.0184    0.0041    0.0344    0.0176   -0.0075   -0.0033    0.0111
          23   -0.0068    0.0012    0.0247    0.0010    0.0027   -0.0077   -0.0138    0.0074
          24   -0.0090    0.0063   -0.0125   -0.0042   -0.0003   -0.0028    0.0180    0.0053
          25   -0.0056    0.0051    0.0006    0.0021   -0.0037   -0.0080   -0.0009   -0.0008
          26   -0.0281   -0.0312    0.0005    0.0026   -0.0026   -0.0076   -0.0025   -0.0017
          27   -0.0184   -0.0120    0.0079   -0.0090    0.0044    0.0136    0.0019    0.0071
          28    0.0040   -0.0008    0.0090   -0.0140   -0.0068   -0.0075   -0.0035   -0.0042
          29    0.0146   -0.0085    0.0226   -0.0183   -0.0059   -0.0087   -0.0096   -0.0009
          30    0.0053    0.0003    0.0036   -0.0310   -0.0137   -0.0064    0.0118    0.0068
          31   -0.0023    0.0034    0.0027   -0.0029   -0.0024   -0.0052    0.0029   -0.0097
          32    0.0055   -0.0039   -0.0034    0.0041   -0.0026   -0.0092    0.0000   -0.0092
          33   -0.0051    0.0082    0.0066   -0.0075    0.0042    0.0156    0.0010    0.0159
          34    0.0308   -0.0180   -0.0163   -0.0245    0.0015   -0.0284    0.0285   -0.0048
          35   -0.0043    0.0282    0.0083   -0.0345   -0.0056    0.0175   -0.0098    0.0264
          36    0.0127   -0.0260    0.0025    0.0009   -0.0087   -0.0149    0.0192    0.0206
          37    0.0245   -0.0303   -0.0232    0.0139    0.0185    0.0237   -0.0147    0.0104
          38   -0.0035    0.0412    0.0212    0.0180   -0.0153   -0.0060    0.0196    0.0475
          39    0.0195    0.0079    0.0063    0.0009    0.0014    0.0016    0.0158   -0.0219
          40   -0.0026    0.0247   -0.0069   -0.0159   -0.0031   -0.0104    0.0263   -0.0002
          41   -0.0081   -0.0062   -0.0314    0.0076   -0.0044   -0.0085    0.0290    0.0097
          42   -0.0358    0.0228   -0.0108    0.0013    0.0158    0.0180   -0.0038   -0.0266
          43   -0.0074    0.0111    0.0120   -0.0029   -0.0032   -0.0062    0.0031    0.0058
          44    0.0133   -0.0132   -0.0379   -0.0448    0.0961   -0.0067   -0.0158   -0.0193
          45    0.0128   -0.0032   -0.0093   -0.0420    0.1043   -0.0582    0.0258    0.0186
          46    0.0006    0.0117    0.0028   -0.0587    0.1036   -0.0474    0.0051    0.0143
          47   -0.0045   -0.0113   -0.0206    0.0338   -0.0137    0.0145    0.0066   -0.0143
          48    0.0106   -0.0048    0.0025    0.0215   -0.0732    0.0306   -0.0094   -0.0027
          49    0.0299   -0.0075    0.0605   -0.0014    0.0034    0.0091    0.0520   -0.0429
          50   -0.0397    0.0091   -0.0772    0.0157   -0.0175   -0.0559   -0.0932   -0.0006
          51    0.0126    0.0085   -0.0215    0.0298   -0.0052   -0.0366   -0.0374   -0.0262
          52   -0.0402    0.0176   -0.0510   -0.0227   -0.0297   -0.0305   -0.0567    0.0148
          53    0.0062    0.0120   -0.0056    0.0301    0.0102    0.0046    0.0300   -0.0054
          54    0.0513    0.0213    0.0333    0.0523    0.0241    0.0272    0.0920   -0.0153
          55    0.0004    0.0017   -0.0005   -0.0067    0.0146   -0.0060    0.0008    0.0019
          56   -0.0180    0.0164    0.0165   -0.0065   -0.0005    0.0035   -0.0127    0.0012
          57    0.0215   -0.0243   -0.0235   -0.0210    0.0847   -0.0497    0.0331    0.0099
          58    0.0108   -0.0090   -0.0178   -0.0057    0.0348   -0.0102    0.0111   -0.0022
          59   -0.0051    0.0007   -0.0025   -0.0010    0.0119   -0.0007    0.0005   -0.0047
          60   -0.0164    0.0270    0.0417   -0.0305    0.0246   -0.0331   -0.0098    0.0327
          61    0.0025   -0.0023   -0.0057   -0.0198    0.0602   -0.0270    0.0096    0.0044
          62   -0.0154    0.0132    0.0128   -0.0197    0.0450   -0.0203   -0.0020    0.0058
          63    0.0130   -0.0096   -0.0081    0.0310   -0.0857    0.0373   -0.0042   -0.0070
          64    0.0094   -0.0005   -0.0022   -0.0137   -0.0002    0.0080   -0.0100   -0.0112
          65    0.0077   -0.0214   -0.0129   -0.0187    0.0118    0.0052   -0.0051   -0.0556
          66    0.0042    0.0084   -0.0186   -0.0423    0.0200    0.0348   -0.0415   -0.0867
          67    0.0131   -0.0207    0.0063    0.0046   -0.0142   -0.0190    0.0222    0.0371
          68    0.0153   -0.0482    0.0021    0.0100   -0.0185   -0.0290    0.0399    0.0205
          69    0.0121   -0.0331    0.0018    0.0033   -0.0156   -0.0215    0.0291    0.0201
          70    0.0084    0.0121    0.0090   -0.0159   -0.0082    0.0044   -0.0113    0.0336
          71    0.0057    0.0039    0.0059   -0.0194   -0.0053    0.0047   -0.0117    0.0208
          72   -0.0014    0.0377    0.0063   -0.0410    0.0026    0.0275   -0.0462    0.0139
          73   -0.0098    0.0094    0.0055   -0.0022   -0.0069   -0.0128    0.0036   -0.0095
          74    0.0114   -0.0300   -0.0067    0.0043    0.0022    0.0089    0.0127    0.0059
          75   -0.0117    0.0138    0.0292   -0.0306   -0.0112   -0.0036    0.0392   -0.0367
          76    0.0245    0.0032   -0.0561   -0.0251   -0.0300   -0.0098    0.0157   -0.0155
          77   -0.0241    0.0146   -0.0902   -0.0654   -0.0420   -0.0286    0.0085    0.0606
          78    0.0324   -0.0268    0.1719    0.0283    0.0416    0.0155   -0.0210   -0.0513
          79   -0.0520    0.0310   -0.0274    0.0142    0.0153    0.0047    0.0341    0.0016
          80   -0.0608    0.0411   -0.0547   -0.0230    0.0086    0.0200    0.0912    0.0026
          81    0.0448   -0.0339    0.0986    0.0811    0.0144   -0.0493   -0.1086    0.0466
          82    0.0099   -0.0146   -0.0007   -0.0138    0.0351    0.0917   -0.0136    0.0954
          83    0.1351    0.1313   -0.0191    0.0243   -0.0036   -0.0218   -0.0069   -0.0174
          84    0.0767    0.0866   -0.0031    0.0013    0.0132    0.0334   -0.0069    0.0381
          85   -0.0022    0.0091    0.0037   -0.0018   -0.0082   -0.0201    0.0058   -0.0267
          86   -0.0703   -0.0966    0.0015   -0.0110    0.0126    0.0377    0.0033    0.0321
          87   -0.0714   -0.0290    0.0182   -0.0117   -0.0279   -0.0584    0.0263   -0.0768


   Root No.      25        26        27        28        29        30        31        32

                25 A      26 A      27 A      28 A      29 A      30 A      31 A      32 A   

                 934.8     974.1     982.3     992.9     997.8    1022.6    1028.4    1036.8
  
           1   -0.0025    0.0065   -0.0082    0.0023   -0.0023   -0.0007    0.0068    0.0067
           2    0.0069   -0.0032    0.0042   -0.0079   -0.0059    0.0039    0.0068    0.0073
           3   -0.0015    0.0018   -0.0015   -0.0009    0.0049   -0.0029   -0.0076   -0.0083
           4   -0.0032   -0.0173    0.0005    0.0032   -0.0012    0.0032   -0.0060   -0.0051
           5    0.0059    0.0224    0.0107    0.0076    0.0022    0.0069    0.0006   -0.0037
           6   -0.0029   -0.0098   -0.0089    0.0063   -0.0020    0.0162    0.0079    0.0020
           7    0.0031   -0.0027    0.0193   -0.0075    0.0119    0.0033    0.0081    0.0054
           8   -0.0043   -0.0040   -0.0068    0.0151    0.0066   -0.0075   -0.0005    0.0031
           9   -0.0028   -0.0044    0.0169    0.0005    0.0147   -0.0044    0.0011    0.0006
          10    0.0025    0.0069    0.0026    0.0055   -0.0002    0.0073   -0.0055   -0.0122
          11   -0.0047   -0.0073   -0.0024    0.0028   -0.0007    0.0105    0.0055    0.0001
          12   -0.0022   -0.0103   -0.0051   -0.0005   -0.0009    0.0064    0.0022   -0.0007
          13   -0.0072   -0.0102    0.0057    0.0121    0.0132    0.0027    0.0023    0.0035
          14    0.0067    0.0139   -0.0123   -0.0175   -0.0017    0.0049    0.0003   -0.0037
          15    0.0126    0.0018   -0.0033    0.0010   -0.0208   -0.0004   -0.0051    0.0024
          16   -0.0010    0.0100   -0.0086    0.0111    0.0090   -0.0098   -0.0080   -0.0028
          17    0.0048   -0.0014    0.0116   -0.0113    0.0052    0.0044   -0.0093   -0.0132
          18   -0.0026   -0.0042    0.0032    0.0020   -0.0042    0.0032    0.0051    0.0041
          19    0.0014    0.0042    0.0007   -0.0027   -0.0002   -0.0037    0.0061    0.0099
          20   -0.0057   -0.0213   -0.0089   -0.0075   -0.0033   -0.0107   -0.0072   -0.0013
          21    0.0050    0.0193    0.0095    0.0040    0.0004   -0.0034   -0.0018   -0.0009
          22    0.0086    0.0121   -0.0062   -0.0200    0.0035   -0.0121   -0.0007    0.0022
          23    0.0011   -0.0026   -0.0090   -0.0005    0.0149    0.0013    0.0023    0.0027
          24   -0.0016    0.0017    0.0142   -0.0056   -0.0108   -0.0195   -0.0060    0.0024
          25    0.0014    0.0014   -0.0018    0.0055   -0.0065   -0.0034   -0.0068   -0.0033
          26   -0.0394    0.0036    0.0011    0.0006   -0.0018   -0.0075    0.0143   -0.0165
          27   -0.0241    0.0020   -0.0020   -0.0027    0.0029   -0.0012    0.0143   -0.0063
          28    0.0033    0.0071   -0.0111   -0.0098   -0.0227   -0.0014   -0.0033   -0.0058
          29   -0.0009   -0.0024    0.0021   -0.0004   -0.0204   -0.0107   -0.0058   -0.0008
          30    0.0006    0.0044   -0.0215   -0.0160    0.0130    0.0020    0.0011   -0.0045
          31   -0.0015   -0.0009    0.0053   -0.0053    0.0075    0.0024    0.0059    0.0017
          32   -0.0127    0.0023    0.0062   -0.0089    0.0058    0.0128   -0.0247    0.0193
          33   -0.0070    0.0043   -0.0093    0.0046   -0.0080    0.0048   -0.0195    0.0095
          34   -0.0058    0.0074   -0.0008    0.0049   -0.0240    0.0018    0.0178    0.0190
          35    0.0030   -0.0140   -0.0202   -0.0074   -0.0487    0.0089    0.0520    0.0583
          36   -0.0046   -0.0036   -0.0110   -0.0007   -0.0243    0.0012    0.0197    0.0217
          37    0.0025   -0.0025    0.0227   -0.0119    0.0146    0.0062    0.0134    0.0079
          38   -0.0088   -0.0381    0.0033    0.1001    0.0573   -0.0450   -0.0506    0.0094
          39   -0.0144   -0.0367    0.0655    0.0208    0.1004   -0.0050    0.0195    0.0362
          40   -0.0274   -0.0797    0.0019    0.0315   -0.0435    0.0547    0.0290    0.0238
          41    0.0267    0.0903    0.0725    0.0657   -0.0219    0.0439   -0.0159   -0.0356
          42   -0.0054   -0.0141    0.0085    0.0318   -0.0233    0.0441    0.0150    0.0031
          43    0.0015    0.0008    0.0004    0.0050   -0.0011    0.0051   -0.0083   -0.0132
          44    0.0022    0.0312    0.0009   -0.0233    0.0042   -0.0468    0.0461    0.0830
          45   -0.0080   -0.0489   -0.0153    0.0059   -0.0063    0.0063   -0.0263   -0.0290
          46    0.0049    0.0069    0.0023   -0.0105   -0.0002   -0.0268   -0.0044    0.0120
          47   -0.0088   -0.0141   -0.0065    0.0422   -0.0034    0.0767    0.0104   -0.0310
          48    0.0011   -0.0010    0.0002   -0.0283    0.0017   -0.0375   -0.0029    0.0154
          49   -0.0202   -0.0174    0.0534    0.0187    0.0167   -0.0061   -0.0010    0.0052
          50    0.0146   -0.0064    0.0176    0.0127   -0.0511   -0.0178   -0.0126    0.0036
          51    0.0075   -0.0093    0.0362    0.0147   -0.0344   -0.0139   -0.0114    0.0063
          52   -0.0043   -0.0340   -0.0163    0.0835    0.0114    0.0126   -0.0018    0.0214
          53    0.0069    0.0108   -0.0211   -0.0031    0.0027    0.0088    0.0002    0.0002
          54    0.0101    0.0189   -0.0467   -0.0014    0.0215    0.0256    0.0034    0.0031
          55   -0.0002   -0.0025   -0.0009    0.0015    0.0001    0.0040    0.0012   -0.0004
          56    0.0078    0.0298    0.0073    0.0060    0.0042    0.0141    0.0253    0.0216
          57   -0.0104   -0.0396   -0.0070    0.0160   -0.0014    0.0186   -0.0425   -0.0621
          58   -0.0122   -0.0557   -0.0184   -0.0056   -0.0071   -0.0031   -0.0264   -0.0275
          59   -0.0043   -0.0169   -0.0072   -0.0015   -0.0016    0.0006   -0.0049   -0.0054
          60    0.0322    0.1263    0.0461    0.0419    0.0195    0.0577    0.0517    0.0230
          61   -0.0051   -0.0253   -0.0075    0.0087    0.0017    0.0213   -0.0116   -0.0256
          62    0.0040    0.0148    0.0035    0.0182    0.0060    0.0379    0.0160   -0.0035
          63    0.0022    0.0129    0.0060   -0.0232   -0.0081   -0.0574   -0.0069    0.0254
          64    0.0018    0.0063   -0.0003    0.0027    0.0103   -0.0052   -0.0106   -0.0086
          65   -0.0087    0.0424   -0.0511    0.0549    0.0206   -0.0406   -0.0158    0.0088
          66    0.0034    0.0535   -0.0362    0.0450    0.0549   -0.0430   -0.0539   -0.0321
          67   -0.0077   -0.0249    0.0121   -0.0087   -0.0312    0.0184    0.0334    0.0262
          68   -0.0217   -0.0092   -0.0279    0.0320   -0.0413   -0.0030    0.0495    0.0586
          69   -0.0172   -0.0140   -0.0131    0.0208   -0.0339    0.0042    0.0413    0.0448
          70    0.0104   -0.0275    0.0459   -0.0440   -0.0066    0.0267    0.0011   -0.0154
          71    0.0087   -0.0187    0.0342   -0.0341   -0.0047    0.0207   -0.0019   -0.0149
          72    0.0255   -0.0226    0.0704   -0.0682    0.0205    0.0309   -0.0328   -0.0584
          73   -0.0113   -0.0004   -0.0048    0.0003   -0.0021   -0.0007    0.0014   -0.0009
          74    0.2847   -0.0240    0.0057    0.0208   -0.0043    0.0059   -0.0631    0.0320
          75    0.1678   -0.0300   -0.0146   -0.0150    0.0240    0.0235   -0.0047    0.0448
          76    0.0159    0.0214   -0.0605   -0.0155   -0.0333    0.0637    0.0030   -0.0270
          77    0.0010    0.0021   -0.0384   -0.0280    0.0859   -0.0207    0.0057    0.0065
          78   -0.0101   -0.0110    0.0565    0.0175   -0.0946   -0.0345   -0.0164    0.0030
          79    0.0032    0.0155    0.0164   -0.0196   -0.0217   -0.0233   -0.0063    0.0000
          80   -0.0219   -0.0410    0.0763    0.0237   -0.0026   -0.0483   -0.0163    0.0231
          81    0.0147   -0.0296   -0.0566   -0.0003    0.0935    0.0131    0.0119    0.0197
          82    0.0058    0.0108   -0.0384    0.0379   -0.0439   -0.0115   -0.0249   -0.0067
          83    0.0142   -0.0166    0.0104    0.0149    0.0096   -0.0468    0.1129   -0.0695
          84    0.0112   -0.0043   -0.0187    0.0302   -0.0189   -0.0348    0.0568   -0.0465
          85   -0.0111   -0.0017    0.0126   -0.0139    0.0170    0.0076    0.0075    0.0075
          86    0.2042   -0.0231   -0.0171    0.0377   -0.0222   -0.0475    0.0746   -0.0645
          87    0.1117   -0.0240    0.0233   -0.0192    0.0377   -0.0091    0.0771   -0.0215


   Root No.      33        34        35        36        37        38        39        40

                33 A      34 A      35 A      36 A      37 A      38 A      39 A      40 A   

                1061.1    1071.2    1087.1    1097.8    1135.0    1139.5    1151.6    1155.3
  
           1   -0.0030    0.0010    0.0016   -0.0093   -0.0114   -0.0095   -0.0096   -0.0105
           2    0.0028   -0.0009   -0.0120   -0.0162    0.0019    0.0036    0.0033   -0.0019
           3    0.0011   -0.0055    0.0088   -0.0068    0.0200   -0.0223   -0.0196    0.0015
           4    0.0022   -0.0008    0.0081    0.0072    0.0119   -0.0115    0.0083   -0.0023
           5    0.0004   -0.0006   -0.0010    0.0020    0.0032    0.0122   -0.0081    0.0071
           6   -0.0039    0.0104   -0.0042   -0.0046   -0.0061   -0.0081   -0.0026   -0.0080
           7   -0.0055   -0.0098   -0.0123   -0.0017    0.0088    0.0065    0.0079    0.0078
           8   -0.0058   -0.0070   -0.0073   -0.0010   -0.0047   -0.0034   -0.0026   -0.0055
           9    0.0006   -0.0025   -0.0083    0.0057   -0.0055   -0.0034   -0.0113   -0.0066
          10    0.0013   -0.0062   -0.0111   -0.0146   -0.0172   -0.0052    0.0079    0.0069
          11    0.0152   -0.0142    0.0057    0.0035   -0.0032   -0.0096    0.0050   -0.0035
          12    0.0154   -0.0126    0.0013    0.0054   -0.0025    0.0124   -0.0140    0.0268
          13    0.0004    0.0059    0.0120   -0.0106    0.0014    0.0039    0.0011    0.0009
          14    0.0036    0.0070    0.0044    0.0035   -0.0017    0.0052    0.0014    0.0014
          15    0.0005   -0.0017    0.0059   -0.0022    0.0017    0.0037    0.0055    0.0026
          16    0.0040   -0.0033   -0.0032    0.0043    0.0044    0.0064    0.0051    0.0043
          17   -0.0016    0.0021    0.0106    0.0076   -0.0005   -0.0016    0.0002   -0.0006
          18   -0.0013    0.0052   -0.0013    0.0166   -0.0167    0.0223    0.0183   -0.0051
          19    0.0014    0.0028    0.0052    0.0118    0.0195    0.0147   -0.0113   -0.0084
          20   -0.0123    0.0114   -0.0048   -0.0017    0.0029    0.0038   -0.0036   -0.0054
          21   -0.0144    0.0105   -0.0036   -0.0074    0.0023   -0.0119    0.0173   -0.0277
          22    0.0015   -0.0006   -0.0072    0.0051   -0.0052    0.0045    0.0009    0.0019
          23   -0.0043    0.0114    0.0028   -0.0029   -0.0019    0.0017   -0.0003    0.0025
          24    0.0065   -0.0181    0.0060   -0.0023   -0.0010    0.0051    0.0020   -0.0015
          25    0.0093    0.0094    0.0058    0.0027   -0.0080   -0.0026   -0.0079   -0.0073
          26    0.0036    0.0054    0.0055    0.0032   -0.0015   -0.0028   -0.0028   -0.0019
          27   -0.0078   -0.0058   -0.0023   -0.0012    0.0071    0.0011    0.0051    0.0068
[...]
 T-DIPOLE    0.0269        C  2 --  C  8          +12.0% ( 50.1%)    97.9%
 TRAVEL      0.0753        C  1 --  C  2           +7.6% ( 39.8%)    32.2%
 RED. MASS   0.9443        C  8 --  C 10           +6.3% ( 36.2%)     0.0%
 EFF. MASS   8.2834

 VIBRATION   62   62A       ATOM PAIR        ENERGY CONTRIBUTION    RADIAL
 FREQ.      1858.98        C  9 --  C 11          +45.5% ( 99.5%)    99.0%
 T-DIPOLE    0.1404        C  3 --  C  9          +16.4% ( 59.8%)    53.0%
 TRAVEL      0.0555        C  9 --  H 25          +15.3% ( 57.7%)     4.3%
 RED. MASS   5.3027        C 11 --  H 29          +11.1% ( 49.2%)    12.2%
 EFF. MASS  11.7962        C 11 --  H 28          +10.9% ( 48.8%)    12.8%

 VIBRATION   63   63A       ATOM PAIR        ENERGY CONTRIBUTION    RADIAL
 FREQ.      1884.49        C  8 --  C 10          +44.3% ( 98.2%)   100.0%
 T-DIPOLE    0.1207        C  2 --  C  8          +14.3% ( 55.7%)    52.0%
 TRAVEL      0.0549        C  5 --  C 10          +14.2% ( 55.6%)    52.8%
 RED. MASS   5.4255        C  8 --  H 27          +13.2% ( 53.5%)     4.7%
 EFF. MASS  11.8812        C 10 --  H 26          +13.1% ( 53.3%)     4.5%

 VIBRATION   64   64A       ATOM PAIR        ENERGY CONTRIBUTION    RADIAL
 FREQ.      2802.04        C  1 --  H 12          +95.4% ( 99.3%)   100.0%
 T-DIPOLE    0.1085        C  1 --  C  2           +1.1% ( 10.5%)     7.4%
 TRAVEL      0.1293        C  1 --  C  6           +1.0% ( 10.3%)     9.1%
 RED. MASS   0.9038        C  1 --  C  3           +1.0% ( 10.3%)     6.9%
 EFF. MASS   1.4386

 VIBRATION   65   65A       ATOM PAIR        ENERGY CONTRIBUTION    RADIAL
 FREQ.      2847.89        C  2 --  H 14          +96.0% ( 99.4%)   100.0%
 T-DIPOLE    0.0674        C  2 --  C  4           +1.0% ( 10.2%)     7.8%
 TRAVEL      0.1284        C  2 --  C  8           +1.0% ( 10.2%)     7.1%
 RED. MASS   0.9102        C  1 --  C  2           +1.0% ( 10.1%)     9.7%
 EFF. MASS   1.4365

 VIBRATION   66   66A       ATOM PAIR        ENERGY CONTRIBUTION    RADIAL
 FREQ.      2858.72        C  3 --  H 13          +95.9% ( 99.6%)   100.0%
 T-DIPOLE    0.0290        C  3 --  C  9           +1.1% ( 10.7%)    10.8%
 TRAVEL      0.1274        C  3 --  C  5           +1.1% ( 10.6%)     8.3%
 RED. MASS   0.9144        C  1 --  C  3           +1.1% ( 10.6%)     9.6%
 EFF. MASS   1.4523

 VIBRATION   67   67A       ATOM PAIR        ENERGY CONTRIBUTION    RADIAL
 FREQ.      2918.45        C  4 --  H 16          +81.7% ( 93.2%)    99.2%
 T-DIPOLE    0.0473        C  4 --  H 15          +14.8% ( 39.6%)    86.1%
 TRAVEL      0.1239        C  4 --  C  7           +1.1% ( 10.9%)     2.2%
 RED. MASS   0.7218        C  2 --  C  4           +1.1% ( 10.8%)     1.7%
 EFF. MASS   1.5054

 VIBRATION   68   68A       ATOM PAIR        ENERGY CONTRIBUTION    RADIAL
 FREQ.      2946.61        C  5 --  H 17          +57.9% ( 79.0%)    97.4%
 T-DIPOLE    0.0307        C  5 --  H 18          +39.7% ( 65.4%)    95.4%
 TRAVEL      0.1219        C  5 --  C 10           +1.1% ( 11.1%)     0.0%
 RED. MASS   0.5342        C  3 --  C  5           +1.1% ( 11.1%)     0.2%
 EFF. MASS   1.5409

 VIBRATION   69   69A       ATOM PAIR        ENERGY CONTRIBUTION    RADIAL
 FREQ.      3015.60        C  4 --  H 15          +81.8% ( 90.3%)    99.8%
 T-DIPOLE    0.0481        C  4 --  H 16          +11.5% ( 33.9%)    78.7%
 TRAVEL      0.1297        C  6 --  H 24           +2.5% ( 15.7%)    99.6%
 RED. MASS   0.6582        C  7 --  H 19           +1.7% ( 13.0%)    98.6%
 EFF. MASS   1.3301

 VIBRATION   70   70A       ATOM PAIR        ENERGY CONTRIBUTION    RADIAL
 FREQ.      3023.80        C  5 --  H 18          +57.8% ( 75.1%)    98.6%
 T-DIPOLE    0.0601        C  5 --  H 17          +38.4% ( 61.2%)    96.2%
 TRAVEL      0.1318        C 10 --  H 26           +2.3% ( 15.0%)   100.0%
 RED. MASS   0.4784        C  5 --  C 10           +0.7% (  8.0%)    15.7%
 EFF. MASS   1.2843

 VIBRATION   71   71A       ATOM PAIR        ENERGY CONTRIBUTION    RADIAL
 FREQ.      3038.11        C  9 --  H 25          +96.2% ( 99.5%)   100.0%
 T-DIPOLE    0.2519        C  9 --  C 11           +1.4% ( 12.1%)    31.4%
 TRAVEL      0.1215        C  3 --  C  9           +1.3% ( 11.7%)    13.9%
 RED. MASS   0.9114        C 11 --  H 28           +0.9% (  9.4%)    94.8%
 EFF. MASS   1.5030

 VIBRATION   72   72A       ATOM PAIR        ENERGY CONTRIBUTION    RADIAL
 FREQ.      3039.82        C  8 --  H 27          +62.1% ( 79.9%)   100.0%
 T-DIPOLE    0.2860        C 10 --  H 26          +33.4% ( 58.6%)   100.0%
 TRAVEL      0.1234        C  8 --  C 10           +1.1% ( 10.5%)     1.5%
 RED. MASS   0.4844        C  7 --  H 19           +0.8% (  9.3%)    99.2%
 EFF. MASS   1.4561

 VIBRATION   73   73A       ATOM PAIR        ENERGY CONTRIBUTION    RADIAL
 FREQ.      3042.40        C  7 --  H 19          +78.3% ( 90.9%)    99.4%
 T-DIPOLE    0.0245        C  7 --  H 21          +13.4% ( 37.6%)    84.0%
 TRAVEL      0.1224        C  7 --  H 20           +4.0% ( 20.5%)    54.1%
 RED. MASS   0.6514        C  4 --  H 15           +1.8% ( 13.7%)    99.9%
 EFF. MASS   1.4797

 VIBRATION   74   74A       ATOM PAIR        ENERGY CONTRIBUTION    RADIAL
 FREQ.      3043.76        C  6 --  H 24          +77.6% ( 90.3%)    99.4%
 T-DIPOLE    0.0655        C  6 --  H 23          +13.9% ( 38.2%)    84.7%
 TRAVEL      0.1222        C  6 --  H 22           +3.9% ( 20.2%)    52.6%
 RED. MASS   0.6408        C  4 --  H 16           +1.9% ( 14.1%)    98.3%
 EFF. MASS   1.4831

 VIBRATION   75   75A       ATOM PAIR        ENERGY CONTRIBUTION    RADIAL
 FREQ.      3060.82        C 10 --  H 26          +61.0% ( 79.2%)    99.9%
 T-DIPOLE    0.2788        C  8 --  H 27          +34.3% ( 59.4%)    99.9%
 TRAVEL      0.1180        C  8 --  C 10           +2.0% ( 14.3%)    96.7%
 RED. MASS   0.4901        C  5 --  C 10           +1.0% ( 10.1%)    17.2%
 EFF. MASS   1.5819

 VIBRATION   76   76A       ATOM PAIR        ENERGY CONTRIBUTION    RADIAL
 FREQ.      3079.77        C  6 --  H 23          +49.8% ( 72.8%)    96.7%
 T-DIPOLE    0.0392        C  6 --  H 22          +45.9% ( 69.9%)    97.2%
 TRAVEL      0.1206        C  6 --  H 24           +3.2% ( 18.3%)    35.7%
 RED. MASS   0.4905        C  1 --  C  6           +1.0% ( 10.4%)     0.2%
 EFF. MASS   1.5053

 VIBRATION   77   77A       ATOM PAIR        ENERGY CONTRIBUTION    RADIAL
 FREQ.      3086.46        C  7 --  H 20          +48.1% ( 71.5%)    97.4%
 T-DIPOLE    0.0161        C  7 --  H 21          +48.0% ( 71.4%)    96.6%
 TRAVEL      0.1204        C  7 --  H 19           +2.7% ( 17.1%)    31.7%
 RED. MASS   0.4923        C  4 --  C  7           +1.0% ( 10.4%)     0.0%
 EFF. MASS   1.5071

 VIBRATION   78   78A       ATOM PAIR        ENERGY CONTRIBUTION    RADIAL
 FREQ.      3133.96        C 11 --  H 29          +91.3% ( 97.3%)    99.7%
 T-DIPOLE    0.1904        C 11 --  H 28           +7.3% ( 27.6%)    72.9%
 TRAVEL      0.1182        C  9 --  C 11           +1.3% ( 11.7%)    21.5%
 RED. MASS   0.8467
 EFF. MASS   1.5410

 VIBRATION   79   79A       ATOM PAIR        ENERGY CONTRIBUTION    RADIAL
 FREQ.      3146.90        C 11 --  H 28          +91.4% ( 96.2%)    99.7%
 T-DIPOLE    0.2539        C 11 --  H 29           +6.3% ( 25.2%)    46.4%
 TRAVEL      0.1210        C  9 --  C 11           +1.6% ( 12.7%)    73.9%
 RED. MASS   0.8117        C  9 --  H 25           +0.7% (  8.6%)    94.4%
 EFF. MASS   1.4628

 VIBRATION   80   80A       ATOM PAIR        ENERGY CONTRIBUTION    RADIAL
 FREQ.      3160.97        C  6 --  H 22          +51.3% ( 69.3%)    98.7%
 T-DIPOLE    0.0275        C  6 --  H 23          +35.4% ( 57.5%)    96.8%
 TRAVEL      0.1358        C  6 --  H 24          +13.0% ( 34.9%)    87.5%
 RED. MASS   0.3887        C  1 --  C  6           +0.3% (  5.5%)    80.0%
 EFF. MASS   1.1573

 VIBRATION   81   81A       ATOM PAIR        ENERGY CONTRIBUTION    RADIAL
 FREQ.      3166.34        C  7 --  H 20          +48.5% ( 67.4%)    98.5%
 T-DIPOLE    0.0172        C  7 --  H 21          +37.7% ( 59.4%)    97.2%
 TRAVEL      0.1357        C  7 --  H 19          +13.4% ( 35.4%)    88.4%
 RED. MASS   0.3811        C  4 --  C  7           +0.3% (  5.5%)    83.1%
 EFF. MASS   1.1562

 SYMMETRY NUMBER FOR POINT-GROUP C1  =  1


          SYSTEM IS A GROUND STATE


    NULL



          MOLECULE IS NOT LINEAR

          THERE ARE 81 GENUINE VIBRATIONS IN THIS SYSTEM
          THIS THERMODYNAMICS CALCULATION IS LIMITED TO
          MOLECULES WHICH HAVE NO INTERNAL ROTATIONS




                    CALCULATED THERMODYNAMIC PROPERTIES
                                          *
   TEMP. (K)   PARTITION FUNCTION   H.O.F.    ENTHALPY  HEAT CAPACITY ENTROPY
                                   KCAL/MOL   CAL/MOLE    CAL/K/MOL  CAL/K/MOL


 298.00  VIB.     0.1127D+04                  5421.0048    39.5793    32.1562
         ROT.     0.8717D+06                   888.2813     2.9808    30.1623
         INT.     0.9825D+09                  6309.2861    42.5601    62.3185
         TRA.     0.1781D+28                  1480.4688     4.9680    40.9296
         TOT.                        1.433    7789.7550    47.5281   103.2481

 200.00  VIB.     0.6070D+02                  2293.5758    24.6754    19.6273
         ROT.     0.4793D+06                   596.1620     2.9808    28.9737
         INT.     0.2909D+08                  2889.7378    27.6562    48.6009
         TRA.     0.9791D+27                   993.6033     4.9680    38.9485
         TOT.                       -2.473    3883.3410    32.6242    87.5494

 210.00  VIB.     0.8109D+02                  2547.2547    26.0658    20.8647
         ROT.     0.5157D+06                   625.9700     2.9808    29.1191
         INT.     0.4182D+08                  3173.2247    29.0466    49.9838
         TRA.     0.1053D+28                  1043.2834     4.9680    39.1909
         TOT.                       -2.140    4216.5081    34.0146    89.1747

 220.00  VIB.     0.1086D+03                  2815.0010    27.4891    22.1100
         ROT.     0.5530D+06                   655.7781     2.9808    29.2578
         INT.     0.6003D+08                  3470.7791    30.4699    51.3678
         TRA.     0.1130D+28                  1092.9636     4.9680    39.4220
         TOT.                       -1.793    4563.7427    35.4379    90.7897

 230.00  VIB.     0.1456D+03                  3097.1475    28.9458    23.3639
         ROT.     0.5911D+06                   685.5862     2.9808    29.3903
         INT.     0.8607D+08                  3782.7337    31.9266    52.7542
         TRA.     0.1207D+28                  1142.6437     4.9680    39.6428
         TOT.                       -1.431    4925.3774    36.8946    92.3970

 240.00  VIB.     0.1957D+03                  3394.0254    30.4351    24.6272
         ROT.     0.6301D+06                   715.3943     2.9808    29.5171
         INT.     0.1233D+09                  4109.4198    33.4159    54.1443
         TRA.     0.1287D+28                  1192.3239     4.9680    39.8543
         TOT.                       -1.055    5301.7437    38.3840    93.9986

 250.00  VIB.     0.2635D+03                  3705.9527    31.9553    25.9004
         ROT.     0.6698D+06                   745.2024     2.9808    29.6388
         INT.     0.1765D+09                  4451.1552    34.9361    55.5392
         TRA.     0.1368D+28                  1242.0041     4.9680    40.0571
         TOT.                       -0.664    5693.1592    39.9041    95.5962

 260.00  VIB.     0.3554D+03                  4033.2243    33.5035    27.1837
         ROT.     0.7104D+06                   775.0105     2.9808    29.7557
         INT.     0.2525D+09                  4808.2348    36.4843    56.9395
         TRA.     0.1451D+28                  1291.6842     4.9680    40.2519
         TOT.                       -0.257    6099.9191    41.4523    97.1914

 270.00  VIB.     0.4803D+03                  4376.1046    35.0764    28.4776
         ROT.     0.7518D+06                   804.8186     2.9808    29.8682
         INT.     0.3611D+09                  5180.9232    38.0572    58.3458
         TRA.     0.1536D+28                  1341.3644     4.9680    40.4394
         TOT.                        0.166    6522.2876    43.0252    98.7852

 280.00  VIB.     0.6503D+03                  4734.8225    36.6703    29.7820
         ROT.     0.7940D+06                   834.6267     2.9808    29.9766
         INT.     0.5163D+09                  5569.4493    39.6511    59.7586
         TRA.     0.1622D+28                  1391.0445     4.9680    40.6201
         TOT.                        0.604    6960.4938    44.6192   100.3787

 290.00  VIB.     0.8820D+03                  5109.5677    38.2812    31.0969
         ROT.     0.8369D+06                   864.4348     2.9808    30.0812
         INT.     0.7381D+09                  5974.0025    41.2620    61.1781
         TRA.     0.1710D+28                  1440.7247     4.9680    40.7944
         TOT.                        1.058    7414.7273    46.2300   101.9725

 300.00  VIB.     0.1199D+04                  5500.4889    39.9048    32.4220
         ROT.     0.8805D+06                   894.2429     2.9808    30.1823
         INT.     0.1055D+10                  6394.7318    42.8856    62.6043
         TRA.     0.1799D+28                  1490.4049     4.9680    40.9628
         TOT.                        1.528    7885.1367    47.8537   103.5671

 310.00  VIB.     0.1632D+04                  5907.6933    41.5371    33.7571
         ROT.     0.9249D+06                   924.0510     2.9808    30.2800
         INT.     0.1509D+10                  6831.7443    44.5180    64.0371
         TRA.     0.1889D+28                  1540.0850     4.9680    41.1257
         TOT.                        2.015    8371.8293    49.4860   105.1628

 320.00  VIB.     0.2225D+04                  6331.2473    43.1741    35.1017
         ROT.     0.9700D+06                   953.8591     2.9808    30.3746
         INT.     0.2158D+10                  7285.1064    46.1549    65.4763
         TRA.     0.1982D+28                  1589.7652     4.9680    41.2835
         TOT.                        2.518    8874.8716    51.1229   106.7598

 330.00  VIB.     0.3040D+04                  6771.1780    44.8119    36.4553
         ROT.     0.1016D+07                   983.6672     2.9808    30.4664
         INT.     0.3088D+10                  7754.8452    47.7927    66.9216
         TRA.     0.2075D+28                  1639.4454     4.9680    41.4364
         TOT.                        3.038    9394.2906    52.7607   108.3580

 340.00  VIB.     0.4160D+04                  7227.4751    46.4468    37.8173
         ROT.     0.1062D+07                  1013.4753     2.9808    30.5554
         INT.     0.4420D+10                  8240.9504    49.4276    68.3727
         TRA.     0.2170D+28                  1689.1255     4.9680    41.5847
         TOT.                        3.573    9930.0759    54.3956   109.9573

 350.00  VIB.     0.5703D+04                  7700.0937    48.0756    39.1872
         ROT.     0.1110D+07                  1043.2834     2.9808    30.6418
         INT.     0.6328D+10                  8743.3771    51.0564    69.8290
         TRA.     0.2267D+28                  1738.8057     4.9680    41.7287
         TOT.                        4.126   10482.1828    56.0245   111.5577

 360.00  VIB.     0.7832D+04                  8188.9570    49.6953    40.5643
         ROT.     0.1157D+07                  1073.0915     2.9808    30.7257
         INT.     0.9065D+10                  9262.0485    52.6761    71.2900
         TRA.     0.2364D+28                  1788.4859     4.9680    41.8686
         TOT.                        4.694   11050.5344    57.6441   113.1586

 370.00  VIB.     0.1077D+05                  8693.9596    51.3030    41.9478
         ROT.     0.1206D+07                  1102.8996     2.9808    30.8074
         INT.     0.1299D+11                  9796.8592    54.2839    72.7552
         TRA.     0.2464D+28                  1838.1660     4.9680    42.0047
         TOT.                        5.278   11635.0252    59.2519   114.7600

 380.00  VIB.     0.1484D+05                  9214.9702    52.8965    43.3372
         ROT.     0.1255D+07                  1132.7077     2.9808    30.8869
         INT.     0.1863D+11                 10347.6779    55.8773    74.2241
         TRA.     0.2564D+28                  1887.8462     4.9680    42.1372
         TOT.                        5.879   12235.5241    60.8453   116.3613

 390.00  VIB.     0.2048D+05                  9751.8350    54.4736    44.7316
         ROT.     0.1305D+07                  1162.5158     2.9808    30.9643
         INT.     0.2672D+11                 10914.3508    57.4544    75.6960
         TRA.     0.2666D+28                  1937.5263     4.9680    42.2663
         TOT.                        6.495   12851.8771    62.4224   117.9622

 400.00  VIB.     0.2829D+05                 10304.3806    56.0324    46.1305
         ROT.     0.1356D+07                  1192.3239     2.9808    31.0398
         INT.     0.3835D+11                 11496.7045    59.0132    77.1703
         TRA.     0.2769D+28                  1987.2065     4.9680    42.3921
         TOT.                        7.127   13483.9110    63.9812   119.5623

   *: NOTE: HEATS OF FORMATION ARE RELATIVE TO THE
            ELEMENTS IN THEIR STANDARD STATE AT 298K
              (=  Standard Enthalpy of Formation).

            Hvib:  Zero-point energy is not included.
                   frequencies of less than zero cm-1 are not included.
            Hrot = (3/2)RT
            Htra = (3/2)RT + pV = (5/2)RT

            Heat capacity is Cp, not Cv

           For more information, see: HTTP://OpenMOPAC.net/Manual/thermochemistry.html


           FORCE CONSTANT IN CARTESIAN COORDINATES (Millidynes/A)

    ATOM   CHEMICAL       X               Y               Z
   NUMBER   SYMBOL  FORCE CONSTANT  FORCE CONSTANT  FORCE CONSTANT

      1       C        7.839568        8.312783        8.416572
      2       C        8.068340        8.615168        8.451757
      3       C        8.668292        7.982378        8.545757
      4       C        8.550322        7.806804        8.298086
      5       C        8.873691        8.391565        8.110748
      6       C        8.524826        8.196524        8.106268
      7       C        8.087552        8.510813        8.217354
      8       C       10.929632       10.471287        5.918609
      9       C       12.162788        5.095748        9.907354
     10       C       10.720665       10.413117        6.144713
     11       C       12.004383        4.683351        9.811136
     12       H        1.128969        1.484813        3.342320
     13       H        4.466392        0.753028        0.786129
     14       H        1.118969        0.922023        3.845410
     15       H        4.920577        0.715616        0.787070
     16       H        1.455490        2.406551        2.437169
     17       H        1.650221        1.069381        3.532305
     18       H        0.812656        4.751607        0.791582
     19       H        5.009219        0.799971        0.893473
     20       H        0.898123        5.086617        0.802630
     21       H        1.888828        2.076958        2.789197
     22       H        5.231411        0.786095        0.762264
     23       H        0.802213        1.749050        4.190652
     24       H        1.728332        4.212318        0.739469
     25       H        4.832516        0.567439        0.793333
     26       H        1.567387        2.536196        2.143327
     27       H        4.856016        0.679116        0.703005
     28       H        0.955826        1.655348        3.870431
     29       H        5.225570        0.512709        0.719080



 TOTAL CPU TIME:             5.58 SECONDS

 == MOPAC DONE ==
