 *******************************************************************************
 ** Site#: 14399           For non-commercial use only        Version 13.159M **
 *******************************************************************************
 ** Cite this work as: MOPAC2012, James J. P. Stewart, Stewart Computational  **
 ** Chemistry, Version 13.159M web: HTTP://OpenMOPAC.net  Days remaining:   6 **
 *******************************************************************************
 **                                                                           **
 **                                MOPAC2012                                  **
 **                                                                           **
 *******************************************************************************

                            PM3 CALCULATION RESULTS


 *******************************************************************************
 *  CALCULATION DONE:                                Mon Jun  2 11:04:50 2014  *
 *  PM3      - The PM3 Hamiltonian to be used
 *  PRECISE  - CRITERIA TO BE INCREASED BY 100 TIMES
 *  NOSYM    - POINT-GROUP SYMMETRY SET TO C1
 *  T=       - A TIME OF 172800.0 SECONDS REQUESTED
 *  DUMP=N   - RESTART FILE WRITTEN EVERY  7200.000 SECONDS
 *******************************************************************************
pm3  precise nosym
 InChI=1S/C11H18/c1-3-7-11-9-6-5-8-10(11)4-2/h3,5,7-8,10-11H,4,6,9H2,1-2H3

   ATOM   CHEMICAL          X               Y               Z
  NUMBER   SYMBOL      (ANGSTROMS)     (ANGSTROMS)     (ANGSTROMS)
 
     1       C          0.15900000  *  -0.53170000  *   0.03180000  *
     2       C         -1.02250000  *   0.33230000  *   0.54340000  *
     3       C         -0.11090000  *  -2.02110000  *   0.28990000  *
     4       C         -0.93010000  *   1.82060000  *   0.14860000  *
     5       C         -1.40760000  *  -2.47730000  *  -0.38910000  *
     6       C         -1.00250000  *   2.12060000  *  -1.34790000  *
     7       C          3.77500000  *   0.74790000  *   0.65410000  *
     8       C         -2.37840000  *  -0.24760000  *   0.19670000  *
     9       C          1.46180000  *  -0.12980000  *   0.67950000  *
    10       C         -2.54960000  *  -1.51230000  *  -0.21600000  *
    11       C          2.50050000  *   0.34630000  *  -0.01950000  *
    12       H          0.22890000  *  -0.42570000  *  -1.07700000  *
    13       H         -0.99960000  *   0.31590000  *   1.65960000  *
    14       H         -0.19280000  *  -2.20740000  *   1.38760000  *
    15       H          0.73250000  *  -2.64750000  *  -0.08500000  *
    16       H         -1.75120000  *   2.38310000  *   0.65260000  *
    17       H          0.01150000  *   2.26220000  *   0.54950000  *
    18       H         -1.23960000  *  -2.61710000  *  -1.48170000  *
    19       H         -1.70250000  *  -3.46680000  *   0.02930000  *
    20       H         -0.10510000  *   1.73930000  *  -1.88400000  *
    21       H         -1.03300000  *   3.22240000  *  -1.50690000  *
    22       H         -1.91880000  *   1.68520000  *  -1.80650000  *
    23       H          4.50620000  *   1.11630000  *  -0.10040000  *
    24       H          3.58380000  *   1.56520000  *   1.38590000  *
    25       H          4.22450000  *  -0.12360000  *   1.18180000  *
    26       H          1.54480000  *  -0.22530000  *   1.76270000  *
    27       H         -3.55340000  *  -1.85460000  *  -0.46310000  *
    28       H         -3.26390000  *   0.37430000  *   0.32540000  *
    29       H          2.43310000  *   0.45610000  *  -1.10140000  *
 


          CARTESIAN COORDINATES 

    NO.       ATOM         X         Y         Z

     1         C        0.1590   -0.5317    0.0318
     2         C       -1.0225    0.3323    0.5434
     3         C       -0.1109   -2.0211    0.2899
     4         C       -0.9301    1.8206    0.1486
     5         C       -1.4076   -2.4773   -0.3891
     6         C       -1.0025    2.1206   -1.3479
     7         C        3.7750    0.7479    0.6541
     8         C       -2.3784   -0.2476    0.1967
     9         C        1.4618   -0.1298    0.6795
    10         C       -2.5496   -1.5123   -0.2160
    11         C        2.5005    0.3463   -0.0195
    12         H        0.2289   -0.4257   -1.0770
    13         H       -0.9996    0.3159    1.6596
    14         H       -0.1928   -2.2074    1.3876
    15         H        0.7325   -2.6475   -0.0850
    16         H       -1.7512    2.3831    0.6526
    17         H        0.0115    2.2622    0.5495
    18         H       -1.2396   -2.6171   -1.4817
    19         H       -1.7025   -3.4668    0.0293
    20         H       -0.1051    1.7393   -1.8840
    21         H       -1.0330    3.2224   -1.5069
    22         H       -1.9188    1.6852   -1.8065
    23         H        4.5062    1.1163   -0.1004
    24         H        3.5838    1.5652    1.3859
    25         H        4.2245   -0.1236    1.1818
    26         H        1.5448   -0.2253    1.7627
    27         H       -3.5534   -1.8546   -0.4631
    28         H       -3.2639    0.3743    0.3254
    29         H        2.4331    0.4561   -1.1014

  H: (PM3): J. J. P. STEWART, J. COMP. CHEM. 10, 209 (1989).
  C: (PM3): J. J. P. STEWART, J. COMP. CHEM. 10, 209 (1989).

           Empirical Formula: C11 H18  =    29 atoms



      MOLECULAR POINT GROUP   :   C1  


      RHF CALCULATION, NO. OF DOUBLY OCCUPIED LEVELS =   31

      Geometry optimization using EF

          DIAGONAL MATRIX USED AS START HESSIAN

 CYCLE:     1 TIME:   0.014 TIME LEFT:  2.00D  GRAD.:    60.602 HEAT:-.6316997E-01
 CYCLE:     2 TIME:   0.030 TIME LEFT:  2.00D  GRAD.:    54.002 HEAT:-1.214342
 CYCLE:     3 TIME:   0.011 TIME LEFT:  2.00D  GRAD.:    74.682 HEAT:-1.268804
 CYCLE:     4 TIME:   0.011 TIME LEFT:  2.00D  GRAD.:    50.788 HEAT:-1.904107
 CYCLE:     5 TIME:   0.021 TIME LEFT:  2.00D  GRAD.:    35.100 HEAT:-2.483002
 CYCLE:     6 TIME:   0.021 TIME LEFT:  2.00D  GRAD.:    28.255 HEAT:-2.641962
 CYCLE:     7 TIME:   0.011 TIME LEFT:  2.00D  GRAD.:    23.367 HEAT:-2.779856
 CYCLE:     8 TIME:   0.012 TIME LEFT:  2.00D  GRAD.:    18.630 HEAT:-2.917465
 CYCLE:     9 TIME:   0.012 TIME LEFT:  2.00D  GRAD.:    26.483 HEAT:-2.947545
 CYCLE:    10 TIME:   0.015 TIME LEFT:  2.00D  GRAD.:    26.460 HEAT:-3.052030
 CYCLE:    11 TIME:   0.012 TIME LEFT:  2.00D  GRAD.:    30.219 HEAT:-3.056721
 CYCLE:    12 TIME:   0.012 TIME LEFT:  2.00D  GRAD.:    28.959 HEAT:-3.094719
 CYCLE:    13 TIME:   0.016 TIME LEFT:  2.00D  GRAD.:    29.800 HEAT:-3.123096
 CYCLE:    14 TIME:   0.020 TIME LEFT:  2.00D  GRAD.:     9.751 HEAT:-3.352886
 CYCLE:    15 TIME:   0.020 TIME LEFT:  2.00D  GRAD.:    10.845 HEAT:-3.362540
 CYCLE:    16 TIME:   0.011 TIME LEFT:  2.00D  GRAD.:     7.258 HEAT:-3.400270
 CYCLE:    17 TIME:   0.011 TIME LEFT:  2.00D  GRAD.:    11.580 HEAT:-3.405068
 CYCLE:    18 TIME:   0.011 TIME LEFT:  2.00D  GRAD.:    11.364 HEAT:-3.428917
 CYCLE:    19 TIME:   0.011 TIME LEFT:  2.00D  GRAD.:    11.475 HEAT:-3.447485
 CYCLE:    20 TIME:   0.011 TIME LEFT:  2.00D  GRAD.:    14.209 HEAT:-3.447746
 CYCLE:    21 TIME:   0.013 TIME LEFT:  2.00D  GRAD.:    13.065 HEAT:-3.474712
 CYCLE:    22 TIME:   0.011 TIME LEFT:  2.00D  GRAD.:     8.214 HEAT:-3.512212
 CYCLE:    23 TIME:   0.026 TIME LEFT:  2.00D  GRAD.:     9.036 HEAT:-3.520343
 CYCLE:    24 TIME:   0.012 TIME LEFT:  2.00D  GRAD.:     4.652 HEAT:-3.544544
 CYCLE:    25 TIME:   0.015 TIME LEFT:  2.00D  GRAD.:     8.706 HEAT:-3.544872
 CYCLE:    26 TIME:   0.017 TIME LEFT:  2.00D  GRAD.:     3.759 HEAT:-3.571311
 CYCLE:    27 TIME:   0.014 TIME LEFT:  2.00D  GRAD.:     4.695 HEAT:-3.581745
 CYCLE:    28 TIME:   0.011 TIME LEFT:  2.00D  GRAD.:     3.568 HEAT:-3.598590
 CYCLE:    29 TIME:   0.012 TIME LEFT:  2.00D  GRAD.:     3.757 HEAT:-3.612705
 CYCLE:    30 TIME:   0.011 TIME LEFT:  2.00D  GRAD.:     3.188 HEAT:-3.626632
 CYCLE:    31 TIME:   0.013 TIME LEFT:  2.00D  GRAD.:     4.007 HEAT:-3.635604
 CYCLE:    32 TIME:   0.013 TIME LEFT:  2.00D  GRAD.:     3.105 HEAT:-3.645171
 CYCLE:    33 TIME:   0.016 TIME LEFT:  2.00D  GRAD.:     3.311 HEAT:-3.651469
 CYCLE:    34 TIME:   0.011 TIME LEFT:  2.00D  GRAD.:     1.847 HEAT:-3.657294
 CYCLE:    35 TIME:   0.012 TIME LEFT:  2.00D  GRAD.:     2.291 HEAT:-3.660685
 CYCLE:    36 TIME:   0.014 TIME LEFT:  2.00D  GRAD.:     2.367 HEAT:-3.663978
 CYCLE:    37 TIME:   0.013 TIME LEFT:  2.00D  GRAD.:     2.241 HEAT:-3.669073
 CYCLE:    38 TIME:   0.016 TIME LEFT:  2.00D  GRAD.:     2.010 HEAT:-3.674276
 CYCLE:    39 TIME:   0.014 TIME LEFT:  2.00D  GRAD.:     3.553 HEAT:-3.683486
 CYCLE:    40 TIME:   0.017 TIME LEFT:  2.00D  GRAD.:     4.334 HEAT:-3.694853
 CYCLE:    41 TIME:   0.017 TIME LEFT:  2.00D  GRAD.:     4.819 HEAT:-3.717910
 CYCLE:    42 TIME:   0.017 TIME LEFT:  2.00D  GRAD.:     5.422 HEAT:-3.749848
 CYCLE:    43 TIME:   0.019 TIME LEFT:  2.00D  GRAD.:     5.389 HEAT:-3.786311
 CYCLE:    44 TIME:   0.016 TIME LEFT:  2.00D  GRAD.:     6.118 HEAT:-3.821876
 CYCLE:    45 TIME:   0.016 TIME LEFT:  2.00D  GRAD.:     5.901 HEAT:-3.872456
 CYCLE:    46 TIME:   0.015 TIME LEFT:  2.00D  GRAD.:     4.371 HEAT:-3.905443
 CYCLE:    47 TIME:   0.018 TIME LEFT:  2.00D  GRAD.:     3.953 HEAT:-3.932393
 CYCLE:    48 TIME:   0.012 TIME LEFT:  2.00D  GRAD.:     3.575 HEAT:-3.954122
 CYCLE:    49 TIME:   0.012 TIME LEFT:  2.00D  GRAD.:     3.832 HEAT:-3.987722
 CYCLE:    50 TIME:   0.016 TIME LEFT:  2.00D  GRAD.:     4.213 HEAT:-4.017951
 CYCLE:    51 TIME:   0.018 TIME LEFT:  2.00D  GRAD.:     3.264 HEAT:-4.043637
 CYCLE:    52 TIME:   0.017 TIME LEFT:  2.00D  GRAD.:     2.973 HEAT:-4.058539
 CYCLE:    53 TIME:   0.018 TIME LEFT:  2.00D  GRAD.:     3.209 HEAT:-4.069812
 CYCLE:    54 TIME:   0.017 TIME LEFT:  2.00D  GRAD.:     2.218 HEAT:-4.080078
 CYCLE:    55 TIME:   0.019 TIME LEFT:  2.00D  GRAD.:     1.907 HEAT:-4.089596
 CYCLE:    56 TIME:   0.019 TIME LEFT:  2.00D  GRAD.:     1.700 HEAT:-4.094939
 CYCLE:    57 TIME:   0.017 TIME LEFT:  2.00D  GRAD.:     1.513 HEAT:-4.100651
 CYCLE:    58 TIME:   0.015 TIME LEFT:  2.00D  GRAD.:     1.275 HEAT:-4.104937
 CYCLE:    59 TIME:   0.011 TIME LEFT:  2.00D  GRAD.:     1.171 HEAT:-4.107651
 CYCLE:    60 TIME:   0.013 TIME LEFT:  2.00D  GRAD.:     1.068 HEAT:-4.110073
 CYCLE:    61 TIME:   0.014 TIME LEFT:  2.00D  GRAD.:     0.937 HEAT:-4.112213
 CYCLE:    62 TIME:   0.011 TIME LEFT:  2.00D  GRAD.:     0.785 HEAT:-4.113523
 CYCLE:    63 TIME:   0.014 TIME LEFT:  2.00D  GRAD.:     0.808 HEAT:-4.114978
 CYCLE:    64 TIME:   0.014 TIME LEFT:  2.00D  GRAD.:     0.770 HEAT:-4.116349
 CYCLE:    65 TIME:   0.012 TIME LEFT:  2.00D  GRAD.:     0.774 HEAT:-4.117804
 CYCLE:    66 TIME:   0.015 TIME LEFT:  2.00D  GRAD.:     0.784 HEAT:-4.119099
 CYCLE:    67 TIME:   0.017 TIME LEFT:  2.00D  GRAD.:     0.777 HEAT:-4.120530
 CYCLE:    68 TIME:   0.017 TIME LEFT:  2.00D  GRAD.:     0.816 HEAT:-4.122125
 CYCLE:    69 TIME:   0.012 TIME LEFT:  2.00D  GRAD.:     0.797 HEAT:-4.123630
 CYCLE:    70 TIME:   0.016 TIME LEFT:  2.00D  GRAD.:     0.755 HEAT:-4.125173
 CYCLE:    71 TIME:   0.017 TIME LEFT:  2.00D  GRAD.:     0.735 HEAT:-4.126755
 CYCLE:    72 TIME:   0.018 TIME LEFT:  2.00D  GRAD.:     0.722 HEAT:-4.128482
 CYCLE:    73 TIME:   0.015 TIME LEFT:  2.00D  GRAD.:     0.638 HEAT:-4.129886
 CYCLE:    74 TIME:   0.016 TIME LEFT:  2.00D  GRAD.:     0.553 HEAT:-4.131041
 CYCLE:    75 TIME:   0.012 TIME LEFT:  2.00D  GRAD.:     0.550 HEAT:-4.131981
 CYCLE:    76 TIME:   0.016 TIME LEFT:  2.00D  GRAD.:     0.589 HEAT:-4.132913
 CYCLE:    77 TIME:   0.015 TIME LEFT:  2.00D  GRAD.:     0.624 HEAT:-4.133800
 CYCLE:    78 TIME:   0.018 TIME LEFT:  2.00D  GRAD.:     0.571 HEAT:-4.134677
 CYCLE:    79 TIME:   0.015 TIME LEFT:  2.00D  GRAD.:     0.544 HEAT:-4.135476
 CYCLE:    80 TIME:   0.018 TIME LEFT:  2.00D  GRAD.:     0.607 HEAT:-4.136449
 CYCLE:    81 TIME:   0.019 TIME LEFT:  2.00D  GRAD.:     0.683 HEAT:-4.137435
 CYCLE:    82 TIME:   0.018 TIME LEFT:  2.00D  GRAD.:     0.849 HEAT:-4.139069
 CYCLE:    83 TIME:   0.018 TIME LEFT:  2.00D  GRAD.:     0.780 HEAT:-4.140276
 CYCLE:    84 TIME:   0.019 TIME LEFT:  2.00D  GRAD.:     0.858 HEAT:-4.142915
 CYCLE:    85 TIME:   0.018 TIME LEFT:  2.00D  GRAD.:     0.700 HEAT:-4.143910
 CYCLE:    86 TIME:   0.018 TIME LEFT:  2.00D  GRAD.:     0.859 HEAT:-4.146224
 CYCLE:    87 TIME:   0.019 TIME LEFT:  2.00D  GRAD.:     0.640 HEAT:-4.147125
 CYCLE:    88 TIME:   0.019 TIME LEFT:  2.00D  GRAD.:     0.738 HEAT:-4.149418
 CYCLE:    89 TIME:   0.018 TIME LEFT:  2.00D  GRAD.:     0.727 HEAT:-4.150751
 CYCLE:    90 TIME:   0.019 TIME LEFT:  2.00D  GRAD.:     1.438 HEAT:-4.154205
 CYCLE:    91 TIME:   0.019 TIME LEFT:  2.00D  GRAD.:     1.093 HEAT:-4.156198
 CYCLE:    92 TIME:   0.019 TIME LEFT:  2.00D  GRAD.:     1.009 HEAT:-4.159434
 CYCLE:    93 TIME:   0.020 TIME LEFT:  2.00D  GRAD.:     1.250 HEAT:-4.168227
 CYCLE:    94 TIME:   0.019 TIME LEFT:  2.00D  GRAD.:     2.436 HEAT:-4.175887
 CYCLE:    95 TIME:   0.017 TIME LEFT:  2.00D  GRAD.:     1.703 HEAT:-4.181526
 CYCLE:    96 TIME:   0.018 TIME LEFT:  2.00D  GRAD.:     1.883 HEAT:-4.192896
 CYCLE:    97 TIME:   0.019 TIME LEFT:  2.00D  GRAD.:     2.143 HEAT:-4.198807
 CYCLE:    98 TIME:   0.019 TIME LEFT:  2.00D  GRAD.:     1.803 HEAT:-4.206104
 CYCLE:    99 TIME:   0.018 TIME LEFT:  2.00D  GRAD.:     2.225 HEAT:-4.216536
 CYCLE:   100 TIME:   0.019 TIME LEFT:  2.00D  GRAD.:     2.247 HEAT:-4.231575
 CYCLE:   101 TIME:   0.017 TIME LEFT:  2.00D  GRAD.:     3.335 HEAT:-4.240450
 CYCLE:   102 TIME:   0.018 TIME LEFT:  2.00D  GRAD.:     2.851 HEAT:-4.258277
 CYCLE:   103 TIME:   0.020 TIME LEFT:  2.00D  GRAD.:     3.700 HEAT:-4.277937
 CYCLE:   104 TIME:   0.017 TIME LEFT:  2.00D  GRAD.:     3.632 HEAT:-4.305896
 CYCLE:   105 TIME:   0.031 TIME LEFT:  2.00D  GRAD.:     5.001 HEAT:-4.330552
 CYCLE:   106 TIME:   0.017 TIME LEFT:  2.00D  GRAD.:     6.119 HEAT:-4.384165
 CYCLE:   107 TIME:   0.014 TIME LEFT:  2.00D  GRAD.:     4.300 HEAT:-4.428878
 CYCLE:   108 TIME:   0.017 TIME LEFT:  2.00D  GRAD.:     6.527 HEAT:-4.480075
 CYCLE:   109 TIME:   0.016 TIME LEFT:  2.00D  GRAD.:     9.050 HEAT:-4.494101
 CYCLE:   110 TIME:   0.019 TIME LEFT:  2.00D  GRAD.:     7.011 HEAT:-4.564367
 CYCLE:   111 TIME:   0.015 TIME LEFT:  2.00D  GRAD.:     3.119 HEAT:-4.585537
 CYCLE:   112 TIME:   0.015 TIME LEFT:  2.00D  GRAD.:     2.272 HEAT:-4.608808
 CYCLE:   113 TIME:   0.019 TIME LEFT:  2.00D  GRAD.:     5.364 HEAT:-4.625645
 CYCLE:   114 TIME:   0.013 TIME LEFT:  2.00D  GRAD.:     2.359 HEAT:-4.638321
 CYCLE:   115 TIME:   0.016 TIME LEFT:  2.00D  GRAD.:     1.807 HEAT:-4.644778
 CYCLE:   116 TIME:   0.016 TIME LEFT:  2.00D  GRAD.:     1.636 HEAT:-4.650203
 CYCLE:   117 TIME:   0.014 TIME LEFT:  2.00D  GRAD.:     1.614 HEAT:-4.652663
 CYCLE:   118 TIME:   0.015 TIME LEFT:  2.00D  GRAD.:     1.401 HEAT:-4.656528
 CYCLE:   119 TIME:   0.014 TIME LEFT:  2.00D  GRAD.:     1.376 HEAT:-4.659345
 CYCLE:   120 TIME:   0.016 TIME LEFT:  2.00D  GRAD.:     1.269 HEAT:-4.663046
 CYCLE:   121 TIME:   0.013 TIME LEFT:  2.00D  GRAD.:     1.634 HEAT:-4.667542
 CYCLE:   122 TIME:   0.015 TIME LEFT:  2.00D  GRAD.:     1.803 HEAT:-4.672580
 CYCLE:   123 TIME:   0.016 TIME LEFT:  2.00D  GRAD.:     2.199 HEAT:-4.679915
 CYCLE:   124 TIME:   0.014 TIME LEFT:  2.00D  GRAD.:     2.210 HEAT:-4.689146
 CYCLE:   125 TIME:   0.015 TIME LEFT:  2.00D  GRAD.:     2.418 HEAT:-4.699052
 CYCLE:   126 TIME:   0.013 TIME LEFT:  2.00D  GRAD.:     2.109 HEAT:-4.708736
 CYCLE:   127 TIME:   0.018 TIME LEFT:  2.00D  GRAD.:     2.873 HEAT:-4.714433
 CYCLE:   128 TIME:   0.017 TIME LEFT:  2.00D  GRAD.:     1.284 HEAT:-4.720778
 CYCLE:   129 TIME:   0.016 TIME LEFT:  2.00D  GRAD.:     1.159 HEAT:-4.724392
 CYCLE:   130 TIME:   0.017 TIME LEFT:  2.00D  GRAD.:     0.982 HEAT:-4.727258
 CYCLE:   131 TIME:   0.014 TIME LEFT:  2.00D  GRAD.:     0.829 HEAT:-4.729225
 CYCLE:   132 TIME:   0.014 TIME LEFT:  2.00D  GRAD.:     1.109 HEAT:-4.730908
 CYCLE:   133 TIME:   0.013 TIME LEFT:  2.00D  GRAD.:     0.969 HEAT:-4.733065
 CYCLE:   134 TIME:   0.014 TIME LEFT:  2.00D  GRAD.:     1.267 HEAT:-4.735366
 CYCLE:   135 TIME:   0.019 TIME LEFT:  2.00D  GRAD.:     0.933 HEAT:-4.737008
 CYCLE:   136 TIME:   0.018 TIME LEFT:  2.00D  GRAD.:     1.469 HEAT:-4.738890
 CYCLE:   137 TIME:   0.015 TIME LEFT:  2.00D  GRAD.:     1.019 HEAT:-4.740353
 CYCLE:   138 TIME:   0.017 TIME LEFT:  2.00D  GRAD.:     1.040 HEAT:-4.743335
 CYCLE:   139 TIME:   0.014 TIME LEFT:  2.00D  GRAD.:     1.023 HEAT:-4.745041
 CYCLE:   140 TIME:   0.018 TIME LEFT:  2.00D  GRAD.:     1.668 HEAT:-4.751633
 CYCLE:   141 TIME:   0.016 TIME LEFT:  2.00D  GRAD.:     1.339 HEAT:-4.754089
 CYCLE:   142 TIME:   0.015 TIME LEFT:  2.00D  GRAD.:     1.148 HEAT:-4.757977
 CYCLE:   143 TIME:   0.014 TIME LEFT:  2.00D  GRAD.:     0.581 HEAT:-4.759082
 CYCLE:   144 TIME:   0.017 TIME LEFT:  2.00D  GRAD.:     0.401 HEAT:-4.759706
 CYCLE:   145 TIME:   0.015 TIME LEFT:  2.00D  GRAD.:     0.357 HEAT:-4.760108
 CYCLE:   146 TIME:   0.017 TIME LEFT:  2.00D  GRAD.:     0.319 HEAT:-4.760429
 CYCLE:   147 TIME:   0.015 TIME LEFT:  2.00D  GRAD.:     0.290 HEAT:-4.760657
 CYCLE:   148 TIME:   0.017 TIME LEFT:  2.00D  GRAD.:     0.282 HEAT:-4.760853
 CYCLE:   149 TIME:   0.018 TIME LEFT:  2.00D  GRAD.:     0.270 HEAT:-4.761007
 CYCLE:   150 TIME:   0.019 TIME LEFT:  2.00D  GRAD.:     0.259 HEAT:-4.761146
 CYCLE:   151 TIME:   0.019 TIME LEFT:  2.00D  GRAD.:     0.264 HEAT:-4.761277
 CYCLE:   152 TIME:   0.018 TIME LEFT:  2.00D  GRAD.:     0.279 HEAT:-4.761436
 CYCLE:   153 TIME:   0.018 TIME LEFT:  2.00D  GRAD.:     0.250 HEAT:-4.761562
 CYCLE:   154 TIME:   0.019 TIME LEFT:  2.00D  GRAD.:     0.279 HEAT:-4.761706
 CYCLE:   155 TIME:   0.017 TIME LEFT:  2.00D  GRAD.:     0.253 HEAT:-4.761790
 CYCLE:   156 TIME:   0.016 TIME LEFT:  2.00D  GRAD.:     0.526 HEAT:-4.761931
 CYCLE:   157 TIME:   0.012 TIME LEFT:  2.00D  GRAD.:     0.321 HEAT:-4.762255
 CYCLE:   158 TIME:   0.016 TIME LEFT:  2.00D  GRAD.:     0.302 HEAT:-4.762831
 CYCLE:   159 TIME:   0.014 TIME LEFT:  2.00D  GRAD.:     0.530 HEAT:-4.763605
 CYCLE:   160 TIME:   0.014 TIME LEFT:  2.00D  GRAD.:     0.860 HEAT:-4.765239
 CYCLE:   161 TIME:   0.018 TIME LEFT:  2.00D  GRAD.:     1.460 HEAT:-4.768724
 CYCLE:   162 TIME:   0.016 TIME LEFT:  2.00D  GRAD.:     4.628 HEAT:-4.761148
 CYCLE:   163 TIME:   0.014 TIME LEFT:  2.00D  GRAD.:     0.737 HEAT:-4.774511
 CYCLE:   164 TIME:   0.017 TIME LEFT:  2.00D  GRAD.:     0.651 HEAT:-4.775499
 CYCLE:   165 TIME:   0.014 TIME LEFT:  2.00D  GRAD.:     0.706 HEAT:-4.776837
 CYCLE:   166 TIME:   0.013 TIME LEFT:  2.00D  GRAD.:     0.383 HEAT:-4.777132
 CYCLE:   167 TIME:   0.019 TIME LEFT:  2.00D  GRAD.:     0.486 HEAT:-4.777591
 CYCLE:   168 TIME:   0.017 TIME LEFT:  2.00D  GRAD.:     0.518 HEAT:-4.777958
 CYCLE:   169 TIME:   0.016 TIME LEFT:  2.00D  GRAD.:     0.404 HEAT:-4.778268
 CYCLE:   170 TIME:   0.017 TIME LEFT:  2.00D  GRAD.:     0.508 HEAT:-4.779367
 CYCLE:   171 TIME:   0.014 TIME LEFT:  2.00D  GRAD.:     0.531 HEAT:-4.780060
 CYCLE:   172 TIME:   0.016 TIME LEFT:  2.00D  GRAD.:     3.329 HEAT:-4.776576
 CYCLE:   173 TIME:   0.017 TIME LEFT:  2.00D  GRAD.:     2.181 HEAT:-4.781200
 CYCLE:   174 TIME:   0.018 TIME LEFT:  2.00D  GRAD.:     0.744 HEAT:-4.783094
 CYCLE:   175 TIME:   0.016 TIME LEFT:  2.00D  GRAD.:     0.510 HEAT:-4.784331
 CYCLE:   176 TIME:   0.015 TIME LEFT:  2.00D  GRAD.:     1.744 HEAT:-4.784436
 CYCLE:   177 TIME:   0.016 TIME LEFT:  2.00D  GRAD.:     0.551 HEAT:-4.786072
 CYCLE:   178 TIME:   0.015 TIME LEFT:  2.00D  GRAD.:     0.488 HEAT:-4.786924
 CYCLE:   179 TIME:   0.014 TIME LEFT:  2.00D  GRAD.:     0.579 HEAT:-4.788690
 CYCLE:   180 TIME:   0.015 TIME LEFT:  2.00D  GRAD.:     0.443 HEAT:-4.789037
 CYCLE:   181 TIME:   0.013 TIME LEFT:  2.00D  GRAD.:     0.337 HEAT:-4.789189
 CYCLE:   182 TIME:   0.014 TIME LEFT:  2.00D  GRAD.:     0.297 HEAT:-4.789282
 CYCLE:   183 TIME:   0.014 TIME LEFT:  2.00D  GRAD.:     0.210 HEAT:-4.789347
 CYCLE:   184 TIME:   0.018 TIME LEFT:  2.00D  GRAD.:     0.256 HEAT:-4.789403
 CYCLE:   185 TIME:   0.014 TIME LEFT:  2.00D  GRAD.:     0.530 HEAT:-4.789532
 CYCLE:   186 TIME:   0.013 TIME LEFT:  2.00D  GRAD.:     0.364 HEAT:-4.789679
 CYCLE:   187 TIME:   0.014 TIME LEFT:  2.00D  GRAD.:     0.303 HEAT:-4.789911
 CYCLE:   188 TIME:   0.019 TIME LEFT:  2.00D  GRAD.:     0.284 HEAT:-4.790006
 CYCLE:   189 TIME:   0.015 TIME LEFT:  2.00D  GRAD.:     0.153 HEAT:-4.790136
 CYCLE:   190 TIME:   0.016 TIME LEFT:  2.00D  GRAD.:     0.221 HEAT:-4.790220
 CYCLE:   191 TIME:   0.015 TIME LEFT:  2.00D  GRAD.:     0.077 HEAT:-4.790262
 CYCLE:   192 TIME:   0.017 TIME LEFT:  2.00D  GRAD.:     0.068 HEAT:-4.790281
 CYCLE:   193 TIME:   0.017 TIME LEFT:  2.00D  GRAD.:     0.070 HEAT:-4.790293
 CYCLE:   194 TIME:   0.018 TIME LEFT:  2.00D  GRAD.:     0.070 HEAT:-4.790307
 CYCLE:   195 TIME:   0.017 TIME LEFT:  2.00D  GRAD.:     0.060 HEAT:-4.790313
 CYCLE:   196 TIME:   0.016 TIME LEFT:  2.00D  GRAD.:     0.192 HEAT:-4.790304
 CYCLE:   197 TIME:   0.016 TIME LEFT:  2.00D  GRAD.:     0.040 HEAT:-4.790330

     RMS GRADIENT =  0.04033  IS LESS THAN CUTOFF =  0.05000



 -------------------------------------------------------------------------------
pm3  precise nosym
 InChI=1S/C11H18/c1-3-7-11-9-6-5-8-10(11)4-2/h3,5,7-8,10-11H,4,6,9H2,1-2H3



     GEOMETRY OPTIMISED USING EIGENVECTOR FOLLOWING (EF).     
     SCF FIELD WAS ACHIEVED                                   


                              PM3 CALCULATION
                                                       MOPAC2012 (Version: 13.159M)
                                                       Mon Jun  2 11:04:54 2014
                                                       No. of days left =   6




          FINAL HEAT OF FORMATION =         -4.79033 KCAL/MOL =     -20.04274 KJ/MOL


          TOTAL ENERGY            =      -1581.24052 EV
          ELECTRONIC ENERGY       =      -9775.24691 EV  POINT GROUP:     C1  
          CORE-CORE REPULSION     =       8194.00639 EV
          COSMO AREA              =        207.73 SQUARE ANGSTROMS
          COSMO VOLUME            =        222.58 CUBIC ANGSTROMS

          GRADIENT NORM           =          0.04033
          IONIZATION POTENTIAL    =          9.611409 EV
          HOMO LUMO ENERGIES (EV) =         -9.611  1.071
          NO. OF FILLED LEVELS    =         31
          MOLECULAR WEIGHT        =        150.263

          MOLECULAR DIMENSIONS (Angstroms)

            Atom       Atom       Distance
            H    27    H    23     8.39112
            H    21    H    19     6.22575
            H    13    H    18     3.81012


          SCF CALCULATIONS        =        206
          COMPUTATION TIME        =          3.147 SECONDS




   ATOM   CHEMICAL          X               Y               Z
  NUMBER   SYMBOL      (ANGSTROMS)     (ANGSTROMS)     (ANGSTROMS)
 
     1       C          0.15548929  *  -0.49021496  *   0.01662923  *
     2       C         -0.99780813  *   0.33461879  *   0.61867012  *
     3       C         -0.10693281  *  -1.98603657  *   0.18358040  *
     4       C         -0.91812245  *   1.79471214  *   0.16001340  *
     5       C         -1.39630026  *  -2.39377297  *  -0.50898755  *
     6       C         -1.06780984  *   1.94864681  *  -1.33750997  *
     7       C          3.75577810  *   0.74966409  *   0.68718541  *
     8       C         -2.33683264  *  -0.24501027  *   0.29506014  *
     9       C          1.44681042  *  -0.13922225  *   0.68700112  *
    10       C         -2.51794081  *  -1.47053435  *  -0.19769220  *
    11       C          2.47356050  *   0.40649316  *   0.03356748  *
    12       H          0.21042483  *  -0.24607856  *  -1.08055210  *
    13       H         -0.90725532  *   0.31284311  *   1.73449539  *
    14       H         -0.15660151  *  -2.23945464  *   1.26151151  *
    15       H          0.74392348  *  -2.56525970  *  -0.22378332  *
    16       H         -1.69387003  *   2.38975400  *   0.68080723  *
    17       H          0.05581314  *   2.21456837  *   0.48329382  *
    18       H         -1.25767016  *  -2.41398672  *  -1.60921421  *
    19       H         -1.66975131  *  -3.42718958  *  -0.21911094  *
    20       H         -0.36183358  *   1.28639292  *  -1.86744376  *
    21       H         -0.87220590  *   2.97849835  *  -1.65889037  *
    22       H         -2.07839193  *   1.67981210  *  -1.67233479  *
    23       H          4.58613640  *   0.20906214  *   0.21321229  *
    24       H          3.96224481  *   1.82399916  *   0.58896191  *
    25       H          3.76991048  *   0.50607304  *   1.75793212  *
    26       H          1.50717198  *  -0.36118026  *   1.76064339  *
    27       H         -3.52601432  *  -1.84452872  *  -0.40863332  *
    28       H         -3.19518091  *   0.40678667  *   0.49864215  *
    29       H          2.40514966  *   0.62978007  *  -1.03903497  *

           Empirical Formula: C11 H18  =    29 atoms



      MOLECULAR POINT GROUP   :   C1  


                  EIGENVALUES  
 -41.97689 -35.35486 -34.61243 -30.47838 -28.62635 -25.45562 -23.43536 -21.40204
 -20.29582 -19.58263 -17.65212 -17.02887 -16.01490 -15.73005 -15.25102 -14.98728
 -14.52934 -14.30172 -14.16301 -13.84962 -13.40343 -13.04620 -12.81956 -12.57596
 -12.42822 -11.96727 -11.89191 -11.46741 -11.10184  -9.78245  -9.61141   1.07077
   1.18441   3.23794   3.47962   3.52741   3.63057   3.69765   3.78244   3.79910
   3.95865   4.00828   4.04834   4.11263   4.17247   4.26343   4.33616   4.38957
   4.45279   4.47921   4.52886   4.59725   4.82449   4.84833   4.97907   5.01233
   5.13398   5.18728   5.64906   5.85017   5.98139   6.02958


              NET ATOMIC CHARGES AND DIPOLE CONTRIBUTIONS

  ATOM NO.   TYPE          CHARGE      No. of ELECS.   s-Pop       p-Pop       
    1          C          -0.053936        4.0539     1.17079     2.88314
    2          C          -0.035404        4.0354     1.16756     2.86784
    3          C          -0.091717        4.0917     1.16101     2.93071
    4          C          -0.094558        4.0946     1.16078     2.93378
    5          C          -0.057924        4.0579     1.14569     2.91223
    6          C          -0.119678        4.1197     1.14042     2.97926
    7          C          -0.074378        4.0744     1.12519     2.94919
    8          C          -0.144491        4.1445     1.19624     2.94825
    9          C          -0.150140        4.1501     1.19919     2.95095
   10          C          -0.150191        4.1502     1.19374     2.95645
   11          C          -0.145803        4.1458     1.19406     2.95174
   12          H           0.080178        0.9198     0.91982
   13          H           0.068709        0.9313     0.93129
   14          H           0.053087        0.9469     0.94691
   15          H           0.052541        0.9475     0.94746
   16          H           0.048433        0.9516     0.95157
   17          H           0.053922        0.9461     0.94608
   18          H           0.055118        0.9449     0.94488
   19          H           0.052860        0.9471     0.94714
   20          H           0.044831        0.9552     0.95517
   21          H           0.038296        0.9617     0.96170
   22          H           0.042171        0.9578     0.95783
   23          H           0.043946        0.9561     0.95605
   24          H           0.043854        0.9561     0.95615
   25          H           0.040952        0.9590     0.95905
   26          H           0.103395        0.8966     0.89661
   27          H           0.096824        0.9032     0.90318
   28          H           0.099578        0.9004     0.90042
   29          H           0.099524        0.9005     0.90048
 DIPOLE           X         Y         Z       TOTAL
 POINT-CHG.     0.325     0.016    -0.061     0.331
 HYBRID        -0.038     0.016     0.010     0.043
 SUM            0.286     0.033    -0.051     0.293


          ATOMIC ORBITAL ELECTRON POPULATIONS

    Atom      s        px        py        pz   
    1  C   1.17079   0.92872   0.95063   1.00380
    2  C   1.16756   0.92720   0.94481   0.99583
    3  C   1.16101   0.97013   0.95304   1.00754
    4  C   1.16078   1.01805   0.95261   0.96313
    5  C   1.14569   0.94186   0.97466   0.99571
    6  C   1.14042   1.01459   1.00584   0.95882
    7  C   1.12519   0.95395   1.00146   0.99378
    8  C   1.19624   0.97491   0.96672   1.00662
    9  C   1.19919   0.95494   1.00421   0.99181
   10  C   1.19374   0.98283   0.96348   1.01014
   11  C   1.19406   0.95898   1.00012   0.99264
   12  H   0.91982
   13  H   0.93129
   14  H   0.94691
   15  H   0.94746
   16  H   0.95157
   17  H   0.94608
   18  H   0.94488
   19  H   0.94714
   20  H   0.95517
   21  H   0.96170
   22  H   0.95783
   23  H   0.95605
   24  H   0.95615
   25  H   0.95905
   26  H   0.89661
   27  H   0.90318
   28  H   0.90042
   29  H   0.90048
 *******************************************************************************
 ** Site#: 14399           For non-commercial use only        Version 13.159M **
 *******************************************************************************
 ** Cite this work as: MOPAC2012, James J. P. Stewart, Stewart Computational  **
 ** Chemistry, Version 13.159M web: HTTP://OpenMOPAC.net  Days remaining:   6 **
 *******************************************************************************
 **                                                                           **
 **                                MOPAC2012                                  **
 **                                                                           **
 *******************************************************************************

                            PM3 CALCULATION RESULTS


 *******************************************************************************
 *  CALCULATION DONE:                                Mon Jun  2 11:04:54 2014  *
 *  PM3      - The PM3 Hamiltonian to be used
 *  OLDGEO   - PREVIOUS GEOMETRY TO BE USED
 *  PRECISE  - CRITERIA TO BE INCREASED BY 100 TIMES
 *  NOSYM    - POINT-GROUP SYMMETRY SET TO C1
 *  T=       - A TIME OF 172800.0 SECONDS REQUESTED
 *  DUMP=N   - RESTART FILE WRITTEN EVERY  7200.000 SECONDS
 *  THERMO   - THERMODYNAMIC QUANTITIES TO BE CALCULATED
 *******************************************************************************
oldgeo thermo nosym precise  pm3

   ATOM   CHEMICAL          X               Y               Z
  NUMBER   SYMBOL      (ANGSTROMS)     (ANGSTROMS)     (ANGSTROMS)
 
     1       C          0.15548929  *  -0.49021496  *   0.01662923  *
     2       C         -0.99780813  *   0.33461879  *   0.61867012  *
     3       C         -0.10693281  *  -1.98603657  *   0.18358040  *
     4       C         -0.91812245  *   1.79471214  *   0.16001340  *
     5       C         -1.39630026  *  -2.39377297  *  -0.50898755  *
     6       C         -1.06780984  *   1.94864681  *  -1.33750997  *
     7       C          3.75577810  *   0.74966409  *   0.68718541  *
     8       C         -2.33683264  *  -0.24501027  *   0.29506014  *
     9       C          1.44681042  *  -0.13922225  *   0.68700112  *
    10       C         -2.51794081  *  -1.47053435  *  -0.19769220  *
    11       C          2.47356050  *   0.40649316  *   0.03356748  *
    12       H          0.21042483  *  -0.24607856  *  -1.08055210  *
    13       H         -0.90725532  *   0.31284311  *   1.73449539  *
    14       H         -0.15660151  *  -2.23945464  *   1.26151151  *
    15       H          0.74392348  *  -2.56525970  *  -0.22378332  *
    16       H         -1.69387003  *   2.38975400  *   0.68080723  *
    17       H          0.05581314  *   2.21456837  *   0.48329382  *
    18       H         -1.25767016  *  -2.41398672  *  -1.60921421  *
    19       H         -1.66975131  *  -3.42718958  *  -0.21911094  *
    20       H         -0.36183358  *   1.28639292  *  -1.86744376  *
    21       H         -0.87220590  *   2.97849835  *  -1.65889037  *
    22       H         -2.07839193  *   1.67981210  *  -1.67233479  *
    23       H          4.58613640  *   0.20906214  *   0.21321229  *
    24       H          3.96224481  *   1.82399916  *   0.58896191  *
    25       H          3.76991048  *   0.50607304  *   1.75793212  *
    26       H          1.50717198  *  -0.36118026  *   1.76064339  *
    27       H         -3.52601432  *  -1.84452872  *  -0.40863332  *
    28       H         -3.19518091  *   0.40678667  *   0.49864215  *
    29       H          2.40514966  *   0.62978007  *  -1.03903497  *
 


          CARTESIAN COORDINATES 

    NO.       ATOM         X         Y         Z

     1         C        0.1555   -0.4902    0.0166
     2         C       -0.9978    0.3346    0.6187
     3         C       -0.1069   -1.9860    0.1836
     4         C       -0.9181    1.7947    0.1600
     5         C       -1.3963   -2.3938   -0.5090
     6         C       -1.0678    1.9486   -1.3375
     7         C        3.7558    0.7497    0.6872
     8         C       -2.3368   -0.2450    0.2951
     9         C        1.4468   -0.1392    0.6870
    10         C       -2.5179   -1.4705   -0.1977
    11         C        2.4736    0.4065    0.0336
    12         H        0.2104   -0.2461   -1.0806
    13         H       -0.9073    0.3128    1.7345
    14         H       -0.1566   -2.2395    1.2615
    15         H        0.7439   -2.5653   -0.2238
    16         H       -1.6939    2.3898    0.6808
    17         H        0.0558    2.2146    0.4833
    18         H       -1.2577   -2.4140   -1.6092
    19         H       -1.6698   -3.4272   -0.2191
    20         H       -0.3618    1.2864   -1.8674
    21         H       -0.8722    2.9785   -1.6589
    22         H       -2.0784    1.6798   -1.6723
    23         H        4.5861    0.2091    0.2132
    24         H        3.9622    1.8240    0.5890
    25         H        3.7699    0.5061    1.7579
    26         H        1.5072   -0.3612    1.7606
    27         H       -3.5260   -1.8445   -0.4086
    28         H       -3.1952    0.4068    0.4986
    29         H        2.4051    0.6298   -1.0390

  H: (PM3): J. J. P. STEWART, J. COMP. CHEM. 10, 209 (1989).
  C: (PM3): J. J. P. STEWART, J. COMP. CHEM. 10, 209 (1989).

           Empirical Formula: C11 H18  =    29 atoms



      MOLECULAR POINT GROUP   :   C1  


      RHF CALCULATION, NO. OF DOUBLY OCCUPIED LEVELS =   31



          HEAT OF FORMATION =      -4.790330 KCALS/MOLE


          INTERNAL COORDINATE DERIVATIVES

   NUMBER  ATOM       BOND         ANGLE      DIHEDRAL

     1       C      0.001775     0.000638    -0.000746
     2       C      0.001719     0.000283     0.000962
     3       C     -0.002059     0.000972    -0.001639
     4       C      0.001405     0.001205    -0.000207
     5       C     -0.001383     0.002003    -0.000770
     6       C      0.005736    -0.000229    -0.000043
     7       C     -0.005840     0.014724    -0.006968
     8       C     -0.001548    -0.000285     0.001976
     9       C     -0.000339    -0.004933    -0.000431
    10       C     -0.001626     0.001910     0.001109
    11       C     -0.003024     0.010778    -0.004606
    12       H     -0.000729     0.000107    -0.000369
    13       H      0.004204     0.001569    -0.003908
    14       H      0.000849     0.000082     0.001058
    15       H     -0.002125    -0.001307     0.002388
    16       H     -0.000013    -0.001032    -0.001349
    17       H      0.000604     0.000600    -0.001427
    18       H      0.003002    -0.000130     0.001272
    19       H     -0.001118    -0.001529     0.001306
    20       H      0.001427    -0.001716    -0.000460
    21       H     -0.002590     0.000499     0.002277
    22       H     -0.002107     0.000241     0.001349
    23       H     -0.013231    -0.003704    -0.000358
    24       H      0.007562    -0.019731     0.008263
    25       H      0.009936     0.001899    -0.002306
    26       H      0.000139    -0.001186    -0.006087
    27       H     -0.000822    -0.004695    -0.000237
    28       H     -0.001657    -0.001758     0.003722
    29       H      0.001854     0.004725     0.006227


          GRADIENT NORM =   0.03994


          TIME FOR SCF CALCULATION =    0.01

          TIME FOR DERIVATIVES     =    0.01

          MOLECULAR WEIGHT =  150.26



          ROTATIONAL CONSTANTS IN CM(-1)

          A =    0.05143009   B =    0.02550437   C =    0.01922154



           PRINCIPAL MOMENTS OF INERTIA IN UNITS OF 10**(-40)*GRAM-CM**2

          A =      544.2879   B =     1097.5678   C =     1456.3232


          ORIENTATION OF MOLECULE IN FORCE CALCULATION

    NO.       ATOM         X         Y         Z

     1          C      -0.4140    0.1893    0.0939
     2          C       1.1265    0.1893    0.0939
     3          C      -0.9532    1.6188    0.0939
     4          C       1.6694   -1.2019   -0.2500
     5          C      -0.4769    2.3810   -1.1311
     6          C       1.2786   -1.6578   -1.6386
     7          C      -2.1835   -2.3582    2.4021
     8          C       1.6921    1.2172   -0.8319
     9          C      -0.9308   -0.5317    1.2994
    10          C       0.9789    2.2063   -1.3710
    11          C      -1.6627   -1.6436    1.2159
    12          H      -0.7532   -0.3323   -0.8438
    13          H       1.4831    0.4603    1.1201
    14          H      -0.6304    2.1408    1.0170
    15          H      -2.0596    1.6038    0.1268
    16          H       2.7723   -1.2053   -0.1472
    17          H       1.2914   -1.9249    0.5008
    18          H      -1.0215    2.0427   -2.0361
    19          H      -0.7122    3.4576   -1.0206
    20          H       0.1883   -1.5676   -1.7834
    21          H       1.5580   -2.7035   -1.8136
    22          H       1.7604   -1.0484   -2.4145
    23          H      -3.2799   -2.4139    2.3673
    24          H      -1.8012   -3.3876    2.4297
    25          H      -1.9060   -1.8762    3.3491
    26          H      -0.6753   -0.0887    2.2710
    27          H       1.4510    2.9361   -2.0381
    28          H       2.7633    1.1206   -1.0469
    29          H      -1.9111   -2.0837    0.2414


    FIRST DERIVATIVES WILL BE USED IN THE CALCULATION OF SECOND DERIVATIVES

          ESTIMATED TIME TO COMPLETE CALCULATION =        6.76 SECONDS

    FOR POINT-GROUP C1   THERE ARE   1 UNIQUE SYMMETRY FUNCTIONS.

 STEP:   1 TIME =     0.07 SECS, INTEGRAL =      0.07 TIME LEFT: 172799.91
 STEP:   2 TIME =     0.07 SECS, INTEGRAL =      0.14 TIME LEFT: 172799.84
 STEP:   3 TIME =     0.07 SECS, INTEGRAL =      0.21 TIME LEFT: 172799.78
 STEP:   4 TIME =     0.07 SECS, INTEGRAL =      0.27 TIME LEFT: 172799.71
 STEP:   5 TIME =     0.07 SECS, INTEGRAL =      0.34 TIME LEFT: 172799.64
 STEP:   6 TIME =     0.07 SECS, INTEGRAL =      0.41 TIME LEFT: 172799.57
 STEP:   7 TIME =     0.06 SECS, INTEGRAL =      0.47 TIME LEFT: 172799.51
 STEP:   8 TIME =     0.06 SECS, INTEGRAL =      0.53 TIME LEFT: 172799.45
 STEP:   9 TIME =     0.06 SECS, INTEGRAL =      0.59 TIME LEFT: 172799.40
 STEP:  10 TIME =     0.06 SECS, INTEGRAL =      0.65 TIME LEFT: 172799.33
 STEP:  11 TIME =     0.06 SECS, INTEGRAL =      0.71 TIME LEFT: 172799.27
 STEP:  12 TIME =     0.06 SECS, INTEGRAL =      0.78 TIME LEFT: 172799.20
 STEP:  13 TIME =     0.07 SECS, INTEGRAL =      0.84 TIME LEFT: 172799.14
 STEP:  14 TIME =     0.06 SECS, INTEGRAL =      0.90 TIME LEFT: 172799.08
 STEP:  15 TIME =     0.06 SECS, INTEGRAL =      0.96 TIME LEFT: 172799.02
 STEP:  16 TIME =     0.06 SECS, INTEGRAL =      1.03 TIME LEFT: 172798.96
 STEP:  17 TIME =     0.06 SECS, INTEGRAL =      1.09 TIME LEFT: 172798.89
 STEP:  18 TIME =     0.07 SECS, INTEGRAL =      1.15 TIME LEFT: 172798.83
 STEP:  19 TIME =     0.06 SECS, INTEGRAL =      1.21 TIME LEFT: 172798.77
 STEP:  20 TIME =     0.06 SECS, INTEGRAL =      1.28 TIME LEFT: 172798.70
 STEP:  21 TIME =     0.06 SECS, INTEGRAL =      1.34 TIME LEFT: 172798.64
 STEP:  22 TIME =     0.06 SECS, INTEGRAL =      1.40 TIME LEFT: 172798.58
 STEP:  23 TIME =     0.06 SECS, INTEGRAL =      1.46 TIME LEFT: 172798.52
 STEP:  24 TIME =     0.06 SECS, INTEGRAL =      1.52 TIME LEFT: 172798.46
 STEP:  25 TIME =     0.07 SECS, INTEGRAL =      1.59 TIME LEFT: 172798.39
 STEP:  26 TIME =     0.06 SECS, INTEGRAL =      1.66 TIME LEFT: 172798.32
 STEP:  27 TIME =     0.07 SECS, INTEGRAL =      1.72 TIME LEFT: 172798.26
 STEP:  28 TIME =     0.06 SECS, INTEGRAL =      1.79 TIME LEFT: 172798.20
 STEP:  29 TIME =     0.07 SECS, INTEGRAL =      1.86 TIME LEFT: 172798.12
 STEP:  30 TIME =     0.07 SECS, INTEGRAL =      1.93 TIME LEFT: 172798.05
 STEP:  31 TIME =     0.07 SECS, INTEGRAL =      1.99 TIME LEFT: 172797.99
 STEP:  32 TIME =     0.07 SECS, INTEGRAL =      2.06 TIME LEFT: 172797.92
 STEP:  33 TIME =     0.07 SECS, INTEGRAL =      2.13 TIME LEFT: 172797.85
 STEP:  34 TIME =     0.06 SECS, INTEGRAL =      2.18 TIME LEFT: 172797.80
 STEP:  35 TIME =     0.06 SECS, INTEGRAL =      2.24 TIME LEFT: 172797.74
 STEP:  36 TIME =     0.07 SECS, INTEGRAL =      2.31 TIME LEFT: 172797.67
 STEP:  37 TIME =     0.07 SECS, INTEGRAL =      2.38 TIME LEFT: 172797.60
 STEP:  38 TIME =     0.06 SECS, INTEGRAL =      2.44 TIME LEFT: 172797.54
 STEP:  39 TIME =     0.06 SECS, INTEGRAL =      2.50 TIME LEFT: 172797.48
 STEP:  40 TIME =     0.06 SECS, INTEGRAL =      2.57 TIME LEFT: 172797.42
 STEP:  41 TIME =     0.06 SECS, INTEGRAL =      2.63 TIME LEFT: 172797.35
 STEP:  42 TIME =     0.06 SECS, INTEGRAL =      2.69 TIME LEFT: 172797.29
 STEP:  43 TIME =     0.06 SECS, INTEGRAL =      2.75 TIME LEFT: 172797.23
 STEP:  44 TIME =     0.06 SECS, INTEGRAL =      2.81 TIME LEFT: 172797.17
 STEP:  45 TIME =     0.06 SECS, INTEGRAL =      2.87 TIME LEFT: 172797.11
 STEP:  46 TIME =     0.07 SECS, INTEGRAL =      2.94 TIME LEFT: 172797.04
 STEP:  47 TIME =     0.06 SECS, INTEGRAL =      3.00 TIME LEFT: 172796.98
 STEP:  48 TIME =     0.06 SECS, INTEGRAL =      3.06 TIME LEFT: 172796.92
 STEP:  49 TIME =     0.07 SECS, INTEGRAL =      3.13 TIME LEFT: 172796.85
 STEP:  50 TIME =     0.06 SECS, INTEGRAL =      3.19 TIME LEFT: 172796.79
 STEP:  51 TIME =     0.06 SECS, INTEGRAL =      3.25 TIME LEFT: 172796.73
 STEP:  52 TIME =     0.06 SECS, INTEGRAL =      3.32 TIME LEFT: 172796.66
 STEP:  53 TIME =     0.06 SECS, INTEGRAL =      3.38 TIME LEFT: 172796.60
 STEP:  54 TIME =     0.07 SECS, INTEGRAL =      3.45 TIME LEFT: 172796.53
 STEP:  55 TIME =     0.06 SECS, INTEGRAL =      3.51 TIME LEFT: 172796.47
 STEP:  56 TIME =     0.06 SECS, INTEGRAL =      3.57 TIME LEFT: 172796.41
 STEP:  57 TIME =     0.06 SECS, INTEGRAL =      3.64 TIME LEFT: 172796.34
 STEP:  58 TIME =     0.06 SECS, INTEGRAL =      3.70 TIME LEFT: 172796.28
 STEP:  59 TIME =     0.07 SECS, INTEGRAL =      3.77 TIME LEFT: 172796.21
 STEP:  60 TIME =     0.08 SECS, INTEGRAL =      3.84 TIME LEFT: 172796.14
 STEP:  61 TIME =     0.07 SECS, INTEGRAL =      3.91 TIME LEFT: 172796.07
 STEP:  62 TIME =     0.06 SECS, INTEGRAL =      3.97 TIME LEFT: 172796.01
 STEP:  63 TIME =     0.06 SECS, INTEGRAL =      4.04 TIME LEFT: 172795.94
 STEP:  64 TIME =     0.06 SECS, INTEGRAL =      4.10 TIME LEFT: 172795.88
 STEP:  65 TIME =     0.06 SECS, INTEGRAL =      4.17 TIME LEFT: 172795.81
 STEP:  66 TIME =     0.06 SECS, INTEGRAL =      4.23 TIME LEFT: 172795.75
 STEP:  67 TIME =     0.06 SECS, INTEGRAL =      4.29 TIME LEFT: 172795.69
 STEP:  68 TIME =     0.06 SECS, INTEGRAL =      4.35 TIME LEFT: 172795.63
 STEP:  69 TIME =     0.07 SECS, INTEGRAL =      4.42 TIME LEFT: 172795.56
 STEP:  70 TIME =     0.06 SECS, INTEGRAL =      4.48 TIME LEFT: 172795.50
 STEP:  71 TIME =     0.06 SECS, INTEGRAL =      4.54 TIME LEFT: 172795.44
 STEP:  72 TIME =     0.07 SECS, INTEGRAL =      4.61 TIME LEFT: 172795.37
 STEP:  73 TIME =     0.07 SECS, INTEGRAL =      4.68 TIME LEFT: 172795.30
 STEP:  74 TIME =     0.06 SECS, INTEGRAL =      4.74 TIME LEFT: 172795.24
 STEP:  75 TIME =     0.06 SECS, INTEGRAL =      4.80 TIME LEFT: 172795.18
 STEP:  76 TIME =     0.07 SECS, INTEGRAL =      4.87 TIME LEFT: 172795.11
 STEP:  77 TIME =     0.07 SECS, INTEGRAL =      4.94 TIME LEFT: 172795.04
 STEP:  78 TIME =     0.06 SECS, INTEGRAL =      5.00 TIME LEFT: 172794.98
 STEP:  79 TIME =     0.06 SECS, INTEGRAL =      5.07 TIME LEFT: 172794.91
 STEP:  80 TIME =     0.06 SECS, INTEGRAL =      5.13 TIME LEFT: 172794.85
 STEP:  81 TIME =     0.06 SECS, INTEGRAL =      5.19 TIME LEFT: 172794.79
 STEP:  82 TIME =     0.06 SECS, INTEGRAL =      5.25 TIME LEFT: 172794.73
 STEP:  83 TIME =     0.07 SECS, INTEGRAL =      5.32 TIME LEFT: 172794.66
 STEP:  84 TIME =     0.07 SECS, INTEGRAL =      5.39 TIME LEFT: 172794.60
 STEP:  85 TIME =     0.07 SECS, INTEGRAL =      5.46 TIME LEFT: 172794.52
 STEP:  86 TIME =     0.06 SECS, INTEGRAL =      5.52 TIME LEFT: 172794.46
 STEP:  87 TIME =     0.06 SECS, INTEGRAL =      5.58 TIME LEFT: 172794.40

(To convert to Hartree/Bohr^2, multiply by (10^(-21) x N x a0^2)/(4.184 x 627.51) = 0.0642)


           FORCE MATRIX IN MILLIDYNES/ANGSTROM


                  C  1       C  2       C  3       C  4       C  5       C  6
 ------------------------------------------------------------------------------
     C    1  14.557077
     C    2   3.511598  14.466739
     C    3   3.903430   0.630214  14.411945
     C    4   0.605049   3.757388   0.050599  14.286276
     C    5   0.656586   0.098726   4.211887   0.009385  14.778017
     C    6   0.078008   0.618121   0.005337   4.439510   0.001016  14.325988
     C    7   0.140998   0.020788   0.020264   0.000965   0.004480   0.000703
     C    8   0.638601   4.707649   0.067483   0.694293   0.843970   0.049281
     C    9   4.667195   0.664278   0.711211   0.048017   0.053221   0.005700
     C   10   0.061905   0.794500   0.701995   0.044793   5.031203   0.005961
     C   11   0.799079   0.034705   0.038222   0.013694   0.006332   0.003527
     H   12   3.978277   0.429624   0.425692   0.049310   0.026157   0.100685
     H   13   0.436387   4.138008   0.013142   0.423146   0.013002   0.049147
     H   14   0.450762   0.020732   4.447691   0.001701   0.440685   0.000771
     H   15   0.440683   0.048963   4.498182   0.008899   0.432366   0.000521
     H   16   0.047253   0.439770   0.008737   4.464822   0.001123   0.438338
     H   17   0.028625   0.434890   0.001781   4.439395   0.001368   0.436974
     H   18   0.014385   0.014016   0.445503   0.000949   4.407125   0.000281
     H   19   0.048341   0.008954   0.430176   0.000701   4.467160   0.000152
     H   20   0.085817   0.026721   0.002117   0.463996   0.000660   4.545242
     H   21   0.005906   0.051504   0.000551   0.452309   0.000336   4.779458
     H   22   0.003267   0.014882   0.000534   0.464246   0.000410   4.730087
     H   23   0.018880   0.002540   0.003545   0.000206   0.000962   0.000187
     H   24   0.018728   0.003289   0.002224   0.000576   0.000417   0.000514
     H   25   0.002029   0.000589   0.000739   0.000345   0.000187   0.000201
     H   26   0.433313   0.020616   0.023227   0.003027   0.001514   0.000861
     H   27   0.004376   0.120007   0.042902   0.015089   0.426043   0.001038
     H   28   0.039964   0.431402   0.004199   0.036221   0.121215   0.008379
     H   29   0.083328   0.009582   0.009058   0.001603   0.002201   0.003141


                  C  7       C  8       C  9       C 10       C 11       H 12
 ------------------------------------------------------------------------------
     C    7  14.719485
     C    8   0.004319  18.237941
     C    9   0.846075   0.049163  18.173360
     C   10   0.000831  10.720316   0.004914  18.232167
     C   11   5.267121   0.006347  10.696262   0.002188  18.187656
     H   12   0.002272   0.010256   0.441770   0.006865   0.057395   4.528562
     H   13   0.000936   0.385706   0.049608   0.031891   0.002263   0.039284
     H   14   0.000588   0.006804   0.033227   0.010879   0.001801   0.041670
     H   15   0.000842   0.004519   0.029661   0.051335   0.002848   0.026445
     H   16   0.000327   0.030486   0.002293   0.002177   0.000640   0.002292
     H   17   0.000952   0.050365   0.010387   0.008248   0.008669   0.003368
     H   18   0.000309   0.029703   0.001139   0.411520   0.000773   0.010162
     H   19   0.000840   0.043878   0.009399   0.433042   0.001190   0.002040
     H   20   0.000652   0.003199   0.001864   0.000932   0.002998   0.108189
     H   21   0.000427   0.004009   0.001061   0.000857   0.000739   0.002594
     H   22   0.000283   0.009117   0.000777   0.004194   0.000608   0.001101
     H   23   4.707842   0.000566   0.035655   0.000333   0.439020   0.000498
     H   24   4.705538   0.001250   0.035358   0.000364   0.438539   0.000580
     H   25   4.724309   0.000417   0.041489   0.000467   0.479255   0.000572
     H   26   0.082122   0.002026   4.751101   0.001194   0.467682   0.035546
     H   27   0.000452   0.443015   0.001418   4.824387   0.000344   0.000644
     H   28   0.000694   4.787276   0.007903   0.442374   0.000978   0.000936
     H   29   0.423397   0.002446   0.469846   0.000930   4.762504   0.029061


                  H 13       H 14       H 15       H 16       H 17       H 18
 ------------------------------------------------------------------------------
     H   13   4.608325
     H   14   0.008307   5.063902
     H   15   0.001228   0.565398   5.112146
     H   16   0.035402   0.000487   0.001759   5.079444
     H   17   0.034154   0.000420   0.000524   0.558865   5.041111
     H   18   0.001939   0.043553   0.034313   0.000372   0.000168   5.006372
     H   19   0.000970   0.035872   0.024955   0.000291   0.000334   0.566652
     H   20   0.002540   0.000515   0.000311   0.048458   0.022062   0.000354
     H   21   0.008233   0.000246   0.000227   0.024760   0.033786   0.000165
     H   22   0.001756   0.000121   0.000082   0.028692   0.047855   0.000223
     H   23   0.000162   0.000157   0.000245   0.000156   0.000246   0.000101
     H   24   0.000206   0.000131   0.000257   0.000175   0.000214   0.000074
     H   25   0.000271   0.000174   0.000183   0.000115   0.000181   0.000092
     H   26   0.024340   0.019330   0.002575   0.000405   0.001365   0.000687
     H   27   0.015694   0.001420   0.007017   0.000607   0.002417   0.018131
     H   28   0.020305   0.000460   0.000895   0.025625   0.002185   0.016946
     H   29   0.000822   0.000680   0.000610   0.000534   0.001181   0.000294


                  H 19       H 20       H 21       H 22       H 23       H 24
 ------------------------------------------------------------------------------
     H   19   5.064230
     H   20   0.000220   5.311026
     H   21   0.000099   0.547129   5.497547
     H   22   0.000221   0.567022   0.563172   5.459459
     H   23   0.000249   0.000138   0.000114   0.000063   5.426163
     H   24   0.000123   0.000182   0.000117   0.000108   0.575386   5.425244
     H   25   0.000094   0.000165   0.000077   0.000072   0.565078   0.563912
     H   26   0.000462   0.000544   0.000349   0.000428   0.009291   0.009161
     H   27   0.035331   0.000287   0.000169   0.000579   0.000164   0.000076
     H   28   0.013707   0.000785   0.000785   0.005853   0.000094   0.000260
     H   29   0.000428   0.006227   0.000456   0.000488   0.023838   0.023960


                  H 25       H 26       H 27       H 28       H 29
 ------------------------------------------------------------------
     H   25   5.450743
     H   26   0.029484   5.137782
     H   27   0.000140   0.000543   5.199482
     H   28   0.000108   0.000509   0.069244   5.168648
     H   29   0.041005   0.103997   0.000228   0.000480   5.138976


          HEAT OF FORMATION =      -4.790330 KCALS/MOLE

          ZERO POINT ENERGY     163.385 KCAL/MOL


           NORMAL COORDINATE ANALYSIS (Total motion = 1 Angstrom)


   Root No.       1         2         3         4         5         6         7         8

                 1 A       2 A       3 A       4 A       5 A       6 A       7 A       8 A   

                  55.3      69.4     131.1     135.6     138.7     170.2     223.4     248.3
  
           1   -0.0086   -0.0119   -0.0042   -0.0096   -0.0049    0.0024   -0.0014    0.0099
           2    0.0176    0.0007   -0.0053    0.0033   -0.0090   -0.0026   -0.0034   -0.0001
           3   -0.0011   -0.0034   -0.0159   -0.0041   -0.0182   -0.0002    0.0003    0.0141
           4   -0.0086   -0.0115   -0.0040   -0.0094   -0.0050    0.0014   -0.0010    0.0081
           5    0.0061   -0.0086   -0.0003   -0.0018   -0.0047   -0.0014    0.0003    0.0037
           6    0.0017    0.0075   -0.0056   -0.0005   -0.0133   -0.0035    0.0094    0.0022
           7    0.0048   -0.0079   -0.0144   -0.0017   -0.0105    0.0013   -0.0030   -0.0302
           8    0.0223    0.0019   -0.0092    0.0063   -0.0102   -0.0019   -0.0040   -0.0173
           9    0.0021   -0.0206   -0.0192    0.0024   -0.0052    0.0066   -0.0073   -0.0251
          10   -0.0175   -0.0201    0.0052   -0.0167    0.0034    0.0041    0.0057   -0.0092
          11   -0.0018   -0.0079    0.0027   -0.0083   -0.0044    0.0000    0.0038   -0.0042
          12    0.0204   -0.0099   -0.0039    0.0161   -0.0006   -0.0053    0.0072    0.0010
          13    0.0094    0.0115    0.0062    0.0043    0.0058   -0.0033    0.0117    0.0046
          14    0.0184   -0.0071    0.0104    0.0142    0.0275    0.0082    0.0108    0.0090
          15    0.0011   -0.0187    0.0011    0.0094    0.0252    0.0120    0.0069    0.0042
          16   -0.0283   -0.0041   -0.0161    0.0333    0.0187    0.0019   -0.0034   -0.0089
          17   -0.0229    0.0223   -0.0227    0.0125   -0.0153   -0.0007    0.0259    0.0034
          18    0.0305   -0.0244    0.0106   -0.0046   -0.0011   -0.0045    0.0027   -0.0023
          19    0.0311    0.0198    0.0159    0.0157    0.0002   -0.0359    0.0004   -0.0108
          20   -0.0269   -0.0025    0.0033   -0.0058    0.0165    0.0252   -0.0047   -0.0113
          21   -0.0205    0.0187    0.0104    0.0064    0.0186    0.0009    0.0032   -0.0182
          22   -0.0022    0.0071    0.0043   -0.0071   -0.0047   -0.0050    0.0003    0.0031
          23   -0.0073   -0.0012    0.0100   -0.0157   -0.0042   -0.0014   -0.0148   -0.0048
          24   -0.0092    0.0274    0.0120   -0.0142   -0.0119   -0.0081   -0.0072   -0.0079
          25   -0.0128   -0.0173    0.0014   -0.0073   -0.0029   -0.0090   -0.0066    0.0256
          26    0.0130    0.0121   -0.0041    0.0013   -0.0058    0.0049   -0.0009    0.0111
          27   -0.0058    0.0014   -0.0126   -0.0043   -0.0148   -0.0005    0.0003    0.0302
          28    0.0055    0.0177    0.0100   -0.0018    0.0011   -0.0066    0.0037    0.0017
          29   -0.0013   -0.0008    0.0184   -0.0095    0.0124    0.0012   -0.0183   -0.0025
          30   -0.0086    0.0144    0.0202   -0.0099    0.0110   -0.0012   -0.0165   -0.0006
          31    0.0261    0.0147   -0.0046   -0.0065   -0.0041    0.0601   -0.0072    0.0172
          32   -0.0121   -0.0097   -0.0008    0.0006   -0.0060   -0.0408   -0.0008    0.0178
          33   -0.0137    0.0120   -0.0014    0.0003    0.0024    0.0033    0.0019    0.0139
          34   -0.0111   -0.0093   -0.0004   -0.0069   -0.0014    0.0019    0.0052    0.0110
          35    0.0236   -0.0057   -0.0099    0.0061   -0.0090   -0.0013   -0.0097   -0.0228
          36   -0.0035   -0.0008   -0.0142   -0.0066   -0.0187   -0.0005    0.0016    0.0252
          37   -0.0090   -0.0174   -0.0131   -0.0100   -0.0103    0.0025   -0.0046    0.0201
          38    0.0160   -0.0266   -0.0047    0.0096    0.0019   -0.0007    0.0082    0.0064
          39   -0.0008    0.0143   -0.0009   -0.0034   -0.0130   -0.0043    0.0079   -0.0031
          40    0.0120   -0.0199   -0.0415   -0.0011   -0.0326    0.0027   -0.0211   -0.1043
          41    0.0185    0.0078   -0.0149   -0.0021   -0.0290   -0.0064   -0.0088   -0.0059
          42    0.0018   -0.0197   -0.0064    0.0070    0.0135    0.0090    0.0018   -0.0059
          43    0.0047   -0.0084   -0.0152   -0.0018   -0.0112    0.0013   -0.0036   -0.0321
          44    0.0331    0.0046   -0.0195    0.0122   -0.0176   -0.0033   -0.0073   -0.0578
          45    0.0048   -0.0364   -0.0457    0.0000   -0.0273    0.0093   -0.0264   -0.0893
          46   -0.0169   -0.0216    0.0075   -0.0213    0.0024    0.0044    0.0065   -0.0100
          47   -0.0056   -0.0208    0.0177   -0.0277    0.0005    0.0030    0.0106   -0.0214
          48    0.0140    0.0062   -0.0263    0.0633    0.0102   -0.0080   -0.0005    0.0065
          49   -0.0168   -0.0385    0.0300   -0.0615   -0.0010    0.0076    0.0158   -0.0245
          50    0.0121   -0.0182    0.0067   -0.0070   -0.0011   -0.0014   -0.0069    0.0002
          51    0.0342   -0.0290    0.0124   -0.0049    0.0005   -0.0049    0.0012   -0.0022
          52   -0.0006    0.0325    0.0225   -0.0115   -0.0019   -0.0129   -0.0079    0.0066
          53    0.0284   -0.0199    0.0239    0.0393    0.0751    0.0229    0.0516    0.0512
          54    0.0035   -0.0265   -0.0137    0.0095    0.0121    0.0123    0.0036   -0.0128
          55    0.0255    0.0020    0.0015    0.0275    0.0266    0.0053    0.0454    0.0241
          56    0.0216   -0.0076    0.0081    0.0175    0.0277    0.0087    0.0153    0.0102
          57    0.0049   -0.0343    0.0145    0.0279    0.0691    0.0264    0.0379    0.0383
          58   -0.0290   -0.0017   -0.0209    0.0428    0.0208    0.0004   -0.0240   -0.0045
          59   -0.0219    0.0320   -0.0482    0.0526   -0.0111   -0.0094   -0.1193    0.0339
          60    0.0362   -0.0371    0.0315   -0.0521   -0.0140    0.0013    0.0694   -0.0165
          61   -0.0327   -0.0087    0.0024    0.0048    0.0162    0.0099    0.1399   -0.0396
          62   -0.0266    0.0240   -0.0191    0.0039   -0.0181    0.0019    0.0776   -0.0060
          63    0.0455   -0.0415    0.0184    0.0018    0.0117   -0.0078   -0.0758    0.0048
          64   -0.0316    0.0103   -0.0456    0.0905    0.0307   -0.0069   -0.1355    0.0189
          65   -0.0369    0.0346   -0.0227    0.0003   -0.0246    0.0048    0.1451   -0.0147
          66    0.0175   -0.0057   -0.0076    0.0212   -0.0009   -0.0057    0.0133    0.0009
          67    0.0336    0.0216    0.0097    0.0103    0.0062   -0.0419    0.0004   -0.0100
          68   -0.0644   -0.0316    0.0852    0.0627   -0.0721    0.1515   -0.0085   -0.0095
          69   -0.0380    0.0074    0.0755    0.0653   -0.0240   -0.0271    0.0094   -0.0493
          70    0.0657    0.0461   -0.0580   -0.0458    0.0802   -0.1555    0.0041   -0.0128
          71   -0.0139    0.0078   -0.0252   -0.0299    0.0478   -0.0178   -0.0035   -0.0126
          72   -0.0122    0.0409   -0.0411   -0.0473    0.0892    0.0264   -0.0015   -0.0372
          73   -0.0004   -0.0032    0.1088    0.0976   -0.0775   -0.0060    0.0043   -0.0347
          74   -0.0153    0.0210   -0.0433   -0.0530    0.0882    0.0080   -0.0063   -0.0366
          75   -0.0172    0.0134    0.0070    0.0065    0.0050    0.0009    0.0029    0.0012
          76   -0.0453   -0.0449    0.0160    0.0013   -0.0018   -0.0994   -0.0062    0.0366
          77    0.0273    0.0375   -0.0068   -0.0024    0.0030    0.0650   -0.0009    0.0059
          78   -0.0039   -0.0029   -0.0149   -0.0047   -0.0186   -0.0041    0.0002    0.0287
          79    0.0095    0.0314    0.0176   -0.0011    0.0032   -0.0098    0.0025    0.0004
          80   -0.0103    0.0030    0.0300   -0.0200    0.0161   -0.0004   -0.0379   -0.0060
          81   -0.0157    0.0284    0.0382   -0.0209    0.0164   -0.0053   -0.0390   -0.0058
          82   -0.0051    0.0125    0.0065   -0.0115   -0.0089   -0.0073   -0.0028   -0.0002
          83   -0.0217    0.0024    0.0136   -0.0321   -0.0153   -0.0040   -0.0274   -0.0121
          84   -0.0168    0.0526    0.0216   -0.0286   -0.0278   -0.0185   -0.0179   -0.0211
          85    0.0595    0.0406   -0.0251   -0.0214   -0.0063    0.1661   -0.0097    0.0230
          86   -0.0248   -0.0349    0.0005    0.0048   -0.0225   -0.1109   -0.0002    0.0414
          87   -0.0167    0.0168    0.0035    0.0024    0.0108    0.0079    0.0023    0.0008


   Root No.       9        10        11        12        13        14        15        16

                 9 A      10 A      11 A      12 A      13 A      14 A      15 A      16 A   

                 289.3     291.5     333.6     399.4     439.7     469.7     501.3     564.3
  
           1    0.0019   -0.0120   -0.0106   -0.0066   -0.0317   -0.0043    0.0208   -0.0070
           2    0.0043    0.0007   -0.0075    0.0045    0.0067    0.0243    0.0209   -0.0307
           3   -0.0027    0.0088    0.0010   -0.0032   -0.0094    0.0305    0.0315    0.0315
           4   -0.0008   -0.0103   -0.0086   -0.0091   -0.0354   -0.0020    0.0213   -0.0213
           5   -0.0064   -0.0135    0.0184    0.0068   -0.0153    0.0187   -0.0163    0.0022
           6   -0.0141   -0.0099   -0.0214    0.0041   -0.0013    0.0025    0.0211    0.0096
           7   -0.0008    0.0060    0.0163    0.0059   -0.0109   -0.0299    0.0042    0.0281
           8    0.0029    0.0107    0.0037    0.0112    0.0201    0.0157    0.0292   -0.0278
           9    0.0068   -0.0010   -0.0081   -0.0026    0.0016    0.0172   -0.0216   -0.0130
          10   -0.0264    0.0273   -0.0126   -0.0213    0.0166   -0.0100    0.0141   -0.0132
          11   -0.0224    0.0023    0.0147    0.0038    0.0064    0.0201   -0.0264    0.0137
          12    0.0092   -0.0245    0.0082   -0.0111    0.0011   -0.0185    0.0010   -0.0031
          13   -0.0135    0.0023    0.0203    0.0012    0.0037    0.0136   -0.0134    0.0126
          14   -0.0085    0.0102    0.0019    0.0161    0.0023   -0.0175    0.0368    0.0015
          15   -0.0029   -0.0019   -0.0137   -0.0060   -0.0066    0.0101   -0.0308   -0.0062
          16    0.0165    0.0298   -0.0034    0.0107    0.0051    0.0123    0.0028    0.0006
          17   -0.0187   -0.0282    0.0107   -0.0256    0.0099   -0.0185   -0.0055   -0.0017
          18   -0.0027   -0.0146    0.0078   -0.0107    0.0048   -0.0138   -0.0035   -0.0027
          19    0.0039   -0.0072   -0.0275   -0.0093    0.0004    0.0038   -0.0037    0.0174
          20    0.0091   -0.0274   -0.0327   -0.0065    0.0100    0.0074   -0.0037    0.0249
          21   -0.0120   -0.0031    0.0191    0.0038   -0.0089    0.0028    0.0101   -0.0163
          22   -0.0050   -0.0103    0.0059    0.0020   -0.0170    0.0177   -0.0281   -0.0296
          23    0.0011   -0.0046    0.0074    0.0271   -0.0298   -0.0074   -0.0062    0.0031
          24   -0.0077   -0.0017   -0.0303    0.0363    0.0044   -0.0116   -0.0004    0.0008
          25    0.0169   -0.0308    0.0058    0.0226    0.0356   -0.0077   -0.0006   -0.0054
          26    0.0100    0.0337   -0.0265   -0.0151   -0.0104   -0.0133   -0.0223   -0.0074
          27    0.0050    0.0261    0.0089    0.0020    0.0048    0.0046    0.0001    0.0404
          28   -0.0048    0.0013    0.0255   -0.0055    0.0054    0.0141   -0.0121    0.0091
          29    0.0197    0.0057    0.0349   -0.0124   -0.0109   -0.0070    0.0133    0.0219
          30    0.0234    0.0028   -0.0043   -0.0268    0.0137   -0.0003    0.0078   -0.0138
          31    0.0131   -0.0082   -0.0060    0.0082    0.0217   -0.0062   -0.0080   -0.0022
          32    0.0140    0.0185   -0.0233   -0.0068    0.0011   -0.0144   -0.0209   -0.0031
          33   -0.0028    0.0247    0.0294    0.0100   -0.0011   -0.0167   -0.0084   -0.0317
          34   -0.0001   -0.0148   -0.0223   -0.0032   -0.0522    0.0093    0.0335   -0.0136
          35   -0.0015   -0.0143   -0.0098    0.0029    0.0139    0.0249    0.0254   -0.0633
          36    0.0002    0.0180    0.0072   -0.0036   -0.0053    0.0228    0.0232    0.0506
          37    0.0087   -0.0066   -0.0072   -0.0151   -0.0504    0.0164    0.0543   -0.0113
          38   -0.0025   -0.0225    0.0441   -0.0222   -0.0073    0.0130   -0.0273    0.0086
          39   -0.0178   -0.0084   -0.0282    0.0146    0.0030   -0.0027    0.0115    0.0051
          40    0.0133    0.0190    0.0330    0.0232    0.0090   -0.0915   -0.0191    0.0514
          41    0.0063    0.0100    0.0005    0.0056    0.0146    0.0358    0.0621   -0.0310
          42   -0.0001   -0.0047   -0.0121   -0.0052   -0.0026    0.0256   -0.0333   -0.0180
          43   -0.0002    0.0061    0.0166    0.0066   -0.0104   -0.0322    0.0044    0.0287
          44    0.0023    0.0234    0.0284    0.0249    0.0460   -0.0044    0.0002   -0.0065
          45    0.0232    0.0076   -0.0027    0.0103    0.0104   -0.0421   -0.0342   -0.0001
          46   -0.0311    0.0299   -0.0142   -0.0235    0.0203   -0.0097    0.0148   -0.0130
          47   -0.0528    0.0464    0.0047   -0.0046    0.0647    0.0274   -0.0346    0.0282
          48    0.0544   -0.0422    0.0229    0.0104   -0.0256   -0.0152   -0.0071   -0.0029
          49   -0.0791    0.0698   -0.0300   -0.0425    0.0757   -0.0073    0.0154   -0.0037
          50   -0.0089   -0.0100    0.0268    0.0094   -0.0163    0.0207   -0.0342    0.0074
          51   -0.0033   -0.0157    0.0115   -0.0150    0.0073   -0.0165   -0.0062   -0.0041
          52    0.0112    0.0021    0.0425   -0.0347    0.0162    0.0317   -0.0020    0.0085
          53   -0.0505    0.0108   -0.0260    0.0572   -0.0156   -0.0559    0.0361    0.0291
          54   -0.0024   -0.0019   -0.0168    0.0013   -0.0077    0.0123   -0.0373   -0.0130
          55   -0.0511    0.0033   -0.0134    0.0445    0.0047    0.0037   -0.0169    0.0021
          56   -0.0139    0.0105   -0.0040    0.0232    0.0047   -0.0159    0.0373   -0.0047
          57   -0.0346   -0.0019   -0.0301    0.0240   -0.0323   -0.0332   -0.0392    0.0370
          58    0.0091    0.0260   -0.0032    0.0096    0.0046    0.0106    0.0018    0.0016
          59   -0.0983   -0.0509    0.0048   -0.0598    0.0239   -0.0481    0.0056   -0.0125
          60    0.0046   -0.0002    0.0024   -0.0208    0.0146   -0.0157    0.0099   -0.0155
          61    0.1050    0.0529    0.0032    0.0491   -0.0084    0.0452   -0.0057    0.0109
          62    0.0099   -0.0247    0.0123   -0.0197    0.0076   -0.0160   -0.0036   -0.0030
          63   -0.0316    0.0008    0.0102    0.0128   -0.0007    0.0206   -0.0282    0.0194
          64   -0.0333    0.0086   -0.0028    0.0011    0.0054    0.0004   -0.0016    0.0061
          65    0.0447   -0.0313    0.0134   -0.0249    0.0068   -0.0303    0.0074   -0.0128
          66    0.0160   -0.0301    0.0101   -0.0156    0.0022   -0.0300    0.0037   -0.0077
          67    0.0042   -0.0069   -0.0276   -0.0093    0.0003    0.0033   -0.0043    0.0172
          68    0.0101   -0.0331   -0.0268    0.0006    0.0242    0.0104    0.0001    0.0267
          69   -0.0232   -0.0061   -0.0022   -0.0160   -0.0363    0.0195    0.0216    0.0145
          70    0.0032   -0.0016   -0.0357   -0.0174   -0.0131    0.0018   -0.0083    0.0217
          71    0.0089   -0.0268   -0.0360   -0.0093    0.0059    0.0076   -0.0046    0.0280
          72   -0.0139   -0.0485    0.0165    0.0105    0.0085    0.0264    0.0325    0.0112
          73   -0.0046   -0.0089   -0.0430   -0.0235   -0.0177    0.0163    0.0043    0.0416
          74    0.0047   -0.0664   -0.0434   -0.0080    0.0158    0.0307    0.0155    0.0587
          75   -0.0074    0.0166    0.0285    0.0084   -0.0066   -0.0119   -0.0014   -0.0389
          76    0.0256   -0.0582    0.0278    0.0567    0.0943   -0.0147    0.0017   -0.0249
          77    0.0073    0.0600   -0.0331   -0.0331   -0.0407   -0.0385   -0.0541   -0.0267
          78    0.0036    0.0205    0.0059    0.0013    0.0029    0.0183    0.0144    0.0535
          79   -0.0005    0.0108    0.0304   -0.0079    0.0277    0.0000    0.0190    0.0241
          80    0.0479    0.0084    0.0567   -0.0445   -0.0099   -0.0106    0.0102    0.0203
          81    0.0574    0.0125    0.0235   -0.0638    0.0311   -0.0142    0.0256   -0.0042
          82   -0.0059   -0.0099    0.0028    0.0150   -0.0183    0.0118   -0.0341   -0.0298
          83    0.0033   -0.0060   -0.0152    0.0564   -0.0492   -0.0315   -0.0078   -0.0184
          84   -0.0121   -0.0005   -0.0359    0.0887    0.0048   -0.0299   -0.0325    0.0077
          85    0.0133    0.0222   -0.0191   -0.0137   -0.0101   -0.0113   -0.0256    0.0106
          86    0.0236    0.0185   -0.0184    0.0076    0.0294   -0.0153   -0.0197    0.0117
          87   -0.0075    0.0159    0.0299    0.0088   -0.0059   -0.0141   -0.0037   -0.0406


   Root No.      17        18        19        20        21        22        23        24

                17 A      18 A      19 A      20 A      21 A      22 A      23 A      24 A   

                 636.3     710.4     785.7     837.6     854.5     872.1     920.4     926.7
  
           1    0.0152   -0.0011    0.0183    0.0034    0.0099   -0.0066   -0.0115    0.0003
           2   -0.0042    0.0030    0.0075    0.0040   -0.0068    0.0049   -0.0149    0.0104
           3   -0.0159    0.0093    0.0010    0.0027   -0.0005    0.0011   -0.0091    0.0038
           4    0.0048    0.0058   -0.0073   -0.0027   -0.0081    0.0018    0.0154   -0.0042
           5    0.0180    0.0083   -0.0028    0.0033   -0.0058    0.0068    0.0109   -0.0065
           6    0.0445   -0.0132    0.0105    0.0014   -0.0205    0.0169    0.0234   -0.0096
           7    0.0138   -0.0032    0.0117   -0.0031    0.0128   -0.0273   -0.0180    0.0226
           8   -0.0084    0.0007   -0.0011   -0.0022    0.0064   -0.0003    0.0008   -0.0034
           9   -0.0101   -0.0134    0.0132   -0.0042    0.0007    0.0033   -0.0041   -0.0026
          10   -0.0202   -0.0056   -0.0133   -0.0323   -0.0072    0.0080    0.0051   -0.0033
          11    0.0319    0.0182    0.0053   -0.0187    0.0090   -0.0100   -0.0049    0.0033
          12   -0.0115   -0.0037    0.0017    0.0136   -0.0008    0.0011    0.0035   -0.0023
          13   -0.0056   -0.0207    0.0085   -0.0051   -0.0037    0.0039    0.0021   -0.0009
          14    0.0050   -0.0007   -0.0108   -0.0008    0.0206   -0.0205    0.0281   -0.0149
          15   -0.0031   -0.0179    0.0018   -0.0014    0.0001   -0.0064    0.0127   -0.0025
          16   -0.0024    0.0003   -0.0014   -0.0053   -0.0006    0.0015   -0.0037    0.0019
          17   -0.0047    0.0036    0.0007   -0.0096    0.0053   -0.0062   -0.0046    0.0032
          18   -0.0114    0.0007   -0.0009    0.0006    0.0050   -0.0054   -0.0082    0.0047
          19   -0.0032    0.0002   -0.0019   -0.0005   -0.0126   -0.0094   -0.0006    0.0010
          20   -0.0049    0.0003   -0.0011   -0.0006    0.0068    0.0078    0.0000   -0.0012
          21    0.0028    0.0000    0.0031    0.0006   -0.0004   -0.0002   -0.0031    0.0017
          22   -0.0132    0.0321   -0.0306    0.0195    0.0039   -0.0073    0.0044    0.0008
          23   -0.0211   -0.0183   -0.0158    0.0098   -0.0059    0.0066   -0.0092    0.0051
          24    0.0034   -0.0134   -0.0111   -0.0036    0.0041    0.0018   -0.0169    0.0061
          25    0.0070   -0.0032    0.0050    0.0000    0.0227    0.0167   -0.0090   -0.0329
          26    0.0041   -0.0035    0.0015   -0.0005   -0.0163   -0.0099    0.0046    0.0223
          27   -0.0179    0.0108   -0.0177    0.0012    0.0060   -0.0051    0.0096   -0.0054
          28   -0.0041   -0.0115    0.0018    0.0012   -0.0078    0.0131   -0.0010   -0.0053
          29   -0.0051   -0.0312   -0.0019    0.0051   -0.0116    0.0145   -0.0067    0.0002
          30    0.0239    0.0250   -0.0243    0.0044    0.0120   -0.0122   -0.0108    0.0077
          31    0.0033   -0.0032    0.0004   -0.0003   -0.0158   -0.0097   -0.0037   -0.0103
          32    0.0062   -0.0047    0.0050   -0.0007    0.0080    0.0087    0.0011    0.0072
          33    0.0110   -0.0057    0.0057   -0.0007   -0.0026    0.0016   -0.0010   -0.0002
          34    0.0528   -0.0049    0.0353    0.0226   -0.0161    0.0064    0.0175   -0.0095
          35   -0.0070   -0.0111    0.0289   -0.0059   -0.0048    0.0125   -0.0464    0.0228
          36   -0.0278    0.0186   -0.0186    0.0002    0.0072   -0.0069   -0.0001   -0.0007
          37    0.0025    0.0115    0.0139    0.0074   -0.0158    0.0019    0.0126    0.0115
          38    0.0131    0.0305    0.0144    0.0026   -0.0017    0.0023    0.0438   -0.0232
          39    0.0460   -0.0205   -0.0005   -0.0022   -0.0178    0.0175    0.0145   -0.0100
          40    0.0449    0.0722   -0.0613    0.0243   -0.0350    0.0470    0.0353   -0.0289
          41   -0.0155    0.0138    0.0115    0.0016    0.0118    0.0035   -0.0605    0.0148
          42   -0.0161   -0.0450    0.0301   -0.0151    0.0126   -0.0225    0.0126    0.0040
          43    0.0156    0.0004    0.0093   -0.0018    0.0118   -0.0249   -0.0170    0.0207
          44   -0.0079    0.0242   -0.0486    0.0034   -0.0312    0.0526    0.0634   -0.0434
          45    0.0215    0.0621   -0.0450    0.0240   -0.0380    0.0689    0.0256   -0.0470
          46   -0.0192   -0.0061   -0.0092   -0.0131   -0.0069    0.0069    0.0066   -0.0035
          47    0.0292    0.0127    0.0429    0.0982    0.0242   -0.0211   -0.0304    0.0131
          48   -0.0194    0.0031   -0.0298   -0.1390    0.0006    0.0071   -0.0180    0.0038
          49   -0.0177   -0.0166    0.0318    0.1543   -0.0011    0.0004    0.0054   -0.0018
          50    0.0231    0.0283   -0.0074   -0.0386    0.0162   -0.0182   -0.0058    0.0027
          51   -0.0184    0.0008    0.0108    0.0811    0.0095   -0.0108    0.0019   -0.0016
          52    0.0185   -0.0595   -0.0293   -0.0018    0.0153   -0.0143    0.0430   -0.0222
          53   -0.0089    0.1056   -0.0030    0.0154   -0.0335    0.0494   -0.0645    0.0215
          54   -0.0129   -0.0311    0.0223   -0.0091    0.0070   -0.0190    0.0204   -0.0028
          55   -0.0280    0.0592    0.0276   -0.0057   -0.0292    0.0472   -0.0513    0.0126
          56    0.0006    0.0118   -0.0083   -0.0020    0.0201   -0.0163    0.0237   -0.0157
          57   -0.0122    0.0560    0.0149    0.0143   -0.0576    0.0557   -0.0743    0.0409
          58   -0.0005   -0.0002    0.0026    0.0140    0.0004   -0.0006   -0.0011    0.0009
          59   -0.0410   -0.0088   -0.0097   -0.0019   -0.0018    0.0065   -0.0091    0.0028
          60   -0.0398   -0.0026   -0.0306   -0.1148   -0.0058    0.0140   -0.0258    0.0105
          61    0.0287    0.0109    0.0172    0.0389    0.0096   -0.0151   -0.0012    0.0043
          62   -0.0081    0.0018    0.0032    0.0123    0.0055   -0.0066   -0.0037    0.0026
          63    0.0504    0.0274    0.0131   -0.0531    0.0208   -0.0295   -0.0132    0.0131
          64    0.0011   -0.0020    0.0146    0.0798    0.0055   -0.0081    0.0044    0.0000
          65   -0.0376   -0.0105    0.0017    0.0621    0.0015   -0.0001   -0.0023   -0.0001
          66   -0.0344   -0.0114    0.0092    0.1042    0.0058   -0.0064   -0.0017    0.0012
          67   -0.0029    0.0000   -0.0014   -0.0005   -0.0099   -0.0069   -0.0007    0.0010
          68   -0.0072    0.0004   -0.0082   -0.0009   -0.0603   -0.0467   -0.0019    0.0012
          69   -0.0107    0.0112   -0.0037    0.0028    0.0825    0.0526    0.0137   -0.0038
          70   -0.0028    0.0006    0.0033   -0.0006    0.0543    0.0449    0.0032   -0.0022
          71   -0.0055    0.0009   -0.0002   -0.0007    0.0279    0.0245    0.0018   -0.0025
          72   -0.0133    0.0101   -0.0169    0.0025   -0.0656   -0.0666    0.0060   -0.0005
          73   -0.0135    0.0079   -0.0082    0.0006    0.0360    0.0203    0.0121   -0.0028
          74   -0.0216    0.0109   -0.0187    0.0008   -0.0147   -0.0230    0.0133   -0.0057
          75    0.0135   -0.0070    0.0131   -0.0004   -0.0034    0.0064   -0.0131    0.0050
          76    0.0137   -0.0112   -0.0048   -0.0028   -0.0584   -0.0135    0.0723    0.2438
          77    0.0195   -0.0130    0.0160   -0.0035    0.0324    0.0151   -0.0395   -0.1650
          78   -0.0263    0.0170   -0.0213    0.0034    0.0051   -0.0085    0.0082    0.0073
          79    0.0037    0.0124    0.0545   -0.0290   -0.0021    0.0140    0.0144   -0.0222
          80   -0.0344    0.0519    0.0969   -0.0114   -0.0479    0.0368    0.0145   -0.0021
          81   -0.0021    0.1325    0.1218   -0.0358   -0.0230    0.0122    0.0228   -0.0064
          82   -0.0392    0.0481    0.0029    0.0120    0.0087   -0.0177    0.0297   -0.0106
          83   -0.0915    0.0400    0.0606    0.0002    0.0096   -0.0365    0.0678   -0.0164
          84   -0.0964    0.0400    0.1227   -0.0377    0.0206   -0.0309    0.0737   -0.0398
          85   -0.0008   -0.0002    0.0055    0.0002    0.1093    0.0955    0.0588    0.1692
          86    0.0010   -0.0027   -0.0099   -0.0010   -0.0692   -0.0632   -0.0249   -0.1143
          87    0.0140   -0.0071    0.0110   -0.0005    0.0004    0.0071   -0.0052    0.0087


   Root No.      25        26        27        28        29        30        31        32

                25 A      26 A      27 A      28 A      29 A      30 A      31 A      32 A   

                 962.6     972.8     979.8     995.8    1003.4    1029.9    1039.2    1060.2
  
           1    0.0080    0.0056    0.0081   -0.0117    0.0084   -0.0023    0.0069    0.0148
           2    0.0065    0.0051    0.0102   -0.0039   -0.0067    0.0063    0.0153   -0.0020
           3    0.0123   -0.0077    0.0015   -0.0015    0.0003    0.0013    0.0069    0.0046
           4    0.0025    0.0073   -0.0142    0.0116    0.0010    0.0004   -0.0046   -0.0022
           5   -0.0099   -0.0123    0.0169    0.0077    0.0075    0.0008    0.0006   -0.0013
           6   -0.0124   -0.0071    0.0037   -0.0015   -0.0177   -0.0033   -0.0078   -0.0163
           7   -0.0159   -0.0114    0.0086    0.0132   -0.0117    0.0013   -0.0028   -0.0107
           8   -0.0066    0.0000   -0.0053    0.0126   -0.0034   -0.0068   -0.0099   -0.0036
           9   -0.0043    0.0008   -0.0027   -0.0109    0.0129    0.0003   -0.0154   -0.0021
          10   -0.0038   -0.0039    0.0050    0.0077    0.0099    0.0037   -0.0072   -0.0127
          11    0.0053    0.0044   -0.0039    0.0039    0.0087    0.0046    0.0111   -0.0106
          12   -0.0044   -0.0054    0.0083   -0.0018   -0.0049   -0.0047   -0.0094    0.0133
          13    0.0052    0.0046   -0.0028    0.0217   -0.0034   -0.0049    0.0094    0.0104
          14   -0.0030   -0.0072   -0.0046   -0.0239    0.0080    0.0043    0.0063    0.0027
          15    0.0033    0.0012    0.0005    0.0091   -0.0094    0.0000    0.0186    0.0036
          16   -0.0004   -0.0024    0.0043   -0.0046   -0.0058   -0.0010    0.0084    0.0056
          17    0.0094    0.0121   -0.0171   -0.0083   -0.0101   -0.0038   -0.0116    0.0092
          18    0.0077    0.0106   -0.0165   -0.0021    0.0007    0.0033    0.0098   -0.0091
          19    0.0074   -0.0150   -0.0059   -0.0033    0.0070   -0.0298    0.0005   -0.0037
          20    0.0090   -0.0246   -0.0102    0.0026   -0.0036    0.0190   -0.0043    0.0003
          21    0.0039   -0.0044   -0.0001   -0.0013    0.0003   -0.0009    0.0027    0.0006
          22   -0.0165   -0.0126   -0.0035   -0.0226   -0.0128    0.0004   -0.0022   -0.0077
          23   -0.0140   -0.0030   -0.0107    0.0013   -0.0010   -0.0025    0.0034    0.0115
          24   -0.0089    0.0011   -0.0078    0.0039    0.0201    0.0033    0.0085    0.0176
          25   -0.0039    0.0050    0.0024    0.0024   -0.0032   -0.0204    0.0044   -0.0051
          26   -0.0011    0.0098    0.0045   -0.0017    0.0015    0.0141    0.0004    0.0055
          27   -0.0110    0.0050   -0.0018   -0.0010    0.0001   -0.0011   -0.0047   -0.0045
          28    0.0067    0.0041    0.0025   -0.0250    0.0087    0.0055   -0.0111   -0.0082
          29    0.0107    0.0059    0.0048   -0.0081   -0.0045   -0.0013   -0.0193   -0.0090
[...]
 TRAVEL      0.0710        C  2 --  C  8           +7.5% ( 41.7%)    98.2%
 RED. MASS   0.9649        C  1 --  C  2           +7.5% ( 41.6%)    20.6%
 EFF. MASS   9.2905

 VIBRATION   62   62A       ATOM PAIR        ENERGY CONTRIBUTION    RADIAL
 FREQ.      1883.96        C  8 --  C 10          +44.2% ( 98.0%)   100.0%
 T-DIPOLE    0.1202        C  2 --  C  8          +14.2% ( 55.6%)    52.1%
 TRAVEL      0.0549        C  5 --  C 10          +14.1% ( 55.3%)    52.1%
 RED. MASS   5.3859        C  8 --  H 28          +13.2% ( 53.5%)     4.7%
 EFF. MASS  11.8791        C 10 --  H 27          +13.0% ( 53.1%)     4.5%

 VIBRATION   63   63A       ATOM PAIR        ENERGY CONTRIBUTION    RADIAL
 FREQ.      1889.10        C  9 --  C 11          +43.8% ( 97.5%)    96.5%
 T-DIPOLE    0.2726        C  7 --  C 11          +14.4% ( 55.9%)    56.5%
 TRAVEL      0.0550        C  1 --  C  9          +13.9% ( 55.0%)    53.6%
 RED. MASS   5.3385        C 11 --  H 29          +13.3% ( 53.8%)     3.3%
 EFF. MASS  11.7913        C  9 --  H 26          +13.1% ( 53.4%)     3.8%

 VIBRATION   64   64A       ATOM PAIR        ENERGY CONTRIBUTION    RADIAL
 FREQ.      2811.10        C  1 --  H 12          +95.6% ( 99.4%)   100.0%
 T-DIPOLE    0.1108        C  1 --  C  2           +1.1% ( 10.6%)     7.9%
 TRAVEL      0.1291        C  1 --  C  9           +1.1% ( 10.5%)    12.4%
 RED. MASS   0.9079        C  1 --  C  3           +1.1% ( 10.5%)     9.4%
 EFF. MASS   1.4401

 VIBRATION   65   65A       ATOM PAIR        ENERGY CONTRIBUTION    RADIAL
 FREQ.      2852.76        C  2 --  H 13          +96.1% ( 99.5%)   100.0%
 T-DIPOLE    0.0615        C  2 --  C  4           +1.0% ( 10.2%)     8.2%
 TRAVEL      0.1283        C  2 --  C  8           +1.0% ( 10.2%)     7.0%
 RED. MASS   0.9121        C  1 --  C  2           +1.0% ( 10.0%)     9.3%
 EFF. MASS   1.4361

 VIBRATION   66   66A       ATOM PAIR        ENERGY CONTRIBUTION    RADIAL
 FREQ.      2944.84        C  5 --  H 18          +53.0% ( 75.6%)    97.5%
 T-DIPOLE    0.0121        C  5 --  H 19          +34.2% ( 60.8%)    95.1%
 TRAVEL      0.1219        C  3 --  H 14           +6.9% ( 27.3%)    97.6%
 RED. MASS   0.4375        C  3 --  H 15           +3.6% ( 19.7%)    93.9%
 EFF. MASS   1.5420

 VIBRATION   67   67A       ATOM PAIR        ENERGY CONTRIBUTION    RADIAL
 FREQ.      2953.38        C  4 --  H 17          +55.0% ( 77.0%)    97.3%
 T-DIPOLE    0.0190        C  4 --  H 16          +42.2% ( 67.5%)    95.7%
 TRAVEL      0.1214        C  4 --  C  6           +1.2% ( 11.4%)     0.0%
 RED. MASS   0.5226        C  2 --  C  4           +1.2% ( 11.3%)     0.0%
 EFF. MASS   1.5486

 VIBRATION   68   68A       ATOM PAIR        ENERGY CONTRIBUTION    RADIAL
 FREQ.      2962.35        C  3 --  H 14          +51.1% ( 74.1%)    97.4%
 T-DIPOLE    0.0243        C  3 --  H 15          +36.2% ( 62.4%)    95.5%
 TRAVEL      0.1217        C  5 --  H 18           +5.3% ( 23.8%)    97.0%
 RED. MASS   0.4296        C  5 --  H 19           +5.1% ( 23.4%)    96.7%
 EFF. MASS   1.5364

 VIBRATION   69   69A       ATOM PAIR        ENERGY CONTRIBUTION    RADIAL
 FREQ.      3025.91        C  5 --  H 19          +55.1% ( 73.2%)    98.6%
 T-DIPOLE    0.0395        C  5 --  H 18          +36.8% ( 59.9%)    96.2%
 TRAVEL      0.1317        C  3 --  H 14           +2.6% ( 15.9%)    97.8%
 RED. MASS   0.4364        C  3 --  H 15           +2.2% ( 14.7%)    97.4%
 EFF. MASS   1.2854

 VIBRATION   70   70A       ATOM PAIR        ENERGY CONTRIBUTION    RADIAL
 FREQ.      3028.82        C  4 --  H 16          +53.4% ( 72.1%)    98.2%
 T-DIPOLE    0.0503        C  4 --  H 17          +41.3% ( 63.5%)    96.7%
 TRAVEL      0.1317        C  6 --  H 20           +2.5% ( 15.6%)    98.7%
 RED. MASS   0.4551        C  6 --  H 21           +0.7% (  8.2%)    88.4%
 EFF. MASS   1.2831

 VIBRATION   71   71A       ATOM PAIR        ENERGY CONTRIBUTION    RADIAL
 FREQ.      3033.94        C  9 --  H 26          +74.0% ( 86.9%)   100.0%
 T-DIPOLE    0.3260        C 11 --  H 29          +23.2% ( 48.6%)   100.0%
 TRAVEL      0.1240        C  1 --  C  9           +1.0% (  9.9%)    17.2%
 RED. MASS   0.5833        C  9 --  C 11           +0.9% (  9.4%)    42.2%
 EFF. MASS   1.4451

 VIBRATION   72   72A       ATOM PAIR        ENERGY CONTRIBUTION    RADIAL
 FREQ.      3035.18        C 11 --  H 29          +70.5% ( 85.6%)    99.9%
 T-DIPOLE    0.0840        C  9 --  H 26          +23.2% ( 49.1%)    99.9%
 TRAVEL      0.1185        C  9 --  C 11           +2.1% ( 14.6%)    39.4%
 RED. MASS   0.5542        C  7 --  H 25           +1.2% ( 10.9%)    98.2%
 EFF. MASS   1.5823

 VIBRATION   73   73A       ATOM PAIR        ENERGY CONTRIBUTION    RADIAL
 FREQ.      3038.99        C  8 --  H 28          +60.3% ( 78.5%)   100.0%
 T-DIPOLE    0.2391        C 10 --  H 27          +23.3% ( 48.8%)    99.9%
 TRAVEL      0.1244        C  3 --  H 15           +7.9% ( 28.3%)    98.6%
 RED. MASS   0.4118        C  3 --  H 14           +5.2% ( 23.1%)    96.3%
 EFF. MASS   1.4342

 VIBRATION   74   74A       ATOM PAIR        ENERGY CONTRIBUTION    RADIAL
 FREQ.      3040.20        C  3 --  H 15          +48.3% ( 68.8%)    98.7%
 T-DIPOLE    0.1434        C  3 --  H 14          +30.9% ( 55.0%)    96.0%
 TRAVEL      0.1304        C  8 --  H 28          +11.7% ( 33.9%)   100.0%
 RED. MASS   0.3438        C  5 --  H 19           +3.6% ( 18.8%)    99.2%
 EFF. MASS   1.3039

 VIBRATION   75   75A       ATOM PAIR        ENERGY CONTRIBUTION    RADIAL
 FREQ.      3042.06        C  6 --  H 20          +76.9% ( 90.0%)    99.4%
 T-DIPOLE    0.0244        C  6 --  H 22          +13.1% ( 37.2%)    84.0%
 TRAVEL      0.1226        C  6 --  H 21           +4.0% ( 20.6%)    54.9%
 RED. MASS   0.6262        C  4 --  H 16           +2.5% ( 16.3%)    99.5%
 EFF. MASS   1.4757

 VIBRATION   76   76A       ATOM PAIR        ENERGY CONTRIBUTION    RADIAL
 FREQ.      3062.05        C 10 --  H 27          +70.0% ( 84.9%)    99.9%
 T-DIPOLE    0.2797        C  8 --  H 28          +25.0% ( 50.7%)    99.8%
 TRAVEL      0.1182        C  8 --  C 10           +1.9% ( 14.1%)    90.6%
 RED. MASS   0.5516        C  5 --  C 10           +1.1% ( 10.7%)    18.7%
 EFF. MASS   1.5767

 VIBRATION   77   77A       ATOM PAIR        ENERGY CONTRIBUTION    RADIAL
 FREQ.      3070.00        C  7 --  H 24          +50.4% ( 73.2%)    97.2%
 T-DIPOLE    0.0229        C  7 --  H 23          +47.7% ( 71.2%)    96.8%
 TRAVEL      0.1210        C  7 --  C 11           +1.0% ( 10.2%)     0.0%
 RED. MASS   0.5095        C  7 --  H 25           +0.9% ( 10.0%)     0.7%
 EFF. MASS   1.5012

 VIBRATION   78   78A       ATOM PAIR        ENERGY CONTRIBUTION    RADIAL
 FREQ.      3075.70        C  7 --  H 25          +62.8% ( 81.7%)    98.9%
 T-DIPOLE    0.0541        C  7 --  H 23          +18.4% ( 44.2%)    86.1%
 TRAVEL      0.1205        C  7 --  H 24          +16.0% ( 41.2%)    83.6%
 RED. MASS   0.4821        C 11 --  H 29           +1.7% ( 13.4%)   100.0%
 EFF. MASS   1.5086

 VIBRATION   79   79A       ATOM PAIR        ENERGY CONTRIBUTION    RADIAL
 FREQ.      3086.42        C  6 --  H 22          +48.3% ( 71.6%)    96.7%
 T-DIPOLE    0.0175        C  6 --  H 21          +47.9% ( 71.3%)    97.3%
 TRAVEL      0.1204        C  6 --  H 20           +2.5% ( 16.4%)    28.9%
 RED. MASS   0.4924        C  4 --  C  6           +1.0% ( 10.4%)     0.0%
 EFF. MASS   1.5065

 VIBRATION   80   80A       ATOM PAIR        ENERGY CONTRIBUTION    RADIAL
 FREQ.      3166.35        C  6 --  H 21          +48.3% ( 67.2%)    98.5%
 T-DIPOLE    0.0143        C  6 --  H 22          +37.7% ( 59.4%)    97.2%
 TRAVEL      0.1357        C  6 --  H 20          +13.6% ( 35.6%)    88.7%
 RED. MASS   0.3800        C  4 --  C  6           +0.3% (  5.5%)    83.3%
 EFF. MASS   1.1557

 VIBRATION   81   81A       ATOM PAIR        ENERGY CONTRIBUTION    RADIAL
 FREQ.      3169.52        C  7 --  H 25          +34.5% ( 56.5%)    97.2%
 T-DIPOLE    0.0711        C  7 --  H 23          +32.7% ( 55.1%)    97.1%
 TRAVEL      0.1366        C  7 --  H 24          +32.5% ( 54.9%)    97.0%
 RED. MASS   0.3272        C  7 --  C 11           +0.3% (  5.4%)   100.0%
 EFF. MASS   1.1394

 SYMMETRY NUMBER FOR POINT-GROUP C1  =  1


          SYSTEM IS A GROUND STATE


    NULL



          MOLECULE IS NOT LINEAR

          THERE ARE 81 GENUINE VIBRATIONS IN THIS SYSTEM
          THIS THERMODYNAMICS CALCULATION IS LIMITED TO
          MOLECULES WHICH HAVE NO INTERNAL ROTATIONS




                    CALCULATED THERMODYNAMIC PROPERTIES
                                          *
   TEMP. (K)   PARTITION FUNCTION   H.O.F.    ENTHALPY  HEAT CAPACITY ENTROPY
                                   KCAL/MOL   CAL/MOLE    CAL/K/MOL  CAL/K/MOL


 298.00  VIB.     0.2755D+04                  5668.1702    39.6835    34.7620
         ROT.     0.1052D+07                   888.2813     2.9808    30.5362
         INT.     0.2899D+10                  6556.4515    42.6643    65.2982
         TRA.     0.1781D+28                  1480.4688     4.9680    40.9296
         TOT.                       -4.790    8036.9203    47.6323   106.2279

 200.00  VIB.     0.1226D+03                  2503.4427    25.4039    22.0731
         ROT.     0.5785D+06                   596.1620     2.9808    29.3475
         INT.     0.7091D+08                  3099.6047    28.3847    51.4206
         TRA.     0.9791D+27                   993.6033     4.9680    38.9485
         TOT.                       -8.734    4093.2079    33.3527    90.3691

 210.00  VIB.     0.1680D+03                  2763.9845    26.7106    23.3440
         ROT.     0.6224D+06                   625.9700     2.9808    29.4930
         INT.     0.1046D+09                  3389.9546    29.6914    52.8370
         TRA.     0.1053D+28                  1043.2834     4.9680    39.1909
         TOT.                       -8.394    4433.2380    34.6594    92.0278

 220.00  VIB.     0.2303D+03                  3037.7794    28.0547    24.6175
         ROT.     0.6674D+06                   655.7781     2.9808    29.6316
         INT.     0.1537D+09                  3693.5576    31.0355    54.2491
         TRA.     0.1130D+28                  1092.9636     4.9680    39.4220
         TOT.                       -8.041    4786.5212    36.0036    93.6711

 230.00  VIB.     0.3159D+03                  3325.2063    29.4370    25.8949
         ROT.     0.7135D+06                   685.5862     2.9808    29.7641
         INT.     0.2254D+09                  4010.7925    32.4178    55.6590
         TRA.     0.1207D+28                  1142.6437     4.9680    39.6428
         TOT.                       -7.674    5153.4363    37.3858    95.3018

 240.00  VIB.     0.4336D+03                  3626.6430    30.8565    27.1776
         ROT.     0.7605D+06                   715.3943     2.9808    29.8910
         INT.     0.3297D+09                  4342.0373    33.8373    57.0686
         TRA.     0.1287D+28                  1192.3239     4.9680    39.8543
         TOT.                       -7.293    5534.3612    38.8053    96.9228

 250.00  VIB.     0.5954D+03                  3942.4542    32.3115    28.4666
         ROT.     0.8085D+06                   745.2024     2.9808    30.0127
         INT.     0.4814D+09                  4687.6566    35.2923    58.4793
         TRA.     0.1368D+28                  1242.0041     4.9680    40.0571
         TOT.                       -6.898    5929.6607    40.2603    98.5363

 260.00  VIB.     0.8181D+03                  4272.9809    33.7991    29.7627
         ROT.     0.8575D+06                   775.0105     2.9808    30.1296
         INT.     0.7015D+09                  5047.9914    36.7799    59.8923
         TRA.     0.1451D+28                  1291.6842     4.9680    40.2519
         TOT.                       -6.488    6339.6756    41.7479   100.1442

 270.00  VIB.     0.1125D+04                  4618.5325    35.3158    31.0667
         ROT.     0.9074D+06                   804.8186     2.9808    30.2421
         INT.     0.1021D+10                  5423.3512    38.2966    61.3088
         TRA.     0.1536D+28                  1341.3644     4.9680    40.4394
         TOT.                       -6.063    6764.7155    43.2646   101.7482

 280.00  VIB.     0.1548D+04                  4979.3815    36.8578    32.3788
         ROT.     0.9583D+06                   834.6267     2.9808    30.3505
         INT.     0.1483D+10                  5814.0082    39.8386    62.7293
         TRA.     0.1622D+28                  1391.0445     4.9680    40.6201
         TOT.                       -5.622    7205.0528    44.8067   103.3494

 290.00  VIB.     0.2132D+04                  5355.7592    38.4209    33.6994
         ROT.     0.1010D+07                   864.4348     2.9808    30.4551
         INT.     0.2153D+10                  6220.1940    41.4017    64.1545
         TRA.     0.1710D+28                  1440.7247     4.9680    40.7944
         TOT.                       -5.166    7660.9187    46.3697   104.9489

 300.00  VIB.     0.2938D+04                  5747.8541    40.0006    35.0285
         ROT.     0.1063D+07                   894.2429     2.9808    30.5561
         INT.     0.3123D+10                  6642.0971    42.9814    65.5847
         TRA.     0.1799D+28                  1490.4049     4.9680    40.9628
         TOT.                       -4.695    8132.5019    47.9494   106.5475

 310.00  VIB.     0.4054D+04                  6155.8114    41.5926    36.3661
         ROT.     0.1116D+07                   924.0510     2.9808    30.6539
         INT.     0.4526D+10                  7079.8624    44.5734    67.0200
         TRA.     0.1889D+28                  1540.0850     4.9680    41.1257
         TOT.                       -4.207    8619.9474    49.5414   108.1457

 320.00  VIB.     0.5599D+04                  6579.7330    43.1927    37.7119
         ROT.     0.1171D+07                   953.8591     2.9808    30.7485
         INT.     0.6555D+10                  7533.5921    46.1735    68.4604
         TRA.     0.1982D+28                  1589.7652     4.9680    41.2835
         TOT.                       -3.704    9123.3573    51.1416   109.7438

 330.00  VIB.     0.7740D+04                  7019.6793    44.7969    39.0655
         ROT.     0.1226D+07                   983.6672     2.9808    30.8402
         INT.     0.9490D+10                  8003.3466    47.7777    69.9058
         TRA.     0.2075D+28                  1639.4454     4.9680    41.4364
         TOT.                       -3.184    9642.7919    52.7457   111.3421

 340.00  VIB.     0.1071D+05                  7475.6717    46.4013    40.4267
         ROT.     0.1282D+07                  1013.4753     2.9808    30.9292
         INT.     0.1374D+11                  8489.1470    49.3821    71.3559
         TRA.     0.2170D+28                  1689.1255     4.9680    41.5847
         TOT.                       -2.649   10178.2725    54.3501   112.9406

 350.00  VIB.     0.1484D+05                  7947.6942    48.0024    41.7948
         ROT.     0.1339D+07                  1043.2834     2.9808    31.0156
         INT.     0.1987D+11                  8990.9776    50.9832    72.8105
         TRA.     0.2267D+28                  1738.8057     4.9680    41.7287
         TOT.                       -2.097   10729.7833    55.9512   114.5391

 360.00  VIB.     0.2058D+05                  8435.6975    49.5969    43.1695
         ROT.     0.1397D+07                  1073.0915     2.9808    31.0996
         INT.     0.2875D+11                  9508.7890    52.5777    74.2691
         TRA.     0.2364D+28                  1788.4859     4.9680    41.8686
         TOT.                       -1.530   11297.2748    57.5458   116.1377

 370.00  VIB.     0.2857D+05                  8939.6011    51.1820    44.5500
         ROT.     0.1456D+07                  1102.8996     2.9808    31.1813
         INT.     0.4159D+11                 10042.5007    54.1628    75.7313
         TRA.     0.2464D+28                  1838.1660     4.9680    42.0047
         TOT.                       -0.947   11880.6668    59.1308   117.7360

 380.00  VIB.     0.3970D+05                  9459.2974    52.7550    45.9359
         ROT.     0.1515D+07                  1132.7077     2.9808    31.2608
         INT.     0.6016D+11                 10592.0051    55.7358    77.1966
         TRA.     0.2564D+28                  1887.8462     4.9680    42.1372
         TOT.                       -0.347   12479.8512    60.7039   119.3339

 390.00  VIB.     0.5524D+05                  9994.6539    54.3137    47.3264
         ROT.     0.1575D+07                  1162.5158     2.9808    31.3382
         INT.     0.8702D+11                 11157.1697    57.2945    78.6646
         TRA.     0.2666D+28                  1937.5263     4.9680    42.2663
         TOT.                        0.267   13094.6961    62.2625   120.9309

 400.00  VIB.     0.7692D+05                 10545.5173    55.8561    48.7210
         ROT.     0.1636D+07                  1192.3239     2.9808    31.4137
         INT.     0.1259D+12                 11737.8412    58.8369    80.1346
         TRA.     0.2769D+28                  1987.2065     4.9680    42.3921
         TOT.                        0.898   13725.0477    63.8049   122.5267

   *: NOTE: HEATS OF FORMATION ARE RELATIVE TO THE
            ELEMENTS IN THEIR STANDARD STATE AT 298K
              (=  Standard Enthalpy of Formation).

            Hvib:  Zero-point energy is not included.
                   frequencies of less than zero cm-1 are not included.
            Hrot = (3/2)RT
            Htra = (3/2)RT + pV = (5/2)RT

            Heat capacity is Cp, not Cv

           For more information, see: HTTP://OpenMOPAC.net/Manual/thermochemistry.html


           FORCE CONSTANT IN CARTESIAN COORDINATES (Millidynes/A)

    ATOM   CHEMICAL       X               Y               Z
   NUMBER   SYMBOL  FORCE CONSTANT  FORCE CONSTANT  FORCE CONSTANT

      1       C        7.715006        8.552509        8.867678
      2       C        8.058181        8.539287        8.419351
      3       C        8.649578        7.964229        8.330424
      4       C        8.443906        7.962800        8.323834
      5       C        8.919689        8.501350        8.133588
      6       C        8.083122        8.502525        8.217423
      7       C        8.170686        8.407688        8.875888
      8       C       10.936917       10.433090        5.897977
      9       C        6.522053       11.601097        9.143141
     10       C       10.779742       10.362873        6.174741
     11       C        6.348176       11.432343        9.419903
     12       H        1.159720        1.572964        3.280313
     13       H        1.128371        0.909398        3.869913
     14       H        1.107051        1.683202        3.611505
     15       H        5.008417        0.718751        0.713676
     16       H        4.950300        0.728950        0.742293
     17       H        1.231798        2.513530        2.619884
     18       H        1.638999        1.122845        3.497305
     19       H        0.840097        4.745588        0.769051
     20       H        5.110344        0.773910        0.835347
     21       H        0.982206        4.994015        0.812037
     22       H        1.627746        2.169516        2.955393
     23       H        5.326331        0.648378        0.688889
     24       H        1.256484        4.732953        0.676427
     25       H        1.003715        1.670808        4.095534
     26       H        0.720035        1.346009        4.153978
     27       H        1.578783        2.552818        2.123298
     28       H        4.877715        0.678031        0.681294
     29       H        0.701061        1.339381        4.162159



 TOTAL CPU TIME:             8.79 SECONDS

 == MOPAC DONE ==
