 *******************************************************************************
 ** Site#: 14399           For non-commercial use only        Version 13.159M **
 *******************************************************************************
 ** Cite this work as: MOPAC2012, James J. P. Stewart, Stewart Computational  **
 ** Chemistry, Version 13.159M web: HTTP://OpenMOPAC.net  Days remaining:   6 **
 *******************************************************************************
 **                                                                           **
 **                                MOPAC2012                                  **
 **                                                                           **
 *******************************************************************************

                            PM3 CALCULATION RESULTS


 *******************************************************************************
 *  CALCULATION DONE:                                Mon Jun  2 11:05:39 2014  *
 *  PM3      - The PM3 Hamiltonian to be used
 *  PRECISE  - CRITERIA TO BE INCREASED BY 100 TIMES
 *  NOSYM    - POINT-GROUP SYMMETRY SET TO C1
 *  T=       - A TIME OF 172800.0 SECONDS REQUESTED
 *  DUMP=N   - RESTART FILE WRITTEN EVERY  7200.000 SECONDS
 *******************************************************************************
pm3  precise nosym
 InChI=1S/C11H18/c1-4-7-10-8-9(5-2)11(10)6-3/h4-5,7,9-11H,2,6,8H2,1,3H3

   ATOM   CHEMICAL          X               Y               Z
  NUMBER   SYMBOL      (ANGSTROMS)     (ANGSTROMS)     (ANGSTROMS)
 
     1       C         -0.79770000  *  -0.66340000  *   0.00850000  *
     2       C          0.42660000  *   0.07270000  *  -0.54780000  *
     3       C         -1.65680000  *   0.57580000  *  -0.41810000  *
     4       C         -0.35390000  *   1.34330000  *  -0.62840000  *
     5       C         -1.17390000  *  -1.97110000  *  -0.69820000  *
     6       C         -0.21630000  *  -3.10760000  *  -0.35800000  *
     7       C          3.90790000  *   0.85440000  *   0.96090000  *
     8       C          1.62420000  *   0.10760000  *   0.36540000  *
     9       C         -2.56250000  *   1.12990000  *   0.64870000  *
    10       C          2.71120000  *   0.82800000  *   0.06250000  *
    11       C         -3.21680000  *   2.28070000  *   0.47920000  *
    12       H         -0.77050000  *  -0.79280000  *   1.11860000  *
    13       H          0.71780000  *  -0.28530000  *  -1.56570000  *
    14       H         -2.20180000  *   0.42100000  *  -1.38100000  *
    15       H         -0.12790000  *   2.06340000  *   0.19570000  *
    16       H         -0.29470000  *   1.83690000  *  -1.62630000  *
    17       H         -2.20020000  *  -2.26350000  *  -0.37700000  *
    18       H         -1.20180000  *  -1.83960000  *  -1.80520000  *
    19       H          0.81750000  *  -2.87200000  *  -0.69870000  *
    20       H         -0.20070000  *  -3.29850000  *   0.73940000  *
    21       H         -0.54310000  *  -4.04210000  *  -0.86780000  *
    22       H          4.69590000  *   1.51080000  *   0.52780000  *
    23       H          4.32820000  *  -0.17050000  *   1.07500000  *
    24       H          3.62990000  *   1.25360000  *   1.96270000  *
    25       H          1.61350000  *  -0.48420000  *   1.28090000  *
    26       H         -2.71040000  *   0.57730000  *   1.57550000  *
    27       H          2.73850000  *   1.41470000  *  -0.85560000  *
    28       H         -3.87380000  *   2.65660000  *   1.26120000  *
    29       H         -3.10850000  *   2.86380000  *  -0.43420000  *
 


          CARTESIAN COORDINATES 

    NO.       ATOM         X         Y         Z

     1         C       -0.7977   -0.6634    0.0085
     2         C        0.4266    0.0727   -0.5478
     3         C       -1.6568    0.5758   -0.4181
     4         C       -0.3539    1.3433   -0.6284
     5         C       -1.1739   -1.9711   -0.6982
     6         C       -0.2163   -3.1076   -0.3580
     7         C        3.9079    0.8544    0.9609
     8         C        1.6242    0.1076    0.3654
     9         C       -2.5625    1.1299    0.6487
    10         C        2.7112    0.8280    0.0625
    11         C       -3.2168    2.2807    0.4792
    12         H       -0.7705   -0.7928    1.1186
    13         H        0.7178   -0.2853   -1.5657
    14         H       -2.2018    0.4210   -1.3810
    15         H       -0.1279    2.0634    0.1957
    16         H       -0.2947    1.8369   -1.6263
    17         H       -2.2002   -2.2635   -0.3770
    18         H       -1.2018   -1.8396   -1.8052
    19         H        0.8175   -2.8720   -0.6987
    20         H       -0.2007   -3.2985    0.7394
    21         H       -0.5431   -4.0421   -0.8678
    22         H        4.6959    1.5108    0.5278
    23         H        4.3282   -0.1705    1.0750
    24         H        3.6299    1.2536    1.9627
    25         H        1.6135   -0.4842    1.2809
    26         H       -2.7104    0.5773    1.5755
    27         H        2.7385    1.4147   -0.8556
    28         H       -3.8738    2.6566    1.2612
    29         H       -3.1085    2.8638   -0.4342

  H: (PM3): J. J. P. STEWART, J. COMP. CHEM. 10, 209 (1989).
  C: (PM3): J. J. P. STEWART, J. COMP. CHEM. 10, 209 (1989).

           Empirical Formula: C11 H18  =    29 atoms



      MOLECULAR POINT GROUP   :   C1  


      RHF CALCULATION, NO. OF DOUBLY OCCUPIED LEVELS =   31

      Geometry optimization using EF

          DIAGONAL MATRIX USED AS START HESSIAN

 CYCLE:     1 TIME:   0.014 TIME LEFT:  2.00D  GRAD.:   111.442 HEAT: 19.27779
 CYCLE:     2 TIME:   0.022 TIME LEFT:  2.00D  GRAD.:   106.900 HEAT: 17.79591
 CYCLE:     3 TIME:   0.021 TIME LEFT:  2.00D  GRAD.:    49.133 HEAT: 15.43350
 CYCLE:     4 TIME:   0.025 TIME LEFT:  2.00D  GRAD.:    40.868 HEAT: 15.01261
 CYCLE:     5 TIME:   0.012 TIME LEFT:  2.00D  GRAD.:    33.222 HEAT: 14.61885
 CYCLE:     6 TIME:   0.021 TIME LEFT:  2.00D  GRAD.:    23.762 HEAT: 14.35540
 CYCLE:     7 TIME:   0.011 TIME LEFT:  2.00D  GRAD.:    23.183 HEAT: 14.20473
 CYCLE:     8 TIME:   0.011 TIME LEFT:  2.00D  GRAD.:    27.853 HEAT: 14.14436
 CYCLE:     9 TIME:   0.021 TIME LEFT:  2.00D  GRAD.:    13.609 HEAT: 13.95519
 CYCLE:    10 TIME:   0.020 TIME LEFT:  2.00D  GRAD.:     9.094 HEAT: 13.90290
 CYCLE:    11 TIME:   0.011 TIME LEFT:  2.00D  GRAD.:     8.450 HEAT: 13.86430
 CYCLE:    12 TIME:   0.011 TIME LEFT:  2.00D  GRAD.:    10.523 HEAT: 13.83249
 CYCLE:    13 TIME:   0.011 TIME LEFT:  2.00D  GRAD.:    14.746 HEAT: 13.82734
 CYCLE:    14 TIME:   0.011 TIME LEFT:  2.00D  GRAD.:    12.616 HEAT: 13.79752
 CYCLE:    15 TIME:   0.021 TIME LEFT:  2.00D  GRAD.:     6.973 HEAT: 13.75322
 CYCLE:    16 TIME:   0.021 TIME LEFT:  2.00D  GRAD.:     5.482 HEAT: 13.74123
 CYCLE:    17 TIME:   0.011 TIME LEFT:  2.00D  GRAD.:     4.224 HEAT: 13.72678
 CYCLE:    18 TIME:   0.012 TIME LEFT:  2.00D  GRAD.:     5.115 HEAT: 13.71276
 CYCLE:    19 TIME:   0.012 TIME LEFT:  2.00D  GRAD.:     4.082 HEAT: 13.68780
 CYCLE:    20 TIME:   0.012 TIME LEFT:  2.00D  GRAD.:     8.688 HEAT: 13.66476
 CYCLE:    21 TIME:   0.012 TIME LEFT:  2.00D  GRAD.:    10.389 HEAT: 13.63465
 CYCLE:    22 TIME:   0.012 TIME LEFT:  2.00D  GRAD.:     8.360 HEAT: 13.59858
 CYCLE:    23 TIME:   0.020 TIME LEFT:  2.00D  GRAD.:    10.748 HEAT: 13.59718
 CYCLE:    24 TIME:   0.021 TIME LEFT:  2.00D  GRAD.:     9.108 HEAT: 13.58204
 CYCLE:    25 TIME:   0.011 TIME LEFT:  2.00D  GRAD.:     7.544 HEAT: 13.57109
 CYCLE:    26 TIME:   0.012 TIME LEFT:  2.00D  GRAD.:     5.754 HEAT: 13.55518
 CYCLE:    27 TIME:   0.020 TIME LEFT:  2.00D  GRAD.:     5.498 HEAT: 13.54829
 CYCLE:    28 TIME:   0.011 TIME LEFT:  2.00D  GRAD.:     4.221 HEAT: 13.53802
 CYCLE:    29 TIME:   0.020 TIME LEFT:  2.00D  GRAD.:     4.391 HEAT: 13.53375
 CYCLE:    30 TIME:   0.011 TIME LEFT:  2.00D  GRAD.:     2.716 HEAT: 13.52573
 CYCLE:    31 TIME:   0.012 TIME LEFT:  2.00D  GRAD.:     6.215 HEAT: 13.50293
 CYCLE:    32 TIME:   0.014 TIME LEFT:  2.00D  GRAD.:     8.824 HEAT: 13.48932
 CYCLE:    33 TIME:   0.011 TIME LEFT:  2.00D  GRAD.:     5.146 HEAT: 13.46335
 CYCLE:    34 TIME:   0.011 TIME LEFT:  2.00D  GRAD.:     4.302 HEAT: 13.45028
 CYCLE:    35 TIME:   0.011 TIME LEFT:  2.00D  GRAD.:     3.585 HEAT: 13.43915
 CYCLE:    36 TIME:   0.011 TIME LEFT:  2.00D  GRAD.:     4.682 HEAT: 13.42538
 CYCLE:    37 TIME:   0.011 TIME LEFT:  2.00D  GRAD.:     7.012 HEAT: 13.40878
 CYCLE:    38 TIME:   0.011 TIME LEFT:  2.00D  GRAD.:     4.482 HEAT: 13.37819
 CYCLE:    39 TIME:   0.013 TIME LEFT:  2.00D  GRAD.:     5.222 HEAT: 13.36180
 CYCLE:    40 TIME:   0.014 TIME LEFT:  2.00D  GRAD.:     4.227 HEAT: 13.34507
 CYCLE:    41 TIME:   0.011 TIME LEFT:  2.00D  GRAD.:     3.064 HEAT: 13.32653
 CYCLE:    42 TIME:   0.011 TIME LEFT:  2.00D  GRAD.:     3.443 HEAT: 13.30990
 CYCLE:    43 TIME:   0.011 TIME LEFT:  2.00D  GRAD.:     3.343 HEAT: 13.29330
 CYCLE:    44 TIME:   0.014 TIME LEFT:  2.00D  GRAD.:     3.350 HEAT: 13.27378
 CYCLE:    45 TIME:   0.013 TIME LEFT:  2.00D  GRAD.:     4.865 HEAT: 13.23038
 CYCLE:    46 TIME:   0.012 TIME LEFT:  2.00D  GRAD.:     4.519 HEAT: 13.19264
 CYCLE:    47 TIME:   0.012 TIME LEFT:  2.00D  GRAD.:     4.187 HEAT: 13.15294
 CYCLE:    48 TIME:   0.011 TIME LEFT:  2.00D  GRAD.:     3.871 HEAT: 13.12316
 CYCLE:    49 TIME:   0.011 TIME LEFT:  2.00D  GRAD.:     3.868 HEAT: 13.09957
 CYCLE:    50 TIME:   0.012 TIME LEFT:  2.00D  GRAD.:     3.478 HEAT: 13.07621
 CYCLE:    51 TIME:   0.012 TIME LEFT:  2.00D  GRAD.:     3.502 HEAT: 13.05286
 CYCLE:    52 TIME:   0.011 TIME LEFT:  2.00D  GRAD.:     3.103 HEAT: 13.03369
 CYCLE:    53 TIME:   0.015 TIME LEFT:  2.00D  GRAD.:     3.146 HEAT: 13.02097
 CYCLE:    54 TIME:   0.016 TIME LEFT:  2.00D  GRAD.:     2.214 HEAT: 13.01185
 CYCLE:    55 TIME:   0.012 TIME LEFT:  2.00D  GRAD.:     2.234 HEAT: 13.00365
 CYCLE:    56 TIME:   0.018 TIME LEFT:  2.00D  GRAD.:     2.444 HEAT: 12.99089
 CYCLE:    57 TIME:   0.015 TIME LEFT:  2.00D  GRAD.:     2.312 HEAT: 12.98001
 CYCLE:    58 TIME:   0.016 TIME LEFT:  2.00D  GRAD.:     2.228 HEAT: 12.96786
 CYCLE:    59 TIME:   0.016 TIME LEFT:  2.00D  GRAD.:     2.605 HEAT: 12.95561
 CYCLE:    60 TIME:   0.013 TIME LEFT:  2.00D  GRAD.:     2.917 HEAT: 12.93898
 CYCLE:    61 TIME:   0.012 TIME LEFT:  2.00D  GRAD.:     2.989 HEAT: 12.92066
 CYCLE:    62 TIME:   0.012 TIME LEFT:  2.00D  GRAD.:     2.932 HEAT: 12.90284
 CYCLE:    63 TIME:   0.011 TIME LEFT:  2.00D  GRAD.:     2.692 HEAT: 12.88840
 CYCLE:    64 TIME:   0.012 TIME LEFT:  2.00D  GRAD.:     2.755 HEAT: 12.87562
 CYCLE:    65 TIME:   0.012 TIME LEFT:  2.00D  GRAD.:     2.769 HEAT: 12.85935
 CYCLE:    66 TIME:   0.012 TIME LEFT:  2.00D  GRAD.:     2.871 HEAT: 12.84112
 CYCLE:    67 TIME:   0.013 TIME LEFT:  2.00D  GRAD.:     2.802 HEAT: 12.82320
 CYCLE:    68 TIME:   0.016 TIME LEFT:  2.00D  GRAD.:     3.313 HEAT: 12.80778
 CYCLE:    69 TIME:   0.012 TIME LEFT:  2.00D  GRAD.:     2.647 HEAT: 12.79373
 CYCLE:    70 TIME:   0.012 TIME LEFT:  2.00D  GRAD.:     3.213 HEAT: 12.78088
 CYCLE:    71 TIME:   0.012 TIME LEFT:  2.00D  GRAD.:     2.813 HEAT: 12.76510
 CYCLE:    72 TIME:   0.013 TIME LEFT:  2.00D  GRAD.:     2.921 HEAT: 12.74461
 CYCLE:    73 TIME:   0.016 TIME LEFT:  2.00D  GRAD.:     2.731 HEAT: 12.72152
 CYCLE:    74 TIME:   0.013 TIME LEFT:  2.00D  GRAD.:     2.554 HEAT: 12.70765
 CYCLE:    75 TIME:   0.013 TIME LEFT:  2.00D  GRAD.:     3.337 HEAT: 12.69131
 CYCLE:    76 TIME:   0.017 TIME LEFT:  2.00D  GRAD.:     4.202 HEAT: 12.67574
 CYCLE:    77 TIME:   0.013 TIME LEFT:  2.00D  GRAD.:     3.536 HEAT: 12.65368
 CYCLE:    78 TIME:   0.012 TIME LEFT:  2.00D  GRAD.:     3.246 HEAT: 12.61863
 CYCLE:    79 TIME:   0.011 TIME LEFT:  2.00D  GRAD.:     2.840 HEAT: 12.60347
 CYCLE:    80 TIME:   0.012 TIME LEFT:  2.00D  GRAD.:     2.839 HEAT: 12.58642
 CYCLE:    81 TIME:   0.011 TIME LEFT:  2.00D  GRAD.:     2.861 HEAT: 12.56720
 CYCLE:    82 TIME:   0.012 TIME LEFT:  2.00D  GRAD.:     3.554 HEAT: 12.54730
 CYCLE:    83 TIME:   0.011 TIME LEFT:  2.00D  GRAD.:     4.042 HEAT: 12.52391
 CYCLE:    84 TIME:   0.012 TIME LEFT:  2.00D  GRAD.:     3.687 HEAT: 12.49872
 CYCLE:    85 TIME:   0.011 TIME LEFT:  2.00D  GRAD.:     4.360 HEAT: 12.45869
 CYCLE:    86 TIME:   0.011 TIME LEFT:  2.00D  GRAD.:     4.525 HEAT: 12.42741
 CYCLE:    87 TIME:   0.011 TIME LEFT:  2.00D  GRAD.:     3.927 HEAT: 12.37971
 CYCLE:    88 TIME:   0.012 TIME LEFT:  2.00D  GRAD.:     6.596 HEAT: 12.35839
 CYCLE:    89 TIME:   0.012 TIME LEFT:  2.00D  GRAD.:     5.405 HEAT: 12.34783
 CYCLE:    90 TIME:   0.014 TIME LEFT:  2.00D  GRAD.:     2.298 HEAT: 12.32422
 CYCLE:    91 TIME:   0.013 TIME LEFT:  2.00D  GRAD.:     2.521 HEAT: 12.31087
 CYCLE:    92 TIME:   0.013 TIME LEFT:  2.00D  GRAD.:     3.754 HEAT: 12.28783
 CYCLE:    93 TIME:   0.016 TIME LEFT:  2.00D  GRAD.:     3.072 HEAT: 12.26613
 CYCLE:    94 TIME:   0.014 TIME LEFT:  2.00D  GRAD.:     2.568 HEAT: 12.24412
 CYCLE:    95 TIME:   0.012 TIME LEFT:  2.00D  GRAD.:     2.530 HEAT: 12.22681
 CYCLE:    96 TIME:   0.012 TIME LEFT:  2.00D  GRAD.:     2.883 HEAT: 12.21275
 CYCLE:    97 TIME:   0.011 TIME LEFT:  2.00D  GRAD.:     3.884 HEAT: 12.19689
 CYCLE:    98 TIME:   0.012 TIME LEFT:  2.00D  GRAD.:     3.421 HEAT: 12.18201
 CYCLE:    99 TIME:   0.012 TIME LEFT:  2.00D  GRAD.:     2.095 HEAT: 12.16842
 CYCLE:   100 TIME:   0.011 TIME LEFT:  2.00D  GRAD.:     1.631 HEAT: 12.15873
 CYCLE:   101 TIME:   0.012 TIME LEFT:  2.00D  GRAD.:     1.633 HEAT: 12.15249
 CYCLE:   102 TIME:   0.013 TIME LEFT:  2.00D  GRAD.:     1.375 HEAT: 12.14556
 CYCLE:   103 TIME:   0.013 TIME LEFT:  2.00D  GRAD.:     1.252 HEAT: 12.14161
 CYCLE:   104 TIME:   0.012 TIME LEFT:  2.00D  GRAD.:     1.225 HEAT: 12.13829
 CYCLE:   105 TIME:   0.011 TIME LEFT:  2.00D  GRAD.:     1.241 HEAT: 12.13530
 CYCLE:   106 TIME:   0.014 TIME LEFT:  2.00D  GRAD.:     1.185 HEAT: 12.13239
 CYCLE:   107 TIME:   0.016 TIME LEFT:  2.00D  GRAD.:     1.048 HEAT: 12.12983
 CYCLE:   108 TIME:   0.017 TIME LEFT:  2.00D  GRAD.:     1.015 HEAT: 12.12766
 CYCLE:   109 TIME:   0.013 TIME LEFT:  2.00D  GRAD.:     1.072 HEAT: 12.12548
 CYCLE:   110 TIME:   0.016 TIME LEFT:  2.00D  GRAD.:     1.143 HEAT: 12.12284
 CYCLE:   111 TIME:   0.013 TIME LEFT:  2.00D  GRAD.:     1.184 HEAT: 12.11978
 CYCLE:   112 TIME:   0.017 TIME LEFT:  2.00D  GRAD.:     1.133 HEAT: 12.11657
 CYCLE:   113 TIME:   0.015 TIME LEFT:  2.00D  GRAD.:     1.079 HEAT: 12.11357
 CYCLE:   114 TIME:   0.012 TIME LEFT:  2.00D  GRAD.:     1.083 HEAT: 12.11085
 CYCLE:   115 TIME:   0.012 TIME LEFT:  2.00D  GRAD.:     1.031 HEAT: 12.10797
 CYCLE:   116 TIME:   0.015 TIME LEFT:  2.00D  GRAD.:     1.023 HEAT: 12.10517
 CYCLE:   117 TIME:   0.014 TIME LEFT:  2.00D  GRAD.:     0.969 HEAT: 12.10271
 CYCLE:   118 TIME:   0.013 TIME LEFT:  2.00D  GRAD.:     0.912 HEAT: 12.10082
 CYCLE:   119 TIME:   0.017 TIME LEFT:  2.00D  GRAD.:     1.020 HEAT: 12.09904
 CYCLE:   120 TIME:   0.012 TIME LEFT:  2.00D  GRAD.:     1.024 HEAT: 12.09683
 CYCLE:   121 TIME:   0.014 TIME LEFT:  2.00D  GRAD.:     1.045 HEAT: 12.09438
 CYCLE:   122 TIME:   0.015 TIME LEFT:  2.00D  GRAD.:     0.872 HEAT: 12.09254
 CYCLE:   123 TIME:   0.012 TIME LEFT:  2.00D  GRAD.:     0.739 HEAT: 12.09138
 CYCLE:   124 TIME:   0.013 TIME LEFT:  2.00D  GRAD.:     0.705 HEAT: 12.09054
 CYCLE:   125 TIME:   0.012 TIME LEFT:  2.00D  GRAD.:     0.671 HEAT: 12.08966
 CYCLE:   126 TIME:   0.012 TIME LEFT:  2.00D  GRAD.:     0.683 HEAT: 12.08845
 CYCLE:   127 TIME:   0.012 TIME LEFT:  2.00D  GRAD.:     0.693 HEAT: 12.08741
 CYCLE:   128 TIME:   0.012 TIME LEFT:  2.00D  GRAD.:     0.773 HEAT: 12.08629
 CYCLE:   129 TIME:   0.012 TIME LEFT:  2.00D  GRAD.:     0.845 HEAT: 12.08512
 CYCLE:   130 TIME:   0.017 TIME LEFT:  2.00D  GRAD.:     1.147 HEAT: 12.08261
 CYCLE:   131 TIME:   0.016 TIME LEFT:  2.00D  GRAD.:     1.042 HEAT: 12.08102
 CYCLE:   132 TIME:   0.014 TIME LEFT:  2.00D  GRAD.:     1.306 HEAT: 12.07707
 CYCLE:   133 TIME:   0.016 TIME LEFT:  2.00D  GRAD.:     0.915 HEAT: 12.07554
 CYCLE:   134 TIME:   0.016 TIME LEFT:  2.00D  GRAD.:     0.841 HEAT: 12.07225
 CYCLE:   135 TIME:   0.016 TIME LEFT:  2.00D  GRAD.:     0.642 HEAT: 12.07110
 CYCLE:   136 TIME:   0.014 TIME LEFT:  2.00D  GRAD.:     0.811 HEAT: 12.06983
 CYCLE:   137 TIME:   0.013 TIME LEFT:  2.00D  GRAD.:     0.800 HEAT: 12.06907
 CYCLE:   138 TIME:   0.016 TIME LEFT:  2.00D  GRAD.:     0.984 HEAT: 12.06734
 CYCLE:   139 TIME:   0.014 TIME LEFT:  2.00D  GRAD.:     1.371 HEAT: 12.06541
 CYCLE:   140 TIME:   0.014 TIME LEFT:  2.00D  GRAD.:     1.985 HEAT: 12.06021
 CYCLE:   141 TIME:   0.017 TIME LEFT:  2.00D  GRAD.:     3.240 HEAT: 12.04996
 CYCLE:   142 TIME:   0.014 TIME LEFT:  2.00D  GRAD.:     2.668 HEAT: 12.03807
 CYCLE:   143 TIME:   0.025 TIME LEFT:  2.00D  GRAD.:     4.015 HEAT: 12.02632
 CYCLE:   144 TIME:   0.016 TIME LEFT:  2.00D  GRAD.:     4.160 HEAT: 12.02373
 CYCLE:   145 TIME:   0.016 TIME LEFT:  2.00D  GRAD.:     2.271 HEAT: 12.00924
 CYCLE:   146 TIME:   0.026 TIME LEFT:  2.00D  GRAD.:     5.045 HEAT: 12.00910
 CYCLE:   147 TIME:   0.011 TIME LEFT:  2.00D  GRAD.:     1.866 HEAT: 11.99662
 CYCLE:   148 TIME:   0.014 TIME LEFT:  2.00D  GRAD.:     1.518 HEAT: 11.98852
 CYCLE:   149 TIME:   0.014 TIME LEFT:  2.00D  GRAD.:     1.684 HEAT: 11.98217
 CYCLE:   150 TIME:   0.015 TIME LEFT:  2.00D  GRAD.:     1.787 HEAT: 11.97841
 CYCLE:   151 TIME:   0.012 TIME LEFT:  2.00D  GRAD.:     1.813 HEAT: 11.97409
 CYCLE:   152 TIME:   0.013 TIME LEFT:  2.00D  GRAD.:     1.600 HEAT: 11.97026
 CYCLE:   153 TIME:   0.020 TIME LEFT:  2.00D  GRAD.:     3.222 HEAT: 11.96758
 CYCLE:   154 TIME:   0.015 TIME LEFT:  2.00D  GRAD.:     1.396 HEAT: 11.96212
 CYCLE:   155 TIME:   0.012 TIME LEFT:  2.00D  GRAD.:     1.343 HEAT: 11.95758
 CYCLE:   156 TIME:   0.013 TIME LEFT:  2.00D  GRAD.:     1.654 HEAT: 11.95269
 CYCLE:   157 TIME:   0.014 TIME LEFT:  2.00D  GRAD.:     2.496 HEAT: 11.94767
 CYCLE:   158 TIME:   0.012 TIME LEFT:  2.00D  GRAD.:     2.414 HEAT: 11.94106
 CYCLE:   159 TIME:   0.012 TIME LEFT:  2.00D  GRAD.:     1.937 HEAT: 11.93077
 CYCLE:   160 TIME:   0.015 TIME LEFT:  2.00D  GRAD.:     2.458 HEAT: 11.91954
 CYCLE:   161 TIME:   0.013 TIME LEFT:  2.00D  GRAD.:     3.545 HEAT: 11.91771
 CYCLE:   162 TIME:   0.018 TIME LEFT:  2.00D  GRAD.:     3.906 HEAT: 11.91025
 CYCLE:   163 TIME:   0.012 TIME LEFT:  2.00D  GRAD.:     2.273 HEAT: 11.90493
 CYCLE:   164 TIME:   0.013 TIME LEFT:  2.00D  GRAD.:     2.414 HEAT: 11.90085
 CYCLE:   165 TIME:   0.015 TIME LEFT:  2.00D  GRAD.:     1.573 HEAT: 11.89531
 CYCLE:   166 TIME:   0.013 TIME LEFT:  2.00D  GRAD.:     2.128 HEAT: 11.89018
 CYCLE:   167 TIME:   0.014 TIME LEFT:  2.00D  GRAD.:     1.533 HEAT: 11.88572
 CYCLE:   168 TIME:   0.012 TIME LEFT:  2.00D  GRAD.:     1.512 HEAT: 11.88262
 CYCLE:   169 TIME:   0.012 TIME LEFT:  2.00D  GRAD.:     1.753 HEAT: 11.87974
 CYCLE:   170 TIME:   0.012 TIME LEFT:  2.00D  GRAD.:     2.242 HEAT: 11.87682
 CYCLE:   171 TIME:   0.014 TIME LEFT:  2.00D  GRAD.:     1.801 HEAT: 11.87377
 CYCLE:   172 TIME:   0.015 TIME LEFT:  2.00D  GRAD.:     2.223 HEAT: 11.86938
 CYCLE:   173 TIME:   0.013 TIME LEFT:  2.00D  GRAD.:     1.910 HEAT: 11.86512
 CYCLE:   174 TIME:   0.012 TIME LEFT:  2.00D  GRAD.:     1.865 HEAT: 11.86048
 CYCLE:   175 TIME:   0.013 TIME LEFT:  2.00D  GRAD.:     1.025 HEAT: 11.85664
 CYCLE:   176 TIME:   0.012 TIME LEFT:  2.00D  GRAD.:     3.836 HEAT: 11.85677
 CYCLE:   177 TIME:   0.011 TIME LEFT:  2.00D  GRAD.:     1.099 HEAT: 11.85085
 CYCLE:   178 TIME:   0.012 TIME LEFT:  2.00D  GRAD.:     1.220 HEAT: 11.84792
 CYCLE:   179 TIME:   0.013 TIME LEFT:  2.00D  GRAD.:     2.542 HEAT: 11.84536
 CYCLE:   180 TIME:   0.014 TIME LEFT:  2.00D  GRAD.:     1.366 HEAT: 11.84210
 CYCLE:   181 TIME:   0.015 TIME LEFT:  2.00D  GRAD.:     2.208 HEAT: 11.83612
 CYCLE:   182 TIME:   0.016 TIME LEFT:  2.00D  GRAD.:     3.027 HEAT: 11.82873
 CYCLE:   183 TIME:   0.015 TIME LEFT:  2.00D  GRAD.:     4.510 HEAT: 11.82073
 CYCLE:   184 TIME:   0.015 TIME LEFT:  2.00D  GRAD.:     5.470 HEAT: 11.80948
 CYCLE:   185 TIME:   0.022 TIME LEFT:  2.00D  GRAD.:     6.267 HEAT: 11.80937
 CYCLE:   186 TIME:   0.012 TIME LEFT:  2.00D  GRAD.:     1.317 HEAT: 11.79226
 CYCLE:   187 TIME:   0.013 TIME LEFT:  2.00D  GRAD.:     1.551 HEAT: 11.78540
 CYCLE:   188 TIME:   0.015 TIME LEFT:  2.00D  GRAD.:     3.296 HEAT: 11.77321
 CYCLE:   189 TIME:   0.012 TIME LEFT:  2.00D  GRAD.:     4.095 HEAT: 11.76304
 CYCLE:   190 TIME:   0.014 TIME LEFT:  2.00D  GRAD.:     2.655 HEAT: 11.75168
 CYCLE:   191 TIME:   0.022 TIME LEFT:  2.00D  GRAD.:     4.448 HEAT: 11.74879
 CYCLE:   192 TIME:   0.011 TIME LEFT:  2.00D  GRAD.:     2.540 HEAT: 11.74100
 CYCLE:   193 TIME:   0.012 TIME LEFT:  2.00D  GRAD.:     3.764 HEAT: 11.73731
 CYCLE:   194 TIME:   0.015 TIME LEFT:  2.00D  GRAD.:     2.798 HEAT: 11.73193
 CYCLE:   195 TIME:   0.015 TIME LEFT:  2.00D  GRAD.:     3.598 HEAT: 11.72961
 CYCLE:   196 TIME:   0.013 TIME LEFT:  2.00D  GRAD.:     1.717 HEAT: 11.72262
 CYCLE:   197 TIME:   0.012 TIME LEFT:  2.00D  GRAD.:     1.723 HEAT: 11.72032
 CYCLE:   198 TIME:   0.012 TIME LEFT:  2.00D  GRAD.:     1.361 HEAT: 11.71721
 CYCLE:   199 TIME:   0.012 TIME LEFT:  2.00D  GRAD.:     1.628 HEAT: 11.71411
 CYCLE:   200 TIME:   0.012 TIME LEFT:  2.00D  GRAD.:     1.867 HEAT: 11.71191
 CYCLE:   201 TIME:   0.012 TIME LEFT:  2.00D  GRAD.:     1.944 HEAT: 11.70914
 CYCLE:   202 TIME:   0.012 TIME LEFT:  2.00D  GRAD.:     2.141 HEAT: 11.70540
 CYCLE:   203 TIME:   0.011 TIME LEFT:  2.00D  GRAD.:     1.888 HEAT: 11.70326
 CYCLE:   204 TIME:   0.011 TIME LEFT:  2.00D  GRAD.:     1.461 HEAT: 11.70104
 CYCLE:   205 TIME:   0.011 TIME LEFT:  2.00D  GRAD.:     0.870 HEAT: 11.69894
 CYCLE:   206 TIME:   0.011 TIME LEFT:  2.00D  GRAD.:     0.650 HEAT: 11.69799
 CYCLE:   207 TIME:   0.012 TIME LEFT:  2.00D  GRAD.:     0.678 HEAT: 11.69745
 CYCLE:   208 TIME:   0.011 TIME LEFT:  2.00D  GRAD.:     0.571 HEAT: 11.69709
 CYCLE:   209 TIME:   0.012 TIME LEFT:  2.00D  GRAD.:     0.418 HEAT: 11.69672
 CYCLE:   210 TIME:   0.012 TIME LEFT:  2.00D  GRAD.:     0.556 HEAT: 11.69626
 CYCLE:   211 TIME:   0.012 TIME LEFT:  2.00D  GRAD.:     0.534 HEAT: 11.69593
 CYCLE:   212 TIME:   0.012 TIME LEFT:  2.00D  GRAD.:     0.672 HEAT: 11.69516
 CYCLE:   213 TIME:   0.011 TIME LEFT:  2.00D  GRAD.:     0.801 HEAT: 11.69460
 CYCLE:   214 TIME:   0.013 TIME LEFT:  2.00D  GRAD.:     1.134 HEAT: 11.69302
 CYCLE:   215 TIME:   0.016 TIME LEFT:  2.00D  GRAD.:     1.311 HEAT: 11.69031
 CYCLE:   216 TIME:   0.012 TIME LEFT:  2.00D  GRAD.:     1.643 HEAT: 11.68713
 CYCLE:   217 TIME:   0.012 TIME LEFT:  2.00D  GRAD.:     1.905 HEAT: 11.68309
 CYCLE:   218 TIME:   0.012 TIME LEFT:  2.00D  GRAD.:     2.510 HEAT: 11.67472
 CYCLE:   219 TIME:   0.012 TIME LEFT:  2.00D  GRAD.:     3.044 HEAT: 11.66218
 CYCLE:   220 TIME:   0.012 TIME LEFT:  2.00D  GRAD.:     5.209 HEAT: 11.66043
 CYCLE:   221 TIME:   0.012 TIME LEFT:  2.00D  GRAD.:     2.544 HEAT: 11.64392
 CYCLE:   222 TIME:   0.012 TIME LEFT:  2.00D  GRAD.:     2.763 HEAT: 11.63360
 CYCLE:   223 TIME:   0.012 TIME LEFT:  2.00D  GRAD.:     3.171 HEAT: 11.62353
 CYCLE:   224 TIME:   0.011 TIME LEFT:  2.00D  GRAD.:     2.227 HEAT: 11.61613
 CYCLE:   225 TIME:   0.012 TIME LEFT:  2.00D  GRAD.:     2.063 HEAT: 11.60702
 CYCLE:   226 TIME:   0.012 TIME LEFT:  2.00D  GRAD.:     1.861 HEAT: 11.59713
 CYCLE:   227 TIME:   0.012 TIME LEFT:  2.00D  GRAD.:     1.612 HEAT: 11.59034
 CYCLE:   228 TIME:   0.012 TIME LEFT:  2.00D  GRAD.:     2.768 HEAT: 11.58840
 CYCLE:   229 TIME:   0.011 TIME LEFT:  2.00D  GRAD.:     1.288 HEAT: 11.58448
 CYCLE:   230 TIME:   0.011 TIME LEFT:  2.00D  GRAD.:     1.354 HEAT: 11.58303
 CYCLE:   231 TIME:   0.011 TIME LEFT:  2.00D  GRAD.:     0.715 HEAT: 11.58193
 CYCLE:   232 TIME:   0.011 TIME LEFT:  2.00D  GRAD.:     0.506 HEAT: 11.58150
 CYCLE:   233 TIME:   0.011 TIME LEFT:  2.00D  GRAD.:     0.469 HEAT: 11.58124
 CYCLE:   234 TIME:   0.011 TIME LEFT:  2.00D  GRAD.:     0.381 HEAT: 11.58103
 CYCLE:   235 TIME:   0.011 TIME LEFT:  2.00D  GRAD.:     0.366 HEAT: 11.58089
 CYCLE:   236 TIME:   0.011 TIME LEFT:  2.00D  GRAD.:     0.361 HEAT: 11.58079
 CYCLE:   237 TIME:   0.012 TIME LEFT:  2.00D  GRAD.:     0.424 HEAT: 11.58068
 CYCLE:   238 TIME:   0.018 TIME LEFT:  2.00D  GRAD.:     0.395 HEAT: 11.58056
 CYCLE:   239 TIME:   0.014 TIME LEFT:  2.00D  GRAD.:     0.639 HEAT: 11.58015
 CYCLE:   240 TIME:   0.011 TIME LEFT:  2.00D  GRAD.:     0.603 HEAT: 11.57988
 CYCLE:   241 TIME:   0.011 TIME LEFT:  2.00D  GRAD.:     0.731 HEAT: 11.57884
 CYCLE:   242 TIME:   0.011 TIME LEFT:  2.00D  GRAD.:     0.938 HEAT: 11.57764
 CYCLE:   243 TIME:   0.012 TIME LEFT:  2.00D  GRAD.:     1.986 HEAT: 11.57560
 CYCLE:   244 TIME:   0.011 TIME LEFT:  2.00D  GRAD.:     1.321 HEAT: 11.57350
 CYCLE:   245 TIME:   0.012 TIME LEFT:  2.00D  GRAD.:     0.834 HEAT: 11.56951
 CYCLE:   246 TIME:   0.012 TIME LEFT:  2.00D  GRAD.:     0.824 HEAT: 11.56795
 CYCLE:   247 TIME:   0.012 TIME LEFT:  2.00D  GRAD.:     1.216 HEAT: 11.56630
 CYCLE:   248 TIME:   0.011 TIME LEFT:  2.00D  GRAD.:     0.774 HEAT: 11.56523
 CYCLE:   249 TIME:   0.012 TIME LEFT:  2.00D  GRAD.:     0.515 HEAT: 11.56452
 CYCLE:   250 TIME:   0.012 TIME LEFT:  2.00D  GRAD.:     0.339 HEAT: 11.56420
 CYCLE:   251 TIME:   0.012 TIME LEFT:  2.00D  GRAD.:     0.347 HEAT: 11.56394
 CYCLE:   252 TIME:   0.014 TIME LEFT:  2.00D  GRAD.:     0.293 HEAT: 11.56381
 CYCLE:   253 TIME:   0.011 TIME LEFT:  2.00D  GRAD.:     0.275 HEAT: 11.56366
 CYCLE:   254 TIME:   0.012 TIME LEFT:  2.00D  GRAD.:     0.334 HEAT: 11.56350
 CYCLE:   255 TIME:   0.012 TIME LEFT:  2.00D  GRAD.:     0.327 HEAT: 11.56338
 CYCLE:   256 TIME:   0.012 TIME LEFT:  2.00D  GRAD.:     0.280 HEAT: 11.56325
 CYCLE:   257 TIME:   0.012 TIME LEFT:  2.00D  GRAD.:     0.257 HEAT: 11.56319
 CYCLE:   258 TIME:   0.011 TIME LEFT:  2.00D  GRAD.:     0.214 HEAT: 11.56313
 CYCLE:   259 TIME:   0.011 TIME LEFT:  2.00D  GRAD.:     0.282 HEAT: 11.56304
 CYCLE:   260 TIME:   0.011 TIME LEFT:  2.00D  GRAD.:     0.241 HEAT: 11.56299
 CYCLE:   261 TIME:   0.011 TIME LEFT:  2.00D  GRAD.:     0.249 HEAT: 11.56283
 CYCLE:   262 TIME:   0.011 TIME LEFT:  2.00D  GRAD.:     0.302 HEAT: 11.56265
 CYCLE:   263 TIME:   0.012 TIME LEFT:  2.00D  GRAD.:     0.424 HEAT: 11.56213
 CYCLE:   264 TIME:   0.012 TIME LEFT:  2.00D  GRAD.:     0.451 HEAT: 11.56159
 CYCLE:   265 TIME:   0.012 TIME LEFT:  2.00D  GRAD.:     0.608 HEAT: 11.56055
 CYCLE:   266 TIME:   0.012 TIME LEFT:  2.00D  GRAD.:     0.389 HEAT: 11.56024
 CYCLE:   267 TIME:   0.011 TIME LEFT:  2.00D  GRAD.:     0.364 HEAT: 11.55994
 CYCLE:   268 TIME:   0.012 TIME LEFT:  2.00D  GRAD.:     0.360 HEAT: 11.55959
 CYCLE:   269 TIME:   0.011 TIME LEFT:  2.00D  GRAD.:     0.302 HEAT: 11.55937
 CYCLE:   270 TIME:   0.011 TIME LEFT:  2.00D  GRAD.:     0.130 HEAT: 11.55928
 CYCLE:   271 TIME:   0.011 TIME LEFT:  2.00D  GRAD.:     0.110 HEAT: 11.55926
 CYCLE:   272 TIME:   0.011 TIME LEFT:  2.00D  GRAD.:     0.070 HEAT: 11.55926
 CYCLE:   273 TIME:   0.011 TIME LEFT:  2.00D  GRAD.:     0.036 HEAT: 11.55925

     RMS GRADIENT =  0.03601  IS LESS THAN CUTOFF =  0.05000



 -------------------------------------------------------------------------------
pm3  precise nosym
 InChI=1S/C11H18/c1-4-7-10-8-9(5-2)11(10)6-3/h4-5,7,9-11H,2,6,8H2,1,3H3



     GEOMETRY OPTIMISED USING EIGENVECTOR FOLLOWING (EF).     
     SCF FIELD WAS ACHIEVED                                   


                              PM3 CALCULATION
                                                       MOPAC2012 (Version: 13.159M)
                                                       Mon Jun  2 11:05:42 2014
                                                       No. of days left =   6




          FINAL HEAT OF FORMATION =         11.55925 KCAL/MOL =      48.36391 KJ/MOL


          TOTAL ENERGY            =      -1580.53154 EV
          ELECTRONIC ENERGY       =      -9551.05274 EV  POINT GROUP:     C1  
          CORE-CORE REPULSION     =       7970.52120 EV
          COSMO AREA              =        219.26 SQUARE ANGSTROMS
          COSMO VOLUME            =        231.17 CUBIC ANGSTROMS

          GRADIENT NORM           =          0.03601
          IONIZATION POTENTIAL    =          9.654225 EV
          HOMO LUMO ENERGIES (EV) =         -9.654  1.055
          NO. OF FILLED LEVELS    =         31
          MOLECULAR WEIGHT        =        150.263

          MOLECULAR DIMENSIONS (Angstroms)

            Atom       Atom       Distance
            H    28    H    21     7.83967
            H    22    H    17     7.30895
            H    23    H    16     4.44927


          SCF CALCULATIONS        =        290
          COMPUTATION TIME        =          3.633 SECONDS




   ATOM   CHEMICAL          X               Y               Z
  NUMBER   SYMBOL      (ANGSTROMS)     (ANGSTROMS)     (ANGSTROMS)
 
     1       C         -0.72646621  *  -0.56742191  *  -0.07078041  *
     2       C          0.36295149  *   0.33372815  *  -0.72705145  *
     3       C         -1.80683743  *   0.49645432  *  -0.42131099  *
     4       C         -0.70678326  *   1.41580667  *  -1.00267652  *
     5       C         -0.93568069  *  -1.91703222  *  -0.72450355  *
     6       C          0.17573014  *  -2.88415618  *  -0.38300067  *
     7       C          3.72796501  *   0.50093999  *   1.13676833  *
     8       C          1.44926404  *   0.73630452  *   0.20001718  *
     9       C         -2.57578627  *   1.00935541  *   0.73847325  *
    10       C          2.63648213  *   0.12685654  *   0.21114368  *
    11       C         -3.02402764  *   2.25542752  *   0.83581027  *
    12       H         -0.57734841  *  -0.69227838  *   1.02392087  *
    13       H          0.78369803  *  -0.10650967  *  -1.65764475  *
    14       H         -2.53013791  *   0.14195269  *  -1.18838699  *
    15       H         -0.56265035  *   2.36141178  *  -0.45501393  *
    16       H         -0.83642577  *   1.67092582  *  -2.06471792  *
    17       H         -1.91200485  *  -2.32728861  *  -0.39824569  *
    18       H         -1.01333104  *  -1.80216103  *  -1.82462160  *
    19       H          1.15618303  *  -2.49278667  *  -0.69066254  *
    20       H          0.22773001  *  -3.07790515  *   0.69662922  *
    21       H          0.03245026  *  -3.84957098  *  -0.88433134  *
    22       H          4.62297586  *   0.80092938  *   0.57519123  *
    23       H          4.00577848  *  -0.35307409  *   1.76918240  *
    24       H          3.45976108  *   1.33258986  *   1.80195936  *
    25       H          1.22502154  *   1.55746705  *   0.89317546  *
    26       H         -2.77843767  *   0.27432427  *   1.52768093  *
    27       H          2.85137458  *  -0.69880542  *  -0.48027980  *
    28       H         -3.60295020  *   2.60327666  *   1.68569070  *
    29       H         -2.84614606  *   3.01391427  *   0.07819212  *

           Empirical Formula: C11 H18  =    29 atoms



      MOLECULAR POINT GROUP   :   C1  


                  EIGENVALUES  
 -41.92198 -35.36843 -34.15962 -31.47178 -27.39122 -25.36700 -23.26870 -21.67656
 -19.85113 -19.42905 -18.35060 -16.92770 -16.47026 -16.12423 -15.13730 -15.04065
 -14.86225 -14.30236 -14.17886 -13.80177 -13.13835 -12.92616 -12.60485 -12.52728
 -12.22638 -11.92116 -11.75397 -11.53637 -11.31980 -10.08395  -9.65423   1.05507
   1.17539   3.19654   3.23208   3.39738   3.58150   3.64645   3.72711   3.83272
   3.87960   3.94341   3.99273   4.02234   4.12716   4.22028   4.30987   4.33123
   4.40119   4.44716   4.49775   4.54596   4.58513   4.80438   4.88689   4.96564
   5.18550   5.45460   5.64912   5.82719   5.93809   6.02253


              NET ATOMIC CHARGES AND DIPOLE CONTRIBUTIONS

  ATOM NO.   TYPE          CHARGE      No. of ELECS.   s-Pop       p-Pop       
    1          C          -0.088881        4.0889     1.19769     2.89119
    2          C          -0.058750        4.0588     1.18000     2.87875
    3          C          -0.065609        4.0656     1.18039     2.88522
    4          C          -0.102939        4.1029     1.17612     2.92682
    5          C          -0.089337        4.0893     1.15728     2.93205
    6          C          -0.112129        4.1121     1.13867     2.97346
    7          C          -0.073602        4.0736     1.12500     2.94860
    8          C          -0.142246        4.1422     1.19549     2.94676
    9          C          -0.124068        4.1241     1.19291     2.93115
   10          C          -0.147987        4.1480     1.19417     2.95382
   11          C          -0.171377        4.1714     1.18116     2.99022
   12          H           0.082540        0.9175     0.91746
   13          H           0.078326        0.9217     0.92167
   14          H           0.080293        0.9197     0.91971
   15          H           0.066952        0.9330     0.93305
   16          H           0.055240        0.9448     0.94476
   17          H           0.050083        0.9499     0.94992
   18          H           0.050577        0.9494     0.94942
   19          H           0.041227        0.9588     0.95877
   20          H           0.039292        0.9607     0.96071
   21          H           0.037221        0.9628     0.96278
   22          H           0.043684        0.9563     0.95632
   23          H           0.043519        0.9565     0.95648
   24          H           0.041144        0.9589     0.95886
   25          H           0.105849        0.8942     0.89415
   26          H           0.098312        0.9017     0.90169
   27          H           0.099235        0.9008     0.90077
   28          H           0.080098        0.9199     0.91990
   29          H           0.083335        0.9167     0.91666
 DIPOLE           X         Y         Z       TOTAL
 POINT-CHG.     0.170    -0.224    -0.035     0.284
 HYBRID        -0.002    -0.013     0.034     0.036
 SUM            0.168    -0.237    -0.001     0.290


          ATOMIC ORBITAL ELECTRON POPULATIONS

    Atom      s        px        py        pz   
    1  C   1.19769   0.95215   0.93429   1.00475
    2  C   1.18000   0.93291   0.96782   0.97802
    3  C   1.18039   0.94855   0.96840   0.96827
    4  C   1.17612   0.95321   0.96767   1.00594
    5  C   1.15728   0.98323   0.94927   0.99955
    6  C   1.13867   0.98350   0.98199   1.00797
    7  C   1.12500   0.96985   1.00192   0.97683
    8  C   1.19549   0.95089   1.00030   0.99557
    9  C   1.19291   0.98257   0.97211   0.97647
   10  C   1.19417   0.95829   0.99655   0.99898
   11  C   1.18116   1.01030   0.96584   1.01408
   12  H   0.91746
   13  H   0.92167
   14  H   0.91971
   15  H   0.93305
   16  H   0.94476
   17  H   0.94992
   18  H   0.94942
   19  H   0.95877
   20  H   0.96071
   21  H   0.96278
   22  H   0.95632
   23  H   0.95648
   24  H   0.95886
   25  H   0.89415
   26  H   0.90169
   27  H   0.90077
   28  H   0.91990
   29  H   0.91666
 *******************************************************************************
 ** Site#: 14399           For non-commercial use only        Version 13.159M **
 *******************************************************************************
 ** Cite this work as: MOPAC2012, James J. P. Stewart, Stewart Computational  **
 ** Chemistry, Version 13.159M web: HTTP://OpenMOPAC.net  Days remaining:   6 **
 *******************************************************************************
 **                                                                           **
 **                                MOPAC2012                                  **
 **                                                                           **
 *******************************************************************************

                            PM3 CALCULATION RESULTS


 *******************************************************************************
 *  CALCULATION DONE:                                Mon Jun  2 11:05:42 2014  *
 *  PM3      - The PM3 Hamiltonian to be used
 *  OLDGEO   - PREVIOUS GEOMETRY TO BE USED
 *  PRECISE  - CRITERIA TO BE INCREASED BY 100 TIMES
 *  NOSYM    - POINT-GROUP SYMMETRY SET TO C1
 *  T=       - A TIME OF 172800.0 SECONDS REQUESTED
 *  DUMP=N   - RESTART FILE WRITTEN EVERY  7200.000 SECONDS
 *  THERMO   - THERMODYNAMIC QUANTITIES TO BE CALCULATED
 *******************************************************************************
oldgeo thermo nosym precise  pm3

   ATOM   CHEMICAL          X               Y               Z
  NUMBER   SYMBOL      (ANGSTROMS)     (ANGSTROMS)     (ANGSTROMS)
 
     1       C         -0.72646621  *  -0.56742191  *  -0.07078041  *
     2       C          0.36295149  *   0.33372815  *  -0.72705145  *
     3       C         -1.80683743  *   0.49645432  *  -0.42131099  *
     4       C         -0.70678326  *   1.41580667  *  -1.00267652  *
     5       C         -0.93568069  *  -1.91703222  *  -0.72450355  *
     6       C          0.17573014  *  -2.88415618  *  -0.38300067  *
     7       C          3.72796501  *   0.50093999  *   1.13676833  *
     8       C          1.44926404  *   0.73630452  *   0.20001718  *
     9       C         -2.57578627  *   1.00935541  *   0.73847325  *
    10       C          2.63648213  *   0.12685654  *   0.21114368  *
    11       C         -3.02402764  *   2.25542752  *   0.83581027  *
    12       H         -0.57734841  *  -0.69227838  *   1.02392087  *
    13       H          0.78369803  *  -0.10650967  *  -1.65764475  *
    14       H         -2.53013791  *   0.14195269  *  -1.18838699  *
    15       H         -0.56265035  *   2.36141178  *  -0.45501393  *
    16       H         -0.83642577  *   1.67092582  *  -2.06471792  *
    17       H         -1.91200485  *  -2.32728861  *  -0.39824569  *
    18       H         -1.01333104  *  -1.80216103  *  -1.82462160  *
    19       H          1.15618303  *  -2.49278667  *  -0.69066254  *
    20       H          0.22773001  *  -3.07790515  *   0.69662922  *
    21       H          0.03245026  *  -3.84957098  *  -0.88433134  *
    22       H          4.62297586  *   0.80092938  *   0.57519123  *
    23       H          4.00577848  *  -0.35307409  *   1.76918240  *
    24       H          3.45976108  *   1.33258986  *   1.80195936  *
    25       H          1.22502154  *   1.55746705  *   0.89317546  *
    26       H         -2.77843767  *   0.27432427  *   1.52768093  *
    27       H          2.85137458  *  -0.69880542  *  -0.48027980  *
    28       H         -3.60295020  *   2.60327666  *   1.68569070  *
    29       H         -2.84614606  *   3.01391427  *   0.07819212  *
 


          CARTESIAN COORDINATES 

    NO.       ATOM         X         Y         Z

     1         C       -0.7265   -0.5674   -0.0708
     2         C        0.3630    0.3337   -0.7271
     3         C       -1.8068    0.4965   -0.4213
     4         C       -0.7068    1.4158   -1.0027
     5         C       -0.9357   -1.9170   -0.7245
     6         C        0.1757   -2.8842   -0.3830
     7         C        3.7280    0.5009    1.1368
     8         C        1.4493    0.7363    0.2000
     9         C       -2.5758    1.0094    0.7385
    10         C        2.6365    0.1269    0.2111
    11         C       -3.0240    2.2554    0.8358
    12         H       -0.5773   -0.6923    1.0239
    13         H        0.7837   -0.1065   -1.6576
    14         H       -2.5301    0.1420   -1.1884
    15         H       -0.5627    2.3614   -0.4550
    16         H       -0.8364    1.6709   -2.0647
    17         H       -1.9120   -2.3273   -0.3982
    18         H       -1.0133   -1.8022   -1.8246
    19         H        1.1562   -2.4928   -0.6907
    20         H        0.2277   -3.0779    0.6966
    21         H        0.0325   -3.8496   -0.8843
    22         H        4.6230    0.8009    0.5752
    23         H        4.0058   -0.3531    1.7692
    24         H        3.4598    1.3326    1.8020
    25         H        1.2250    1.5575    0.8932
    26         H       -2.7784    0.2743    1.5277
    27         H        2.8514   -0.6988   -0.4803
    28         H       -3.6030    2.6033    1.6857
    29         H       -2.8461    3.0139    0.0782

  H: (PM3): J. J. P. STEWART, J. COMP. CHEM. 10, 209 (1989).
  C: (PM3): J. J. P. STEWART, J. COMP. CHEM. 10, 209 (1989).

           Empirical Formula: C11 H18  =    29 atoms



      MOLECULAR POINT GROUP   :   C1  


      RHF CALCULATION, NO. OF DOUBLY OCCUPIED LEVELS =   31



          HEAT OF FORMATION =      11.559252 KCALS/MOLE


          INTERNAL COORDINATE DERIVATIVES

   NUMBER  ATOM       BOND         ANGLE      DIHEDRAL

     1       C     -0.004397    -0.002451    -0.001912
     2       C      0.000142    -0.004348    -0.001269
     3       C     -0.001294    -0.000575     0.000872
     4       C      0.005502     0.000595    -0.001580
     5       C      0.003813     0.002363     0.003810
     6       C     -0.004902     0.000894    -0.004027
     7       C     -0.004499     0.005301    -0.002335
     8       C      0.004687     0.003721    -0.004170
     9       C      0.005957     0.006438    -0.003600
    10       C     -0.004216    -0.005753     0.003769
    11       C      0.003200     0.005059    -0.002352
    12       H      0.001365    -0.001927    -0.000323
    13       H     -0.001738     0.000582    -0.002667
    14       H     -0.004205     0.004415    -0.002431
    15       H      0.002039     0.001689     0.004485
    16       H      0.003253    -0.000504    -0.002062
    17       H     -0.002147    -0.004584     0.001649
    18       H      0.003287     0.002823    -0.003004
    19       H      0.007587    -0.002815    -0.001828
    20       H     -0.002689    -0.000674     0.003951
    21       H      0.001665     0.001414     0.001788
    22       H      0.006411    -0.005501    -0.000762
    23       H     -0.002196    -0.005763     0.002431
    24       H      0.001213     0.006545     0.001695
    25       H     -0.003632     0.007147     0.008165
    26       H     -0.010016    -0.005616     0.005766
    27       H     -0.000100    -0.004590    -0.007903
    28       H     -0.000942     0.001197     0.002506
    29       H     -0.003147    -0.005081     0.001339


          GRADIENT NORM =   0.03621


          TIME FOR SCF CALCULATION =    0.01

          TIME FOR DERIVATIVES     =    0.01

          MOLECULAR WEIGHT =  150.26



          ROTATIONAL CONSTANTS IN CM(-1)

          A =    0.04296931   B =    0.02335545   C =    0.01722446



           PRINCIPAL MOMENTS OF INERTIA IN UNITS OF 10**(-40)*GRAM-CM**2

          A =      651.4597   B =     1198.5541   C =     1625.1754


          ORIENTATION OF MOLECULE IN FORCE CALCULATION

    NO.       ATOM         X         Y         Z

     1          C      -0.8035   -0.0126   -0.4528
     2          C       0.7552   -0.0126   -0.4528
     3          C      -0.7960    1.5436   -0.4528
     4          C       0.7492    1.5318   -0.3771
     5          C      -1.4548   -0.6396   -1.6675
     6          C      -1.3809   -2.1496   -1.6270
     7          C       2.4190   -2.6623    1.7913
     8          C       1.3569   -0.7033    0.7145
     9          C      -1.5252    2.1703    0.6763
    10          C       1.8296   -1.9489    0.6373
    11          C      -1.1591    3.3097    1.2516
    12          H      -1.2324   -0.4460    0.4769
    13          H       1.1865   -0.3982   -1.4026
    14          H      -1.1835    1.9780   -1.4006
    15          H       1.1660    1.9528    0.5524
    16          H       1.2532    2.0330   -1.2165
    17          H      -2.5117   -0.3107   -1.7190
    18          H      -0.9794   -0.2617   -2.5952
    19          H      -0.3398   -2.4985   -1.5669
    20          H      -1.9111   -2.5588   -0.7568
    21          H      -1.8281   -2.5950   -2.5245
    22          H       3.4544   -2.9571    1.5736
    23          H       1.8532   -3.5787    2.0070
    24          H       2.4323   -2.0575    2.7079
    25          H       1.3830   -0.1425    1.6578
    26          H      -2.4241    1.6351    1.0076
    27          H       1.7936   -2.5067   -0.3080
    28          H      -1.7204    3.7607    2.0640
    29          H      -0.2772    3.8711    0.9547


    FIRST DERIVATIVES WILL BE USED IN THE CALCULATION OF SECOND DERIVATIVES

          ESTIMATED TIME TO COMPLETE CALCULATION =        5.48 SECONDS

    FOR POINT-GROUP C1   THERE ARE   1 UNIQUE SYMMETRY FUNCTIONS.

 STEP:   1 TIME =     0.05 SECS, INTEGRAL =      0.05 TIME LEFT: 172799.93
 STEP:   2 TIME =     0.05 SECS, INTEGRAL =      0.10 TIME LEFT: 172799.89
 STEP:   3 TIME =     0.05 SECS, INTEGRAL =      0.15 TIME LEFT: 172799.84
 STEP:   4 TIME =     0.05 SECS, INTEGRAL =      0.20 TIME LEFT: 172799.79
 STEP:   5 TIME =     0.05 SECS, INTEGRAL =      0.25 TIME LEFT: 172799.74
 STEP:   6 TIME =     0.05 SECS, INTEGRAL =      0.30 TIME LEFT: 172799.69
 STEP:   7 TIME =     0.05 SECS, INTEGRAL =      0.35 TIME LEFT: 172799.64
 STEP:   8 TIME =     0.05 SECS, INTEGRAL =      0.40 TIME LEFT: 172799.59
 STEP:   9 TIME =     0.05 SECS, INTEGRAL =      0.45 TIME LEFT: 172799.53
 STEP:  10 TIME =     0.05 SECS, INTEGRAL =      0.50 TIME LEFT: 172799.48
 STEP:  11 TIME =     0.05 SECS, INTEGRAL =      0.55 TIME LEFT: 172799.44
 STEP:  12 TIME =     0.05 SECS, INTEGRAL =      0.60 TIME LEFT: 172799.39
 STEP:  13 TIME =     0.05 SECS, INTEGRAL =      0.65 TIME LEFT: 172799.34
 STEP:  14 TIME =     0.05 SECS, INTEGRAL =      0.69 TIME LEFT: 172799.29
 STEP:  15 TIME =     0.05 SECS, INTEGRAL =      0.74 TIME LEFT: 172799.24
 STEP:  16 TIME =     0.05 SECS, INTEGRAL =      0.79 TIME LEFT: 172799.19
 STEP:  17 TIME =     0.05 SECS, INTEGRAL =      0.84 TIME LEFT: 172799.14
 STEP:  18 TIME =     0.05 SECS, INTEGRAL =      0.89 TIME LEFT: 172799.10
 STEP:  19 TIME =     0.05 SECS, INTEGRAL =      0.94 TIME LEFT: 172799.05
 STEP:  20 TIME =     0.05 SECS, INTEGRAL =      0.99 TIME LEFT: 172799.00
 STEP:  21 TIME =     0.05 SECS, INTEGRAL =      1.03 TIME LEFT: 172798.95
 STEP:  22 TIME =     0.05 SECS, INTEGRAL =      1.08 TIME LEFT: 172798.90
 STEP:  23 TIME =     0.05 SECS, INTEGRAL =      1.13 TIME LEFT: 172798.85
 STEP:  24 TIME =     0.05 SECS, INTEGRAL =      1.18 TIME LEFT: 172798.80
 STEP:  25 TIME =     0.05 SECS, INTEGRAL =      1.23 TIME LEFT: 172798.75
 STEP:  26 TIME =     0.05 SECS, INTEGRAL =      1.28 TIME LEFT: 172798.70
 STEP:  27 TIME =     0.05 SECS, INTEGRAL =      1.33 TIME LEFT: 172798.65
 STEP:  28 TIME =     0.05 SECS, INTEGRAL =      1.38 TIME LEFT: 172798.60
 STEP:  29 TIME =     0.05 SECS, INTEGRAL =      1.43 TIME LEFT: 172798.55
 STEP:  30 TIME =     0.05 SECS, INTEGRAL =      1.48 TIME LEFT: 172798.50
 STEP:  31 TIME =     0.06 SECS, INTEGRAL =      1.54 TIME LEFT: 172798.44
 STEP:  32 TIME =     0.05 SECS, INTEGRAL =      1.59 TIME LEFT: 172798.39
 STEP:  33 TIME =     0.05 SECS, INTEGRAL =      1.64 TIME LEFT: 172798.34
 STEP:  34 TIME =     0.05 SECS, INTEGRAL =      1.70 TIME LEFT: 172798.29
 STEP:  35 TIME =     0.05 SECS, INTEGRAL =      1.75 TIME LEFT: 172798.24
 STEP:  36 TIME =     0.05 SECS, INTEGRAL =      1.80 TIME LEFT: 172798.19
 STEP:  37 TIME =     0.05 SECS, INTEGRAL =      1.85 TIME LEFT: 172798.14
 STEP:  38 TIME =     0.05 SECS, INTEGRAL =      1.90 TIME LEFT: 172798.09
 STEP:  39 TIME =     0.05 SECS, INTEGRAL =      1.95 TIME LEFT: 172798.04
 STEP:  40 TIME =     0.05 SECS, INTEGRAL =      2.00 TIME LEFT: 172797.99
 STEP:  41 TIME =     0.06 SECS, INTEGRAL =      2.05 TIME LEFT: 172797.93
 STEP:  42 TIME =     0.05 SECS, INTEGRAL =      2.11 TIME LEFT: 172797.88
 STEP:  43 TIME =     0.06 SECS, INTEGRAL =      2.17 TIME LEFT: 172797.82
 STEP:  44 TIME =     0.06 SECS, INTEGRAL =      2.22 TIME LEFT: 172797.76
 STEP:  45 TIME =     0.06 SECS, INTEGRAL =      2.28 TIME LEFT: 172797.70
 STEP:  46 TIME =     0.05 SECS, INTEGRAL =      2.33 TIME LEFT: 172797.65
 STEP:  47 TIME =     0.05 SECS, INTEGRAL =      2.38 TIME LEFT: 172797.60
 STEP:  48 TIME =     0.05 SECS, INTEGRAL =      2.44 TIME LEFT: 172797.55
 STEP:  49 TIME =     0.05 SECS, INTEGRAL =      2.48 TIME LEFT: 172797.50
 STEP:  50 TIME =     0.05 SECS, INTEGRAL =      2.53 TIME LEFT: 172797.45
 STEP:  51 TIME =     0.05 SECS, INTEGRAL =      2.58 TIME LEFT: 172797.40
 STEP:  52 TIME =     0.06 SECS, INTEGRAL =      2.64 TIME LEFT: 172797.35
 STEP:  53 TIME =     0.05 SECS, INTEGRAL =      2.69 TIME LEFT: 172797.30
 STEP:  54 TIME =     0.05 SECS, INTEGRAL =      2.74 TIME LEFT: 172797.25
 STEP:  55 TIME =     0.05 SECS, INTEGRAL =      2.78 TIME LEFT: 172797.20
 STEP:  56 TIME =     0.05 SECS, INTEGRAL =      2.84 TIME LEFT: 172797.15
 STEP:  57 TIME =     0.06 SECS, INTEGRAL =      2.89 TIME LEFT: 172797.09
 STEP:  58 TIME =     0.05 SECS, INTEGRAL =      2.94 TIME LEFT: 172797.04
 STEP:  59 TIME =     0.05 SECS, INTEGRAL =      2.99 TIME LEFT: 172796.99
 STEP:  60 TIME =     0.05 SECS, INTEGRAL =      3.04 TIME LEFT: 172796.94
 STEP:  61 TIME =     0.05 SECS, INTEGRAL =      3.09 TIME LEFT: 172796.89
 STEP:  62 TIME =     0.05 SECS, INTEGRAL =      3.14 TIME LEFT: 172796.84
 STEP:  63 TIME =     0.05 SECS, INTEGRAL =      3.19 TIME LEFT: 172796.79
 STEP:  64 TIME =     0.05 SECS, INTEGRAL =      3.24 TIME LEFT: 172796.75
 STEP:  65 TIME =     0.05 SECS, INTEGRAL =      3.29 TIME LEFT: 172796.69
 STEP:  66 TIME =     0.05 SECS, INTEGRAL =      3.34 TIME LEFT: 172796.64
 STEP:  67 TIME =     0.05 SECS, INTEGRAL =      3.40 TIME LEFT: 172796.59
 STEP:  68 TIME =     0.06 SECS, INTEGRAL =      3.45 TIME LEFT: 172796.53
 STEP:  69 TIME =     0.07 SECS, INTEGRAL =      3.52 TIME LEFT: 172796.46
 STEP:  70 TIME =     0.06 SECS, INTEGRAL =      3.58 TIME LEFT: 172796.40
 STEP:  71 TIME =     0.05 SECS, INTEGRAL =      3.63 TIME LEFT: 172796.35
 STEP:  72 TIME =     0.05 SECS, INTEGRAL =      3.68 TIME LEFT: 172796.30
 STEP:  73 TIME =     0.06 SECS, INTEGRAL =      3.74 TIME LEFT: 172796.25
 STEP:  74 TIME =     0.05 SECS, INTEGRAL =      3.79 TIME LEFT: 172796.20
 STEP:  75 TIME =     0.05 SECS, INTEGRAL =      3.84 TIME LEFT: 172796.15
 STEP:  76 TIME =     0.05 SECS, INTEGRAL =      3.89 TIME LEFT: 172796.10
 STEP:  77 TIME =     0.05 SECS, INTEGRAL =      3.94 TIME LEFT: 172796.05
 STEP:  78 TIME =     0.05 SECS, INTEGRAL =      3.99 TIME LEFT: 172796.00
 STEP:  79 TIME =     0.06 SECS, INTEGRAL =      4.05 TIME LEFT: 172795.94
 STEP:  80 TIME =     0.06 SECS, INTEGRAL =      4.11 TIME LEFT: 172795.88
 STEP:  81 TIME =     0.06 SECS, INTEGRAL =      4.16 TIME LEFT: 172795.82
 STEP:  82 TIME =     0.06 SECS, INTEGRAL =      4.22 TIME LEFT: 172795.77
 STEP:  83 TIME =     0.06 SECS, INTEGRAL =      4.27 TIME LEFT: 172795.71
 STEP:  84 TIME =     0.05 SECS, INTEGRAL =      4.32 TIME LEFT: 172795.66
 STEP:  85 TIME =     0.05 SECS, INTEGRAL =      4.37 TIME LEFT: 172795.61
 STEP:  86 TIME =     0.05 SECS, INTEGRAL =      4.42 TIME LEFT: 172795.56
 STEP:  87 TIME =     0.05 SECS, INTEGRAL =      4.47 TIME LEFT: 172795.51

(To convert to Hartree/Bohr^2, multiply by (10^(-21) x N x a0^2)/(4.184 x 627.51) = 0.0642)


           FORCE MATRIX IN MILLIDYNES/ANGSTROM


                  C  1       C  2       C  3       C  4       C  5       C  6
 ------------------------------------------------------------------------------
     C    1  14.281840
     C    2   3.082340  14.835488
     C    3   3.196433   1.787167  14.798810
     C    4   1.800443   3.501978   3.468687  14.340039
     C    5   4.313467   0.531058   0.533609   0.041692  14.491721
     C    6   0.661544   0.030218   0.049301   0.005515   4.461077  14.358546
     C    7   0.019797   0.140932   0.002343   0.012852   0.002719   0.000596
     C    8   0.582903   5.050090   0.041443   0.575458   0.031361   0.003658
     C    9   0.571811   0.040942   5.073918   0.547343   0.035283   0.006702
     C   10   0.026688   0.852808   0.004903   0.045063   0.002686   0.007312
     C   11   0.046667   0.006298   0.821229   0.050624   0.005961   0.001921
     H   12   4.389058   0.438486   0.436869   0.024700   0.428601   0.031226
     H   13   0.439550   4.370127   0.026639   0.426077   0.031752   0.008410
     H   14   0.441316   0.026264   4.353667   0.432855   0.036753   0.002778
     H   15   0.027815   0.452579   0.452363   4.631959   0.001592   0.000498
     H   16   0.031603   0.442638   0.440610   4.709915   0.004017   0.000826
     H   17   0.431829   0.046476   0.019109   0.003248   4.455288   0.439743
     H   18   0.449688   0.024063   0.021196   0.001600   4.432003   0.437358
     H   19   0.022022   0.007616   0.002062   0.000563   0.463250   4.679675
     H   20   0.022934   0.002342   0.001755   0.000488   0.463365   4.728261
     H   21   0.051812   0.002093   0.008382   0.000670   0.450962   4.756683
     H   22   0.002521   0.018601   0.000336   0.002247   0.000242   0.000285
     H   23   0.002957   0.018875   0.000447   0.001084   0.000774   0.000311
     H   24   0.000475   0.002187   0.000199   0.000703   0.000315   0.000113
     H   25   0.011007   0.437309   0.002021   0.033541   0.001535   0.000645
     H   26   0.030897   0.002069   0.434061   0.036508   0.002082   0.000535
     H   27   0.010645   0.085024   0.001187   0.004702   0.001825   0.009490
     H   28   0.010769   0.001751   0.134061   0.007376   0.001650   0.000556
     H   29   0.004843   0.001666   0.097849   0.018079   0.001042   0.000337


                  C  7       C  8       C  9       C 10       C 11       H 12
 ------------------------------------------------------------------------------
     C    7  14.723564
     C    8   0.846575  18.271679
     C    9   0.000995   0.006637  18.283311
     C   10   5.277025  10.643837   0.001636  18.168093
     C   11   0.000903   0.001767  11.065590   0.002586  18.017445
     H   12   0.001038   0.033185   0.033713   0.004154   0.003150   4.899953
     H   13   0.005062   0.433111   0.001589   0.049999   0.000978   0.029219
     H   14   0.000331   0.002614   0.390143   0.000583   0.025843   0.030297
     H   15   0.001095   0.031848   0.017798   0.003008   0.016075   0.002458
     H   16   0.001814   0.032203   0.033175   0.005102   0.003324   0.000953
     H   17   0.000702   0.005888   0.001628   0.000744   0.000578   0.025197
     H   18   0.000284   0.000926   0.001370   0.000522   0.000760   0.041868
     H   19   0.000844   0.002528   0.000916   0.008094   0.000232   0.002194
     H   20   0.000475   0.000923   0.000865   0.000734   0.000282   0.020577
     H   21   0.000384   0.000510   0.001371   0.001099   0.000636   0.002000
     H   22   4.705874   0.036735   0.000602   0.438773   0.000453   0.000176
     H   23   4.704066   0.034451   0.000515   0.438524   0.000296   0.000336
     H   24   4.724144   0.041367   0.000244   0.479439   0.000351   0.000268
     H   25   0.082692   4.761886   0.002166   0.467198   0.001665   0.004239
     H   26   0.000248   0.001448   4.773077   0.000720   0.455480   0.028557
     H   27   0.423440   0.471886   0.000652   4.748247   0.000722   0.000801
     H   28   0.000425   0.000480   0.463397   0.000483   5.109341   0.000780
     H   29   0.000357   0.001871   0.492746   0.001039   5.071738   0.000736


                  H 13       H 14       H 15       H 16       H 17       H 18
 ------------------------------------------------------------------------------
     H   13   4.871139
     H   14   0.002355   4.840665
     H   15   0.030312   0.031335   5.265161
     H   16   0.027975   0.026843   0.549798   5.327001
     H   17   0.002978   0.010901   0.000576   0.000731   5.063954
     H   18   0.026675   0.020154   0.000520   0.000708   0.569470   5.050066
     H   19   0.010947   0.000492   0.000269   0.000298   0.048356   0.023305
     H   20   0.000495   0.000474   0.000134   0.000169   0.025592   0.047626
     H   21   0.000503   0.000719   0.000082   0.000179   0.027768   0.031350
     H   22   0.000473   0.000090   0.000273   0.000474   0.000110   0.000097
     H   23   0.000885   0.000083   0.000143   0.000090   0.000262   0.000115
     H   24   0.000510   0.000094   0.000230   0.000139   0.000123   0.000118
     H   25   0.032210   0.000781   0.029503   0.001834   0.000398   0.000625
     H   26   0.000582   0.014336   0.003390   0.004325   0.001666   0.000571
     H   27   0.029185   0.000226   0.000696   0.000835   0.000736   0.000351
     H   28   0.000144   0.015471   0.001194   0.000970   0.000231   0.000186
     H   29   0.000479   0.011980   0.025473   0.001499   0.000217   0.000158


                  H 19       H 20       H 21       H 22       H 23       H 24
 ------------------------------------------------------------------------------
     H   19   5.417984
     H   20   0.575254   5.469681
     H   21   0.565325   0.569696   5.490142
     H   22   0.000173   0.000098   0.000117   5.425249
     H   23   0.000152   0.000112   0.000127   0.574964   5.424153
     H   24   0.000170   0.000069   0.000094   0.564906   0.564423   5.450198
     H   25   0.000412   0.000364   0.000156   0.009280   0.009342   0.029586
     H   26   0.000321   0.000245   0.000228   0.000099   0.000121   0.000141
     H   27   0.011134   0.000661   0.000702   0.023745   0.023656   0.041000
     H   28   0.000150   0.000084   0.000131   0.000121   0.000091   0.000161
     H   29   0.000136   0.000163   0.000112   0.000159   0.000112   0.000104


                  H 25       H 26       H 27       H 28       H 29
 ------------------------------------------------------------------
     H   25   5.139267
     H   26   0.000943   5.137725
     H   27   0.104760   0.000229   5.129901
     H   28   0.000537   0.079338   0.000147   5.498657
     H   29   0.000837   0.117392   0.000213   0.420452   5.467195


          HEAT OF FORMATION =      11.559252 KCALS/MOLE

          ZERO POINT ENERGY     162.570 KCAL/MOL


           NORMAL COORDINATE ANALYSIS (Total motion = 1 Angstrom)


   Root No.       1         2         3         4         5         6         7         8

                 1 A       2 A       3 A       4 A       5 A       6 A       7 A       8 A   

                  53.6      76.6      91.1     115.8     136.9     161.9     172.3     214.9
  
           1   -0.0061   -0.0189   -0.0066    0.0070   -0.0063    0.0061    0.0107   -0.0001
           2   -0.0054   -0.0019   -0.0016   -0.0100    0.0038   -0.0004    0.0006    0.0025
           3   -0.0102    0.0032    0.0135    0.0020    0.0019    0.0049    0.0018    0.0052
           4   -0.0061   -0.0190   -0.0064    0.0074   -0.0066    0.0060    0.0112    0.0007
           5   -0.0053   -0.0203    0.0010   -0.0024   -0.0047   -0.0018   -0.0026   -0.0064
           6   -0.0156    0.0115   -0.0015   -0.0013    0.0089   -0.0004   -0.0126   -0.0127
           7   -0.0067   -0.0006   -0.0087   -0.0009    0.0023    0.0075    0.0135    0.0076
           8   -0.0053   -0.0018   -0.0014   -0.0103    0.0043   -0.0002    0.0000    0.0021
           9   -0.0029    0.0046    0.0078    0.0157   -0.0097   -0.0028   -0.0004    0.0029
          10   -0.0053   -0.0011   -0.0078   -0.0004    0.0010    0.0068    0.0133    0.0076
          11   -0.0045   -0.0201    0.0009   -0.0022   -0.0043   -0.0012   -0.0021   -0.0058
          12   -0.0339    0.0106   -0.0081    0.0007    0.0085    0.0022    0.0000   -0.0013
          13   -0.0083   -0.0171   -0.0141    0.0052   -0.0062   -0.0100   -0.0217   -0.0179
          14    0.0018    0.0106   -0.0074    0.0087    0.0033    0.0064    0.0070    0.0063
          15   -0.0130   -0.0046    0.0205   -0.0073    0.0019    0.0101    0.0170    0.0136
          16   -0.0018   -0.0017    0.0581   -0.0213    0.0036   -0.0075   -0.0108    0.0084
          17    0.0018    0.0108   -0.0049    0.0074    0.0038    0.0066    0.0075    0.0075
          18   -0.0262   -0.0302   -0.0161   -0.0227   -0.0071   -0.0110   -0.0041    0.0006
          19   -0.0072    0.0364   -0.0184    0.0077    0.0256    0.0138   -0.0176   -0.0017
          20    0.0346    0.0085   -0.0091    0.0050    0.0036    0.0048    0.0017    0.0087
          21    0.0329    0.0060   -0.0052    0.0085   -0.0028    0.0041    0.0168    0.0111
          22   -0.0063   -0.0268    0.0020    0.0181    0.0008    0.0178    0.0069    0.0092
          23    0.0135   -0.0210    0.0027    0.0039   -0.0039    0.0013   -0.0052   -0.0095
          24   -0.0042    0.0151   -0.0048   -0.0029    0.0059   -0.0042   -0.0120   -0.0196
          25    0.0159    0.0054    0.0058    0.0095   -0.0140   -0.0074   -0.0022   -0.0018
          26   -0.0152    0.0105    0.0076   -0.0159    0.0130    0.0021   -0.0063    0.0026
          27    0.0174    0.0016    0.0122    0.0256   -0.0255   -0.0145   -0.0077   -0.0039
          28   -0.0057    0.0282   -0.0179   -0.0106   -0.0106   -0.0244    0.0309    0.0022
          29    0.0125    0.0005   -0.0050   -0.0077   -0.0084   -0.0156    0.0038   -0.0130
          30    0.0183    0.0051   -0.0028    0.0097    0.0081    0.0107   -0.0074   -0.0054
          31    0.0373    0.0088    0.0090   -0.0189    0.0045   -0.0100   -0.0215   -0.0129
          32   -0.0316    0.0191    0.0188    0.0177   -0.0114   -0.0055   -0.0054    0.0017
          33    0.0362   -0.0174   -0.0116   -0.0225    0.0108    0.0018    0.0020    0.0043
          34   -0.0040   -0.0301    0.0027    0.0102   -0.0128    0.0110    0.0243    0.0091
          35   -0.0113    0.0003   -0.0002   -0.0238    0.0124    0.0029    0.0034    0.0043
          36   -0.0120   -0.0012    0.0183   -0.0032    0.0027    0.0086    0.0099    0.0101
          37   -0.0071   -0.0199   -0.0146    0.0073   -0.0079    0.0011    0.0045   -0.0106
          38   -0.0195   -0.0257   -0.0016   -0.0009   -0.0057   -0.0017    0.0000   -0.0041
          39   -0.0101    0.0132   -0.0042   -0.0018    0.0085   -0.0025   -0.0160   -0.0183
          40   -0.0274    0.0081   -0.0194   -0.0123    0.0175    0.0142    0.0184    0.0114
          41    0.0009    0.0030   -0.0062   -0.0055   -0.0003   -0.0048   -0.0003    0.0019
          42    0.0085    0.0031    0.0099    0.0224   -0.0181   -0.0079   -0.0029    0.0009
          43    0.0153   -0.0002    0.0011    0.0054   -0.0073    0.0037    0.0125    0.0111
          44    0.0072   -0.0243    0.0057    0.0009   -0.0076   -0.0030   -0.0100   -0.0143
          45   -0.0484    0.0120   -0.0143   -0.0034    0.0138    0.0045    0.0038    0.0010
          46   -0.0233    0.0083   -0.0171   -0.0116    0.0142    0.0101    0.0143    0.0080
          47   -0.0152   -0.0266   -0.0021    0.0012   -0.0067    0.0002    0.0044   -0.0017
          48   -0.0512    0.0123   -0.0155   -0.0041    0.0150    0.0051    0.0045    0.0014
          49   -0.0098   -0.0203   -0.0308    0.0107   -0.0085   -0.0118   -0.0259   -0.0235
          50   -0.0020    0.0015   -0.0554    0.0264   -0.0032    0.0047    0.0005   -0.0087
          51   -0.0063    0.0038    0.0592   -0.0104    0.0077    0.0325    0.0573    0.0347
          52   -0.0132   -0.0234   -0.0592    0.0165   -0.0123   -0.0270   -0.0556   -0.0393
          53    0.0116    0.0300    0.0342    0.0097    0.0108    0.0177    0.0208    0.0224
          54   -0.0115    0.0000    0.0143   -0.0011    0.0017    0.0059    0.0054    0.0091
          55   -0.0001    0.0021    0.0762   -0.0275    0.0064   -0.0047   -0.0047    0.0070
          56    0.0056    0.0203    0.0406   -0.0111    0.0095    0.0061    0.0133    0.0293
          57   -0.0341   -0.0403   -0.0664   -0.0243   -0.0233   -0.0644   -0.0778    0.1584
          58    0.0042    0.0063    0.1123   -0.0302    0.0180    0.0336    0.0503   -0.1191
          59   -0.0077   -0.0088   -0.0489    0.0076   -0.0041   -0.0044   -0.0055   -0.0170
          60   -0.0270   -0.0345   -0.0038   -0.0280   -0.0021    0.0088    0.0270   -0.0888
          61   -0.0044   -0.0013    0.0423   -0.0274   -0.0059   -0.0495   -0.0688    0.1597
          62    0.0075    0.0212   -0.0052    0.0246    0.0061    0.0178    0.0152    0.0111
          63   -0.0277   -0.0355   -0.0081   -0.0282   -0.0035    0.0043    0.0210   -0.0764
          64   -0.0052    0.0503   -0.0248   -0.0130   -0.0185    0.0469   -0.0262    0.0024
          65    0.0351    0.0482   -0.0258   -0.0434   -0.0984    0.1118   -0.0485    0.0131
          66    0.0419    0.0181   -0.0130   -0.0245   -0.0746    0.0156    0.0451    0.0251
          67   -0.0042    0.0662   -0.0305   -0.0201   -0.0356    0.0988   -0.0632    0.0033
          68    0.0360   -0.0143    0.0004    0.0344    0.0644   -0.0560    0.0309    0.0081
          69    0.0467   -0.0128    0.0034    0.0607    0.0955   -0.0332    0.0226    0.0215
          70   -0.0131    0.0010   -0.0012    0.0696    0.1565   -0.0626   -0.0107   -0.0140
          71    0.0504   -0.0014   -0.0055    0.0335    0.0526   -0.0202    0.0183    0.0234
          72    0.0226    0.0130   -0.0078   -0.0112   -0.0370    0.0217    0.0059    0.0018
          73   -0.0078   -0.0750    0.0223    0.0555    0.0286    0.0711   -0.0297    0.0204
          74    0.0291   -0.0370    0.0088    0.0209    0.0054    0.0225   -0.0154   -0.0033
          75   -0.0133    0.0260   -0.0091   -0.0139   -0.0003   -0.0181   -0.0046   -0.0230
          76    0.0120    0.0085    0.0153    0.0442   -0.0443   -0.0198   -0.0033   -0.0061
          77   -0.0090    0.0140    0.0064   -0.0449    0.0376    0.0084   -0.0140    0.0015
          78    0.0170    0.0153    0.0356    0.0723   -0.0678   -0.0376   -0.0222   -0.0167
          79   -0.0039    0.0730   -0.0360   -0.0489   -0.0441   -0.0781    0.0745    0.0001
          80   -0.0043    0.0144   -0.0096   -0.0262   -0.0203   -0.0396    0.0104   -0.0291
          81    0.0282   -0.0048    0.0004    0.0221    0.0163    0.0269   -0.0126    0.0046
          82    0.0513    0.0147    0.0204   -0.0101   -0.0086   -0.0240   -0.0383   -0.0263
          83   -0.0406    0.0305    0.0283    0.0209   -0.0102   -0.0071   -0.0141   -0.0022
          84    0.0510   -0.0197   -0.0090   -0.0183    0.0011   -0.0070   -0.0047   -0.0028
          85    0.0413    0.0064    0.0006   -0.0515    0.0333    0.0014   -0.0217   -0.0095
          86   -0.0365    0.0150    0.0192    0.0433   -0.0338   -0.0110    0.0031    0.0041
          87    0.0387   -0.0322   -0.0357   -0.0709    0.0538    0.0256    0.0179    0.0192


   Root No.       9        10        11        12        13        14        15        16

                 9 A      10 A      11 A      12 A      13 A      14 A      15 A      16 A   

                 223.5     248.3     308.5     353.5     386.0     432.0     437.0     552.2
  
           1   -0.0052   -0.0013    0.0108   -0.0081   -0.0206    0.0063    0.0201   -0.0067
           2    0.0154   -0.0074    0.0011    0.0061    0.0092    0.0157   -0.0041    0.0201
           3   -0.0212   -0.0047   -0.0165   -0.0038   -0.0251    0.0058   -0.0273   -0.0173
           4   -0.0072    0.0001    0.0103   -0.0045   -0.0138    0.0054    0.0231   -0.0043
           5   -0.0062    0.0064    0.0136   -0.0023   -0.0040    0.0236    0.0099    0.0079
           6   -0.0140   -0.0119    0.0014    0.0050    0.0040    0.0159   -0.0257    0.0279
           7    0.0132   -0.0122    0.0104   -0.0166   -0.0035   -0.0166   -0.0086    0.0124
           8    0.0145   -0.0064   -0.0001   -0.0069    0.0166    0.0183   -0.0043    0.0190
           9   -0.0025    0.0132   -0.0140   -0.0104   -0.0170   -0.0285    0.0192    0.0174
          10    0.0135   -0.0140    0.0083   -0.0159   -0.0074   -0.0164   -0.0067    0.0189
          11   -0.0060    0.0032    0.0106   -0.0002   -0.0044    0.0330    0.0150    0.0099
          12    0.0051    0.0440    0.0290    0.0017    0.0115   -0.0118   -0.0085   -0.0056
          13   -0.0005    0.0059   -0.0260   -0.0124   -0.0209    0.0093   -0.0140   -0.0108
          14    0.0020   -0.0101   -0.0091    0.0376   -0.0143   -0.0058   -0.0016   -0.0103
          15   -0.0153   -0.0084    0.0093   -0.0126   -0.0204    0.0178   -0.0128   -0.0098
          16    0.0182   -0.0026   -0.0079    0.0149   -0.0034   -0.0060   -0.0013   -0.0039
          17    0.0027   -0.0112   -0.0093    0.0447   -0.0161   -0.0071   -0.0018   -0.0155
          18    0.0279   -0.0027   -0.0052    0.0285   -0.0044   -0.0099    0.0042   -0.0046
          19    0.0087   -0.0094    0.0004    0.0044    0.0044    0.0102    0.0171   -0.0030
          20    0.0183    0.0237    0.0061   -0.0159   -0.0240   -0.0095   -0.0253    0.0062
          21    0.0044    0.0137   -0.0113    0.0103    0.0112    0.0163    0.0114   -0.0005
          22   -0.0252    0.0112   -0.0165    0.0198    0.0352   -0.0043   -0.0144    0.0114
          23   -0.0197   -0.0102    0.0141   -0.0021    0.0132   -0.0314   -0.0067   -0.0068
          24   -0.0140   -0.0307    0.0152   -0.0027   -0.0032   -0.0059   -0.0040    0.0115
          25    0.0153   -0.0125    0.0112   -0.0187    0.0158    0.0020   -0.0141   -0.0205
          26   -0.0089    0.0122   -0.0237   -0.0297    0.0140    0.0005    0.0121   -0.0144
          27    0.0132    0.0031   -0.0024   -0.0028    0.0017   -0.0052    0.0117    0.0186
          28   -0.0191    0.0050   -0.0160    0.0142    0.0227    0.0056   -0.0018    0.0057
          29   -0.0177   -0.0127    0.0161   -0.0062    0.0061   -0.0316   -0.0056   -0.0091
          30   -0.0044   -0.0178    0.0056    0.0086    0.0174   -0.0026    0.0280   -0.0148
          31   -0.0191    0.0270    0.0142    0.0160   -0.0048    0.0037    0.0008    0.0003
          32    0.0037    0.0058   -0.0185   -0.0296    0.0136   -0.0042    0.0129   -0.0073
          33    0.0097   -0.0071   -0.0157   -0.0278    0.0176    0.0027    0.0041   -0.0104
          34   -0.0118    0.0054    0.0201   -0.0134   -0.0355    0.0077    0.0434   -0.0295
          35    0.0183   -0.0169    0.0055    0.0001    0.0206    0.0321   -0.0271    0.0267
          36   -0.0217   -0.0064   -0.0086   -0.0086   -0.0270    0.0143   -0.0264   -0.0241
          37   -0.0047    0.0015    0.0286   -0.0074   -0.0183    0.0101    0.0467   -0.0023
          38   -0.0031    0.0388    0.0264    0.0011   -0.0015    0.0369    0.0243   -0.0020
          39   -0.0139   -0.0237    0.0054    0.0022    0.0007    0.0123   -0.0190    0.0317
          40    0.0213    0.0028    0.0267   -0.0157    0.0092   -0.0290   -0.0249    0.0183
          41    0.0348   -0.0057    0.0087   -0.0015    0.0310    0.0057    0.0011    0.0543
          42    0.0043    0.0073   -0.0155   -0.0084   -0.0143   -0.0281    0.0273    0.0312
          43    0.0123   -0.0399   -0.0239   -0.0255   -0.0288   -0.0338    0.0089    0.0658
          44   -0.0215   -0.0329   -0.0088    0.0018   -0.0145    0.0586    0.0134    0.0442
          45    0.0125    0.0730    0.0532    0.0050    0.0266   -0.0164   -0.0154   -0.0443
          46    0.0249    0.0034    0.0349   -0.0127    0.0205   -0.0136   -0.0382   -0.0080
          47   -0.0028    0.0440    0.0328    0.0017   -0.0010    0.0189    0.0332   -0.0361
          48    0.0140    0.0794    0.0589    0.0050    0.0307   -0.0187   -0.0170   -0.0513
          49   -0.0029    0.0078   -0.0333   -0.0135   -0.0256    0.0092   -0.0184   -0.0162
          50   -0.0083   -0.0058   -0.0236    0.0335   -0.0296   -0.0038   -0.0095   -0.0254
          51   -0.0243   -0.0193    0.0586   -0.0121   -0.0185    0.0234    0.0252    0.0014
          52   -0.0013    0.0155   -0.0717   -0.0142   -0.0319    0.0060   -0.0499   -0.0298
          53   -0.0132   -0.0164    0.0021    0.0377   -0.0200   -0.0034   -0.0028   -0.0160
          54   -0.0214   -0.0061   -0.0089   -0.0132   -0.0278    0.0167   -0.0306   -0.0210
          55    0.0247   -0.0038   -0.0047    0.0243    0.0009   -0.0113    0.0027   -0.0030
          56    0.0171   -0.0174    0.0042    0.0723   -0.0023   -0.0233    0.0114   -0.0118
          57    0.0019   -0.0189    0.0152    0.0371    0.0011   -0.0178    0.0141   -0.0027
          58    0.0551    0.0096   -0.0233    0.0300    0.0008   -0.0139    0.0004   -0.0036
          59    0.0241   -0.0042   -0.0270    0.0646   -0.0133   -0.0218    0.0050   -0.0171
          60    0.0607    0.0080   -0.0231    0.0476   -0.0005   -0.0220    0.0087   -0.0053
          61   -0.0086   -0.0209    0.0196    0.0212    0.0037   -0.0113    0.0072   -0.0006
          62   -0.0323   -0.0123   -0.0044    0.0010   -0.0332    0.0229   -0.0211   -0.0203
          63    0.0589    0.0068   -0.0215    0.0480    0.0004   -0.0228    0.0099   -0.0043
          64    0.0096   -0.0030   -0.0030    0.0048    0.0030    0.0136    0.0125    0.0010
          65    0.0298    0.0250    0.0104   -0.0207   -0.0362   -0.0048   -0.0204    0.0037
          66   -0.0072    0.0435   -0.0341    0.0189    0.0213    0.0253   -0.0199    0.0236
          67    0.0280   -0.0071    0.0061   -0.0027   -0.0137    0.0200    0.0257   -0.0062
          68    0.0150    0.0268    0.0028   -0.0149   -0.0215   -0.0101   -0.0321    0.0108
          69    0.0400    0.0320   -0.0108   -0.0025   -0.0228    0.0391    0.0058    0.0098
          70    0.0170   -0.0310    0.0163   -0.0019   -0.0028    0.0052    0.0385   -0.0185
          71    0.0427    0.0515   -0.0027   -0.0236   -0.0485    0.0108   -0.0437    0.0237
          72   -0.0115   -0.0037   -0.0059    0.0153    0.0269    0.0034    0.0224   -0.0110
          73   -0.0297    0.0234   -0.0311    0.0420    0.0833   -0.0167   -0.0554    0.0445
          74   -0.0198   -0.0112    0.0091    0.0065    0.0373   -0.0537   -0.0049   -0.0172
          75   -0.0133   -0.0293    0.0184   -0.0083   -0.0187    0.0081   -0.0039    0.0167
          76    0.0407   -0.0293    0.0329   -0.0079    0.0353    0.0331   -0.0386   -0.0404
          77   -0.0410    0.0403   -0.0436   -0.0327   -0.0068   -0.0285    0.0407    0.0019
          78    0.0317    0.0004    0.0230    0.0193    0.0228    0.0331   -0.0102   -0.0121
          79   -0.0179    0.0078   -0.0165    0.0039   -0.0077    0.0274    0.0180   -0.0062
          80   -0.0321   -0.0326    0.0280   -0.0134   -0.0042   -0.0388   -0.0031   -0.0112
          81    0.0046   -0.0051   -0.0017    0.0131    0.0239    0.0015    0.0250   -0.0124
          82   -0.0235    0.0437    0.0385    0.0608   -0.0043    0.0408   -0.0127    0.0015
          83   -0.0209    0.0361   -0.0257   -0.0096   -0.0265   -0.0459    0.0508    0.0681
          84    0.0205   -0.0126    0.0047   -0.0090    0.0409    0.0516   -0.0261   -0.0529
          85   -0.0458    0.0472   -0.0058    0.0114   -0.0307   -0.0331    0.0308    0.0395
          86    0.0380   -0.0284   -0.0054   -0.0477    0.0523    0.0329   -0.0227   -0.0713
          87   -0.0039   -0.0130   -0.0511   -0.0778    0.0152   -0.0362    0.0250   -0.0183


   Root No.      17        18        19        20        21        22        23        24

                17 A      18 A      19 A      20 A      21 A      22 A      23 A      24 A   

                 555.8     650.3     736.3     823.6     861.5     897.4     919.1     923.8
  
           1    0.0115   -0.0185   -0.0218    0.0051   -0.0105   -0.0007    0.0114    0.0011
           2   -0.0230    0.0010   -0.0184   -0.0048    0.0004   -0.0125   -0.0111   -0.0069
           3   -0.0143    0.0117    0.0185   -0.0004    0.0091    0.0180   -0.0015    0.0030
           4    0.0160   -0.0159   -0.0103   -0.0217    0.0023   -0.0021   -0.0110    0.0009
           5    0.0021    0.0177    0.0241    0.0016    0.0031    0.0060    0.0014    0.0047
           6    0.0296    0.0030    0.0061    0.0054    0.0035    0.0013    0.0043    0.0045
           7   -0.0078    0.0044    0.0223    0.0028    0.0004    0.0034   -0.0011   -0.0055
           8   -0.0220   -0.0084   -0.0200   -0.0045    0.0012   -0.0009    0.0009    0.0031
           9   -0.0058   -0.0132    0.0254    0.0069   -0.0013   -0.0109   -0.0084   -0.0100
          10   -0.0140   -0.0113    0.0208    0.0003    0.0023    0.0209    0.0065    0.0023
          11    0.0014    0.0237    0.0287    0.0067   -0.0033    0.0151    0.0026   -0.0094
          12   -0.0008    0.0018    0.0079    0.0071   -0.0027   -0.0257    0.0024    0.0138
          13   -0.0174   -0.0018   -0.0208    0.0282    0.0057   -0.0042    0.0008   -0.0003
          14    0.0054    0.0006   -0.0017    0.0019    0.0000   -0.0005   -0.0004   -0.0004
          15   -0.0194    0.0043   -0.0151   -0.0088   -0.0098   -0.0126    0.0011   -0.0011
          16   -0.0002    0.0003   -0.0023    0.0070    0.0024   -0.0015   -0.0031   -0.0008
          17    0.0093    0.0020   -0.0036    0.0017   -0.0019   -0.0031    0.0015    0.0009
          18    0.0058   -0.0002   -0.0028   -0.0007   -0.0044   -0.0086    0.0007   -0.0015
          19   -0.0078    0.0048    0.0031    0.0047   -0.0161    0.0055   -0.0036   -0.0009
          20    0.0156   -0.0074   -0.0053    0.0009   -0.0068   -0.0011    0.0020    0.0041
          21   -0.0070    0.0062    0.0054    0.0009    0.0046   -0.0005    0.0020    0.0010
          22    0.0099   -0.0051   -0.0051   -0.0147    0.0319   -0.0027   -0.0241    0.0105
          23   -0.0083   -0.0012    0.0003   -0.0033    0.0126   -0.0015   -0.0089    0.0042
          24    0.0246   -0.0145   -0.0161   -0.0099   -0.0064    0.0066   -0.0034   -0.0131
          25    0.0206    0.0511    0.0034    0.0040   -0.0005   -0.0071   -0.0076   -0.0144
          26    0.0109   -0.0293    0.0044   -0.0003   -0.0005    0.0036    0.0067    0.0121
          27   -0.0068    0.0097   -0.0197   -0.0054    0.0012    0.0082   -0.0025   -0.0116
          28   -0.0018    0.0020   -0.0005    0.0062   -0.0183    0.0038   -0.0089    0.0040
          29   -0.0107   -0.0009    0.0002    0.0051   -0.0076   -0.0008   -0.0014    0.0038
          30   -0.0226    0.0058    0.0048    0.0014    0.0044   -0.0034    0.0045    0.0016
          31   -0.0005    0.0023    0.0022    0.0024   -0.0012   -0.0108   -0.0055   -0.0049
          32    0.0115   -0.0060   -0.0044   -0.0016   -0.0003    0.0050    0.0038    0.0038
          33    0.0091   -0.0107   -0.0053   -0.0035    0.0008    0.0141    0.0065    0.0019
          34    0.0074   -0.0276   -0.0251   -0.0162   -0.0293    0.0016    0.0237    0.0107
          35   -0.0410    0.0109   -0.0444   -0.0196    0.0065   -0.0199   -0.0283   -0.0129
          36   -0.0245    0.0119    0.0037   -0.0160    0.0025    0.0147   -0.0034    0.0046
          37    0.0460   -0.0293   -0.0267   -0.0388   -0.0363   -0.0327   -0.0002    0.0059
          38    0.0091    0.0344    0.0477    0.0041   -0.0069   -0.0264    0.0082    0.0314
          39    0.0400   -0.0097   -0.0107   -0.0041   -0.0102    0.0009    0.0054   -0.0048
          40   -0.0249   -0.0294    0.0403    0.0042    0.0025   -0.0284    0.0087    0.0408
          41   -0.0371   -0.0046   -0.0495   -0.0099    0.0002   -0.0538   -0.0234   -0.0114
          42   -0.0063    0.0024    0.0028    0.0035   -0.0023   -0.0210   -0.0231   -0.0356
          43   -0.0259   -0.0427    0.0699    0.0218   -0.0061   -0.0572    0.0023    0.0406
          44    0.0384    0.0226    0.0634    0.0236   -0.0107   -0.0435    0.0212    0.0333
          45   -0.0127    0.0179   -0.0314   -0.0113    0.0051    0.0400   -0.0045   -0.0251
          46   -0.0223    0.0066   -0.0275   -0.0143    0.0149    0.1062    0.0304   -0.0080
          47   -0.0142    0.0386    0.0141   -0.0139   -0.0002    0.0617   -0.0308   -0.0702
          48   -0.0157    0.0223   -0.0330   -0.0147    0.0071    0.0570   -0.0037   -0.0314
          49   -0.0209    0.0011   -0.0136   -0.0029   -0.0109   -0.0089    0.0109    0.0010
          50    0.0016    0.0040    0.0080   -0.0668   -0.0433   -0.0141    0.0321    0.0043
          51    0.0197   -0.0282   -0.0737    0.1234    0.0266   -0.0055    0.0124    0.0032
          52   -0.0503    0.0267    0.0291   -0.1004   -0.0390   -0.0136    0.0040   -0.0001
          53    0.0113   -0.0010   -0.0121    0.0720    0.0401    0.0252   -0.0176    0.0043
          54   -0.0324    0.0174    0.0055   -0.0422   -0.0145   -0.0060   -0.0048    0.0010
[...]
 T-DIPOLE    0.0258        C  1 --  C  2           +8.8% ( 50.8%)    50.3%
 TRAVEL      0.0670        C  2 --  C  8           +8.2% ( 49.1%)    94.4%
 RED. MASS   1.4880        C  1 --  C  3           +7.9% ( 48.1%)    55.0%
 EFF. MASS  10.1791

 VIBRATION   62   62A       ATOM PAIR        ENERGY CONTRIBUTION    RADIAL
 FREQ.      1863.16        C  9 --  C 11          +44.7% ( 99.0%)    98.8%
 T-DIPOLE    0.2699        C  3 --  C  9          +17.1% ( 61.2%)    58.4%
 TRAVEL      0.0553        C  9 --  H 26          +15.5% ( 58.2%)     3.6%
 RED. MASS   5.2952        C 11 --  H 29          +10.7% ( 48.4%)    10.2%
 EFF. MASS  11.8208        C 11 --  H 28          +10.5% ( 47.9%)    13.0%

 VIBRATION   63   63A       ATOM PAIR        ENERGY CONTRIBUTION    RADIAL
 FREQ.      1888.29        C  8 --  C 10          +43.5% ( 97.4%)    96.3%
 T-DIPOLE    0.2715        C  2 --  C  8          +14.3% ( 55.7%)    54.5%
 TRAVEL      0.0550        C  7 --  C 10          +14.2% ( 55.7%)    56.7%
 RED. MASS   5.3493        C 10 --  H 27          +13.2% ( 53.6%)     3.3%
 EFF. MASS  11.7936        C  8 --  H 25          +13.2% ( 53.6%)     3.5%

 VIBRATION   64   64A       ATOM PAIR        ENERGY CONTRIBUTION    RADIAL
 FREQ.      2927.55        C  3 --  H 14          +88.9% ( 96.4%)   100.0%
 T-DIPOLE    0.1016        C  1 --  H 12           +6.2% ( 25.5%)   100.0%
 TRAVEL      0.1263        C  1 --  C  3           +1.1% ( 10.6%)    16.3%
 RED. MASS   0.8049        C  3 --  C  4           +1.0% ( 10.0%)    14.0%
 EFF. MASS   1.4446

 VIBRATION   65   65A       ATOM PAIR        ENERGY CONTRIBUTION    RADIAL
 FREQ.      2932.60        C  2 --  H 13          +82.9% ( 93.2%)   100.0%
 T-DIPOLE    0.0617        C  1 --  H 12          +10.3% ( 32.9%)   100.0%
 TRAVEL      0.1259        C  3 --  H 14           +1.3% ( 11.8%)   100.0%
 RED. MASS   0.7099        C  1 --  C  2           +1.1% ( 10.8%)    15.8%
 EFF. MASS   1.4513

 VIBRATION   66   66A       ATOM PAIR        ENERGY CONTRIBUTION    RADIAL
 FREQ.      2942.39        C  1 --  H 12          +59.9% ( 79.4%)   100.0%
 T-DIPOLE    0.1389        C  2 --  H 13          +11.6% ( 34.9%)    99.9%
 TRAVEL      0.1251        C  5 --  H 18          +10.6% ( 33.3%)    96.7%
 RED. MASS   0.4048        C  5 --  H 17           +8.9% ( 30.6%)    95.8%
 EFF. MASS   1.4638

 VIBRATION   67   67A       ATOM PAIR        ENERGY CONTRIBUTION    RADIAL
 FREQ.      2952.27        C  5 --  H 18          +41.6% ( 66.7%)    96.9%
 T-DIPOLE    0.0621        C  5 --  H 17          +36.4% ( 62.3%)    96.1%
 TRAVEL      0.1227        C  1 --  H 12          +18.4% ( 44.3%)   100.0%
 RED. MASS   0.3622        C  1 --  C  5           +1.0% ( 10.5%)     2.9%
 EFF. MASS   1.5173

 VIBRATION   68   68A       ATOM PAIR        ENERGY CONTRIBUTION    RADIAL
 FREQ.      3029.97        C  4 --  H 15          +50.3% ( 73.2%)    98.2%
 T-DIPOLE    0.1647        C  4 --  H 16          +27.5% ( 54.1%)    94.6%
 TRAVEL      0.1219        C  5 --  H 17           +6.0% ( 25.3%)    98.1%
 RED. MASS   0.3601        C  5 --  H 18           +5.2% ( 23.6%)    97.3%
 EFF. MASS   1.4972

 VIBRATION   69   69A       ATOM PAIR        ENERGY CONTRIBUTION    RADIAL
 FREQ.      3030.21        C  5 --  H 17          +45.5% ( 66.9%)    98.2%
 T-DIPOLE    0.0450        C  5 --  H 18          +38.7% ( 61.8%)    97.2%
 TRAVEL      0.1304        C  4 --  H 15           +8.4% ( 28.7%)    98.2%
 RED. MASS   0.3733        C  4 --  H 16           +4.6% ( 21.2%)    94.6%
 EFF. MASS   1.3086

 VIBRATION   70   70A       ATOM PAIR        ENERGY CONTRIBUTION    RADIAL
 FREQ.      3031.25        C 10 --  H 27          +88.8% ( 95.8%)   100.0%
 T-DIPOLE    0.2332        C  4 --  H 15           +3.8% ( 19.9%)    98.1%
 TRAVEL      0.1215        C  4 --  H 16           +2.2% ( 15.0%)    94.8%
 RED. MASS   0.7843        C  8 --  C 10           +1.3% ( 11.5%)    38.8%
 EFF. MASS   1.5064

 VIBRATION   71   71A       ATOM PAIR        ENERGY CONTRIBUTION    RADIAL
 FREQ.      3035.47        C  9 --  H 26          +63.3% ( 80.7%)   100.0%
 T-DIPOLE    0.2782        C  8 --  H 25          +32.9% ( 58.2%)   100.0%
 TRAVEL      0.1211        C  9 --  C 11           +0.9% (  9.8%)    30.8%
 RED. MASS   0.5012        C  3 --  C  9           +0.9% (  9.6%)    13.6%
 EFF. MASS   1.5138

 VIBRATION   72   72A       ATOM PAIR        ENERGY CONTRIBUTION    RADIAL
 FREQ.      3035.53        C  8 --  H 25          +61.5% ( 79.6%)   100.0%
 T-DIPOLE    0.1766        C  9 --  H 26          +32.3% ( 57.7%)   100.0%
 TRAVEL      0.1208        C  4 --  H 15           +1.3% ( 11.4%)    97.0%
 RED. MASS   0.4779        C  4 --  H 16           +1.1% ( 10.4%)    96.2%
 EFF. MASS   1.5215

 VIBRATION   73   73A       ATOM PAIR        ENERGY CONTRIBUTION    RADIAL
 FREQ.      3069.64        C  7 --  H 23          +50.4% ( 73.2%)    97.2%
 T-DIPOLE    0.0203        C  7 --  H 22          +47.7% ( 71.2%)    96.8%
 TRAVEL      0.1210        C  7 --  C 10           +1.0% ( 10.2%)     0.0%
 RED. MASS   0.5094        C  7 --  H 24           +0.9% ( 10.0%)     0.8%
 EFF. MASS   1.5012

 VIBRATION   74   74A       ATOM PAIR        ENERGY CONTRIBUTION    RADIAL
 FREQ.      3069.91        C  6 --  H 19          +67.8% ( 84.9%)    98.9%
 T-DIPOLE    0.0289        C  6 --  H 20          +25.6% ( 52.2%)    91.4%
 TRAVEL      0.1210        C  6 --  H 21           +4.9% ( 22.7%)    55.1%
 RED. MASS   0.5535        C  5 --  C  6           +1.0% ( 10.2%)     0.0%
 EFF. MASS   1.4993

 VIBRATION   75   75A       ATOM PAIR        ENERGY CONTRIBUTION    RADIAL
 FREQ.      3075.42        C  7 --  H 24          +62.8% ( 81.7%)    98.9%
 T-DIPOLE    0.0511        C  7 --  H 22          +18.5% ( 44.3%)    86.1%
 TRAVEL      0.1206        C  7 --  H 23          +16.0% ( 41.3%)    83.7%
 RED. MASS   0.4818        C 10 --  H 27           +1.4% ( 12.4%)   100.0%
 EFF. MASS   1.5086

 VIBRATION   76   76A       ATOM PAIR        ENERGY CONTRIBUTION    RADIAL
 FREQ.      3084.57        C  6 --  H 21          +55.3% ( 76.7%)    98.1%
 T-DIPOLE    0.0021        C  6 --  H 20          +38.6% ( 64.1%)    95.0%
 TRAVEL      0.1206        C  6 --  H 19           +4.6% ( 22.1%)    50.7%
 RED. MASS   0.4857        C  5 --  C  6           +1.0% ( 10.3%)     0.0%
 EFF. MASS   1.5041

 VIBRATION   77   77A       ATOM PAIR        ENERGY CONTRIBUTION    RADIAL
 FREQ.      3098.75        C  4 --  H 16          +64.1% ( 79.5%)    98.7%
 T-DIPOLE    0.0829        C  4 --  H 15          +33.7% ( 57.6%)    94.2%
 TRAVEL      0.1299        C  1 --  C  4           +0.7% (  8.4%)    96.7%
 RED. MASS   0.5232        C  2 --  C  4           +0.7% (  8.3%)    47.4%
 EFF. MASS   1.2890

 VIBRATION   78   78A       ATOM PAIR        ENERGY CONTRIBUTION    RADIAL
 FREQ.      3135.69        C 11 --  H 29          +92.6% ( 97.9%)    99.9%
 T-DIPOLE    0.2020        C 11 --  H 28           +6.0% ( 24.8%)    68.5%
 TRAVEL      0.1184        C  9 --  C 11           +1.3% ( 11.7%)    23.7%
 RED. MASS   0.8649
 EFF. MASS   1.5341

 VIBRATION   79   79A       ATOM PAIR        ENERGY CONTRIBUTION    RADIAL
 FREQ.      3147.86        C 11 --  H 28          +92.7% ( 97.0%)    99.7%
 T-DIPOLE    0.2621        C 11 --  H 29           +5.0% ( 22.5%)    34.1%
 TRAVEL      0.1208        C  9 --  C 11           +1.6% ( 12.6%)    70.8%
 RED. MASS   0.8339        C  9 --  H 26           +0.7% (  8.3%)    94.3%
 EFF. MASS   1.4672

 VIBRATION   80   80A       ATOM PAIR        ENERGY CONTRIBUTION    RADIAL
 FREQ.      3169.30        C  7 --  H 24          +34.6% ( 56.6%)    97.2%
 T-DIPOLE    0.0666        C  7 --  H 22          +32.7% ( 55.0%)    97.1%
 TRAVEL      0.1367        C  7 --  H 23          +32.4% ( 54.8%)    97.0%
 RED. MASS   0.3272        C  7 --  C 10           +0.3% (  5.4%)   100.0%
 EFF. MASS   1.1394

 VIBRATION   81   81A       ATOM PAIR        ENERGY CONTRIBUTION    RADIAL
 FREQ.      3176.28        C  6 --  H 21          +39.5% ( 60.5%)    97.9%
 T-DIPOLE    0.0132        C  6 --  H 20          +35.0% ( 56.9%)    97.3%
 TRAVEL      0.1365        C  6 --  H 19          +25.3% ( 48.4%)    95.4%
 RED. MASS   0.3355        C  5 --  C  6           +0.3% (  5.2%)    97.4%
 EFF. MASS   1.1388

 SYMMETRY NUMBER FOR POINT-GROUP C1  =  1


          SYSTEM IS A GROUND STATE


    NULL



          MOLECULE IS NOT LINEAR

          THERE ARE 81 GENUINE VIBRATIONS IN THIS SYSTEM
          THIS THERMODYNAMICS CALCULATION IS LIMITED TO
          MOLECULES WHICH HAVE NO INTERNAL ROTATIONS




                    CALCULATED THERMODYNAMIC PROPERTIES
                                          *
   TEMP. (K)   PARTITION FUNCTION   H.O.F.    ENTHALPY  HEAT CAPACITY ENTROPY
                                   KCAL/MOL   CAL/MOLE    CAL/K/MOL  CAL/K/MOL


 298.00  VIB.     0.7880D+04                  6126.9316    41.2191    38.3895
         ROT.     0.1271D+07                   888.2813     2.9808    30.9112
         INT.     0.1001D+11                  7015.2129    44.1999    69.3008
         TRA.     0.1781D+28                  1480.4688     4.9680    40.9296
         TOT.                       11.559    8495.6818    49.1679   110.2304

 200.00  VIB.     0.2585D+03                  2798.1316    27.2300    25.0291
         ROT.     0.6987D+06                   596.1620     2.9808    29.7226
         INT.     0.1806D+09                  3394.2936    30.2108    54.7517
         TRA.     0.9791D+27                   993.6033     4.9680    38.9485
         TOT.                        7.451    4387.8968    35.1788    93.7001

 210.00  VIB.     0.3673D+03                  3076.7700    28.5038    26.3883
         ROT.     0.7517D+06                   625.9700     2.9808    29.8680
         INT.     0.2761D+09                  3702.7400    31.4846    56.2563
         TRA.     0.1053D+28                  1043.2834     4.9680    39.1909
         TOT.                        7.810    4746.0234    36.4526    95.4472

 220.00  VIB.     0.5216D+03                  3368.3336    29.8154    27.7444
         ROT.     0.8061D+06                   655.7781     2.9808    30.0067
         INT.     0.4205D+09                  4024.1117    32.7962    57.7511
         TRA.     0.1130D+28                  1092.9636     4.9680    39.4220
         TOT.                        8.181    5117.0753    37.7642    97.1731

 230.00  VIB.     0.7401D+03                  3673.2066    31.1657    29.0994
         ROT.     0.8616D+06                   685.5862     2.9808    30.1392
         INT.     0.6377D+09                  4358.7928    34.1465    59.2386
         TRA.     0.1207D+28                  1142.6437     4.9680    39.6428
         TOT.                        8.565    5501.4366    39.1145    98.8814

 240.00  VIB.     0.1049D+04                  3991.7748    32.5542    30.4550
         ROT.     0.9185D+06                   715.3943     2.9808    30.2660
         INT.     0.9637D+09                  4707.1692    35.5350    60.7211
         TRA.     0.1287D+28                  1192.3239     4.9680    39.8543
         TOT.                        8.963    5899.4931    40.5030   100.5753

 250.00  VIB.     0.1487D+04                  4324.4120    33.9791    31.8127
         ROT.     0.9764D+06                   745.2024     2.9808    30.3877
         INT.     0.1452D+10                  5069.6145    36.9599    62.2004
         TRA.     0.1368D+28                  1242.0041     4.9680    40.0571
         TOT.                        9.375    6311.6185    41.9279   102.2575

 260.00  VIB.     0.2105D+04                  4671.4688    35.4376    33.1737
         ROT.     0.1036D+07                   775.0105     2.9808    30.5046
         INT.     0.2180D+10                  5446.4794    38.4184    63.6783
         TRA.     0.1451D+28                  1291.6842     4.9680    40.2519
         TOT.                        9.802    6738.1636    43.3864   103.9303

 270.00  VIB.     0.2980D+04                  5033.2641    36.9262    34.5390
         ROT.     0.1096D+07                   804.8186     2.9808    30.6171
         INT.     0.3266D+10                  5838.0827    39.9070    65.1561
         TRA.     0.1536D+28                  1341.3644     4.9680    40.4394
         TOT.                       10.243    7179.4471    44.8750   105.5955

 280.00  VIB.     0.4218D+04                  5410.0790    38.4408    35.9092
         ROT.     0.1157D+07                   834.6267     2.9808    30.7255
         INT.     0.4882D+10                  6244.7057    41.4216    66.6347
         TRA.     0.1622D+28                  1391.0445     4.9680    40.6201
         TOT.                       10.699    7635.7503    46.3896   107.2548

 290.00  VIB.     0.5969D+04                  5802.1530    39.9772    37.2849
         ROT.     0.1220D+07                   864.4348     2.9808    30.8301
         INT.     0.7282D+10                  6666.5878    42.9581    68.1150
         TRA.     0.1710D+28                  1440.7247     4.9680    40.7944
         TOT.                       11.171    8107.3125    47.9261   108.9094

 300.00  VIB.     0.8447D+04                  6209.6816    41.5310    38.6663
         ROT.     0.1284D+07                   894.2429     2.9808    30.9312
         INT.     0.1084D+11                  7103.9245    44.5118    69.5975
         TRA.     0.1799D+28                  1490.4049     4.9680    40.9628
         TOT.                       11.658    8594.3294    49.4798   110.5603

 310.00  VIB.     0.1195D+05                  6632.8160    43.0976    40.0536
         ROT.     0.1348D+07                   924.0510     2.9808    31.0289
         INT.     0.1612D+11                  7556.8670    46.0785    71.0825
         TRA.     0.1889D+28                  1540.0850     4.9680    41.1257
         TOT.                       12.161    9096.9520    51.0465   112.2083

 320.00  VIB.     0.1692D+05                  7071.6631    44.6728    41.4468
         ROT.     0.1414D+07                   953.8591     2.9808    31.1236
         INT.     0.2392D+11                  8025.5222    47.6537    72.5703
         TRA.     0.1982D+28                  1589.7652     4.9680    41.2835
         TOT.                       12.679    9615.2874    52.6217   113.8538

 330.00  VIB.     0.2395D+05                  7526.2876    46.2525    42.8456
         ROT.     0.1481D+07                   983.6672     2.9808    31.2153
         INT.     0.3547D+11                  8509.9548    49.2333    74.0609
         TRA.     0.2075D+28                  1639.4454     4.9680    41.4364
         TOT.                       13.213   10149.4002    54.2013   115.4972

 340.00  VIB.     0.3392D+05                  7996.7139    47.8326    44.2498
         ROT.     0.1549D+07                  1013.4753     2.9808    31.3043
         INT.     0.5253D+11                  9010.1892    50.8134    75.5541
         TRA.     0.2170D+28                  1689.1255     4.9680    41.5847
         TOT.                       13.763   10699.3148    55.7814   117.1388

 350.00  VIB.     0.4805D+05                  8482.9290    49.4096    45.6591
         ROT.     0.1617D+07                  1043.2834     2.9808    31.3907
         INT.     0.7773D+11                  9526.2124    52.3904    77.0498
         TRA.     0.2267D+28                  1738.8057     4.9680    41.7287
         TOT.                       14.329   11265.0181    57.3585   118.7785

 360.00  VIB.     0.6810D+05                  8984.8851    50.9803    47.0731
         ROT.     0.1687D+07                  1073.0915     2.9808    31.4746
         INT.     0.1149D+12                 10057.9766    53.9611    78.5477
         TRA.     0.2364D+28                  1788.4859     4.9680    41.8686
         TOT.                       14.910   11846.4625    58.9291   120.4164

 370.00  VIB.     0.9655D+05                  9502.5035    52.5416    48.4912
         ROT.     0.1758D+07                  1102.8996     2.9808    31.5563
         INT.     0.1697D+12                 10605.4031    55.5224    80.0475
         TRA.     0.2464D+28                  1838.1660     4.9680    42.0047
         TOT.                       15.507   12443.5691    60.4904   122.0523

 380.00  VIB.     0.1369D+06                 10035.6773    54.0910    49.9130
         ROT.     0.1830D+07                  1132.7077     2.9808    31.6358
         INT.     0.2506D+12                 11168.3850    57.0718    81.5488
         TRA.     0.2564D+28                  1887.8462     4.9680    42.1372
         TOT.                       16.120   13056.2311    62.0398   123.6861

 390.00  VIB.     0.1943D+06                 10584.2748    55.6260    51.3379
         ROT.     0.1903D+07                  1162.5158     2.9808    31.7132
         INT.     0.3697D+12                 11746.7906    58.6068    83.0512
         TRA.     0.2666D+28                  1937.5263     4.9680    42.2663
         TOT.                       16.748   13684.3170    63.5748   125.3175

 400.00  VIB.     0.2759D+06                 11148.1431    57.1448    52.7654
         ROT.     0.1976D+07                  1192.3239     2.9808    31.7887
         INT.     0.5452D+12                 12340.4670    60.1256    84.5541
         TRA.     0.2769D+28                  1987.2065     4.9680    42.3921
         TOT.                       17.391   14327.6735    65.0936   126.9462

   *: NOTE: HEATS OF FORMATION ARE RELATIVE TO THE
            ELEMENTS IN THEIR STANDARD STATE AT 298K
              (=  Standard Enthalpy of Formation).

            Hvib:  Zero-point energy is not included.
                   frequencies of less than zero cm-1 are not included.
            Hrot = (3/2)RT
            Htra = (3/2)RT + pV = (5/2)RT

            Heat capacity is Cp, not Cv

           For more information, see: HTTP://OpenMOPAC.net/Manual/thermochemistry.html


           FORCE CONSTANT IN CARTESIAN COORDINATES (Millidynes/A)

    ATOM   CHEMICAL       X               Y               Z
   NUMBER   SYMBOL  FORCE CONSTANT  FORCE CONSTANT  FORCE CONSTANT

      1       C        7.695120        7.954528        8.709874
      2       C        7.520436        8.420814        9.198866
      3       C        8.261259        8.046972        8.886841
      4       C        7.844434        7.908578        8.637596
      5       C        8.313161        8.487022        8.298375
      6       C        8.209388        8.307151        8.349539
      7       C        8.148355        8.481524        8.830603
      8       C        4.675874       13.722535        8.976143
      9       C        7.634025       12.178659        7.504705
     10       C        4.507827       13.648627        9.021480
     11       C        7.336226       11.915180        7.236352
     12       H        1.341055        1.374162        3.547649
     13       H        1.352206        1.224763        3.647419
     14       H        1.178603        1.352273        3.579849
     15       H        1.324733        1.350579        3.926330
     16       H        1.617598        1.605870        3.408788
     17       H        4.615240        1.064119        0.694121
     18       H        1.564717        1.191857        3.640829
     19       H        4.905840        1.136824        0.684108
     20       H        1.799509        1.311873        3.672043
     21       H        1.468554        1.425191        3.899840
     22       H        4.809916        0.953621        0.901647
     23       H        1.969561        3.870429        0.824130
     24       H        0.674499        2.216701        3.877631
     25       H        0.429016        1.845766        3.937432
     26       H        3.543522        1.674896        0.978185
     27       H        0.444822        1.831893        3.933643
     28       H        1.882145        1.403627        3.198887
     29       H        3.701947        1.862164        0.899495



 TOTAL CPU TIME:             8.15 SECONDS

 == MOPAC DONE ==
