 *******************************************************************************
 ** Site#: 14399           For non-commercial use only        Version 13.159M **
 *******************************************************************************
 ** Cite this work as: MOPAC2012, James J. P. Stewart, Stewart Computational  **
 ** Chemistry, Version 13.159M web: HTTP://OpenMOPAC.net  Days remaining:   5 **
 *******************************************************************************
 **                                                                           **
 **                                MOPAC2012                                  **
 **                                                                           **
 *******************************************************************************

                            PM3 CALCULATION RESULTS


 *******************************************************************************
 *  CALCULATION DONE:                                Tue Jun  3 11:51:48 2014  *
 *  PM3      - The PM3 Hamiltonian to be used
 *  PRECISE  - CRITERIA TO BE INCREASED BY 100 TIMES
 *  NOSYM    - POINT-GROUP SYMMETRY SET TO C1
 *  T=       - A TIME OF 172800.0 SECONDS REQUESTED
 *  DUMP=N   - RESTART FILE WRITTEN EVERY  7200.000 SECONDS
 *******************************************************************************
pm3  precise nosym
 InChI=1S/C6H10/c1-2-4-6-5-3-1/h1-2H,3-6H2

   ATOM   CHEMICAL          X               Y               Z
  NUMBER   SYMBOL      (ANGSTROMS)     (ANGSTROMS)     (ANGSTROMS)
 
     1       C         -1.16260000  *  -0.65990000  *   0.09120000  *
     2       C          0.20130000  *  -1.23860000  *   0.46980000  *
     3       C         -1.18860000  *   0.86260000  *   0.27640000  *
     4       C          1.32360000  *  -0.59600000  *  -0.35510000  *
     5       C          0.05320000  *   1.55550000  *  -0.22270000  *
     6       C          1.18890000  *   0.89780000  *  -0.50230000  *
     7       H         -1.38070000  *  -0.90960000  *  -0.97390000  *
     8       H         -1.96310000  *  -1.12960000  *   0.70800000  *
     9       H          0.38520000  *  -1.05640000  *   1.55490000  *
    10       H          0.20510000  *  -2.34260000  *   0.31800000  *
    11       H         -1.31130000  *   1.11400000  *   1.35490000  *
    12       H         -2.07380000  *   1.27240000  *  -0.26190000  *
    13       H          1.34880000  *  -1.04000000  *  -1.37670000  *
    14       H          2.29970000  *  -0.82610000  *   0.13000000  *
    15       H          0.03070000  *   2.63880000  *  -0.33120000  *
    16       H          2.04340000  *   1.45780000  *  -0.87930000  *
 


          CARTESIAN COORDINATES 

    NO.       ATOM         X         Y         Z

     1         C       -1.1626   -0.6599    0.0912
     2         C        0.2013   -1.2386    0.4698
     3         C       -1.1886    0.8626    0.2764
     4         C        1.3236   -0.5960   -0.3551
     5         C        0.0532    1.5555   -0.2227
     6         C        1.1889    0.8978   -0.5023
     7         H       -1.3807   -0.9096   -0.9739
     8         H       -1.9631   -1.1296    0.7080
     9         H        0.3852   -1.0564    1.5549
    10         H        0.2051   -2.3426    0.3180
    11         H       -1.3113    1.1140    1.3549
    12         H       -2.0738    1.2724   -0.2619
    13         H        1.3488   -1.0400   -1.3767
    14         H        2.2997   -0.8261    0.1300
    15         H        0.0307    2.6388   -0.3312
    16         H        2.0434    1.4578   -0.8793

  H: (PM3): J. J. P. STEWART, J. COMP. CHEM. 10, 209 (1989).
  C: (PM3): J. J. P. STEWART, J. COMP. CHEM. 10, 209 (1989).

           Empirical Formula: C6 H10  =    16 atoms



      MOLECULAR POINT GROUP   :   C1  


      RHF CALCULATION, NO. OF DOUBLY OCCUPIED LEVELS =   17

      Geometry optimization using EF

          DIAGONAL MATRIX USED AS START HESSIAN

 CYCLE:     1 TIME:   0.004 TIME LEFT:  2.00D  GRAD.:    44.550 HEAT:-3.629584
 CYCLE:     2 TIME:   0.006 TIME LEFT:  2.00D  GRAD.:    52.843 HEAT:-4.040440
 CYCLE:     3 TIME:   0.003 TIME LEFT:  2.00D  GRAD.:    49.970 HEAT:-4.151164
 CYCLE:     4 TIME:   0.006 TIME LEFT:  2.00D  GRAD.:    22.881 HEAT:-4.620638
 CYCLE:     5 TIME:   0.003 TIME LEFT:  2.00D  GRAD.:    21.626 HEAT:-4.675956
 CYCLE:     6 TIME:   0.006 TIME LEFT:  2.00D  GRAD.:     8.676 HEAT:-4.822991
 CYCLE:     7 TIME:   0.006 TIME LEFT:  2.00D  GRAD.:     7.125 HEAT:-4.853606
 CYCLE:     8 TIME:   0.003 TIME LEFT:  2.00D  GRAD.:     6.394 HEAT:-4.875594
 CYCLE:     9 TIME:   0.003 TIME LEFT:  2.00D  GRAD.:     9.007 HEAT:-4.885571
 CYCLE:    10 TIME:   0.003 TIME LEFT:  2.00D  GRAD.:    11.844 HEAT:-4.885630
 CYCLE:    11 TIME:   0.003 TIME LEFT:  2.00D  GRAD.:    10.419 HEAT:-4.893718
 CYCLE:    12 TIME:   0.006 TIME LEFT:  2.00D  GRAD.:     3.870 HEAT:-4.923068
 CYCLE:    13 TIME:   0.006 TIME LEFT:  2.00D  GRAD.:     3.059 HEAT:-4.926955
 CYCLE:    14 TIME:   0.003 TIME LEFT:  2.00D  GRAD.:     2.779 HEAT:-4.929978
 CYCLE:    15 TIME:   0.003 TIME LEFT:  2.00D  GRAD.:     4.762 HEAT:-4.929376
 CYCLE:    16 TIME:   0.003 TIME LEFT:  2.00D  GRAD.:     1.772 HEAT:-4.935942
 CYCLE:    17 TIME:   0.003 TIME LEFT:  2.00D  GRAD.:     2.499 HEAT:-4.936900
 CYCLE:    18 TIME:   0.003 TIME LEFT:  2.00D  GRAD.:     1.760 HEAT:-4.939751
 CYCLE:    19 TIME:   0.003 TIME LEFT:  2.00D  GRAD.:     2.271 HEAT:-4.941162
 CYCLE:    20 TIME:   0.003 TIME LEFT:  2.00D  GRAD.:     2.897 HEAT:-4.941324
 CYCLE:    21 TIME:   0.003 TIME LEFT:  2.00D  GRAD.:     1.507 HEAT:-4.944418
 CYCLE:    22 TIME:   0.003 TIME LEFT:  2.00D  GRAD.:     1.300 HEAT:-4.945819
 CYCLE:    23 TIME:   0.003 TIME LEFT:  2.00D  GRAD.:     0.948 HEAT:-4.947695
 CYCLE:    24 TIME:   0.003 TIME LEFT:  2.00D  GRAD.:     1.242 HEAT:-4.950364
 CYCLE:    25 TIME:   0.003 TIME LEFT:  2.00D  GRAD.:     0.745 HEAT:-4.951499
 CYCLE:    26 TIME:   0.003 TIME LEFT:  2.00D  GRAD.:     0.486 HEAT:-4.952187
 CYCLE:    27 TIME:   0.003 TIME LEFT:  2.00D  GRAD.:     0.416 HEAT:-4.952753
 CYCLE:    28 TIME:   0.003 TIME LEFT:  2.00D  GRAD.:     0.329 HEAT:-4.953010
 CYCLE:    29 TIME:   0.003 TIME LEFT:  2.00D  GRAD.:     0.225 HEAT:-4.953222
 CYCLE:    30 TIME:   0.003 TIME LEFT:  2.00D  GRAD.:     0.194 HEAT:-4.953343
 CYCLE:    31 TIME:   0.003 TIME LEFT:  2.00D  GRAD.:     0.169 HEAT:-4.953410
 CYCLE:    32 TIME:   0.003 TIME LEFT:  2.00D  GRAD.:     0.156 HEAT:-4.953463
 CYCLE:    33 TIME:   0.003 TIME LEFT:  2.00D  GRAD.:     0.140 HEAT:-4.953521
 CYCLE:    34 TIME:   0.003 TIME LEFT:  2.00D  GRAD.:     0.127 HEAT:-4.953571
 CYCLE:    35 TIME:   0.003 TIME LEFT:  2.00D  GRAD.:     0.076 HEAT:-4.953590
 CYCLE:    36 TIME:   0.003 TIME LEFT:  2.00D  GRAD.:     0.051 HEAT:-4.953599
 CYCLE:    37 TIME:   0.003 TIME LEFT:  2.00D  GRAD.:     0.049 HEAT:-4.953604

     RMS GRADIENT =  0.04912  IS LESS THAN CUTOFF =  0.05000



 -------------------------------------------------------------------------------
pm3  precise nosym
 InChI=1S/C6H10/c1-2-4-6-5-3-1/h1-2H,3-6H2



     GEOMETRY OPTIMISED USING EIGENVECTOR FOLLOWING (EF).     
     SCF FIELD WAS ACHIEVED                                   


                              PM3 CALCULATION
                                                       MOPAC2012 (Version: 13.159M)
                                                       Tue Jun  3 11:51:48 2014
                                                       No. of days left =   5




          FINAL HEAT OF FORMATION =         -4.95360 KCAL/MOL =     -20.72588 KJ/MOL


          TOTAL ENERGY            =       -865.38409 EV
          ELECTRONIC ENERGY       =      -3882.58319 EV  POINT GROUP:     C1  
          CORE-CORE REPULSION     =       3017.19910 EV
          COSMO AREA              =        128.32 SQUARE ANGSTROMS
          COSMO VOLUME            =        120.16 CUBIC ANGSTROMS

          GRADIENT NORM           =          0.04912
          IONIZATION POTENTIAL    =          9.592712 EV
          HOMO LUMO ENERGIES (EV) =         -9.593  1.170
          NO. OF FILLED LEVELS    =         17
          MOLECULAR WEIGHT        =         82.145

          MOLECULAR DIMENSIONS (Angstroms)

            Atom       Atom       Distance
            H    15    H    10     4.98871
            H     8    H    14     4.30022
            H    13    H     9     2.75858


          SCF CALCULATIONS        =         44
          COMPUTATION TIME        =          0.142 SECONDS




   ATOM   CHEMICAL          X               Y               Z
  NUMBER   SYMBOL      (ANGSTROMS)     (ANGSTROMS)     (ANGSTROMS)
 
     1       C         -1.14740900  *  -0.64770019  *   0.07605540  *
     2       C          0.20455643  *  -1.21453105  *   0.47426725  *
     3       C         -1.18322653  *   0.85976123  *   0.27818884  *
     4       C          1.31773655  *  -0.59408908  *  -0.35666158  *
     5       C          0.04606308  *   1.53316718  *  -0.21804016  *
     6       C          1.17548815  *   0.87951510  *  -0.49489624  *
     7       H         -1.35855752  *  -0.89385631  *  -0.98332514  *
     8       H         -1.95348359  *  -1.12784606  *   0.66314382  *
     9       H          0.38523438  *  -1.02779444  *   1.55127807  *
    10       H          0.21065528  *  -2.31476851  *   0.35423676  *
    11       H         -1.29937778  *   1.10303021  *   1.35399635  *
    12       H         -2.07115362  *   1.28810276  *  -0.22660974  *
    13       H          1.33315866  *  -1.03591502  *  -1.37381708  *
    14       H          2.30212640  *  -0.83202173  *   0.09177145  *
    15       H         -0.01437483  *   2.62081738  *  -0.33607870  *
    16       H          2.05871808  *   1.41716768  *  -0.85736577  *

           Empirical Formula: C6 H10  =    16 atoms



      MOLECULAR POINT GROUP   :   C1  


                  EIGENVALUES  
 -40.24116 -30.59715 -30.20188 -22.31029 -21.56901 -17.71388 -17.43318 -15.12375
 -15.05082 -14.52637 -13.95379 -13.55583 -13.22934 -11.92368 -11.55576 -11.42588
  -9.59271   1.16973   3.46629   3.62331   3.65028   3.85863   3.88285   3.89080
   4.11800   4.27048   4.37664   4.55897   4.77664   4.92527   4.96847   5.12729
   5.77521   6.00923


              NET ATOMIC CHARGES AND DIPOLE CONTRIBUTIONS

  ATOM NO.   TYPE          CHARGE      No. of ELECS.   s-Pop       p-Pop       
    1          C          -0.095374        4.0954     1.15866     2.93671
    2          C          -0.095367        4.0954     1.15866     2.93671
    3          C          -0.057933        4.0579     1.14615     2.91178
    4          C          -0.057927        4.0579     1.14615     2.91178
    5          C          -0.148772        4.1488     1.19392     2.95485
    6          C          -0.148770        4.1488     1.19392     2.95485
    7          H           0.051018        0.9490     0.94898
    8          H           0.047839        0.9522     0.95216
    9          H           0.051019        0.9490     0.94898
   10          H           0.047848        0.9522     0.95215
   11          H           0.054571        0.9454     0.94543
   12          H           0.052475        0.9475     0.94752
   13          H           0.054571        0.9454     0.94543
   14          H           0.052487        0.9475     0.94751
   15          H           0.096158        0.9038     0.90384
   16          H           0.096156        0.9038     0.90384
 DIPOLE           X         Y         Z       TOTAL
 POINT-CHG.    -0.106    -0.210     0.062     0.243
 HYBRID         0.029     0.058    -0.017     0.068
 SUM           -0.077    -0.151     0.044     0.175


          ATOMIC ORBITAL ELECTRON POPULATIONS

    Atom      s        px        py        pz   
    1  C   1.15866   0.96774   0.95569   1.01328
    2  C   1.15866   0.95240   0.98886   0.99544
    3  C   1.14615   0.96005   0.95012   1.00161
    4  C   1.14615   0.97828   0.93899   0.99451
    5  C   1.19392   0.95761   0.98545   1.01179
    6  C   1.19392   0.97529   0.96485   1.01470
    7  H   0.94898
    8  H   0.95216
    9  H   0.94898
   10  H   0.95215
   11  H   0.94543
   12  H   0.94752
   13  H   0.94543
   14  H   0.94751
   15  H   0.90384
   16  H   0.90384
 *******************************************************************************
 ** Site#: 14399           For non-commercial use only        Version 13.159M **
 *******************************************************************************
 ** Cite this work as: MOPAC2012, James J. P. Stewart, Stewart Computational  **
 ** Chemistry, Version 13.159M web: HTTP://OpenMOPAC.net  Days remaining:   5 **
 *******************************************************************************
 **                                                                           **
 **                                MOPAC2012                                  **
 **                                                                           **
 *******************************************************************************

                            PM3 CALCULATION RESULTS


 *******************************************************************************
 *  CALCULATION DONE:                                Tue Jun  3 11:51:48 2014  *
 *  PM3      - The PM3 Hamiltonian to be used
 *  OLDGEO   - PREVIOUS GEOMETRY TO BE USED
 *  PRECISE  - CRITERIA TO BE INCREASED BY 100 TIMES
 *  NOSYM    - POINT-GROUP SYMMETRY SET TO C1
 *  T=       - A TIME OF 172800.0 SECONDS REQUESTED
 *  DUMP=N   - RESTART FILE WRITTEN EVERY  7200.000 SECONDS
 *  THERMO   - THERMODYNAMIC QUANTITIES TO BE CALCULATED
 *******************************************************************************
oldgeo thermo nosym precise  pm3

   ATOM   CHEMICAL          X               Y               Z
  NUMBER   SYMBOL      (ANGSTROMS)     (ANGSTROMS)     (ANGSTROMS)
 
     1       C         -1.14740900  *  -0.64770019  *   0.07605540  *
     2       C          0.20455643  *  -1.21453105  *   0.47426725  *
     3       C         -1.18322653  *   0.85976123  *   0.27818884  *
     4       C          1.31773655  *  -0.59408908  *  -0.35666158  *
     5       C          0.04606308  *   1.53316718  *  -0.21804016  *
     6       C          1.17548815  *   0.87951510  *  -0.49489624  *
     7       H         -1.35855752  *  -0.89385631  *  -0.98332514  *
     8       H         -1.95348359  *  -1.12784606  *   0.66314382  *
     9       H          0.38523438  *  -1.02779444  *   1.55127807  *
    10       H          0.21065528  *  -2.31476851  *   0.35423676  *
    11       H         -1.29937778  *   1.10303021  *   1.35399635  *
    12       H         -2.07115362  *   1.28810276  *  -0.22660974  *
    13       H          1.33315866  *  -1.03591502  *  -1.37381708  *
    14       H          2.30212640  *  -0.83202173  *   0.09177145  *
    15       H         -0.01437483  *   2.62081738  *  -0.33607870  *
    16       H          2.05871808  *   1.41716768  *  -0.85736577  *
 


          CARTESIAN COORDINATES 

    NO.       ATOM         X         Y         Z

     1         C       -1.1474   -0.6477    0.0761
     2         C        0.2046   -1.2145    0.4743
     3         C       -1.1832    0.8598    0.2782
     4         C        1.3177   -0.5941   -0.3567
     5         C        0.0461    1.5332   -0.2180
     6         C        1.1755    0.8795   -0.4949
     7         H       -1.3586   -0.8939   -0.9833
     8         H       -1.9535   -1.1278    0.6631
     9         H        0.3852   -1.0278    1.5513
    10         H        0.2107   -2.3148    0.3542
    11         H       -1.2994    1.1030    1.3540
    12         H       -2.0712    1.2881   -0.2266
    13         H        1.3332   -1.0359   -1.3738
    14         H        2.3021   -0.8320    0.0918
    15         H       -0.0144    2.6208   -0.3361
    16         H        2.0587    1.4172   -0.8574

  H: (PM3): J. J. P. STEWART, J. COMP. CHEM. 10, 209 (1989).
  C: (PM3): J. J. P. STEWART, J. COMP. CHEM. 10, 209 (1989).

           Empirical Formula: C6 H10  =    16 atoms



      MOLECULAR POINT GROUP   :   C1  


      RHF CALCULATION, NO. OF DOUBLY OCCUPIED LEVELS =   17



          HEAT OF FORMATION =      -4.953605 KCALS/MOLE


          INTERNAL COORDINATE DERIVATIVES

   NUMBER  ATOM       BOND         ANGLE      DIHEDRAL

     1       C      0.004067     0.005756    -0.002495
     2       C      0.009352    -0.004428     0.000182
     3       C      0.002825     0.000072    -0.001432
     4       C     -0.000005    -0.000105     0.001374
     5       C      0.007718     0.017246    -0.004476
     6       C      0.005365     0.008174    -0.005506
     7       H     -0.018825    -0.006785     0.008472
     8       H     -0.003991    -0.003828    -0.006888
     9       H     -0.010090    -0.011483     0.014305
    10       H      0.017285     0.005325     0.000278
    11       H     -0.003322     0.000034    -0.005799
    12       H      0.012091    -0.002608     0.004391
    13       H     -0.008390     0.002620    -0.001526
    14       H     -0.002856    -0.002217     0.000245
    15       H     -0.005859    -0.003915    -0.003981
    16       H     -0.005365    -0.003857     0.002856


          GRADIENT NORM =   0.04920


          TIME FOR SCF CALCULATION =    0.00

          TIME FOR DERIVATIVES     =    0.00

          MOLECULAR WEIGHT =   82.14



          ROTATIONAL CONSTANTS IN CM(-1)

          A =    0.15923612   B =    0.15373222   C =    0.08617654



           PRINCIPAL MOMENTS OF INERTIA IN UNITS OF 10**(-40)*GRAM-CM**2

          A =      175.7941   B =      182.0879   C =      324.8306


          ORIENTATION OF MOLECULE IN FORCE CALCULATION

    NO.       ATOM         X         Y         Z

     1          C      -0.7595   -1.0463    0.6002
     2          C       0.7596   -1.0463    0.6002
     3          C      -1.3009    0.3755    0.6002
     4          C       1.3009   -0.3285   -0.6271
     5          C      -0.5882    1.2593   -0.3599
     6          C       0.5882    0.9464   -0.9054
     7          H      -1.1333   -1.5949   -0.2868
     8          H      -1.1439   -1.5979    1.4794
     9          H       1.1330   -0.5576    1.5217
    10          H       1.1441   -2.0836    0.6325
    11          H      -1.2131    0.8227    1.6113
    12          H      -2.3833    0.3681    0.3655
    13          H       1.2129   -0.9755   -1.5236
    14          H       2.3833   -0.1297   -0.5023
    15          H      -1.0788    2.2105   -0.5950
    16          H       1.0787    1.6295   -1.6079


    FIRST DERIVATIVES WILL BE USED IN THE CALCULATION OF SECOND DERIVATIVES

          ESTIMATED TIME TO COMPLETE CALCULATION =        0.84 SECONDS

    FOR POINT-GROUP C1   THERE ARE   1 UNIQUE SYMMETRY FUNCTIONS.

 STEP:   1 TIME =     0.01 SECS, INTEGRAL =      0.01 TIME LEFT: 172799.98
 STEP:   2 TIME =     0.01 SECS, INTEGRAL =      0.03 TIME LEFT: 172799.97
 STEP:   3 TIME =     0.01 SECS, INTEGRAL =      0.04 TIME LEFT: 172799.95
 STEP:   4 TIME =     0.02 SECS, INTEGRAL =      0.06 TIME LEFT: 172799.94
 STEP:   5 TIME =     0.02 SECS, INTEGRAL =      0.07 TIME LEFT: 172799.92
 STEP:   6 TIME =     0.01 SECS, INTEGRAL =      0.09 TIME LEFT: 172799.91
 STEP:   7 TIME =     0.01 SECS, INTEGRAL =      0.10 TIME LEFT: 172799.89
 STEP:   8 TIME =     0.01 SECS, INTEGRAL =      0.12 TIME LEFT: 172799.88
 STEP:   9 TIME =     0.01 SECS, INTEGRAL =      0.13 TIME LEFT: 172799.86
 STEP:  10 TIME =     0.01 SECS, INTEGRAL =      0.15 TIME LEFT: 172799.85
 STEP:  11 TIME =     0.01 SECS, INTEGRAL =      0.16 TIME LEFT: 172799.84
 STEP:  12 TIME =     0.01 SECS, INTEGRAL =      0.17 TIME LEFT: 172799.82
 STEP:  13 TIME =     0.01 SECS, INTEGRAL =      0.19 TIME LEFT: 172799.81
 STEP:  14 TIME =     0.01 SECS, INTEGRAL =      0.20 TIME LEFT: 172799.79
 STEP:  15 TIME =     0.01 SECS, INTEGRAL =      0.22 TIME LEFT: 172799.78
 STEP:  16 TIME =     0.01 SECS, INTEGRAL =      0.23 TIME LEFT: 172799.77
 STEP:  17 TIME =     0.01 SECS, INTEGRAL =      0.24 TIME LEFT: 172799.75
 STEP:  18 TIME =     0.01 SECS, INTEGRAL =      0.26 TIME LEFT: 172799.74
 STEP:  19 TIME =     0.01 SECS, INTEGRAL =      0.27 TIME LEFT: 172799.72
 STEP:  20 TIME =     0.01 SECS, INTEGRAL =      0.29 TIME LEFT: 172799.71
 STEP:  21 TIME =     0.01 SECS, INTEGRAL =      0.30 TIME LEFT: 172799.70
 STEP:  22 TIME =     0.02 SECS, INTEGRAL =      0.32 TIME LEFT: 172799.68
 STEP:  23 TIME =     0.01 SECS, INTEGRAL =      0.33 TIME LEFT: 172799.66
 STEP:  24 TIME =     0.01 SECS, INTEGRAL =      0.35 TIME LEFT: 172799.65
 STEP:  25 TIME =     0.01 SECS, INTEGRAL =      0.36 TIME LEFT: 172799.64
 STEP:  26 TIME =     0.01 SECS, INTEGRAL =      0.38 TIME LEFT: 172799.62
 STEP:  27 TIME =     0.01 SECS, INTEGRAL =      0.39 TIME LEFT: 172799.61
 STEP:  28 TIME =     0.01 SECS, INTEGRAL =      0.40 TIME LEFT: 172799.59
 STEP:  29 TIME =     0.01 SECS, INTEGRAL =      0.42 TIME LEFT: 172799.58
 STEP:  30 TIME =     0.01 SECS, INTEGRAL =      0.43 TIME LEFT: 172799.56
 STEP:  31 TIME =     0.01 SECS, INTEGRAL =      0.45 TIME LEFT: 172799.55
 STEP:  32 TIME =     0.01 SECS, INTEGRAL =      0.46 TIME LEFT: 172799.54
 STEP:  33 TIME =     0.01 SECS, INTEGRAL =      0.47 TIME LEFT: 172799.52
 STEP:  34 TIME =     0.01 SECS, INTEGRAL =      0.49 TIME LEFT: 172799.51
 STEP:  35 TIME =     0.01 SECS, INTEGRAL =      0.50 TIME LEFT: 172799.49
 STEP:  36 TIME =     0.01 SECS, INTEGRAL =      0.52 TIME LEFT: 172799.48
 STEP:  37 TIME =     0.01 SECS, INTEGRAL =      0.53 TIME LEFT: 172799.46
 STEP:  38 TIME =     0.01 SECS, INTEGRAL =      0.54 TIME LEFT: 172799.45
 STEP:  39 TIME =     0.01 SECS, INTEGRAL =      0.56 TIME LEFT: 172799.44
 STEP:  40 TIME =     0.01 SECS, INTEGRAL =      0.57 TIME LEFT: 172799.42
 STEP:  41 TIME =     0.01 SECS, INTEGRAL =      0.59 TIME LEFT: 172799.41
 STEP:  42 TIME =     0.01 SECS, INTEGRAL =      0.60 TIME LEFT: 172799.39
 STEP:  43 TIME =     0.01 SECS, INTEGRAL =      0.62 TIME LEFT: 172799.38
 STEP:  44 TIME =     0.01 SECS, INTEGRAL =      0.63 TIME LEFT: 172799.37
 STEP:  45 TIME =     0.01 SECS, INTEGRAL =      0.65 TIME LEFT: 172799.35
 STEP:  46 TIME =     0.01 SECS, INTEGRAL =      0.66 TIME LEFT: 172799.34
 STEP:  47 TIME =     0.01 SECS, INTEGRAL =      0.67 TIME LEFT: 172799.32
 STEP:  48 TIME =     0.01 SECS, INTEGRAL =      0.69 TIME LEFT: 172799.31

(To convert to Hartree/Bohr^2, multiply by (10^(-21) x N x a0^2)/(4.184 x 627.51) = 0.0642)


           FORCE MATRIX IN MILLIDYNES/ANGSTROM


                  C  1       C  2       C  3       C  4       C  5       C  6
 ------------------------------------------------------------------------------
     C    1  14.423334
     C    2   4.217127  14.426876
     C    3   4.156034   0.676940  14.720733
     C    4   0.677281   4.156495   0.097368  14.721019
     C    5   0.688857   0.063160   4.983890   0.839822  18.186074
     C    6   0.062905   0.688855   0.839858   4.984384  10.679719  18.185559
     H    7   4.465003   0.444586   0.441710   0.021904   0.009233   0.006523
     H    8   4.497953   0.438089   0.433556   0.051709   0.050986   0.004745
     H    9   0.444728   4.465104   0.021979   0.441353   0.006684   0.009354
     H   10   0.438048   4.498945   0.051673   0.433252   0.004731   0.051187
     H   11   0.444926   0.012520   4.409002   0.013600   0.412624   0.030781
     H   12   0.431730   0.049413   4.465814   0.008964   0.431278   0.043181
     H   13   0.012535   0.444355   0.013872   4.408837   0.030863   0.412539
     H   14   0.049586   0.431749   0.009098   4.464856   0.043210   0.431707
     H   15   0.042986   0.003765   0.426025   0.120919   4.823642   0.445330
     H   16   0.004029   0.042893   0.119594   0.426038   0.445089   4.824352


                  H  7       H  8       H  9       H 10       H 11       H 12
 ------------------------------------------------------------------------------
     H    7   5.076299
     H    8   0.568138   5.115787
     H    9   0.046143   0.028876   5.076403
     H   10   0.028825   0.032051   0.567723   5.116344
     H   11   0.044134   0.034806   0.007806   0.001345   5.007287
     H   12   0.035868   0.023252   0.002129   0.008369   0.568278   5.064041
     H   13   0.007805   0.001342   0.043467   0.035108   0.001985   0.000975
     H   14   0.002178   0.008421   0.035943   0.023319   0.000999   0.000417
     H   15   0.001302   0.007135   0.000428   0.000861   0.019628   0.035404
     H   16   0.000533   0.000852   0.001296   0.007159   0.016397   0.013650


                  H 13       H 14       H 15       H 16
 ------------------------------------------------------
     H   13   5.006522
     H   14   0.568174   5.063012
     H   15   0.016939   0.014011   5.199945
     H   16   0.019715   0.035175   0.067841   5.200700


          HEAT OF FORMATION =      -4.953605 KCALS/MOLE

          ZERO POINT ENERGY      90.034 KCAL/MOL


           NORMAL COORDINATE ANALYSIS (Total motion = 1 Angstrom)


   Root No.       1         2         3         4         5         6         7         8

                 1 A       2 A       3 A       4 A       5 A       6 A       7 A       8 A   

                 144.5     258.0     372.6     488.2     505.6     686.9     765.4     819.7
  
           1   -0.0095    0.0002   -0.0001    0.0413   -0.0057    0.0058    0.0009    0.0075
           2    0.0034    0.0076    0.0065    0.0377    0.0435   -0.0038    0.0110   -0.0033
           3   -0.0186    0.0459    0.0018   -0.0212   -0.0071   -0.0085    0.0139    0.0167
           4   -0.0095   -0.0003   -0.0002    0.0414    0.0048    0.0058    0.0009   -0.0074
           5   -0.0179   -0.0356    0.0016   -0.0370    0.0289   -0.0053    0.0066   -0.0159
           6   -0.0065   -0.0298   -0.0066    0.0211   -0.0344   -0.0077    0.0165   -0.0055
           7    0.0215   -0.0104   -0.0193   -0.0134   -0.0561    0.0052   -0.0123    0.0208
           8    0.0145    0.0034   -0.0001    0.0213    0.0178    0.0035   -0.0072    0.0065
           9    0.0305   -0.0172   -0.0051   -0.0083    0.0331   -0.0208    0.0021    0.0179
          10    0.0214    0.0104    0.0195   -0.0125    0.0563    0.0054   -0.0122   -0.0209
          11    0.0190    0.0166    0.0045   -0.0182   -0.0191   -0.0197    0.0055   -0.0122
          12    0.0279    0.0057    0.0028    0.0137   -0.0324   -0.0075   -0.0051   -0.0148
          13   -0.0150   -0.0075    0.0279   -0.0274   -0.0113   -0.0224    0.0019   -0.0015
          14   -0.0094   -0.0016    0.0187    0.0265   -0.0498    0.0291   -0.0325    0.0058
          15   -0.0186   -0.0167    0.0491   -0.0054    0.0086   -0.0076   -0.0138   -0.0077
          16   -0.0148    0.0076   -0.0280   -0.0273    0.0120   -0.0222    0.0023    0.0016
          17   -0.0111    0.0136   -0.0330   -0.0187   -0.0321   -0.0212    0.0047    0.0096
          18   -0.0173    0.0099   -0.0413    0.0206    0.0382    0.0217   -0.0344   -0.0013
          19   -0.0142   -0.0546   -0.0010    0.0877   -0.0155   -0.0222    0.0515    0.0215
          20    0.0448   -0.0491   -0.0024    0.0847    0.0736   -0.0590    0.0575    0.0697
          21   -0.0420    0.1042    0.0076   -0.0728   -0.0221    0.0400   -0.0386   -0.0368
          22   -0.0248    0.0425    0.0085   -0.0126    0.0285    0.0305   -0.0385   -0.0279
          23   -0.0223    0.0690    0.0087   -0.0016    0.0013    0.0539   -0.0388   -0.0587
          24   -0.0415    0.1041    0.0072   -0.0713   -0.0194    0.0403   -0.0365   -0.0357
          25   -0.0141    0.0545    0.0007    0.0880    0.0135   -0.0221    0.0517   -0.0214
          26   -0.0590   -0.1145   -0.0079   -0.1047    0.0581    0.0641   -0.0626    0.0667
          27    0.0173   -0.0103   -0.0017    0.0353   -0.0529   -0.0307    0.0302   -0.0413
          28   -0.0248   -0.0422   -0.0086   -0.0128   -0.0282    0.0303   -0.0385    0.0278
          29   -0.0246   -0.0548   -0.0018   -0.0604    0.0188    0.0075   -0.0118    0.0012
          30   -0.0404   -0.1123   -0.0113   -0.0374    0.0091    0.0667   -0.0525    0.0687
          31    0.1062   -0.0471   -0.1280   -0.0640   -0.0693    0.0966    0.0278   -0.0971
          32    0.0082    0.0374   -0.0223    0.0248    0.0348    0.0007    0.0297    0.0329
          33    0.0259   -0.0290    0.0128   -0.0070    0.0264   -0.0252   -0.0165    0.0135
          34    0.0049   -0.0046    0.0025   -0.0077   -0.0557   -0.0114   -0.0207    0.0408
          35    0.0426   -0.0217   -0.0142   -0.0334    0.0088    0.0158   -0.0048   -0.0529
          36    0.1080   -0.0462   -0.1118   -0.0379    0.0288    0.0665    0.0418   -0.0828
          37    0.1056    0.0467    0.1299   -0.0621    0.0700    0.0963    0.0265    0.0976
          38    0.0186    0.0440   -0.0223   -0.0186   -0.0048   -0.0221   -0.0289    0.0044
          39    0.0200   -0.0177    0.0129    0.0171   -0.0435   -0.0122    0.0171   -0.0350
          40    0.0049    0.0046   -0.0026   -0.0069    0.0559   -0.0113   -0.0203   -0.0411
          41    0.0712    0.0287    0.0905   -0.0156   -0.0205    0.0492    0.0376    0.0454
          42    0.0911    0.0419    0.0702   -0.0478   -0.0215    0.0468    0.0161    0.0877
          43   -0.0370   -0.0159    0.0747   -0.0174    0.0008    0.0403    0.0910   -0.0455
          44   -0.0299   -0.0096    0.0587    0.0253   -0.0576    0.0800    0.0562   -0.0284
          45   -0.0543   -0.0328    0.1116   -0.0294   -0.0511    0.0685    0.1594   -0.0550
          46   -0.0364    0.0159   -0.0744   -0.0176   -0.0007    0.0404    0.0906    0.0464
          47   -0.0310    0.0234   -0.0659   -0.0380    0.0154    0.0182    0.1075    0.0338
          48   -0.0521    0.0247   -0.1062    0.0079    0.0746    0.1034    0.1273    0.0533


   Root No.       9        10        11        12        13        14        15        16

                 9 A      10 A      11 A      12 A      13 A      14 A      15 A      16 A   

                 935.0     937.5     947.0     969.1     971.5    1009.0    1057.1    1059.0
  
           1    0.0021    0.0191   -0.0211    0.0215   -0.0073    0.0097    0.0014    0.0106
           2    0.0065    0.0225   -0.0224    0.0216    0.0284   -0.0041    0.0025    0.0083
           3    0.0116   -0.0309    0.0368    0.0009   -0.0100    0.0045    0.0009    0.0122
           4   -0.0009   -0.0195   -0.0207   -0.0221   -0.0043   -0.0097    0.0003   -0.0107
           5    0.0132    0.0367    0.0423    0.0076   -0.0239   -0.0059   -0.0011   -0.0062
           6    0.0109   -0.0064   -0.0007   -0.0166    0.0220    0.0014    0.0012   -0.0135
           7   -0.0161    0.0272    0.0401    0.0135    0.0289   -0.0291   -0.0001   -0.0048
           8   -0.0141   -0.0115   -0.0107   -0.0145   -0.0116   -0.0089    0.0019   -0.0080
           9   -0.0225    0.0060   -0.0089   -0.0035   -0.0117    0.0163    0.0090   -0.0218
          10   -0.0204   -0.0230    0.0405   -0.0105    0.0304    0.0291    0.0004    0.0048
          11   -0.0138   -0.0082   -0.0021   -0.0050   -0.0036   -0.0186    0.0081    0.0139
          12   -0.0221    0.0118   -0.0139    0.0119   -0.0178   -0.0006    0.0077    0.0170
          13    0.0137    0.0046   -0.0188   -0.0127   -0.0089   -0.0057   -0.0053    0.0200
          14    0.0049   -0.0063    0.0329   -0.0150   -0.0176    0.0449   -0.0023    0.0073
          15    0.0188    0.0115   -0.0117   -0.0156    0.0161   -0.0084   -0.0109    0.0348
          16    0.0123   -0.0076   -0.0187    0.0120   -0.0107    0.0057   -0.0071   -0.0194
          17    0.0108   -0.0164   -0.0264    0.0088    0.0216    0.0299   -0.0107   -0.0253
          18    0.0130   -0.0030    0.0226    0.0204   -0.0100   -0.0345   -0.0097   -0.0229
          19    0.0957   -0.0242    0.0504    0.0150   -0.0109    0.0100    0.0798    0.0378
          20   -0.0137   -0.0451    0.0416    0.0480   -0.0064   -0.0100   -0.0575    0.0404
          21   -0.0167    0.0300   -0.0377   -0.0145    0.0132    0.0075    0.0054   -0.0204
          22   -0.0522    0.0940   -0.0961    0.0431   -0.1047    0.0769   -0.0437   -0.0204
          23    0.0032    0.0739   -0.0986    0.0003    0.1362   -0.0547    0.0359   -0.0045
          24   -0.0151    0.0367   -0.0449   -0.0034    0.0171    0.0051    0.0028   -0.0112
          25    0.0983    0.0044    0.0502   -0.0144   -0.0087   -0.0094    0.0750   -0.0472
          26   -0.0170   -0.0469   -0.0523    0.0380    0.0084   -0.0118    0.0370    0.0337
          27   -0.0148    0.0277    0.0162   -0.0341    0.0066    0.0049   -0.0486   -0.0186
          28   -0.0665   -0.0817   -0.0939   -0.0556   -0.0981   -0.0773   -0.0411    0.0250
          29   -0.0131    0.0092    0.0111   -0.0033   -0.0538   -0.0321   -0.0147    0.0090
          30   -0.0202   -0.0824   -0.1062    0.0154    0.1237    0.0444    0.0332    0.0061
          31    0.0905   -0.0251   -0.0007    0.0112    0.0114   -0.0262   -0.0217    0.0682
          32   -0.0320   -0.0613    0.0043    0.0478   -0.0091   -0.0747   -0.1458    0.1093
          33   -0.0217    0.0321   -0.0147   -0.0309   -0.0102    0.0463    0.0769   -0.0798
          34   -0.0340    0.0374    0.0534    0.0084    0.0341   -0.0471    0.0096   -0.0215
          35    0.0248   -0.0440   -0.0390   -0.1102   -0.0214   -0.0889    0.0863   -0.0797
          36    0.0686   -0.0410   -0.0672    0.0222   -0.0426    0.0977   -0.0360    0.0620
          37    0.0932    0.0051   -0.0008   -0.0080    0.0133    0.0268   -0.0278   -0.0652
          38   -0.0139   -0.0569   -0.0135    0.0497   -0.0126   -0.0779    0.1513    0.1071
          39   -0.0307    0.0441   -0.0047   -0.0276   -0.0084    0.0410   -0.0920   -0.0437
          40   -0.0399   -0.0290    0.0540   -0.0053    0.0346    0.0471    0.0116    0.0202
          41    0.0497    0.0026   -0.0385   -0.0762   -0.0145   -0.1293   -0.0833   -0.0839
          42    0.0637    0.0452   -0.0684    0.0801   -0.0515    0.0276    0.0601    0.0303
          43   -0.0428   -0.0548   -0.0154    0.0402   -0.1058   -0.0621    0.0400   -0.0390
          44   -0.0466   -0.0531    0.0395    0.0501   -0.0512    0.0168    0.0222   -0.0500
          45   -0.0700   -0.0483    0.0047    0.1399    0.0761   -0.0111   -0.0041   -0.0703
          46   -0.0316    0.0642   -0.0168   -0.0539   -0.0982    0.0620    0.0433    0.0349
          47   -0.0314    0.0216   -0.0166   -0.0859    0.1050    0.0183   -0.0114    0.0374
          48   -0.0591    0.0860    0.0345   -0.1166    0.0121   -0.0087    0.0242    0.0772


   Root No.      17        18        19        20        21        22        23        24

                17 A      18 A      19 A      20 A      21 A      22 A      23 A      24 A   

                1101.1    1104.1    1123.3    1140.2    1149.1    1177.6    1241.9    1312.5
  
           1   -0.0054    0.0061   -0.0168   -0.0035   -0.0250   -0.0087    0.0138   -0.0256
           2    0.0084   -0.0063    0.0167   -0.0223   -0.0189   -0.0004   -0.0067    0.0269
           3    0.0108    0.0039    0.0083   -0.0137   -0.0280   -0.0032    0.0009   -0.0054
           4    0.0055    0.0061    0.0168   -0.0038    0.0249    0.0088    0.0137   -0.0254
           5   -0.0050    0.0067    0.0013   -0.0008    0.0146    0.0026    0.0042   -0.0182
           6   -0.0125   -0.0033   -0.0186   -0.0269    0.0301    0.0019   -0.0052    0.0204
           7    0.0019   -0.0001    0.0010   -0.0003    0.0009    0.0057   -0.0006    0.0070
           8   -0.0150    0.0124   -0.0121    0.0181    0.0019   -0.0062   -0.0198   -0.0094
           9   -0.0177   -0.0130   -0.0032    0.0174    0.0106   -0.0029    0.0057    0.0021
          10   -0.0019   -0.0001   -0.0011   -0.0004   -0.0009   -0.0057   -0.0006    0.0069
          11    0.0075   -0.0175   -0.0034    0.0061   -0.0081   -0.0006    0.0150    0.0066
          12    0.0217    0.0039    0.0120    0.0248   -0.0067    0.0068   -0.0143   -0.0071
          13    0.0035   -0.0084   -0.0040   -0.0019   -0.0001    0.0021   -0.0148   -0.0108
          14   -0.0002   -0.0076    0.0033   -0.0055    0.0061    0.0007   -0.0075   -0.0082
          15    0.0033    0.0076   -0.0001    0.0048    0.0023   -0.0012    0.0142    0.0116
          16   -0.0036   -0.0084    0.0040   -0.0019    0.0001   -0.0022   -0.0148   -0.0108
          17   -0.0029    0.0103    0.0018    0.0068    0.0012    0.0014    0.0161    0.0141
          18   -0.0015   -0.0027   -0.0027   -0.0023   -0.0064   -0.0001    0.0008   -0.0011
          19   -0.0985    0.0012   -0.0258    0.1393   -0.1450   -0.0984   -0.0521    0.0724
          20    0.1115    0.0181    0.0464   -0.1426   -0.0115    0.0518    0.0430   -0.0189
          21   -0.0145   -0.0078   -0.0061   -0.0015    0.0175    0.0015   -0.0016   -0.0158
          22    0.0851    0.0656   -0.1435   -0.0536    0.0223   -0.0387   -0.0670    0.1186
          23   -0.0847   -0.0579    0.0846    0.0292    0.0011    0.0225    0.0510   -0.0268
          24   -0.0090   -0.0050   -0.0059   -0.0051    0.0058   -0.0019    0.0017    0.0212
          25    0.0981   -0.0001    0.0250    0.1379    0.1470    0.0987   -0.0522    0.0722
          26    0.0681   -0.0165    0.0286    0.0718   -0.0201    0.0252   -0.0233   -0.0042
          27   -0.0881    0.0128   -0.0367   -0.1247   -0.0005   -0.0458    0.0365   -0.0241
          28   -0.0845    0.0668    0.1438   -0.0536   -0.0230    0.0383   -0.0672    0.1186
          29   -0.0347    0.0254    0.0479   -0.0193   -0.0047    0.0128   -0.0243    0.0318
          30    0.0772   -0.0535   -0.0701    0.0235   -0.0034   -0.0181    0.0446   -0.0119
          31    0.0399    0.0303   -0.0035   -0.0243   -0.0316   -0.0056    0.0232    0.0719
          32   -0.0528    0.0309   -0.0715    0.1465    0.1259   -0.0477    0.0540    0.0009
          33   -0.0052   -0.0246    0.0253   -0.0377   -0.0423    0.0158   -0.0301   -0.0135
          34    0.0041    0.0135   -0.0062    0.0074   -0.0005   -0.0007    0.0115    0.0285
          35    0.0763    0.1769   -0.0335   -0.0002   -0.0524   -0.0872    0.0742   -0.0368
          36   -0.0292   -0.0760    0.0198   -0.0149    0.0084    0.0280   -0.0473   -0.0711
          37   -0.0393    0.0307    0.0035   -0.0252    0.0313    0.0056    0.0233    0.0720
          38   -0.0210   -0.0362   -0.0574   -0.1078    0.0991   -0.0383   -0.0531   -0.0122
          39    0.0470    0.0135    0.0485    0.1090   -0.0863    0.0336    0.0312   -0.0060
          40   -0.0040    0.0135    0.0061    0.0073    0.0006    0.0008    0.0115    0.0284
          41    0.0617   -0.1558   -0.0340   -0.0117   -0.0337   -0.0686   -0.0781   -0.0431
          42   -0.0494    0.1150    0.0190   -0.0088    0.0409    0.0614    0.0397   -0.0673
          43   -0.0364   -0.0819   -0.0955    0.0023   -0.0656    0.1393    0.1035    0.0589
          44   -0.0187   -0.0290   -0.0262   -0.0017   -0.0162    0.0443    0.0286    0.0128
          45    0.0126    0.0621    0.0714    0.0085    0.0455   -0.1062   -0.0826   -0.0445
          46    0.0356   -0.0820    0.0954    0.0030    0.0653   -0.1386    0.1039    0.0589
          47   -0.0196    0.0686   -0.0752    0.0077   -0.0474    0.1141   -0.0863   -0.0451
          48    0.0099    0.0067   -0.0138    0.0031   -0.0091    0.0159   -0.0173   -0.0115


   Root No.      25        26        27        28        29        30        31        32

                25 A      26 A      27 A      28 A      29 A      30 A      31 A      32 A   

                1343.0    1368.4    1383.5    1395.1    1410.0    1417.6    1437.6    1878.9
  
           1   -0.0353    0.0286    0.0137   -0.0327   -0.0003   -0.0319    0.0008    0.0045
           2    0.0178   -0.0214    0.0015    0.0187   -0.0237   -0.0220    0.0287    0.0005
           3    0.0055    0.0003    0.0014    0.0031    0.0010    0.0004   -0.0078   -0.0021
           4    0.0354   -0.0285    0.0139    0.0328   -0.0006    0.0319    0.0007   -0.0045
           5    0.0043   -0.0110    0.0005    0.0068    0.0128   -0.0113   -0.0212    0.0020
           6   -0.0182    0.0183    0.0019   -0.0178   -0.0200    0.0186    0.0208    0.0006
           7    0.0062    0.0124   -0.0135    0.0241   -0.0172    0.0014   -0.0185   -0.0235
           8    0.0225    0.0458    0.0217   -0.0242    0.0057    0.0173   -0.0531   -0.0147
           9   -0.0090   -0.0330    0.0030   -0.0094    0.0131   -0.0046    0.0362    0.0225
          10   -0.0062   -0.0126   -0.0135   -0.0243   -0.0171   -0.0016   -0.0185    0.0235
          11    0.0192    0.0516   -0.0085   -0.0040    0.0083    0.0129    0.0580   -0.0269
          12   -0.0149   -0.0227    0.0203    0.0256    0.0115   -0.0125   -0.0275    0.0013
          13    0.0034    0.0052   -0.0009    0.0025    0.0087    0.0017    0.0232    0.2127
          14   -0.0103   -0.0206   -0.0075    0.0013    0.0075   -0.0045    0.0353   -0.0243
          15    0.0033    0.0077    0.0044   -0.0012   -0.0100    0.0010   -0.0341   -0.1173
          16   -0.0034   -0.0051   -0.0009   -0.0024    0.0087   -0.0015    0.0231   -0.2127
          17   -0.0081   -0.0171    0.0077    0.0016   -0.0124   -0.0032   -0.0472    0.0890
          18    0.0072    0.0138   -0.0043   -0.0005    0.0014    0.0034    0.0132    0.0802
          19    0.0229   -0.0528   -0.0611    0.0590    0.0319    0.0887   -0.0212   -0.0026
          20   -0.0868    0.0149   -0.0575   -0.0266    0.0852    0.0941   -0.0552   -0.0003
          21    0.0394    0.0105    0.0604   -0.0066   -0.0690   -0.1053    0.0468    0.0012
          22    0.0171   -0.0075   -0.0626    0.0317    0.0146    0.0990   -0.0124   -0.0089
          23   -0.1091   -0.0196   -0.0619   -0.0251    0.0936    0.0887   -0.0221    0.0136
          24   -0.0448   -0.0128   -0.0623    0.0027    0.0705    0.1111   -0.0379    0.0007
          25   -0.0234    0.0526   -0.0613   -0.0590    0.0326   -0.0883   -0.0210    0.0027
          26   -0.0783   -0.0012    0.0810   -0.0083   -0.1036    0.1375    0.0682   -0.0012
          27    0.0554   -0.0183   -0.0190    0.0266    0.0389   -0.0278   -0.0241   -0.0004
          28   -0.0175    0.0072   -0.0628   -0.0318    0.0154   -0.0990   -0.0123    0.0089
          29   -0.0166    0.0011   -0.0226   -0.0150    0.0140   -0.0511   -0.0214    0.0063
          30    0.1169    0.0231   -0.0847    0.0210    0.1172   -0.1314   -0.0381   -0.0122
          31    0.0541   -0.0996    0.1128   -0.1449    0.0818    0.0167    0.0332   -0.0019
          32   -0.0484   -0.0575   -0.0334    0.0345   -0.0136   -0.0277    0.0613   -0.0100
          33    0.0134    0.0309    0.0068   -0.0076    0.0049    0.0121   -0.0223    0.0126
          34    0.0158   -0.0283    0.0161   -0.0167    0.0085    0.0041    0.0034   -0.0199
          35   -0.1047   -0.0130   -0.0709    0.0646   -0.0404   -0.0519    0.0561   -0.0236
          36   -0.0294    0.1210   -0.0895    0.1231   -0.0738   -0.0082   -0.0553    0.0228
          37   -0.0547    0.1004    0.1124    0.1452    0.0813   -0.0159    0.0329    0.0019
          38   -0.0361   -0.0553    0.0230    0.0241    0.0113   -0.0243   -0.0501   -0.0158
          39    0.0351    0.0336   -0.0256   -0.0260   -0.0094    0.0177    0.0416    0.0023
          40   -0.0159    0.0284    0.0159    0.0167    0.0084   -0.0040    0.0034    0.0198
          41   -0.0274   -0.1113   -0.0411   -0.0737   -0.0427   -0.0196   -0.0759   -0.0317
          42    0.1058   -0.0507   -0.1060   -0.1180   -0.0720    0.0483    0.0207    0.0088
          43   -0.0077   -0.0302    0.0025    0.0215   -0.0307   -0.0064   -0.0676    0.0184
          44   -0.0146   -0.0334   -0.0060    0.0061   -0.0041   -0.0072    0.0068   -0.1254
          45    0.0142    0.0388    0.0037   -0.0171    0.0222    0.0085    0.0351    0.0628
          46    0.0075    0.0299    0.0024   -0.0217   -0.0308    0.0060   -0.0675   -0.0185
          47   -0.0197   -0.0502    0.0064    0.0181    0.0214   -0.0108    0.0269   -0.1176
          48    0.0053    0.0091   -0.0034    0.0035    0.0076    0.0019    0.0237    0.0764


   Root No.      33        34        35        36        37        38        39        40

                33 A      34 A      35 A      36 A      37 A      38 A      39 A      40 A   

                2944.7    2945.1    2960.9    2968.3    3026.0    3026.4    3040.2    3045.7
  
           1   -0.0003    0.0004    0.0007   -0.0001    0.0010    0.0031    0.0097   -0.0100
           2   -0.0006    0.0005    0.0012   -0.0004    0.0013    0.0052    0.0135   -0.0148
           3   -0.0073    0.0079    0.0225   -0.0241   -0.0001    0.0008   -0.0009    0.0029
           4    0.0004    0.0002   -0.0007   -0.0001    0.0031    0.0004    0.0096    0.0101
           5    0.0076    0.0041   -0.0186   -0.0209   -0.0019   -0.0004   -0.0076   -0.0101
           6    0.0054    0.0027   -0.0123   -0.0127    0.0048    0.0000    0.0112    0.0115
           7    0.0112   -0.0170    0.0054   -0.0044   -0.0026   -0.0257    0.0028   -0.0026
           8    0.0052   -0.0079    0.0022   -0.0016    0.0009    0.0090   -0.0005    0.0004
           9    0.0138   -0.0208    0.0059   -0.0046    0.0015    0.0148   -0.0012    0.0008
          10   -0.0160   -0.0122   -0.0053   -0.0044   -0.0249    0.0029    0.0027    0.0027
          11   -0.0132   -0.0101   -0.0039   -0.0032    0.0080   -0.0009   -0.0008   -0.0006
          12   -0.0163   -0.0125   -0.0048   -0.0037    0.0148   -0.0017   -0.0010   -0.0008
          13   -0.0003    0.0002   -0.0001    0.0000    0.0005    0.0025   -0.0016    0.0012
          14    0.0001   -0.0003    0.0001   -0.0002   -0.0011   -0.0052    0.0031   -0.0019
          15    0.0000   -0.0001    0.0000    0.0000    0.0003    0.0013   -0.0008    0.0004
          16    0.0003    0.0001    0.0001    0.0000    0.0024    0.0000   -0.0016   -0.0006
          17    0.0000    0.0000    0.0001    0.0001    0.0037    0.0000   -0.0022   -0.0004
          18   -0.0001   -0.0002   -0.0001   -0.0001   -0.0037    0.0000    0.0022    0.0006
          19    0.0227   -0.0247   -0.0627    0.0664   -0.0051   -0.0223   -0.0540    0.0533
          20    0.0315   -0.0322   -0.0955    0.0948   -0.0070   -0.0315   -0.0793    0.0780
          21    0.0525   -0.0552   -0.1508    0.1492   -0.0127   -0.0582   -0.1478    0.1485
          22   -0.0159    0.0191    0.0553   -0.0634   -0.0041   -0.0194   -0.0590    0.0722
          23   -0.0224    0.0265    0.0790   -0.0915   -0.0066   -0.0235   -0.0872    0.1011
          24    0.0347   -0.0414   -0.1201    0.1392    0.0127    0.0483    0.1584   -0.1821
          25   -0.0289   -0.0153    0.0619    0.0673   -0.0219   -0.0005   -0.0536   -0.0540
          26   -0.0374   -0.0193    0.0812    0.0822   -0.0337   -0.0004   -0.0869   -0.0900
          27   -0.0677   -0.0334    0.1570    0.1597   -0.0557   -0.0009   -0.1421   -0.1443
          28    0.0208    0.0123   -0.0544   -0.0641   -0.0190   -0.0002   -0.0586   -0.0732
          29   -0.0537   -0.0315    0.1414    0.1683    0.0530    0.0035    0.1797    0.2114
          30    0.0023    0.0012   -0.0075   -0.0088    0.0041   -0.0002    0.0047    0.0047
          31   -0.0118    0.0177   -0.0038    0.0023   -0.0046   -0.0471    0.0049   -0.0036
          32   -0.0636    0.0957   -0.0276    0.0220   -0.0121   -0.1216    0.0112   -0.0087
          33   -0.1440    0.2167   -0.0581    0.0446   -0.0275   -0.2773    0.0250   -0.0188
          34   -0.1213    0.1861   -0.0636    0.0480    0.0346    0.3557   -0.0402    0.0344
          35    0.0005   -0.0009    0.0008   -0.0005    0.0012    0.0113    0.0006   -0.0006
          36   -0.0235    0.0360   -0.0124    0.0092    0.0097    0.0988   -0.0111    0.0094
          37    0.0168    0.0127    0.0037    0.0023   -0.0456    0.0055    0.0048    0.0039
          38    0.1306    0.0995    0.0352    0.0274   -0.1722    0.0202    0.0155    0.0128
          39    0.1810    0.1379    0.0518    0.0417   -0.2373    0.0277    0.0217    0.0183
          40    0.1732    0.1345    0.0623    0.0485    0.3441   -0.0411   -0.0393   -0.0368
          41    0.0294    0.0229    0.0109    0.0083    0.0770   -0.0092   -0.0097   -0.0089
          42    0.0162    0.0126    0.0054    0.0043    0.0577   -0.0068   -0.0049   -0.0046
          43    0.0016   -0.0026    0.0003   -0.0005   -0.0051   -0.0311    0.0190   -0.0122
          44   -0.0021    0.0028    0.0001    0.0001    0.0106    0.0571   -0.0375    0.0236
          45    0.0005   -0.0014   -0.0001   -0.0001   -0.0028   -0.0127    0.0095   -0.0058
          46   -0.0022   -0.0019   -0.0003   -0.0004   -0.0302    0.0014    0.0188    0.0053
          47   -0.0022   -0.0020    0.0001   -0.0001   -0.0389    0.0005    0.0268    0.0070
          48    0.0020    0.0011    0.0000    0.0000    0.0418   -0.0012   -0.0273   -0.0074


   Root No.      41        42

                41 A      42 A   

                3046.3    3066.3
  
           1    0.0020    0.0008
           2    0.0029    0.0012
           3   -0.0005   -0.0006
           4    0.0013   -0.0007
           5   -0.0012    0.0011
           6    0.0015   -0.0007
           7    0.0035    0.0033
           8   -0.0011   -0.0009
           9   -0.0015   -0.0014
          10    0.0032   -0.0033
          11   -0.0007    0.0008
          12   -0.0016    0.0015
          13    0.0120    0.0182
          14   -0.0234   -0.0278
          15    0.0059    0.0045
          16    0.0120   -0.0183
          17    0.0168   -0.0181
          18   -0.0172    0.0218
          19   -0.0103   -0.0026
          20   -0.0153   -0.0038
          21   -0.0288   -0.0076
          22   -0.0127   -0.0052
          23   -0.0187   -0.0073
          24    0.0336    0.0130
          25   -0.0067    0.0025
          26   -0.0111    0.0046
          27   -0.0181    0.0070
          28   -0.0078    0.0052
          29    0.0244   -0.0150
          30    0.0005   -0.0002
          31    0.0057    0.0047
          32    0.0130    0.0105
          33    0.0323    0.0263
          34   -0.0495   -0.0410
          35   -0.0027   -0.0027
          36   -0.0121   -0.0095
          37    0.0054   -0.0047
          38    0.0201   -0.0174
          39    0.0258   -0.0222
          40   -0.0462    0.0409
          41   -0.0083    0.0069
          42   -0.0079    0.0071
          43   -0.1412   -0.1631
          44    0.2804    0.3163
          45   -0.0715   -0.0783
          46   -0.1409    0.1642
          47   -0.2027    0.2290
          48    0.2055   -0.2352


           MASS-WEIGHTED COORDINATE ANALYSIS (NORMAL COORDINATES)


   Root No.       1         2         3         4         5         6         7         8

                 1 A       2 A       3 A       4 A       5 A       6 A       7 A       8 A   

                 144.5     258.0     372.6     488.2     505.6     686.9     765.4     819.7
  
           1   -0.0883    0.0020   -0.0004    0.3147   -0.0379    0.0565    0.0077    0.0776
           2    0.0314    0.0671    0.0503    0.2868    0.2896   -0.0376    0.0995   -0.0339
           3   -0.1725    0.4041    0.0143   -0.1618   -0.0476   -0.0833    0.1258    0.1735
           4   -0.0884   -0.0024   -0.0014    0.3152    0.0321    0.0568    0.0082   -0.0772
           5   -0.1655   -0.3138    0.0127   -0.2816    0.1929   -0.0523    0.0593   -0.1657
           6   -0.0603   -0.2621   -0.0513    0.1610   -0.2290   -0.0756    0.1487   -0.0574
           7    0.1994   -0.0918   -0.1491   -0.1022   -0.3737    0.0513   -0.1111    0.2161
           8    0.1339    0.0302   -0.0008    0.1620    0.1189    0.0347   -0.0646    0.0674
           9    0.2820   -0.1514   -0.0393   -0.0633    0.2208   -0.2034    0.0186    0.1867
          10    0.1984    0.0914    0.1509   -0.0949    0.3753    0.0524   -0.1100   -0.2178
          11    0.1757    0.1459    0.0349   -0.1385   -0.1274   -0.1932    0.0494   -0.1272
          12    0.2579    0.0499    0.0217    0.1041   -0.2159   -0.0738   -0.0457   -0.1541
          13   -0.1387   -0.0663    0.2157   -0.2085   -0.0752   -0.2193    0.0173   -0.0158
          14   -0.0871   -0.0145    0.1447    0.2021   -0.3318    0.2845   -0.2934    0.0601
          15   -0.1723   -0.1473    0.3798   -0.0415    0.0571   -0.0745   -0.1245   -0.0797
          16   -0.1371    0.0672   -0.2165   -0.2080    0.0798   -0.2173    0.0203    0.0163
          17   -0.1028    0.1202   -0.2555   -0.1427   -0.2136   -0.2071    0.0424    0.0997
          18   -0.1598    0.0872   -0.3194    0.1568    0.2547    0.2118   -0.3107   -0.0135
          19   -0.0381   -0.1393   -0.0023    0.1935   -0.0299   -0.0628    0.1346    0.0647
          20    0.1202   -0.1252   -0.0054    0.1867    0.1420   -0.1670    0.1503    0.2101
          21   -0.1128    0.2657    0.0170   -0.1607   -0.0426    0.1133   -0.1009   -0.1109
          22   -0.0665    0.1083    0.0190   -0.0277    0.0549    0.0864   -0.1006   -0.0842
          23   -0.0599    0.1760    0.0195   -0.0035    0.0026    0.1526   -0.1014   -0.1771
          24   -0.1114    0.2656    0.0161   -0.1572   -0.0375    0.1141   -0.0954   -0.1078
          25   -0.0377    0.1391    0.0015    0.1942    0.0261   -0.0626    0.1353   -0.0646
          26   -0.1582   -0.2920   -0.0177   -0.2311    0.1121    0.1817   -0.1636    0.2009
          27    0.0465   -0.0263   -0.0039    0.0779   -0.1021   -0.0870    0.0789   -0.1245
          28   -0.0664   -0.1077   -0.0194   -0.0283   -0.0544    0.0858   -0.1007    0.0837
          29   -0.0661   -0.1397   -0.0041   -0.1332    0.0362    0.0213   -0.0309    0.0036
          30   -0.1083   -0.2864   -0.0252   -0.0826    0.0176    0.1889   -0.1373    0.2070
          31    0.2849   -0.1201   -0.2869   -0.1412   -0.1338    0.2738    0.0727   -0.2928
          32    0.0220    0.0954   -0.0500    0.0546    0.0672    0.0021    0.0776    0.0991
          33    0.0696   -0.0740    0.0286   -0.0153    0.0509   -0.0715   -0.0433    0.0408
          34    0.0132   -0.0116    0.0057   -0.0169   -0.1075   -0.0324   -0.0540    0.1229
          35    0.1143   -0.0555   -0.0319   -0.0737    0.0169    0.0446   -0.0126   -0.1594
          36    0.2897   -0.1179   -0.2506   -0.0835    0.0556    0.1885    0.1094   -0.2496
          37    0.2832    0.1192    0.2911   -0.1370    0.1351    0.2728    0.0692    0.2942
          38    0.0499    0.1123   -0.0500   -0.0409   -0.0093   -0.0626   -0.0754    0.0133
          39    0.0535   -0.0452    0.0290    0.0378   -0.0840   -0.0346    0.0446   -0.1056
          40    0.0132    0.0117   -0.0059   -0.0151    0.1080   -0.0320   -0.0531   -0.1239
          41    0.1910    0.0731    0.2029   -0.0345   -0.0396    0.1393    0.0983    0.1370
          42    0.2443    0.1070    0.1572   -0.1054   -0.0416    0.1327    0.0422    0.2644
          43   -0.0993   -0.0405    0.1674   -0.0383    0.0016    0.1142    0.2379   -0.1372
          44   -0.0801   -0.0246    0.1316    0.0557   -0.1112    0.2267    0.1471   -0.0856
          45   -0.1457   -0.0838    0.2501   -0.0648   -0.0987    0.1942    0.4168   -0.1658
          46   -0.0977    0.0406   -0.1667   -0.0389   -0.0014    0.1146    0.2369    0.1399
          47   -0.0833    0.0596   -0.1477   -0.0838    0.0297    0.0517    0.2810    0.1020
          48   -0.1397    0.0631   -0.2380    0.0175    0.1440    0.2931    0.3329    0.1607


   Root No.       9        10        11        12        13        14        15        16

                 9 A      10 A      11 A      12 A      13 A      14 A      15 A      16 A   

                 935.0     937.5     947.0     969.1     971.5    1009.0    1057.1    1059.0
  
           1    0.0212    0.1744   -0.1592    0.2026   -0.0605    0.0823    0.0136    0.0960
           2    0.0655    0.2053   -0.1690    0.2035    0.2344   -0.0347    0.0250    0.0756
           3    0.1161   -0.2820    0.2779    0.0087   -0.0826    0.0380    0.0086    0.1107
           4   -0.0090   -0.1778   -0.1563   -0.2086   -0.0357   -0.0823    0.0028   -0.0969
           5    0.1328    0.3351    0.3195    0.0716   -0.1971   -0.0498   -0.0115   -0.0564
           6    0.1094   -0.0581   -0.0049   -0.1567    0.1812    0.0115    0.0126   -0.1222
           7   -0.1618    0.2483    0.3027    0.1272    0.2385   -0.2475   -0.0006   -0.0433
           8   -0.1411   -0.1052   -0.0808   -0.1366   -0.0958   -0.0758    0.0193   -0.0726
           9   -0.2254    0.0548   -0.0674   -0.0331   -0.0963    0.1384    0.0910   -0.1983
          10   -0.2044   -0.2099    0.3058   -0.0995    0.2505    0.2473    0.0041    0.0436
          11   -0.1389   -0.0744   -0.0159   -0.0476   -0.0300   -0.1582    0.0817    0.1264
          12   -0.2213    0.1076   -0.1051    0.1123   -0.1469   -0.0053    0.0777    0.1540
          13    0.1374    0.0419   -0.1421   -0.1197   -0.0737   -0.0487   -0.0538    0.1820
          14    0.0488   -0.0579    0.2486   -0.1410   -0.1455    0.3810   -0.0237    0.0661
          15    0.1885    0.1052   -0.0884   -0.1474    0.1328   -0.0714   -0.1105    0.3162
          16    0.1234   -0.0695   -0.1410    0.1132   -0.0885    0.0483   -0.0721   -0.1760
          17    0.1087   -0.1498   -0.1996    0.0831    0.1782    0.2541   -0.1077   -0.2296
          18    0.1304   -0.0270    0.1708    0.1921   -0.0825   -0.2928   -0.0980   -0.2084
          19    0.2782   -0.0640    0.1103    0.0409   -0.0260    0.0245    0.2336    0.0993
          20   -0.0399   -0.1191    0.0911    0.1312   -0.0153   -0.0246   -0.1683    0.1061
          21   -0.0486    0.0792   -0.0826   -0.0397    0.0317    0.0185    0.0159   -0.0536
          22   -0.1518    0.2484   -0.2102    0.1178   -0.2504    0.1892   -0.1278   -0.0536
          23    0.0092    0.1952   -0.2158    0.0007    0.3256   -0.1345    0.1050   -0.0117
          24   -0.0439    0.0971   -0.0983   -0.0092    0.0409    0.0125    0.0082   -0.0294
          25    0.2858    0.0116    0.1097   -0.0393   -0.0207   -0.0232    0.2193   -0.1241
          26   -0.0494   -0.1239   -0.1145    0.1037    0.0201   -0.0290    0.1083    0.0887
          27   -0.0429    0.0732    0.0354   -0.0931    0.0157    0.0120   -0.1421   -0.0490
          28   -0.1933   -0.2159   -0.2054   -0.1517   -0.2346   -0.1901   -0.1201    0.0658
          29   -0.0381    0.0244    0.0242   -0.0090   -0.1286   -0.0789   -0.0431    0.0238
          30   -0.0586   -0.2177   -0.2324    0.0421    0.2957    0.1093    0.0970    0.0161
          31    0.2631   -0.0662   -0.0016    0.0307    0.0272   -0.0645   -0.0635    0.1794
          32   -0.0930   -0.1620    0.0093    0.1305   -0.0217   -0.1838   -0.4266    0.2875
          33   -0.0630    0.0849   -0.0321   -0.0845   -0.0243    0.1139    0.2251   -0.2100
          34   -0.0990    0.0989    0.1169    0.0229    0.0815   -0.1159    0.0282   -0.0564
          35    0.0721   -0.1163   -0.0853   -0.3009   -0.0512   -0.2187    0.2524   -0.2097
          36    0.1994   -0.1085   -0.1471    0.0607   -0.1019    0.2404   -0.1053    0.1630
          37    0.2708    0.0134   -0.0016   -0.0220    0.0318    0.0660   -0.0813   -0.1714
          38   -0.0403   -0.1504   -0.0296    0.1358   -0.0302   -0.1918    0.4427    0.2818
          39   -0.0893    0.1166   -0.0103   -0.0753   -0.0201    0.1010   -0.2691   -0.1149
          40   -0.1160   -0.0768    0.1181   -0.0145    0.0828    0.1159    0.0339    0.0532
          41    0.1445    0.0068   -0.0842   -0.2080   -0.0347   -0.3180   -0.2438   -0.2207
          42    0.1850    0.1195   -0.1497    0.2187   -0.1230    0.0678    0.1757    0.0797
          43   -0.1245   -0.1449   -0.0337    0.1099   -0.2530   -0.1528    0.1171   -0.1027
          44   -0.1355   -0.1403    0.0864    0.1368   -0.1223    0.0413    0.0649   -0.1316
          45   -0.2035   -0.1277    0.0102    0.3820    0.1819   -0.0272   -0.0120   -0.1849
          46   -0.0920    0.1698   -0.0367   -0.1472   -0.2347    0.1526    0.1268    0.0919
          47   -0.0914    0.0570   -0.0363   -0.2347    0.2511    0.0450   -0.0333    0.0984
          48   -0.1717    0.2273    0.0756   -0.3185    0.0290   -0.0213    0.0708    0.2031


   Root No.      17        18        19        20        21        22        23        24

                17 A      18 A      19 A      20 A      21 A      22 A      23 A      24 A   

                1101.1    1104.1    1123.3    1140.2    1149.1    1177.6    1241.9    1312.5
  
           1   -0.0541    0.0579   -0.1637   -0.0295   -0.2259   -0.0870    0.1425   -0.2525
           2    0.0845   -0.0598    0.1627   -0.1872   -0.1709   -0.0041   -0.0692    0.2649
           3    0.1093    0.0372    0.0808   -0.1149   -0.2528   -0.0323    0.0095   -0.0529
           4    0.0551    0.0573    0.1641   -0.0316    0.2253    0.0875    0.1413   -0.2505
           5   -0.0508    0.0630    0.0125   -0.0071    0.1316    0.0260    0.0431   -0.1793
           6   -0.1262   -0.0314   -0.1814   -0.2258    0.2725    0.0189   -0.0542    0.2008
           7    0.0190   -0.0011    0.0102   -0.0029    0.0085    0.0564   -0.0059    0.0689
           8   -0.1513    0.1175   -0.1180    0.1523    0.0168   -0.0617   -0.2048   -0.0924
           9   -0.1790   -0.1227   -0.0308    0.1461    0.0956   -0.0288    0.0590    0.0206
          10   -0.0190   -0.0013   -0.0107   -0.0030   -0.0085   -0.0565   -0.0058    0.0679
          11    0.0758   -0.1656   -0.0329    0.0510   -0.0736   -0.0057    0.1545    0.0653
          12    0.2193    0.0372    0.1172    0.2084   -0.0606    0.0682   -0.1474   -0.0698
          13    0.0356   -0.0791   -0.0387   -0.0158   -0.0005    0.0212   -0.1527   -0.1063
          14   -0.0020   -0.0715    0.0324   -0.0465    0.0551    0.0068   -0.0771   -0.0806
          15    0.0334    0.0714   -0.0013    0.0400    0.0211   -0.0121    0.1471    0.1145
          16   -0.0368   -0.0793    0.0392   -0.0162    0.0005   -0.0222   -0.1526   -0.1064
          17   -0.0292    0.0971    0.0173    0.0572    0.0105    0.0144    0.1659    0.1390
          18   -0.0155   -0.0259   -0.0267   -0.0197   -0.0580   -0.0007    0.0078   -0.0112
          19   -0.2882    0.0032   -0.0729    0.3389   -0.3798   -0.2839   -0.1558    0.2065
          20    0.3263    0.0496    0.1313   -0.3468   -0.0302    0.1496    0.1287   -0.0540
          21   -0.0423   -0.0212   -0.0171   -0.0035    0.0460    0.0043   -0.0048   -0.0450
          22    0.2492    0.1795   -0.4058   -0.1303    0.0583   -0.1117   -0.2005    0.3383
          23   -0.2479   -0.1584    0.2393    0.0709    0.0030    0.0651    0.1525   -0.0764
          24   -0.0264   -0.0138   -0.0168   -0.0125    0.0151   -0.0054    0.0051    0.0605
          25    0.2872   -0.0004    0.0707    0.3353    0.3849    0.2848   -0.1562    0.2059
          26    0.1993   -0.0453    0.0809    0.1746   -0.0526    0.0727   -0.0698   -0.0119
          27   -0.2577    0.0349   -0.1037   -0.3032   -0.0012   -0.1322    0.1091   -0.0689
          28   -0.2473    0.1829    0.4067   -0.1305   -0.0603    0.1105   -0.2011    0.3385
          29   -0.1015    0.0695    0.1355   -0.0469   -0.0123    0.0371   -0.0727    0.0907
          30    0.2261   -0.1465   -0.1981    0.0571   -0.0088   -0.0522    0.1336   -0.0341
          31    0.1168    0.0828   -0.0099   -0.0592   -0.0826   -0.0160    0.0693    0.2052
          32   -0.1545    0.0845   -0.2021    0.3563    0.3298   -0.1376    0.1614    0.0025
          33   -0.0153   -0.0672    0.0715   -0.0916   -0.1107    0.0456   -0.0900   -0.0384
          34    0.0121    0.0369   -0.0175    0.0180   -0.0013   -0.0021    0.0344    0.0812
          35    0.2232    0.4841   -0.0948   -0.0005   -0.1371   -0.2517    0.2218   -0.1050
          36   -0.0855   -0.2081    0.0561   -0.0362    0.0220    0.0808   -0.1414   -0.2028
          37   -0.1151    0.0840    0.0099   -0.0613    0.0819    0.0161    0.0696    0.2054
          38   -0.0615   -0.0990   -0.1623   -0.2623    0.2595   -0.1104   -0.1589   -0.0347
          39    0.1377    0.0369    0.1372    0.2650   -0.2259    0.0971    0.0934   -0.0170
          40   -0.0117    0.0370    0.0173    0.0179    0.0015    0.0023    0.0345    0.0811
          41    0.1807   -0.4265   -0.0962   -0.0283   -0.0883   -0.1978   -0.2335   -0.1229
          42   -0.1445    0.3148    0.0538   -0.0214    0.1071    0.1771    0.1189   -0.1921
          43   -0.1066   -0.2240   -0.2701    0.0056   -0.1717    0.4021    0.3097    0.1679
          44   -0.0547   -0.0793   -0.0742   -0.0041   -0.0425    0.1278    0.0854    0.0366
          45    0.0368    0.1699    0.2017    0.0206    0.1191   -0.3064   -0.2470   -0.1269
          46    0.1043   -0.2245    0.2698    0.0073    0.1711   -0.3998    0.3108    0.1681
          47   -0.0575    0.1879   -0.2127    0.0188   -0.1242    0.3291   -0.2581   -0.1286
          48    0.0289    0.0183   -0.0389    0.0075   -0.0239    0.0459   -0.0519   -0.0327


   Root No.      25        26        27        28        29        30        31        32

                25 A      26 A      27 A      28 A      29 A      30 A      31 A      32 A   

                1343.0    1368.4    1383.5    1395.1    1410.0    1417.6    1437.6    1878.9
  
           1   -0.3254    0.2225    0.1358   -0.2810   -0.0030   -0.2695    0.0056    0.0126
           2    0.1642   -0.1667    0.0150    0.1602   -0.2396   -0.1854    0.1987    0.0015
           3    0.0508    0.0021    0.0139    0.0269    0.0097    0.0030   -0.0539   -0.0059
           4    0.3264   -0.2219    0.1378    0.2815   -0.0062    0.2696    0.0050   -0.0127
           5    0.0399   -0.0858    0.0050    0.0583    0.1301   -0.0952   -0.1468    0.0058
           6   -0.1681    0.1424    0.0189   -0.1527   -0.2029    0.1567    0.1443    0.0016
           7    0.0576    0.0968   -0.1342    0.2072   -0.1746    0.0122   -0.1283   -0.0662
           8    0.2076    0.3569    0.2150   -0.2079    0.0576    0.1462   -0.3681   -0.0416
           9   -0.0829   -0.2572    0.0300   -0.0805    0.1323   -0.0392    0.2508    0.0636
          10   -0.0575   -0.0980   -0.1342   -0.2084   -0.1735   -0.0139   -0.1281    0.0663
          11    0.1766    0.4020   -0.0843   -0.0347    0.0836    0.1089    0.4023   -0.0759
          12   -0.1377   -0.1766    0.2014    0.2202    0.1168   -0.1055   -0.1910    0.0038
          13    0.0318    0.0406   -0.0086    0.0216    0.0881    0.0139    0.1605    0.6005
          14   -0.0947   -0.1604   -0.0745    0.0114    0.0763   -0.0376    0.2445   -0.0687
          15    0.0302    0.0604    0.0441   -0.0107   -0.1018    0.0081   -0.2361   -0.3311
          16   -0.0314   -0.0401   -0.0085   -0.0208    0.0883   -0.0130    0.1604   -0.6005
          17   -0.0744   -0.1333    0.0761    0.0137   -0.1260   -0.0274   -0.3274    0.2512
          18    0.0667    0.1078   -0.0423   -0.0043    0.0141    0.0287    0.0917    0.2265
          19    0.0613   -0.1191   -0.1755    0.1467    0.0935    0.2170   -0.0426   -0.0022
          20   -0.2319    0.0337   -0.1651   -0.0662    0.2499    0.2303   -0.1109   -0.0003
          21    0.1053    0.0237    0.1734   -0.0165   -0.2023   -0.2577    0.0941    0.0010
          22    0.0456   -0.0169   -0.1798    0.0788    0.0428    0.2421   -0.0250   -0.0073
          23   -0.2916   -0.0442   -0.1779   -0.0625    0.2747    0.2169   -0.0445    0.0111
          24   -0.1196   -0.0290   -0.1789    0.0067    0.2069    0.2718   -0.0761    0.0006
          25   -0.0625    0.1187   -0.1761   -0.1467    0.0955   -0.2161   -0.0421    0.0022
          26   -0.2091   -0.0027    0.2327   -0.0206   -0.3039    0.3363    0.1370   -0.0010
          27    0.1480   -0.0413   -0.0546    0.0662    0.1142   -0.0679   -0.0484   -0.0003
          28   -0.0468    0.0162   -0.1802   -0.0791    0.0452   -0.2422   -0.0246    0.0073
          29   -0.0443    0.0024   -0.0648   -0.0373    0.0412   -0.1250   -0.0431    0.0051
          30    0.3124    0.0521   -0.2432    0.0522    0.3439   -0.3214   -0.0766   -0.0100
          31    0.1445   -0.2249    0.3239   -0.3604    0.2401    0.0409    0.0666   -0.0015
          32   -0.1292   -0.1297   -0.0960    0.0859   -0.0399   -0.0678    0.1232   -0.0081
          33    0.0357    0.0697    0.0194   -0.0190    0.0145    0.0296   -0.0447    0.0103
          34    0.0421   -0.0638    0.0462   -0.0415    0.0249    0.0099    0.0069   -0.0162
          35   -0.2798   -0.0294   -0.2036    0.1607   -0.1187   -0.1270    0.1127   -0.0193
          36   -0.0784    0.2732   -0.2571    0.3061   -0.2165   -0.0202   -0.1111    0.0187
          37   -0.1462    0.2267    0.3228    0.3612    0.2384   -0.0389    0.0661    0.0015
          38   -0.0964   -0.1247    0.0659    0.0599    0.0332   -0.0595   -0.1006   -0.0129
          39    0.0939    0.0760   -0.0735   -0.0647   -0.0275    0.0434    0.0836    0.0019
          40   -0.0424    0.0641    0.0457    0.0414    0.0247   -0.0097    0.0069    0.0162
          41   -0.0731   -0.2511   -0.1179   -0.1834   -0.1252   -0.0479   -0.1524   -0.0259
          42    0.2826   -0.1144   -0.3044   -0.2935   -0.2112    0.1181    0.0415    0.0072
          43   -0.0205   -0.0682    0.0071    0.0535   -0.0902   -0.0156   -0.1358    0.0150
          44   -0.0391   -0.0754   -0.0173    0.0152   -0.0122   -0.0175    0.0136   -0.1025
          45    0.0381    0.0876    0.0106   -0.0427    0.0651    0.0209    0.0704    0.0513
          46    0.0200    0.0675    0.0068   -0.0540   -0.0904    0.0146   -0.1356   -0.0151
          47   -0.0526   -0.1134    0.0183    0.0450    0.0627   -0.0264    0.0541   -0.0961
          48    0.0143    0.0205   -0.0096    0.0088    0.0223    0.0046    0.0476    0.0625


   Root No.      33        34        35        36        37        38        39        40

                33 A      34 A      35 A      36 A      37 A      38 A      39 A      40 A   

                2944.7    2945.1    2960.9    2968.3    3026.0    3026.4    3040.2    3045.7
  
           1   -0.0028    0.0031    0.0066   -0.0007    0.0071    0.0209    0.0863   -0.0824
           2   -0.0056    0.0044    0.0104   -0.0031    0.0089    0.0352    0.1210   -0.1221
           3   -0.0647    0.0671    0.2025   -0.2072   -0.0008    0.0056   -0.0080    0.0238
           4    0.0037    0.0020   -0.0066   -0.0008    0.0216    0.0027    0.0857    0.0836
           5    0.0677    0.0345   -0.1673   -0.1796   -0.0135   -0.0024   -0.0677   -0.0835
           6    0.0475    0.0228   -0.1101   -0.1090    0.0338    0.0002    0.0998    0.0947
           7    0.0995   -0.1442    0.0490   -0.0375   -0.0179   -0.1747    0.0251   -0.0211
           8    0.0461   -0.0668    0.0201   -0.0134    0.0063    0.0613   -0.0044    0.0033
           9    0.1225   -0.1766    0.0534   -0.0392    0.0106    0.1005   -0.0107    0.0070
          10   -0.1415   -0.1038   -0.0479   -0.0378   -0.1745    0.0198    0.0244    0.0225
          11   -0.1170   -0.0853   -0.0350   -0.0272    0.0558   -0.0060   -0.0069   -0.0047
          12   -0.1444   -0.1056   -0.0432   -0.0316    0.1037   -0.0116   -0.0090   -0.0070
          13   -0.0025    0.0017   -0.0006    0.0001    0.0035    0.0171   -0.0144    0.0097
          14    0.0005   -0.0022    0.0010   -0.0014   -0.0076   -0.0350    0.0276   -0.0156
          15    0.0001   -0.0008   -0.0002   -0.0001    0.0021    0.0092   -0.0067    0.0030
          16    0.0029    0.0008    0.0006    0.0001    0.0172   -0.0002   -0.0142   -0.0049
          17    0.0003    0.0004    0.0007    0.0006    0.0260    0.0002   -0.0195   -0.0037
          18   -0.0012   -0.0020   -0.0007   -0.0012   -0.0259    0.0000    0.0201    0.0050
          19    0.0582   -0.0607   -0.1632    0.1651   -0.0103   -0.0438   -0.1398    0.1277
          20    0.0809   -0.0790   -0.2487    0.2358   -0.0141   -0.0619   -0.2053    0.1869
          21    0.1347   -0.1356   -0.3927    0.3711   -0.0257   -0.1145   -0.3825    0.3557
          22   -0.0408    0.0469    0.1438   -0.1577   -0.0084   -0.0383   -0.1527    0.1731
          23   -0.0575    0.0652    0.2057   -0.2276   -0.0134   -0.0461   -0.2257    0.2422
          24    0.0891   -0.1017   -0.3126    0.3464    0.0257    0.0951    0.4100   -0.4363
          25   -0.0742   -0.0375    0.1612    0.1674   -0.0445   -0.0011   -0.1387   -0.1294
          26   -0.0959   -0.0473    0.2113    0.2046   -0.0685   -0.0008   -0.2248   -0.2156
          27   -0.1736   -0.0821    0.4088    0.3972   -0.1131   -0.0017   -0.3679   -0.3459
          28    0.0532    0.0302   -0.1417   -0.1594   -0.0387   -0.0004   -0.1517   -0.1755
          29   -0.1378   -0.0774    0.3682    0.4186    0.1076    0.0069    0.4651    0.5065
          30    0.0059    0.0030   -0.0195   -0.0219    0.0083   -0.0004    0.0122    0.0114
          31   -0.0304    0.0434   -0.0099    0.0058   -0.0093   -0.0927    0.0126   -0.0086
          32   -0.1631    0.2350   -0.0719    0.0547   -0.0246   -0.2392    0.0289   -0.0208
          33   -0.3695    0.5321   -0.1513    0.1109   -0.0558   -0.5455    0.0646   -0.0450
          34   -0.3112    0.4570   -0.1654    0.1195    0.0702    0.6998   -0.1040    0.0824
          35    0.0014   -0.0022    0.0022   -0.0012    0.0023    0.0222    0.0016   -0.0015
          36   -0.0603    0.0885   -0.0323    0.0229    0.0196    0.1943   -0.0286    0.0225
          37    0.0431    0.0311    0.0096    0.0058   -0.0927    0.0108    0.0123    0.0093
          38    0.3352    0.2444    0.0916    0.0682   -0.3498    0.0398    0.0401    0.0308
          39    0.4644    0.3387    0.1349    0.1036   -0.4820    0.0546    0.0562    0.0439
          40    0.4445    0.3303    0.1621    0.1206    0.6991   -0.0809   -0.1018   -0.0883
          41    0.0755    0.0561    0.0285    0.0206    0.1565   -0.0181   -0.0250   -0.0213
          42    0.0417    0.0309    0.0141    0.0106    0.1173   -0.0134   -0.0127   -0.0111
          43    0.0040   -0.0064    0.0008   -0.0012   -0.0103   -0.0612    0.0493   -0.0292
          44   -0.0053    0.0069    0.0002    0.0003    0.0215    0.1124   -0.0971    0.0565
          45    0.0013   -0.0033   -0.0002   -0.0004   -0.0057   -0.0250    0.0245   -0.0139
          46   -0.0057   -0.0048   -0.0007   -0.0011   -0.0613    0.0028    0.0486    0.0127
          47   -0.0056   -0.0049    0.0003   -0.0003   -0.0789    0.0010    0.0693    0.0168
          48    0.0052    0.0028   -0.0001   -0.0001    0.0848   -0.0023   -0.0705   -0.0177


   Root No.      41        42

                41 A      42 A   

                3046.3    3066.3
  
           1    0.0140    0.0048
           2    0.0206    0.0074
           3   -0.0037   -0.0036
           4    0.0092   -0.0046
           5   -0.0087    0.0072
           6    0.0106   -0.0043
           7    0.0246    0.0208
           8   -0.0076   -0.0057
           9   -0.0104   -0.0091
          10    0.0230   -0.0208
          11   -0.0047    0.0049
          12   -0.0111    0.0095
          13    0.0853    0.1146
          14   -0.1665   -0.1750
          15    0.0416    0.0284
          16    0.0850   -0.1153
          17    0.1197   -0.1139
          18   -0.1222    0.1374
          19   -0.0212   -0.0047
          20   -0.0316   -0.0069
          21   -0.0592   -0.0138
          22   -0.0261   -0.0094
          23   -0.0385   -0.0134
          24    0.0692    0.0238
          25   -0.0139    0.0046
          26   -0.0228    0.0084
          27   -0.0373    0.0128
          28   -0.0160    0.0095
          29    0.0502   -0.0273
          30    0.0011   -0.0003
          31    0.0118    0.0086
          32    0.0267    0.0191
          33    0.0665    0.0480
          34   -0.1019   -0.0747
          35   -0.0055   -0.0049
          36   -0.0249   -0.0173
          37    0.0111   -0.0085
          38    0.0414   -0.0318
          39    0.0532   -0.0404
          40   -0.0951    0.0745
          41   -0.0171    0.0125
          42   -0.0163    0.0129
          43   -0.2908   -0.2973
          44    0.5774    0.5769
          45   -0.1471   -0.1428
          46   -0.2901    0.2994
          47   -0.4174    0.4175
          48    0.4231   -0.4289


          DESCRIPTION OF VIBRATIONS


 VIBRATION    1    1A       ATOM PAIR        ENERGY CONTRIBUTION    RADIAL
 FREQ.       144.47        C  1 --  C  3          +11.8% (322.3%)     0.0%
 T-DIPOLE    0.0556        C  2 --  C  4          +11.8% (322.2%)     0.0%
 TRAVEL      0.0570        C  3 --  C  5          +11.1% (312.2%)     0.0%
 RED. MASS   0.6003        C  4 --  C  6          +11.0% (311.0%)     0.0%
 EFF. MASS 143.5066

 VIBRATION    2    2A       ATOM PAIR        ENERGY CONTRIBUTION    RADIAL
 FREQ.       258.02        C  1 --  C  2          +21.0% (255.9%)     0.0%
 T-DIPOLE    0.0162        C  1 --  C  3          +12.1% (194.1%)     0.0%
 TRAVEL      0.0697        C  2 --  C  4          +12.0% (193.8%)     0.0%
 RED. MASS   0.7663        C  1 --  H  8          +10.6% (182.3%)    95.6%
 EFF. MASS  53.8401        C  2 --  H 10          +10.6% (182.2%)    95.7%

 VIBRATION    3    3A       ATOM PAIR        ENERGY CONTRIBUTION    RADIAL
 FREQ.       372.63        C  5 --  C  6          +21.7% (124.6%)     0.0%
 T-DIPOLE    0.0032        C  4 --  C  6          +12.0% ( 92.6%)     0.0%
 TRAVEL      0.1040        C  3 --  C  5          +11.8% ( 91.8%)     0.0%
 RED. MASS   1.1504        C  4 --  H 13          +10.1% ( 84.9%)     3.9%
 EFF. MASS  16.7240

 VIBRATION    4    4A       ATOM PAIR        ENERGY CONTRIBUTION    RADIAL
 FREQ.       488.17        C  1 --  C  2          +14.6% (134.6%)     0.0%
 T-DIPOLE    0.1285        C  1 --  H  7           +9.4% (108.0%)    32.5%
 TRAVEL      0.0845        C  2 --  H  9           +9.3% (107.4%)    31.8%
 RED. MASS   1.2622        C  1 --  C  3           +9.3% (107.3%)     0.5%
 EFF. MASS  19.3371

 VIBRATION    5    5A       ATOM PAIR        ENERGY CONTRIBUTION    RADIAL
 FREQ.       505.59        C  3 --  C  5          +10.6% (113.2%)     0.1%
 T-DIPOLE    0.0132        C  4 --  C  6          +10.5% (112.9%)     0.1%
 TRAVEL      0.0805        C  2 --  C  4           +9.5% (107.4%)     0.7%
 RED. MASS   1.5200        C  1 --  C  3           +9.4% (106.6%)     0.7%
 EFF. MASS  20.5668

 VIBRATION    6    6A       ATOM PAIR        ENERGY CONTRIBUTION    RADIAL
 FREQ.       686.90        C  5 --  C  6          +15.2% ( 83.1%)     0.0%
 T-DIPOLE    0.3306        C  4 --  C  6          +12.0% ( 73.8%)     2.6%
 TRAVEL      0.1092        C  3 --  C  5          +11.9% ( 73.6%)     2.7%
 RED. MASS   0.5335        C  5 --  H 15           +9.7% ( 66.4%)    35.4%
 EFF. MASS   8.2250

 VIBRATION    7    7A       ATOM PAIR        ENERGY CONTRIBUTION    RADIAL
 FREQ.       765.38        C  5 --  H 15          +18.4% ( 70.0%)     5.2%
 T-DIPOLE    0.4050        C  6 --  H 16          +18.0% ( 69.3%)     5.6%
 TRAVEL      0.1341        C  5 --  C  6          +10.1% ( 52.0%)     0.0%
 RED. MASS   0.3971        C  3 --  C  5           +7.3% ( 44.2%)     0.4%
 EFF. MASS   4.8965

 VIBRATION    8    8A       ATOM PAIR        ENERGY CONTRIBUTION    RADIAL
 FREQ.       819.68        C  4 --  H 13          +11.0% ( 56.6%)     9.2%
 T-DIPOLE    0.0685        C  3 --  H 11          +10.9% ( 56.4%)     9.2%
 TRAVEL      0.1295        C  4 --  H 14          +10.5% ( 55.3%)    13.7%
 RED. MASS   0.2753        C  3 --  H 12          +10.4% ( 55.0%)    13.7%
 EFF. MASS   4.9024

 VIBRATION    9    9A       ATOM PAIR        ENERGY CONTRIBUTION    RADIAL
 FREQ.       935.01        C  4 --  H 13           +9.7% ( 47.3%)    16.1%
 T-DIPOLE    0.2523        C  4 --  H 14           +9.6% ( 46.9%)    13.2%
 TRAVEL      0.1164        C  2 --  C  4           +8.6% ( 44.6%)     2.2%
 RED. MASS   0.3808        C  3 --  H 12           +8.5% ( 44.4%)    10.2%
 EFF. MASS   5.3240

 VIBRATION   10   10A       ATOM PAIR        ENERGY CONTRIBUTION    RADIAL
 FREQ.       937.49        C  1 --  C  2          +14.5% ( 65.6%)    64.9%
 T-DIPOLE    0.0584        C  1 --  C  3          +11.4% ( 58.0%)    46.5%
 TRAVEL      0.0952        C  2 --  C  4          +10.6% ( 56.0%)    58.3%
 RED. MASS   0.7017        C  1 --  H  7           +9.6% ( 53.4%)     0.8%
 EFF. MASS   7.9352

[...]
 TRAVEL      0.1332        C  4 --  H 13          +10.2% ( 37.3%)    19.2%
 RED. MASS   0.2634        C  3 --  H 11           +9.9% ( 36.7%)    19.1%
 EFF. MASS   3.3333

 VIBRATION   21   21A       ATOM PAIR        ENERGY CONTRIBUTION    RADIAL
 FREQ.      1149.13        C  1 --  C  2          +19.3% ( 56.5%)    35.7%
 T-DIPOLE    0.0213        C  2 --  H  9          +11.0% ( 42.7%)    48.5%
 TRAVEL      0.1114        C  1 --  H  7          +10.9% ( 42.4%)    49.7%
 RED. MASS   0.5771        C  1 --  C  3           +8.6% ( 37.8%)     4.0%
 EFF. MASS   4.7261

 VIBRATION   22   22A       ATOM PAIR        ENERGY CONTRIBUTION    RADIAL
 FREQ.      1177.57        C  5 --  H 15          +26.4% ( 50.0%)     0.0%
 T-DIPOLE    0.0127        C  6 --  H 16          +26.2% ( 49.9%)     0.0%
 TRAVEL      0.2011        C  2 --  H  9           +9.3% ( 29.8%)     2.3%
 RED. MASS   0.1844        C  1 --  H  7           +9.3% ( 29.6%)     2.4%
 EFF. MASS   1.4164

 VIBRATION   23   23A       ATOM PAIR        ENERGY CONTRIBUTION    RADIAL
 FREQ.      1241.88        C  6 --  H 16          +16.2% ( 48.4%)     0.1%
 T-DIPOLE    0.0438        C  5 --  H 15          +16.1% ( 48.2%)     0.1%
 TRAVEL      0.1440        C  3 --  H 12           +7.7% ( 33.3%)     0.0%
 RED. MASS   0.2064        C  4 --  H 14           +7.7% ( 33.2%)     0.0%
 EFF. MASS   2.6178

 VIBRATION   24   24A       ATOM PAIR        ENERGY CONTRIBUTION    RADIAL
 FREQ.      1312.50        C  1 --  H  8          +14.0% ( 46.2%)     0.6%
 T-DIPOLE    0.0161        C  2 --  H 10          +13.9% ( 46.1%)     0.6%
 TRAVEL      0.1088        C  1 --  C  2           +9.8% ( 38.7%)     0.0%
 RED. MASS   0.5220        C  1 --  H  7           +9.5% ( 38.1%)     0.0%
 EFF. MASS   4.3379

 VIBRATION   25   25A       ATOM PAIR        ENERGY CONTRIBUTION    RADIAL
 FREQ.      1343.04        C  1 --  C  2          +14.8% ( 48.4%)    87.0%
 T-DIPOLE    0.0461        C  2 --  H 10          +11.1% ( 42.0%)     0.4%
 TRAVEL      0.1016        C  1 --  H  8          +11.0% ( 41.8%)     0.4%
 RED. MASS   0.5636        C  2 --  H  9           +9.4% ( 38.7%)     0.2%
 EFF. MASS   4.8675

 VIBRATION   26   26A       ATOM PAIR        ENERGY CONTRIBUTION    RADIAL
 FREQ.      1368.36        C  1 --  C  3          +10.3% ( 46.4%)    79.9%
 T-DIPOLE    0.0031        C  2 --  C  4          +10.3% ( 46.3%)    79.6%
 TRAVEL      0.0807        C  4 --  H 14          +10.0% ( 45.6%)     0.5%
 RED. MASS   1.1772        C  3 --  H 12          +10.0% ( 45.6%)     0.5%
 EFF. MASS   7.5674

 VIBRATION   27   27A       ATOM PAIR        ENERGY CONTRIBUTION    RADIAL
 FREQ.      1383.51        C  4 --  H 13          +12.0% ( 35.5%)     3.1%
 T-DIPOLE    0.0467        C  3 --  H 11          +12.0% ( 35.5%)     3.2%
 TRAVEL      0.1338        C  3 --  H 12          +11.6% ( 34.9%)     4.4%
 RED. MASS   0.1974        C  4 --  H 14          +11.5% ( 34.8%)     4.4%
 EFF. MASS   2.7238

 VIBRATION   28   28A       ATOM PAIR        ENERGY CONTRIBUTION    RADIAL
 FREQ.      1395.06        C  1 --  C  2          +10.6% ( 40.7%)    88.1%
 T-DIPOLE    0.0022        C  4 --  H 13          +10.4% ( 40.2%)     4.1%
 TRAVEL      0.0970        C  3 --  H 11          +10.3% ( 40.1%)     4.1%
 RED. MASS   0.5451        C  2 --  C  4          +10.3% ( 40.1%)    69.5%
 EFF. MASS   5.1362        C  1 --  C  3          +10.3% ( 40.0%)    69.6%

 VIBRATION   29   29A       ATOM PAIR        ENERGY CONTRIBUTION    RADIAL
 FREQ.      1409.98        C  2 --  H 10          +10.1% ( 35.3%)     4.4%
 T-DIPOLE    0.0817        C  1 --  H  8           +9.9% ( 35.0%)     4.4%
 TRAVEL      0.1146        C  2 --  H  9           +9.7% ( 34.6%)     3.8%
 RED. MASS   0.2269        C  1 --  H  7           +9.5% ( 34.3%)     3.8%
 EFF. MASS   3.6406

 VIBRATION   30   30A       ATOM PAIR        ENERGY CONTRIBUTION    RADIAL
 FREQ.      1417.61        C  1 --  H  8          +15.7% ( 44.1%)     5.5%
 T-DIPOLE    0.0466        C  2 --  H 10          +15.6% ( 43.9%)     5.5%
 TRAVEL      0.1143        C  1 --  H  7          +15.0% ( 43.2%)     5.4%
 RED. MASS   0.4063        C  2 --  H  9          +14.9% ( 42.9%)     5.4%
 EFF. MASS   3.6401        C  1 --  C  2          +13.4% ( 40.7%)    90.1%

 VIBRATION   31   31A       ATOM PAIR        ENERGY CONTRIBUTION    RADIAL
 FREQ.      1437.57        C  3 --  C  5          +14.7% ( 58.4%)    95.9%
 T-DIPOLE    0.0603        C  4 --  C  6          +14.7% ( 58.4%)    95.9%
 TRAVEL      0.0697        C  1 --  C  3           +8.1% ( 43.3%)    53.8%
 RED. MASS   1.6360        C  2 --  C  4           +8.1% ( 43.3%)    53.9%
 EFF. MASS   9.6491

 VIBRATION   32   32A       ATOM PAIR        ENERGY CONTRIBUTION    RADIAL
 FREQ.      1878.89        C  5 --  C  6          +44.4% ( 98.1%)   100.0%
 T-DIPOLE    0.1088        C  4 --  C  6          +14.2% ( 55.5%)    51.9%
 TRAVEL      0.0550        C  3 --  C  5          +14.2% ( 55.5%)    51.9%
 RED. MASS   5.4212        C  6 --  H 16          +13.1% ( 53.3%)     4.7%
 EFF. MASS  11.8666        C  5 --  H 15          +13.1% ( 53.3%)     4.6%

 VIBRATION   33   33A       ATOM PAIR        ENERGY CONTRIBUTION    RADIAL
 FREQ.      2944.71        C  4 --  H 13          +34.9% ( 61.4%)    97.5%
 T-DIPOLE    0.0191        C  4 --  H 14          +22.6% ( 49.4%)    95.1%
 TRAVEL      0.1216        C  3 --  H 11          +17.4% ( 43.3%)    97.5%
 RED. MASS   0.2382        C  3 --  H 12          +11.1% ( 34.6%)    95.0%
 EFF. MASS   1.5481

 VIBRATION   34   34A       ATOM PAIR        ENERGY CONTRIBUTION    RADIAL
 FREQ.      2945.13        C  3 --  H 11          +36.1% ( 62.4%)    97.5%
 T-DIPOLE    0.0158        C  3 --  H 12          +23.8% ( 50.7%)    95.2%
 TRAVEL      0.1221        C  4 --  H 13          +18.6% ( 44.8%)    97.5%
 RED. MASS   0.2580        C  4 --  H 14          +12.4% ( 36.6%)    95.2%
 EFF. MASS   1.5370

 VIBRATION   35   35A       ATOM PAIR        ENERGY CONTRIBUTION    RADIAL
 FREQ.      2960.86        C  1 --  H  7          +25.8% ( 52.7%)    97.4%
 T-DIPOLE    0.0052        C  2 --  H  9          +25.3% ( 52.2%)    97.4%
 TRAVEL      0.1217        C  1 --  H  8          +17.7% ( 43.6%)    95.3%
 RED. MASS   0.2104        C  2 --  H 10          +17.2% ( 43.0%)    95.2%
 EFF. MASS   1.5383

 VIBRATION   36   36A       ATOM PAIR        ENERGY CONTRIBUTION    RADIAL
 FREQ.      2968.29        C  2 --  H  9          +24.4% ( 51.2%)    96.9%
 T-DIPOLE    0.0114        C  1 --  H  7          +23.6% ( 50.4%)    96.9%
 TRAVEL      0.1215        C  2 --  H 10          +21.9% ( 48.5%)    96.3%
 RED. MASS   0.2277        C  1 --  H  8          +21.4% ( 47.9%)    96.3%
 EFF. MASS   1.5379

 VIBRATION   37   37A       ATOM PAIR        ENERGY CONTRIBUTION    RADIAL
 FREQ.      3026.02        C  4 --  H 14          +55.0% ( 73.2%)    98.6%
 T-DIPOLE    0.0474        C  4 --  H 13          +37.0% ( 60.1%)    96.3%
 TRAVEL      0.1316        C  2 --  H  9           +2.0% ( 14.1%)    98.2%
 RED. MASS   0.4374        C  6 --  H 16           +2.0% ( 13.8%)   100.0%
 EFF. MASS   1.2862

 VIBRATION   38   38A       ATOM PAIR        ENERGY CONTRIBUTION    RADIAL
 FREQ.      3026.35        C  3 --  H 12          +55.2% ( 73.3%)    98.6%
 T-DIPOLE    0.0470        C  3 --  H 11          +37.1% ( 60.1%)    96.3%
 TRAVEL      0.1317        C  1 --  H  7           +2.0% ( 13.9%)    98.3%
 RED. MASS   0.4387        C  5 --  H 15           +1.9% ( 13.8%)   100.0%
 EFF. MASS   1.2848

 VIBRATION   39   39A       ATOM PAIR        ENERGY CONTRIBUTION    RADIAL
 FREQ.      3040.20        C  1 --  H  8          +25.2% ( 49.5%)    98.2%
 T-DIPOLE    0.0216        C  2 --  H 10          +24.9% ( 49.3%)    98.2%
 TRAVEL      0.1318        C  1 --  H  7          +21.4% ( 45.6%)    97.1%
 RED. MASS   0.2153        C  2 --  H  9          +21.1% ( 45.3%)    97.0%
 EFF. MASS   1.2763

 VIBRATION   40   40A       ATOM PAIR        ENERGY CONTRIBUTION    RADIAL
 FREQ.      3045.74        C  2 --  H 10          +30.0% ( 54.0%)    98.7%
 T-DIPOLE    0.0455        C  1 --  H  8          +29.1% ( 53.2%)    98.7%
 TRAVEL      0.1316        C  2 --  H  9          +18.6% ( 42.5%)    95.9%
 RED. MASS   0.2398        C  1 --  H  7          +18.1% ( 41.9%)    96.0%
 EFF. MASS   1.2793

 VIBRATION   41   41A       ATOM PAIR        ENERGY CONTRIBUTION    RADIAL
 FREQ.      3046.27        C  5 --  H 15          +46.7% ( 69.2%)   100.0%
 T-DIPOLE    0.2904        C  6 --  H 16          +46.4% ( 69.0%)   100.0%
 TRAVEL      0.1237        C  3 --  H 12           +1.1% ( 10.5%)    99.0%
 RED. MASS   0.4202        C  5 --  C  6           +1.0% ( 10.3%)     0.0%
 EFF. MASS   1.4469

 VIBRATION   42   42A       ATOM PAIR        ENERGY CONTRIBUTION    RADIAL
 FREQ.      3066.32        C  6 --  H 16          +47.6% ( 69.9%)    99.9%
 T-DIPOLE    0.2580        C  5 --  H 15          +46.9% ( 69.4%)    99.9%
 TRAVEL      0.1178        C  5 --  C  6           +2.0% ( 14.3%)   100.0%
 RED. MASS   0.4473        C  4 --  C  6           +0.8% (  9.0%)    16.4%
 EFF. MASS   1.5843

 SYMMETRY NUMBER FOR POINT-GROUP C1  =  1


          SYSTEM IS A GROUND STATE


    NULL



          MOLECULE IS NOT LINEAR

          THERE ARE 42 GENUINE VIBRATIONS IN THIS SYSTEM
          THIS THERMODYNAMICS CALCULATION IS LIMITED TO
          MOLECULES WHICH HAVE NO INTERNAL ROTATIONS




                    CALCULATED THERMODYNAMIC PROPERTIES
                                          *
   TEMP. (K)   PARTITION FUNCTION   H.O.F.    ENTHALPY  HEAT CAPACITY ENTROPY
                                   KCAL/MOL   CAL/MOLE    CAL/K/MOL  CAL/K/MOL


 298.00  VIB.     0.4904D+01                  1708.4917    15.6647     8.8929
         ROT.     0.1150D+06                   888.2813     2.9808    26.1376
         INT.     0.5641D+06                  2596.7730    18.6456    35.0306
         TRA.     0.7198D+27                  1480.4688     4.9680    39.1295
         TOT.                       -4.954    4077.2419    23.6136    74.1600

 200.00  VIB.     0.2133D+01                   579.8767     7.7591     4.4051
         ROT.     0.6325D+05                   596.1620     2.9808    24.9490
         INT.     0.1349D+06                  1176.0387    10.7399    29.3540
         TRA.     0.3957D+27                   993.6033     4.9680    37.1484
         TOT.                       -6.861    2169.6419    15.7079    66.5024

 210.00  VIB.     0.2298D+01                   660.8590     8.4431     4.8001
         ROT.     0.6805D+05                   625.9700     2.9808    25.0944
         INT.     0.1564D+06                  1286.8291    11.4239    29.8945
         TRA.     0.4258D+27                  1043.2834     4.9680    37.3907
         TOT.                       -6.701    2330.1125    16.3919    67.2852

 220.00  VIB.     0.2481D+01                   748.8515     9.1609     5.2093
         ROT.     0.7297D+05                   655.7781     2.9808    25.2331
         INT.     0.1810D+06                  1404.6297    12.1418    30.4423
         TRA.     0.4566D+27                  1092.9636     4.9680    37.6219
         TOT.                       -6.533    2497.5932    17.1098    68.0642

 230.00  VIB.     0.2685D+01                   844.1858     9.9111     5.6329
         ROT.     0.7800D+05                   685.5862     2.9808    25.3656
         INT.     0.2094D+06                  1529.7720    12.8919    30.9985
         TRA.     0.4880D+27                  1142.6437     4.9680    37.8427
         TOT.                       -6.358    2672.4158    17.8600    68.8412

 240.00  VIB.     0.2913D+01                   947.1750    10.6915     6.0711
         ROT.     0.8314D+05                   715.3943     2.9808    25.4924
         INT.     0.2422D+06                  1662.5693    13.6724    31.5636
         TRA.     0.5202D+27                  1192.3239     4.9680    38.0541
         TOT.                       -6.176    2854.8932    18.6404    69.6177

 250.00  VIB.     0.3168D+01                  1058.1087    11.4996     6.5239
         ROT.     0.8839D+05                   745.2024     2.9808    25.6141
         INT.     0.2800D+06                  1803.3111    14.4804    32.1380
         TRA.     0.5531D+27                  1242.0041     4.9680    38.2569
         TOT.                       -5.986    3045.3152    19.4484    70.3949

 260.00  VIB.     0.3454D+01                  1177.2484    12.3322     6.9910
         ROT.     0.9374D+05                   775.0105     2.9808    25.7310
         INT.     0.3238D+06                  1952.2589    15.3131    32.7221
         TRA.     0.5866D+27                  1291.6842     4.9680    38.4518
         TOT.                       -5.787    3243.9432    20.2811    71.1738

 270.00  VIB.     0.3775D+01                  1304.8252    13.1864     7.4724
         ROT.     0.9920D+05                   804.8186     2.9808    25.8435
         INT.     0.3745D+06                  2109.6438    16.1672    33.3159
         TRA.     0.6208D+27                  1341.3644     4.9680    38.6393
         TOT.                       -5.580    3451.0082    21.1353    71.9552

 280.00  VIB.     0.4136D+01                  1441.0378    14.0589     7.9677
         ROT.     0.1048D+06                   834.6267     2.9808    25.9519
         INT.     0.4333D+06                  2275.6645    17.0397    33.9196
         TRA.     0.6556D+27                  1391.0445     4.9680    38.8200
         TOT.                       -5.364    3666.7091    22.0077    72.7396

 290.00  VIB.     0.4542D+01                  1586.0522    14.9462     8.4765
         ROT.     0.1104D+06                   864.4348     2.9808    26.0565
         INT.     0.5016D+06                  2450.4870    17.9271    34.5330
         TRA.     0.6910D+27                  1440.7247     4.9680    38.9943
         TOT.                       -5.140    3891.2118    22.8951    73.5273

 300.00  VIB.     0.5000D+01                  1740.0017    15.8454     8.9983
         ROT.     0.1162D+06                   894.2429     2.9808    26.1576
         INT.     0.5810D+06                  2634.2447    18.8262    35.1559
         TRA.     0.7270D+27                  1490.4049     4.9680    39.1627
         TOT.                       -4.906    4124.6495    23.7942    74.3186

 310.00  VIB.     0.5517D+01                  1902.9881    16.7531     9.5327
         ROT.     0.1220D+06                   924.0510     2.9808    26.2553
         INT.     0.6734D+06                  2827.0391    19.7339    35.7880
         TRA.     0.7637D+27                  1540.0850     4.9680    39.3256
         TOT.                       -4.664    4367.1241    24.7019    75.1136

 320.00  VIB.     0.6103D+01                  2075.0827    17.6665    10.0790
         ROT.     0.1280D+06                   953.8591     2.9808    26.3499
         INT.     0.7812D+06                  3028.9418    20.6473    36.4289
         TRA.     0.8009D+27                  1589.7652     4.9680    39.4834
         TOT.                       -4.412    4618.7070    25.6154    75.9123

 330.00  VIB.     0.6766D+01                  2256.3286    18.5829    10.6366
         ROT.     0.1340D+06                   983.6672     2.9808    26.4417
         INT.     0.9069D+06                  3239.9958    21.5637    37.0783
         TRA.     0.8388D+27                  1639.4454     4.9680    39.6362
         TOT.                       -4.151    4879.4412    26.5318    76.7145

 340.00  VIB.     0.7518D+01                  2446.7426    19.4997    11.2050
         ROT.     0.1402D+06                  1013.4753     2.9808    26.5307
         INT.     0.1054D+07                  3460.2179    22.4806    37.7356
         TRA.     0.8772D+27                  1689.1255     4.9680    39.7845
         TOT.                       -3.882    5149.3434    27.4486    77.5202

 350.00  VIB.     0.8372D+01                  2646.3173    20.4147    11.7834
         ROT.     0.1464D+06                  1043.2834     2.9808    26.6171
         INT.     0.1226D+07                  3689.6007    23.3955    38.4005
         TRA.     0.9162D+27                  1738.8057     4.9680    39.9285
         TOT.                       -3.602    5428.4064    28.3635    78.3290

 360.00  VIB.     0.9343D+01                  2855.0237    21.3258    12.3713
         ROT.     0.1527D+06                  1073.0915     2.9808    26.7010
         INT.     0.1427D+07                  3928.1152    24.3066    39.0724
         TRA.     0.9557D+27                  1788.4859     4.9680    40.0685
         TOT.                       -3.314    5716.6011    29.2746    79.1409

 370.00  VIB.     0.1045D+02                  3072.8132    22.2311    12.9680
         ROT.     0.1591D+06                  1102.8996     2.9808    26.7827
         INT.     0.1663D+07                  4175.7129    25.2119    39.7507
         TRA.     0.9958D+27                  1838.1660     4.9680    40.2046
         TOT.                       -3.017    6013.8789    30.1799    79.9553

 380.00  VIB.     0.1171D+02                  3299.6203    23.1290    13.5728
         ROT.     0.1656D+06                  1132.7077     2.9808    26.8622
         INT.     0.1940D+07                  4432.3280    26.1098    40.4350
         TRA.     0.1036D+28                  1887.8462     4.9680    40.3371
         TOT.                       -2.711    6320.1742    31.0778    80.7721

 390.00  VIB.     0.1315D+02                  3535.3642    24.0182    14.1851
         ROT.     0.1722D+06                  1162.5158     2.9808    26.9396
         INT.     0.2265D+07                  4697.8800    26.9990    41.1247
         TRA.     0.1078D+28                  1937.5263     4.9680    40.4662
         TOT.                       -2.395    6635.4064    31.9670    81.5909

 400.00  VIB.     0.1480D+02                  3779.9516    24.8975    14.8043
         ROT.     0.1789D+06                  1192.3239     2.9808    27.0151
         INT.     0.2647D+07                  4972.2755    27.8783    41.8194
         TRA.     0.1119D+28                  1987.2065     4.9680    40.5919
         TOT.                       -2.071    6959.4820    32.8463    82.4113

   *: NOTE: HEATS OF FORMATION ARE RELATIVE TO THE
            ELEMENTS IN THEIR STANDARD STATE AT 298K
              (=  Standard Enthalpy of Formation).

            Hvib:  Zero-point energy is not included.
                   frequencies of less than zero cm-1 are not included.
            Hrot = (3/2)RT
            Htra = (3/2)RT + pV = (5/2)RT

            Heat capacity is Cp, not Cv

           For more information, see: HTTP://OpenMOPAC.net/Manual/thermochemistry.html


           FORCE CONSTANT IN CARTESIAN COORDINATES (Millidynes/A)

    ATOM   CHEMICAL       X               Y               Z
   NUMBER   SYMBOL  FORCE CONSTANT  FORCE CONSTANT  FORCE CONSTANT

      1       C        8.199317        8.355551        8.405108
      2       C        8.201528        8.563125        8.201488
      3       C        8.788463        8.405600        8.264338
      4       C        8.789880        8.558789        8.110055
      5       C       12.397183        8.600610        6.242482
      6       C       12.396602        8.382347        6.460756
      7       H        1.183253        1.689864        3.528630
      8       H        1.208706        1.722749        3.518692
      9       H        1.182492        1.601940        3.618504
     10       H        1.209008        4.525952        0.715920
     11       H        0.695566        1.380572        4.182789
     12       H        4.730403        0.730641        0.891199
     13       H        0.695729        2.115420        3.446997
     14       H        4.729021        0.836700        0.784685
     15       H        1.539250        3.988317        0.727423
     16       H        1.539394        2.402800        2.317143



 TOTAL CPU TIME:             0.85 SECONDS

 == MOPAC DONE ==
