 *******************************************************************************
 ** Site#: 14399           For non-commercial use only        Version 13.159M **
 *******************************************************************************
 ** Cite this work as: MOPAC2012, James J. P. Stewart, Stewart Computational  **
 ** Chemistry, Version 13.159M web: HTTP://OpenMOPAC.net  Days remaining:   6 **
 *******************************************************************************
 **                                                                           **
 **                                MOPAC2012                                  **
 **                                                                           **
 *******************************************************************************

                            PM3 CALCULATION RESULTS


 *******************************************************************************
 *  CALCULATION DONE:                                Mon Jun  2 11:10:37 2014  *
 *  PM3      - The PM3 Hamiltonian to be used
 *  PRECISE  - CRITERIA TO BE INCREASED BY 100 TIMES
 *  NOSYM    - POINT-GROUP SYMMETRY SET TO C1
 *  T=       - A TIME OF 172800.0 SECONDS REQUESTED
 *  DUMP=N   - RESTART FILE WRITTEN EVERY  7200.000 SECONDS
 *******************************************************************************
pm3  precise nosym
 InChI=1S/C10H14/c1-2-4-8-7-9-5-3-6-10(8)9/h2-4,6,8-10H,5,7H2,1H3

   ATOM   CHEMICAL          X               Y               Z
  NUMBER   SYMBOL      (ANGSTROMS)     (ANGSTROMS)     (ANGSTROMS)
 
     1       C         -1.52270000  *   0.83270000  *  -0.59270000  *
     2       C         -0.62740000  *   0.34540000  *   0.54200000  *
     3       C          0.15420000  *  -0.53280000  *  -0.38590000  *
     4       C         -0.73640000  *  -0.11550000  *  -1.55620000  *
     5       C         -2.95870000  *   0.42830000  *  -0.23880000  *
     6       C          3.91860000  *   0.01880000  *   0.34220000  *
     7       C         -1.56040000  *  -0.37860000  *   1.45510000  *
     8       C          1.60360000  *  -0.14210000  *  -0.52120000  *
     9       C         -2.81530000  *  -0.32940000  *   1.03470000  *
    10       C          2.47610000  *  -0.35850000  *   0.47120000  *
    11       H         -1.38910000  *   1.91310000  *  -0.83700000  *
    12       H         -0.07790000  *   1.17230000  *   1.05160000  *
    13       H          0.06120000  *  -1.62680000  *  -0.17980000  *
    14       H         -0.23360000  *   0.45330000  *  -2.37290000  *
    15       H         -1.34020000  *  -0.96400000  *  -1.95510000  *
    16       H         -3.58720000  *   1.32920000  *  -0.05510000  *
    17       H         -3.43820000  *  -0.19720000  *  -1.02570000  *
    18       H          4.46670000  *  -0.24400000  *   1.27500000  *
    19       H          4.01750000  *   1.11520000  *   0.17400000  *
    20       H          4.38720000  *  -0.52920000  *  -0.50650000  *
    21       H         -3.64500000  *  -0.79040000  *   1.56670000  *
    22       H         -1.24870000  *  -0.89270000  *   2.36210000  *
    23       H          1.95480000  *   0.30990000  *  -1.44900000  *
    24       H          2.14100000  *  -0.81720000  *   1.40150000  *
 


          CARTESIAN COORDINATES 

    NO.       ATOM         X         Y         Z

     1         C       -1.5227    0.8327   -0.5927
     2         C       -0.6274    0.3454    0.5420
     3         C        0.1542   -0.5328   -0.3859
     4         C       -0.7364   -0.1155   -1.5562
     5         C       -2.9587    0.4283   -0.2388
     6         C        3.9186    0.0188    0.3422
     7         C       -1.5604   -0.3786    1.4551
     8         C        1.6036   -0.1421   -0.5212
     9         C       -2.8153   -0.3294    1.0347
    10         C        2.4761   -0.3585    0.4712
    11         H       -1.3891    1.9131   -0.8370
    12         H       -0.0779    1.1723    1.0516
    13         H        0.0612   -1.6268   -0.1798
    14         H       -0.2336    0.4533   -2.3729
    15         H       -1.3402   -0.9640   -1.9551
    16         H       -3.5872    1.3292   -0.0551
    17         H       -3.4382   -0.1972   -1.0257
    18         H        4.4667   -0.2440    1.2750
    19         H        4.0175    1.1152    0.1740
    20         H        4.3872   -0.5292   -0.5065
    21         H       -3.6450   -0.7904    1.5667
    22         H       -1.2487   -0.8927    2.3621
    23         H        1.9548    0.3099   -1.4490
    24         H        2.1410   -0.8172    1.4015

  H: (PM3): J. J. P. STEWART, J. COMP. CHEM. 10, 209 (1989).
  C: (PM3): J. J. P. STEWART, J. COMP. CHEM. 10, 209 (1989).

           Empirical Formula: C10 H14  =    24 atoms



      MOLECULAR POINT GROUP   :   C1  


      RHF CALCULATION, NO. OF DOUBLY OCCUPIED LEVELS =   27

      Geometry optimization using EF

          DIAGONAL MATRIX USED AS START HESSIAN

 CYCLE:     1 TIME:   0.011 TIME LEFT:  2.00D  GRAD.:   110.589 HEAT: 30.83399
 CYCLE:     2 TIME:   0.016 TIME LEFT:  2.00D  GRAD.:   106.464 HEAT: 29.57870
 CYCLE:     3 TIME:   0.015 TIME LEFT:  2.00D  GRAD.:    63.554 HEAT: 27.47614
 CYCLE:     4 TIME:   0.019 TIME LEFT:  2.00D  GRAD.:    42.447 HEAT: 26.82125
 CYCLE:     5 TIME:   0.008 TIME LEFT:  2.00D  GRAD.:    43.464 HEAT: 26.55731
 CYCLE:     6 TIME:   0.008 TIME LEFT:  2.00D  GRAD.:    34.489 HEAT: 26.23727
 CYCLE:     7 TIME:   0.008 TIME LEFT:  2.00D  GRAD.:    41.123 HEAT: 26.20244
 CYCLE:     8 TIME:   0.008 TIME LEFT:  2.00D  GRAD.:    33.104 HEAT: 25.96410
 CYCLE:     9 TIME:   0.015 TIME LEFT:  2.00D  GRAD.:    19.136 HEAT: 25.74168
 CYCLE:    10 TIME:   0.014 TIME LEFT:  2.00D  GRAD.:    12.955 HEAT: 25.67537
 CYCLE:    11 TIME:   0.008 TIME LEFT:  2.00D  GRAD.:     7.731 HEAT: 25.61104
 CYCLE:    12 TIME:   0.008 TIME LEFT:  2.00D  GRAD.:    17.118 HEAT: 25.60701
 CYCLE:    13 TIME:   0.008 TIME LEFT:  2.00D  GRAD.:    18.319 HEAT: 25.59273
 CYCLE:    14 TIME:   0.015 TIME LEFT:  2.00D  GRAD.:     9.089 HEAT: 25.52082
 CYCLE:    15 TIME:   0.015 TIME LEFT:  2.00D  GRAD.:     5.828 HEAT: 25.50337
 CYCLE:    16 TIME:   0.008 TIME LEFT:  2.00D  GRAD.:     7.253 HEAT: 25.50060
 CYCLE:    17 TIME:   0.009 TIME LEFT:  2.00D  GRAD.:     6.832 HEAT: 25.49330
 CYCLE:    18 TIME:   0.007 TIME LEFT:  2.00D  GRAD.:     6.032 HEAT: 25.48814
 CYCLE:    19 TIME:   0.008 TIME LEFT:  2.00D  GRAD.:     6.493 HEAT: 25.48407
 CYCLE:    20 TIME:   0.008 TIME LEFT:  2.00D  GRAD.:     4.168 HEAT: 25.47554
 CYCLE:    21 TIME:   0.008 TIME LEFT:  2.00D  GRAD.:     6.260 HEAT: 25.47533
 CYCLE:    22 TIME:   0.008 TIME LEFT:  2.00D  GRAD.:     3.104 HEAT: 25.46559
 CYCLE:    23 TIME:   0.008 TIME LEFT:  2.00D  GRAD.:     4.688 HEAT: 25.46319
 CYCLE:    24 TIME:   0.008 TIME LEFT:  2.00D  GRAD.:     4.451 HEAT: 25.45638
 CYCLE:    25 TIME:   0.008 TIME LEFT:  2.00D  GRAD.:     5.066 HEAT: 25.44875
 CYCLE:    26 TIME:   0.008 TIME LEFT:  2.00D  GRAD.:     3.391 HEAT: 25.43727
 CYCLE:    27 TIME:   0.008 TIME LEFT:  2.00D  GRAD.:     3.729 HEAT: 25.42806
 CYCLE:    28 TIME:   0.012 TIME LEFT:  2.00D  GRAD.:     3.830 HEAT: 25.42300
 CYCLE:    29 TIME:   0.008 TIME LEFT:  2.00D  GRAD.:     2.720 HEAT: 25.41847
 CYCLE:    30 TIME:   0.008 TIME LEFT:  2.00D  GRAD.:     2.834 HEAT: 25.41502
 CYCLE:    31 TIME:   0.008 TIME LEFT:  2.00D  GRAD.:     2.851 HEAT: 25.41200
 CYCLE:    32 TIME:   0.008 TIME LEFT:  2.00D  GRAD.:     1.916 HEAT: 25.40729
 CYCLE:    33 TIME:   0.008 TIME LEFT:  2.00D  GRAD.:     2.337 HEAT: 25.40371
 CYCLE:    34 TIME:   0.008 TIME LEFT:  2.00D  GRAD.:     2.040 HEAT: 25.39963
 CYCLE:    35 TIME:   0.008 TIME LEFT:  2.00D  GRAD.:     2.561 HEAT: 25.39690
 CYCLE:    36 TIME:   0.008 TIME LEFT:  2.00D  GRAD.:     1.563 HEAT: 25.39299
 CYCLE:    37 TIME:   0.008 TIME LEFT:  2.00D  GRAD.:     1.119 HEAT: 25.39027
 CYCLE:    38 TIME:   0.010 TIME LEFT:  2.00D  GRAD.:     1.150 HEAT: 25.38703
 CYCLE:    39 TIME:   0.008 TIME LEFT:  2.00D  GRAD.:     1.092 HEAT: 25.38495
 CYCLE:    40 TIME:   0.008 TIME LEFT:  2.00D  GRAD.:     0.978 HEAT: 25.38344
 CYCLE:    41 TIME:   0.008 TIME LEFT:  2.00D  GRAD.:     0.925 HEAT: 25.38205
 CYCLE:    42 TIME:   0.008 TIME LEFT:  2.00D  GRAD.:     0.863 HEAT: 25.38043
 CYCLE:    43 TIME:   0.008 TIME LEFT:  2.00D  GRAD.:     0.942 HEAT: 25.37879
 CYCLE:    44 TIME:   0.008 TIME LEFT:  2.00D  GRAD.:     0.937 HEAT: 25.37746
 CYCLE:    45 TIME:   0.008 TIME LEFT:  2.00D  GRAD.:     0.953 HEAT: 25.37568
 CYCLE:    46 TIME:   0.008 TIME LEFT:  2.00D  GRAD.:     1.155 HEAT: 25.37195
 CYCLE:    47 TIME:   0.008 TIME LEFT:  2.00D  GRAD.:     1.342 HEAT: 25.36800
 CYCLE:    48 TIME:   0.008 TIME LEFT:  2.00D  GRAD.:     1.383 HEAT: 25.36320
 CYCLE:    49 TIME:   0.008 TIME LEFT:  2.00D  GRAD.:     1.482 HEAT: 25.35717
 CYCLE:    50 TIME:   0.008 TIME LEFT:  2.00D  GRAD.:     1.573 HEAT: 25.35051
 CYCLE:    51 TIME:   0.008 TIME LEFT:  2.00D  GRAD.:     1.522 HEAT: 25.34353
 CYCLE:    52 TIME:   0.008 TIME LEFT:  2.00D  GRAD.:     1.327 HEAT: 25.33771
 CYCLE:    53 TIME:   0.008 TIME LEFT:  2.00D  GRAD.:     1.224 HEAT: 25.33290
 CYCLE:    54 TIME:   0.008 TIME LEFT:  2.00D  GRAD.:     1.313 HEAT: 25.32835
 CYCLE:    55 TIME:   0.008 TIME LEFT:  2.00D  GRAD.:     1.594 HEAT: 25.32271
 CYCLE:    56 TIME:   0.008 TIME LEFT:  2.00D  GRAD.:     1.786 HEAT: 25.31560
 CYCLE:    57 TIME:   0.008 TIME LEFT:  2.00D  GRAD.:     3.034 HEAT: 25.30984
 CYCLE:    58 TIME:   0.008 TIME LEFT:  2.00D  GRAD.:     1.814 HEAT: 25.30001
 CYCLE:    59 TIME:   0.008 TIME LEFT:  2.00D  GRAD.:     1.792 HEAT: 25.29168
 CYCLE:    60 TIME:   0.008 TIME LEFT:  2.00D  GRAD.:     2.262 HEAT: 25.27657
 CYCLE:    61 TIME:   0.008 TIME LEFT:  2.00D  GRAD.:     2.676 HEAT: 25.26318
 CYCLE:    62 TIME:   0.009 TIME LEFT:  2.00D  GRAD.:     3.701 HEAT: 25.23385
 CYCLE:    63 TIME:   0.008 TIME LEFT:  2.00D  GRAD.:     6.942 HEAT: 25.20764
 CYCLE:    64 TIME:   0.008 TIME LEFT:  2.00D  GRAD.:     9.639 HEAT: 25.20208
 CYCLE:    65 TIME:   0.008 TIME LEFT:  2.00D  GRAD.:     4.457 HEAT: 25.15711
 CYCLE:    66 TIME:   0.008 TIME LEFT:  2.00D  GRAD.:     2.803 HEAT: 25.12279
 CYCLE:    67 TIME:   0.011 TIME LEFT:  2.00D  GRAD.:     3.438 HEAT: 25.08911
 CYCLE:    68 TIME:   0.010 TIME LEFT:  2.00D  GRAD.:     7.993 HEAT: 25.06016
 CYCLE:    69 TIME:   0.010 TIME LEFT:  2.00D  GRAD.:     3.740 HEAT: 25.02233
 CYCLE:    70 TIME:   0.012 TIME LEFT:  2.00D  GRAD.:     3.397 HEAT: 24.98962
 CYCLE:    71 TIME:   0.008 TIME LEFT:  2.00D  GRAD.:     3.820 HEAT: 24.93451
 CYCLE:    72 TIME:   0.013 TIME LEFT:  2.00D  GRAD.:     4.267 HEAT: 24.89281
 CYCLE:    73 TIME:   0.012 TIME LEFT:  2.00D  GRAD.:     3.640 HEAT: 24.86195
 CYCLE:    74 TIME:   0.013 TIME LEFT:  2.00D  GRAD.:     4.064 HEAT: 24.83433
 CYCLE:    75 TIME:   0.009 TIME LEFT:  2.00D  GRAD.:     4.629 HEAT: 24.80028
 CYCLE:    76 TIME:   0.013 TIME LEFT:  2.00D  GRAD.:     4.461 HEAT: 24.77179
 CYCLE:    77 TIME:   0.008 TIME LEFT:  2.00D  GRAD.:     2.605 HEAT: 24.74387
 CYCLE:    78 TIME:   0.008 TIME LEFT:  2.00D  GRAD.:     2.648 HEAT: 24.72919
 CYCLE:    79 TIME:   0.012 TIME LEFT:  2.00D  GRAD.:     2.061 HEAT: 24.72054
 CYCLE:    80 TIME:   0.010 TIME LEFT:  2.00D  GRAD.:     2.039 HEAT: 24.70873
 CYCLE:    81 TIME:   0.011 TIME LEFT:  2.00D  GRAD.:     2.080 HEAT: 24.69877
 CYCLE:    82 TIME:   0.008 TIME LEFT:  2.00D  GRAD.:     2.169 HEAT: 24.69102
 CYCLE:    83 TIME:   0.008 TIME LEFT:  2.00D  GRAD.:     1.876 HEAT: 24.68411
 CYCLE:    84 TIME:   0.008 TIME LEFT:  2.00D  GRAD.:     1.760 HEAT: 24.67692
 CYCLE:    85 TIME:   0.008 TIME LEFT:  2.00D  GRAD.:     1.847 HEAT: 24.66903
 CYCLE:    86 TIME:   0.008 TIME LEFT:  2.00D  GRAD.:     2.164 HEAT: 24.66327
 CYCLE:    87 TIME:   0.008 TIME LEFT:  2.00D  GRAD.:     1.556 HEAT: 24.65753
 CYCLE:    88 TIME:   0.008 TIME LEFT:  2.00D  GRAD.:     1.550 HEAT: 24.65155
 CYCLE:    89 TIME:   0.008 TIME LEFT:  2.00D  GRAD.:     1.919 HEAT: 24.64601
 CYCLE:    90 TIME:   0.008 TIME LEFT:  2.00D  GRAD.:     2.427 HEAT: 24.63741
 CYCLE:    91 TIME:   0.008 TIME LEFT:  2.00D  GRAD.:     2.085 HEAT: 24.62947
 CYCLE:    92 TIME:   0.010 TIME LEFT:  2.00D  GRAD.:     1.917 HEAT: 24.62338
 CYCLE:    93 TIME:   0.009 TIME LEFT:  2.00D  GRAD.:     1.277 HEAT: 24.61914
 CYCLE:    94 TIME:   0.008 TIME LEFT:  2.00D  GRAD.:     1.327 HEAT: 24.61555
 CYCLE:    95 TIME:   0.008 TIME LEFT:  2.00D  GRAD.:     1.163 HEAT: 24.61310
 CYCLE:    96 TIME:   0.008 TIME LEFT:  2.00D  GRAD.:     0.842 HEAT: 24.61130
 CYCLE:    97 TIME:   0.008 TIME LEFT:  2.00D  GRAD.:     0.746 HEAT: 24.61028
 CYCLE:    98 TIME:   0.012 TIME LEFT:  2.00D  GRAD.:     0.766 HEAT: 24.60933
 CYCLE:    99 TIME:   0.008 TIME LEFT:  2.00D  GRAD.:     0.878 HEAT: 24.60810
 CYCLE:   100 TIME:   0.011 TIME LEFT:  2.00D  GRAD.:     0.740 HEAT: 24.60669
 CYCLE:   101 TIME:   0.008 TIME LEFT:  2.00D  GRAD.:     0.555 HEAT: 24.60613
 CYCLE:   102 TIME:   0.008 TIME LEFT:  2.00D  GRAD.:     0.468 HEAT: 24.60552
 CYCLE:   103 TIME:   0.008 TIME LEFT:  2.00D  GRAD.:     0.418 HEAT: 24.60527
 CYCLE:   104 TIME:   0.009 TIME LEFT:  2.00D  GRAD.:     0.342 HEAT: 24.60479
 CYCLE:   105 TIME:   0.009 TIME LEFT:  2.00D  GRAD.:     0.306 HEAT: 24.60465
 CYCLE:   106 TIME:   0.008 TIME LEFT:  2.00D  GRAD.:     0.567 HEAT: 24.60442
 CYCLE:   107 TIME:   0.008 TIME LEFT:  2.00D  GRAD.:     0.315 HEAT: 24.60424
 CYCLE:   108 TIME:   0.011 TIME LEFT:  2.00D  GRAD.:     0.201 HEAT: 24.60408
 CYCLE:   109 TIME:   0.008 TIME LEFT:  2.00D  GRAD.:     0.188 HEAT: 24.60396
 CYCLE:   110 TIME:   0.009 TIME LEFT:  2.00D  GRAD.:     0.208 HEAT: 24.60378
 CYCLE:   111 TIME:   0.010 TIME LEFT:  2.00D  GRAD.:     0.150 HEAT: 24.60362
 CYCLE:   112 TIME:   0.012 TIME LEFT:  2.00D  GRAD.:     0.086 HEAT: 24.60358
 CYCLE:   113 TIME:   0.008 TIME LEFT:  2.00D  GRAD.:     0.049 HEAT: 24.60357

     RMS GRADIENT =  0.04944  IS LESS THAN CUTOFF =  0.05000



 -------------------------------------------------------------------------------
pm3  precise nosym
 InChI=1S/C10H14/c1-2-4-8-7-9-5-3-6-10(8)9/h2-4,6,8-10H,5,7H2,1H3



     GEOMETRY OPTIMISED USING EIGENVECTOR FOLLOWING (EF).     
     SCF FIELD WAS ACHIEVED                                   


                              PM3 CALCULATION
                                                       MOPAC2012 (Version: 13.159M)
                                                       Mon Jun  2 11:10:38 2014
                                                       No. of days left =   6




          FINAL HEAT OF FORMATION =         24.60357 KCAL/MOL =     102.94134 KJ/MOL


          TOTAL ENERGY            =      -1399.99475 EV
          ELECTRONIC ENERGY       =      -7823.98469 EV  POINT GROUP:     C1  
          CORE-CORE REPULSION     =       6423.98994 EV
          COSMO AREA              =        188.91 SQUARE ANGSTROMS
          COSMO VOLUME            =        191.68 CUBIC ANGSTROMS

          GRADIENT NORM           =          0.04944
          IONIZATION POTENTIAL    =          9.531148 EV
          HOMO LUMO ENERGIES (EV) =         -9.531  1.005
          NO. OF FILLED LEVELS    =         27
          MOLECULAR WEIGHT        =        134.221

          MOLECULAR DIMENSIONS (Angstroms)

            Atom       Atom       Distance
            H    20    H    21     8.25981
            H    14    H    18     4.60361
            H    13    H    11     3.13763


          SCF CALCULATIONS        =        121
          COMPUTATION TIME        =          1.042 SECONDS




   ATOM   CHEMICAL          X               Y               Z
  NUMBER   SYMBOL      (ANGSTROMS)     (ANGSTROMS)     (ANGSTROMS)
 
     1       C         -1.50294041  *   0.84658957  *  -0.58534776  *
     2       C         -0.61195921  *   0.32686865  *   0.58920655  *
     3       C          0.15560144  *  -0.59123566  *  -0.40308735  *
     4       C         -0.72747363  *  -0.06117029  *  -1.56382425  *
     5       C         -2.93361867  *   0.41921209  *  -0.25104032  *
     6       C          3.88671748  *   0.04943560  *   0.33304466  *
     7       C         -1.55857206  *  -0.38381857  *   1.49946760  *
     8       C          1.60802084  *  -0.33274117  *  -0.55206781  *
     9       C         -2.81758661  *  -0.32569541  *   1.04535669  *
    10       C          2.43344923  *  -0.18123882  *   0.48500943  *
    11       H         -1.42478174  *   1.92534062  *  -0.81202922  *
    12       H          0.01220973  *   1.07278609  *   1.11581406  *
    13       H          0.00756237  *  -1.67363008  *  -0.19901267  *
    14       H         -0.17800139  *   0.48333101  *  -2.34737331  *
    15       H         -1.33332609  *  -0.83151109  *  -2.06534805  *
    16       H         -3.60874521  *   1.28763335  *  -0.14102339  *
    17       H         -3.37531844  *  -0.21950376  *  -1.03878040  *
    18       H          4.45668396  *  -0.74715359  *   0.83005725  *
    19       H          4.17595092  *   1.00158091  *   0.79797035  *
    20       H          4.20849345  *   0.08196267  *  -0.71645149  *
    21       H         -3.69728942  *  -0.75447852  *   1.52483597  *
    22       H         -1.21378140  *  -0.87246148  *   2.40993930  *
    23       H          1.98223974  *  -0.29208657  *  -1.58341987  *
    24       H          2.05647094  *  -0.22308089  *   1.51473000  *

           Empirical Formula: C10 H14  =    24 atoms



      MOLECULAR POINT GROUP   :   C1  


                  EIGENVALUES  
 -42.32753 -35.81783 -32.10322 -28.76806 -26.40229 -24.21822 -21.70063 -19.47663
 -19.00874 -17.92384 -17.79317 -16.48111 -15.41578 -15.23033 -14.45943 -14.18649
 -13.78796 -13.65562 -13.08207 -12.76977 -12.47751 -12.18941 -12.02921 -11.62565
 -11.52637  -9.75732  -9.53115   1.00451   1.17163   3.18872   3.27986   3.47319
   3.55014   3.60050   3.68342   3.78050   3.93816   3.95630   4.08969   4.16095
   4.19646   4.37739   4.40193   4.46600   4.53826   4.59331   4.72514   4.81456
   5.23246   5.39635   5.70235   5.80144   5.97905   6.01174


              NET ATOMIC CHARGES AND DIPOLE CONTRIBUTIONS

  ATOM NO.   TYPE          CHARGE      No. of ELECS.   s-Pop       p-Pop       
    1          C          -0.099449        4.0994     1.19707     2.90237
    2          C          -0.063074        4.0631     1.18917     2.87390
    3          C          -0.049401        4.0494     1.17793     2.87147
    4          C          -0.101630        4.1016     1.17744     2.92419
    5          C          -0.057936        4.0579     1.15333     2.90461
    6          C          -0.071765        4.0718     1.12478     2.94698
    7          C          -0.148173        4.1482     1.20021     2.94796
    8          C          -0.142298        4.1423     1.19474     2.94756
    9          C          -0.147280        4.1473     1.20445     2.94283
   10          C          -0.152754        4.1528     1.19213     2.96062
   11          H           0.077571        0.9224     0.92243
   12          H           0.087801        0.9122     0.91220
   13          H           0.081664        0.9183     0.91834
   14          H           0.058689        0.9413     0.94131
   15          H           0.058846        0.9412     0.94115
   16          H           0.055561        0.9444     0.94444
   17          H           0.060952        0.9390     0.93905
   18          H           0.043355        0.9566     0.95664
   19          H           0.043207        0.9568     0.95679
   20          H           0.040245        0.9598     0.95976
   21          H           0.108856        0.8911     0.89114
   22          H           0.112720        0.8873     0.88728
   23          H           0.103474        0.8965     0.89653
   24          H           0.100822        0.8992     0.89918
 DIPOLE           X         Y         Z       TOTAL
 POINT-CHG.     0.014     0.039    -0.119     0.126
 HYBRID        -0.009    -0.037     0.027     0.047
 SUM            0.006     0.002    -0.092     0.092


          ATOMIC ORBITAL ELECTRON POPULATIONS

    Atom      s        px        py        pz   
    1  C   1.19707   0.94373   0.98954   0.96910
    2  C   1.18917   0.96501   0.97248   0.93641
    3  C   1.17793   0.92117   0.99075   0.95955
    4  C   1.17744   0.98281   0.98832   0.95307
    5  C   1.15333   0.95578   0.98955   0.95928
    6  C   1.12478   0.93682   1.00197   1.00820
    7  C   1.20021   0.95475   1.00518   0.98803
    8  C   1.19474   0.95207   1.01218   0.98330
    9  C   1.20445   0.97151   0.99964   0.97168
   10  C   1.19213   0.95974   1.01509   0.98579
   11  H   0.92243
   12  H   0.91220
   13  H   0.91834
   14  H   0.94131
   15  H   0.94115
   16  H   0.94444
   17  H   0.93905
   18  H   0.95664
   19  H   0.95679
   20  H   0.95976
   21  H   0.89114
   22  H   0.88728
   23  H   0.89653
   24  H   0.89918
 *******************************************************************************
 ** Site#: 14399           For non-commercial use only        Version 13.159M **
 *******************************************************************************
 ** Cite this work as: MOPAC2012, James J. P. Stewart, Stewart Computational  **
 ** Chemistry, Version 13.159M web: HTTP://OpenMOPAC.net  Days remaining:   6 **
 *******************************************************************************
 **                                                                           **
 **                                MOPAC2012                                  **
 **                                                                           **
 *******************************************************************************

                            PM3 CALCULATION RESULTS


 *******************************************************************************
 *  CALCULATION DONE:                                Mon Jun  2 11:10:38 2014  *
 *  PM3      - The PM3 Hamiltonian to be used
 *  OLDGEO   - PREVIOUS GEOMETRY TO BE USED
 *  PRECISE  - CRITERIA TO BE INCREASED BY 100 TIMES
 *  NOSYM    - POINT-GROUP SYMMETRY SET TO C1
 *  T=       - A TIME OF 172800.0 SECONDS REQUESTED
 *  DUMP=N   - RESTART FILE WRITTEN EVERY  7200.000 SECONDS
 *  THERMO   - THERMODYNAMIC QUANTITIES TO BE CALCULATED
 *******************************************************************************
oldgeo thermo nosym precise  pm3

   ATOM   CHEMICAL          X               Y               Z
  NUMBER   SYMBOL      (ANGSTROMS)     (ANGSTROMS)     (ANGSTROMS)
 
     1       C         -1.50294041  *   0.84658957  *  -0.58534776  *
     2       C         -0.61195921  *   0.32686865  *   0.58920655  *
     3       C          0.15560144  *  -0.59123566  *  -0.40308735  *
     4       C         -0.72747363  *  -0.06117029  *  -1.56382425  *
     5       C         -2.93361867  *   0.41921209  *  -0.25104032  *
     6       C          3.88671748  *   0.04943560  *   0.33304466  *
     7       C         -1.55857206  *  -0.38381857  *   1.49946760  *
     8       C          1.60802084  *  -0.33274117  *  -0.55206781  *
     9       C         -2.81758661  *  -0.32569541  *   1.04535669  *
    10       C          2.43344923  *  -0.18123882  *   0.48500943  *
    11       H         -1.42478174  *   1.92534062  *  -0.81202922  *
    12       H          0.01220973  *   1.07278609  *   1.11581406  *
    13       H          0.00756237  *  -1.67363008  *  -0.19901267  *
    14       H         -0.17800139  *   0.48333101  *  -2.34737331  *
    15       H         -1.33332609  *  -0.83151109  *  -2.06534805  *
    16       H         -3.60874521  *   1.28763335  *  -0.14102339  *
    17       H         -3.37531844  *  -0.21950376  *  -1.03878040  *
    18       H          4.45668396  *  -0.74715359  *   0.83005725  *
    19       H          4.17595092  *   1.00158091  *   0.79797035  *
    20       H          4.20849345  *   0.08196267  *  -0.71645149  *
    21       H         -3.69728942  *  -0.75447852  *   1.52483597  *
    22       H         -1.21378140  *  -0.87246148  *   2.40993930  *
    23       H          1.98223974  *  -0.29208657  *  -1.58341987  *
    24       H          2.05647094  *  -0.22308089  *   1.51473000  *
 


          CARTESIAN COORDINATES 

    NO.       ATOM         X         Y         Z

     1         C       -1.5029    0.8466   -0.5853
     2         C       -0.6120    0.3269    0.5892
     3         C        0.1556   -0.5912   -0.4031
     4         C       -0.7275   -0.0612   -1.5638
     5         C       -2.9336    0.4192   -0.2510
     6         C        3.8867    0.0494    0.3330
     7         C       -1.5586   -0.3838    1.4995
     8         C        1.6080   -0.3327   -0.5521
     9         C       -2.8176   -0.3257    1.0454
    10         C        2.4334   -0.1812    0.4850
    11         H       -1.4248    1.9253   -0.8120
    12         H        0.0122    1.0728    1.1158
    13         H        0.0076   -1.6736   -0.1990
    14         H       -0.1780    0.4833   -2.3474
    15         H       -1.3333   -0.8315   -2.0653
    16         H       -3.6087    1.2876   -0.1410
    17         H       -3.3753   -0.2195   -1.0388
    18         H        4.4567   -0.7472    0.8301
    19         H        4.1760    1.0016    0.7980
    20         H        4.2085    0.0820   -0.7165
    21         H       -3.6973   -0.7545    1.5248
    22         H       -1.2138   -0.8725    2.4099
    23         H        1.9822   -0.2921   -1.5834
    24         H        2.0565   -0.2231    1.5147

  H: (PM3): J. J. P. STEWART, J. COMP. CHEM. 10, 209 (1989).
  C: (PM3): J. J. P. STEWART, J. COMP. CHEM. 10, 209 (1989).

           Empirical Formula: C10 H14  =    24 atoms



      MOLECULAR POINT GROUP   :   C1  


      RHF CALCULATION, NO. OF DOUBLY OCCUPIED LEVELS =   27



          HEAT OF FORMATION =      24.603570 KCALS/MOLE


          INTERNAL COORDINATE DERIVATIVES

   NUMBER  ATOM       BOND         ANGLE      DIHEDRAL

     1       C     -0.001157    -0.001490    -0.003245
     2       C     -0.000293     0.003501    -0.000082
     3       C     -0.000323     0.001234     0.003390
     4       C     -0.005106    -0.002077    -0.002290
     5       C     -0.002371    -0.000979     0.000730
     6       C     -0.006969     0.013542     0.000390
     7       C     -0.005257    -0.003050    -0.003527
     8       C      0.005629     0.008164     0.005656
     9       C     -0.000059    -0.000016    -0.001851
    10       C      0.003556     0.004833    -0.004289
    11       H     -0.001800    -0.004629    -0.001134
    12       H      0.001580     0.004511    -0.004141
    13       H      0.004295     0.000835     0.006131
    14       H     -0.007878    -0.008412    -0.004772
    15       H     -0.004789    -0.002653    -0.002848
    16       H      0.002625    -0.002016    -0.000125
    17       H     -0.002533    -0.003152    -0.006976
    18       H      0.012305    -0.009167     0.013728
    19       H      0.002302     0.009525    -0.006889
    20       H      0.001224    -0.016211    -0.002097
    21       H     -0.002358    -0.002993     0.001751
    22       H     -0.005981    -0.004380    -0.001935
    23       H      0.017736     0.007874     0.006292
    24       H     -0.004380     0.007206     0.008133


          GRADIENT NORM =   0.04909


          TIME FOR SCF CALCULATION =    0.01

          TIME FOR DERIVATIVES     =    0.01

          MOLECULAR WEIGHT =  134.22



          ROTATIONAL CONSTANTS IN CM(-1)

          A =    0.11321275   B =    0.02457761   C =    0.02182530



           PRINCIPAL MOMENTS OF INERTIA IN UNITS OF 10**(-40)*GRAM-CM**2

          A =      247.2581   B =     1138.9542   C =     1282.5837


          ORIENTATION OF MOLECULE IN FORCE CALCULATION

    NO.       ATOM         X         Y         Z

     1          C      -1.5238   -0.7681   -0.1293
     2          C       0.0394   -0.7681   -0.1293
     3          C       0.0366    0.7865   -0.1293
     4          C      -1.5152    0.7755   -0.1189
     5          C      -1.9459   -1.4363   -1.4395
     6          C       2.5033    1.7850    2.6621
     7          C       0.4201   -1.3961   -1.4295
     8          C       0.6665    1.4472    1.0391
     9          C      -0.6580   -1.7642   -2.1343
    10          C       1.8659    1.1055    1.5130
    11          H      -2.0082   -1.2228    0.7538
    12          H       0.5429   -1.2357    0.7374
    13          H       0.4654    1.2231   -1.0569
    14          H      -1.9718    1.2245    0.7768
    15          H      -1.9812    1.2505   -0.9959
    16          H      -2.5368   -2.3538   -1.2632
    17          H      -2.5772   -0.7755   -2.0627
    18          H       3.4665    2.2214    2.3649
    19          H       2.7010    1.0690    3.4713
    20          H       1.8873    2.5934    3.0780
    21          H      -0.6566   -2.2513   -3.1091
    22          H       1.4632   -1.5165   -1.7194
    23          H       0.0914    2.2652    1.4923
    24          H       2.4386    0.2878    1.0574


    FIRST DERIVATIVES WILL BE USED IN THE CALCULATION OF SECOND DERIVATIVES

          ESTIMATED TIME TO COMPLETE CALCULATION =        3.59 SECONDS

    FOR POINT-GROUP C1   THERE ARE   1 UNIQUE SYMMETRY FUNCTIONS.

 STEP:   1 TIME =     0.05 SECS, INTEGRAL =      0.05 TIME LEFT: 172799.94
 STEP:   2 TIME =     0.04 SECS, INTEGRAL =      0.09 TIME LEFT: 172799.89
 STEP:   3 TIME =     0.04 SECS, INTEGRAL =      0.13 TIME LEFT: 172799.86
 STEP:   4 TIME =     0.04 SECS, INTEGRAL =      0.17 TIME LEFT: 172799.82
 STEP:   5 TIME =     0.04 SECS, INTEGRAL =      0.20 TIME LEFT: 172799.78
 STEP:   6 TIME =     0.04 SECS, INTEGRAL =      0.24 TIME LEFT: 172799.75
 STEP:   7 TIME =     0.04 SECS, INTEGRAL =      0.28 TIME LEFT: 172799.71
 STEP:   8 TIME =     0.04 SECS, INTEGRAL =      0.32 TIME LEFT: 172799.67
 STEP:   9 TIME =     0.04 SECS, INTEGRAL =      0.36 TIME LEFT: 172799.63
 STEP:  10 TIME =     0.04 SECS, INTEGRAL =      0.40 TIME LEFT: 172799.59
 STEP:  11 TIME =     0.04 SECS, INTEGRAL =      0.44 TIME LEFT: 172799.55
 STEP:  12 TIME =     0.04 SECS, INTEGRAL =      0.48 TIME LEFT: 172799.50
 STEP:  13 TIME =     0.04 SECS, INTEGRAL =      0.53 TIME LEFT: 172799.46
 STEP:  14 TIME =     0.04 SECS, INTEGRAL =      0.56 TIME LEFT: 172799.42
 STEP:  15 TIME =     0.04 SECS, INTEGRAL =      0.60 TIME LEFT: 172799.39
 STEP:  16 TIME =     0.04 SECS, INTEGRAL =      0.63 TIME LEFT: 172799.35
 STEP:  17 TIME =     0.04 SECS, INTEGRAL =      0.67 TIME LEFT: 172799.32
 STEP:  18 TIME =     0.04 SECS, INTEGRAL =      0.71 TIME LEFT: 172799.28
 STEP:  19 TIME =     0.04 SECS, INTEGRAL =      0.76 TIME LEFT: 172799.23
 STEP:  20 TIME =     0.04 SECS, INTEGRAL =      0.79 TIME LEFT: 172799.19
 STEP:  21 TIME =     0.04 SECS, INTEGRAL =      0.84 TIME LEFT: 172799.15
 STEP:  22 TIME =     0.04 SECS, INTEGRAL =      0.87 TIME LEFT: 172799.12
 STEP:  23 TIME =     0.04 SECS, INTEGRAL =      0.91 TIME LEFT: 172799.08
 STEP:  24 TIME =     0.04 SECS, INTEGRAL =      0.94 TIME LEFT: 172799.04
 STEP:  25 TIME =     0.04 SECS, INTEGRAL =      0.98 TIME LEFT: 172799.01
 STEP:  26 TIME =     0.04 SECS, INTEGRAL =      1.02 TIME LEFT: 172798.97
 STEP:  27 TIME =     0.04 SECS, INTEGRAL =      1.05 TIME LEFT: 172798.94
 STEP:  28 TIME =     0.04 SECS, INTEGRAL =      1.09 TIME LEFT: 172798.90
 STEP:  29 TIME =     0.04 SECS, INTEGRAL =      1.13 TIME LEFT: 172798.86
 STEP:  30 TIME =     0.04 SECS, INTEGRAL =      1.16 TIME LEFT: 172798.82
 STEP:  31 TIME =     0.04 SECS, INTEGRAL =      1.20 TIME LEFT: 172798.79
 STEP:  32 TIME =     0.04 SECS, INTEGRAL =      1.24 TIME LEFT: 172798.75
 STEP:  33 TIME =     0.04 SECS, INTEGRAL =      1.27 TIME LEFT: 172798.71
 STEP:  34 TIME =     0.04 SECS, INTEGRAL =      1.31 TIME LEFT: 172798.68
 STEP:  35 TIME =     0.04 SECS, INTEGRAL =      1.35 TIME LEFT: 172798.64
 STEP:  36 TIME =     0.04 SECS, INTEGRAL =      1.38 TIME LEFT: 172798.60
 STEP:  37 TIME =     0.04 SECS, INTEGRAL =      1.42 TIME LEFT: 172798.57
 STEP:  38 TIME =     0.04 SECS, INTEGRAL =      1.46 TIME LEFT: 172798.53
 STEP:  39 TIME =     0.04 SECS, INTEGRAL =      1.49 TIME LEFT: 172798.50
 STEP:  40 TIME =     0.04 SECS, INTEGRAL =      1.53 TIME LEFT: 172798.46
 STEP:  41 TIME =     0.04 SECS, INTEGRAL =      1.56 TIME LEFT: 172798.42
 STEP:  42 TIME =     0.04 SECS, INTEGRAL =      1.60 TIME LEFT: 172798.39
 STEP:  43 TIME =     0.04 SECS, INTEGRAL =      1.64 TIME LEFT: 172798.35
 STEP:  44 TIME =     0.04 SECS, INTEGRAL =      1.67 TIME LEFT: 172798.32
 STEP:  45 TIME =     0.04 SECS, INTEGRAL =      1.71 TIME LEFT: 172798.28
 STEP:  46 TIME =     0.04 SECS, INTEGRAL =      1.74 TIME LEFT: 172798.24
 STEP:  47 TIME =     0.03 SECS, INTEGRAL =      1.78 TIME LEFT: 172798.21
 STEP:  48 TIME =     0.04 SECS, INTEGRAL =      1.81 TIME LEFT: 172798.17
 STEP:  49 TIME =     0.04 SECS, INTEGRAL =      1.85 TIME LEFT: 172798.14
 STEP:  50 TIME =     0.04 SECS, INTEGRAL =      1.89 TIME LEFT: 172798.10
 STEP:  51 TIME =     0.04 SECS, INTEGRAL =      1.92 TIME LEFT: 172798.07
 STEP:  52 TIME =     0.03 SECS, INTEGRAL =      1.96 TIME LEFT: 172798.03
 STEP:  53 TIME =     0.04 SECS, INTEGRAL =      1.99 TIME LEFT: 172798.00
 STEP:  54 TIME =     0.04 SECS, INTEGRAL =      2.03 TIME LEFT: 172797.95
 STEP:  55 TIME =     0.04 SECS, INTEGRAL =      2.07 TIME LEFT: 172797.92
 STEP:  56 TIME =     0.04 SECS, INTEGRAL =      2.11 TIME LEFT: 172797.88
 STEP:  57 TIME =     0.04 SECS, INTEGRAL =      2.14 TIME LEFT: 172797.85
 STEP:  58 TIME =     0.04 SECS, INTEGRAL =      2.18 TIME LEFT: 172797.81
 STEP:  59 TIME =     0.04 SECS, INTEGRAL =      2.21 TIME LEFT: 172797.78
 STEP:  60 TIME =     0.04 SECS, INTEGRAL =      2.25 TIME LEFT: 172797.74
 STEP:  61 TIME =     0.04 SECS, INTEGRAL =      2.28 TIME LEFT: 172797.70
 STEP:  62 TIME =     0.04 SECS, INTEGRAL =      2.32 TIME LEFT: 172797.67
 STEP:  63 TIME =     0.04 SECS, INTEGRAL =      2.36 TIME LEFT: 172797.63
 STEP:  64 TIME =     0.03 SECS, INTEGRAL =      2.39 TIME LEFT: 172797.60
 STEP:  65 TIME =     0.04 SECS, INTEGRAL =      2.43 TIME LEFT: 172797.56
 STEP:  66 TIME =     0.04 SECS, INTEGRAL =      2.47 TIME LEFT: 172797.52
 STEP:  67 TIME =     0.04 SECS, INTEGRAL =      2.50 TIME LEFT: 172797.48
 STEP:  68 TIME =     0.04 SECS, INTEGRAL =      2.54 TIME LEFT: 172797.45
 STEP:  69 TIME =     0.04 SECS, INTEGRAL =      2.58 TIME LEFT: 172797.41
 STEP:  70 TIME =     0.04 SECS, INTEGRAL =      2.61 TIME LEFT: 172797.38
 STEP:  71 TIME =     0.04 SECS, INTEGRAL =      2.65 TIME LEFT: 172797.34
 STEP:  72 TIME =     0.04 SECS, INTEGRAL =      2.68 TIME LEFT: 172797.30

(To convert to Hartree/Bohr^2, multiply by (10^(-21) x N x a0^2)/(4.184 x 627.51) = 0.0642)


           FORCE MATRIX IN MILLIDYNES/ANGSTROM


                  C  1       C  2       C  3       C  4       C  5       C  6
 ------------------------------------------------------------------------------
     C    1  14.512785
     C    2   3.025489  14.810509
     C    3   1.765313   3.179626  14.740585
     C    4   3.589092   1.797414   3.366788  14.333405
     C    5   3.869807   0.706257   0.047368   0.507470  14.674508
     C    6   0.001723   0.008215   0.139464   0.010685   0.000597  14.723722
     C    7   0.833957   4.758094   0.551129   0.046046   1.124672   0.001517
     C    8   0.036788   0.551927   5.068599   0.574615   0.002298   0.849774
     C    9   0.901462   1.190422   0.043257   0.030728   4.579306   0.000666
     C   10   0.006498   0.052383   0.820235   0.048564   0.000996   5.272083
     H   11   4.590086   0.419798   0.028500   0.427065   0.425122   0.000383
     H   12   0.409282   4.540847   0.435198   0.028306   0.030692   0.001720
     H   13   0.026470   0.441391   4.385929   0.430251   0.003073   0.016166
     H   14   0.443485   0.028005   0.453216   4.670873   0.034761   0.001069
     H   15   0.450005   0.030018   0.438276   4.673916   0.024396   0.001351
     H   16   0.438231   0.023378   0.004929   0.033308   4.523895   0.000202
     H   17   0.443954   0.033717   0.001978   0.031920   4.494124   0.000252
     H   18   0.000381   0.001386   0.018767   0.000856   0.000419   4.704991
     H   19   0.000380   0.000892   0.018059   0.001857   0.000386   4.705021
     H   20   0.000392   0.000289   0.002542   0.000481   0.000217   4.723204
     H   21   0.042616   0.113716   0.016779   0.003457   0.410932   0.000358
     H   22   0.041082   0.416487   0.006734   0.002588   0.113635   0.000844
     H   23   0.002030   0.033501   0.432308   0.032806   0.000409   0.082754
     H   24   0.001880   0.017335   0.082773   0.003067   0.000767   0.423513


                  C  7       C  8       C  9       C 10       H 11       H 12
 ------------------------------------------------------------------------------
     C    7  18.314418
     C    8   0.035071  18.269347
     C    9  10.474462   0.006080  18.247417
     C   10   0.004965  10.658502   0.001495  18.169611
     H   11   0.033590   0.002396   0.033399   0.000817   5.091115
     H   12   0.417866   0.018044   0.039471   0.014908   0.015517   5.055276
     H   13   0.026292   0.391448   0.004731   0.024502   0.001171   0.026932
     H   14   0.001696   0.028821   0.001916   0.002854   0.027383   0.002651
     H   15   0.003655   0.034134   0.002196   0.005514   0.029027   0.001135
     H   16   0.037962   0.000911   0.429638   0.000408   0.032480   0.001105
     H   17   0.038588   0.000617   0.431735   0.000377   0.020425   0.004454
     H   18   0.000396   0.035894   0.000197   0.438403   0.000095   0.000338
     H   19   0.000685   0.035014   0.000196   0.439412   0.000140   0.000440
     H   20   0.000318   0.041388   0.000338   0.479656   0.000104   0.000449
     H   21   0.447762   0.002053   5.013642   0.000366   0.003981   0.012707
     H   22   5.026153   0.001967   0.448683   0.000922   0.003656   0.013784
     H   23   0.005309   4.753895   0.001188   0.469951   0.000750   0.002851
     H   24   0.003509   0.472985   0.001054   4.774390   0.000444   0.024746


                  H 13       H 14       H 15       H 16       H 17       H 18
 ------------------------------------------------------------------------------
     H   13   4.867480
     H   14   0.031381   5.295156
     H   15   0.026577   0.549467   5.297253
     H   16   0.000673   0.003604   0.002583   5.124418
     H   17   0.000587   0.002539   0.028889   0.564886   5.107234
     H   18   0.002470   0.000218   0.000144   0.000067   0.000075   5.424723
     H   19   0.001930   0.000228   0.000318   0.000072   0.000075   0.575925
     H   20   0.000425   0.000225   0.000115   0.000073   0.000068   0.563955
     H   21   0.000936   0.000642   0.000656   0.014773   0.014080   0.000128
     H   22   0.003461   0.000634   0.000685   0.015921   0.015319   0.000224
     H   23   0.014309   0.029721   0.001937   0.000140   0.000211   0.009336
     H   24   0.009441   0.000638   0.000635   0.000285   0.000161   0.023845


                  H 19       H 20       H 21       H 22       H 23       H 24
 ------------------------------------------------------------------------------
     H   19   5.425020
     H   20   0.564981   5.449706
     H   21   0.000140   0.000109   5.408248
     H   22   0.000194   0.000185   0.047205   5.421675
     H   23   0.009243   0.029765   0.000449   0.000604   5.128336
     H   24   0.023801   0.041524   0.000376   0.001176   0.103156   5.152489


          HEAT OF FORMATION =      24.603570 KCALS/MOLE

          ZERO POINT ENERGY     132.881 KCAL/MOL


           NORMAL COORDINATE ANALYSIS (Total motion = 1 Angstrom)


   Root No.       1         2         3         4         5         6         7         8

                 1 A       2 A       3 A       4 A       5 A       6 A       7 A       8 A   

                  76.0     122.7     126.3     164.8     187.4     244.8     331.8     341.7
  
           1    0.0213   -0.0006   -0.0014    0.0038   -0.0046   -0.0100   -0.0273   -0.0064
           2    0.0032   -0.0108    0.0047   -0.0023    0.0034   -0.0076    0.0070   -0.0158
           3    0.0145   -0.0017   -0.0045    0.0042   -0.0044    0.0169   -0.0221   -0.0129
           4    0.0213    0.0002   -0.0009    0.0037   -0.0049   -0.0097   -0.0283   -0.0057
           5    0.0091   -0.0230   -0.0116    0.0039    0.0022   -0.0224    0.0092   -0.0179
           6   -0.0226   -0.0041   -0.0046   -0.0008    0.0030    0.0340   -0.0027    0.0023
           7    0.0163    0.0113    0.0156   -0.0034   -0.0011    0.0057   -0.0094    0.0056
           8    0.0089   -0.0230   -0.0117    0.0041    0.0004   -0.0225    0.0044   -0.0100
           9   -0.0207    0.0065    0.0053   -0.0107    0.0113   -0.0079    0.0094    0.0145
          10    0.0159    0.0111    0.0153   -0.0033   -0.0009    0.0064   -0.0156    0.0041
          11    0.0033   -0.0119    0.0046   -0.0028    0.0049   -0.0068    0.0104   -0.0165
          12   -0.0104    0.0228   -0.0186    0.0210   -0.0297   -0.0141    0.0133   -0.0056
          13   -0.0091   -0.0099   -0.0116    0.0043    0.0011    0.0019   -0.0029   -0.0119
          14   -0.0193    0.0200   -0.0004    0.0113   -0.0250   -0.0075   -0.0368   -0.0148
          15    0.0364   -0.0147    0.0018   -0.0033    0.0087    0.0135   -0.0113   -0.0143
          16   -0.0288   -0.0060   -0.0035   -0.0076    0.0289   -0.0196   -0.0005    0.0431
          17   -0.0086    0.0503    0.0238   -0.0046    0.0112   -0.0073    0.0099   -0.0130
          18    0.0286    0.0006    0.0116   -0.0032   -0.0199   -0.0013    0.0195    0.0319
          19   -0.0093   -0.0093   -0.0115    0.0047    0.0002    0.0018   -0.0056   -0.0138
          20    0.0095   -0.0132   -0.0078   -0.0051    0.0222    0.0100    0.0264   -0.0132
          21   -0.0322   -0.0123   -0.0103    0.0043   -0.0056    0.0226   -0.0031   -0.0066
          22    0.0098    0.0160   -0.0014    0.0115   -0.0092    0.0123    0.0432   -0.0002
          23    0.0093   -0.0082   -0.0225    0.0192   -0.0030    0.0021   -0.0042    0.0588
          24   -0.0170   -0.0053    0.0212   -0.0282    0.0182   -0.0295   -0.0128   -0.0092
          25   -0.0253   -0.0142   -0.0165    0.0045    0.0034    0.0065    0.0088   -0.0116
          26   -0.0067    0.0123   -0.0013   -0.0019    0.0110    0.0626   -0.0197   -0.0038
          27    0.0006   -0.0184   -0.0063    0.0031   -0.0045   -0.0113   -0.0001   -0.0163
          28   -0.0070    0.0035    0.0162   -0.0172   -0.0222    0.0084    0.0395   -0.0101
          29   -0.0057   -0.0054    0.0164   -0.0233   -0.0295    0.0008   -0.0053    0.0588
          30    0.0145    0.0271    0.0043    0.0133    0.0331   -0.0210    0.0009    0.0177
          31    0.0448   -0.0031   -0.0054    0.0080   -0.0089   -0.0295   -0.0373   -0.0143
          32    0.0165   -0.0234    0.0183   -0.0155    0.0227    0.0106    0.0081   -0.0155
          33    0.0343   -0.0097    0.0003   -0.0005    0.0032    0.0151   -0.0261   -0.0169
          34    0.0435   -0.0011   -0.0026    0.0053   -0.0089   -0.0182   -0.0424   -0.0126
          35    0.0083   -0.0333   -0.0214    0.0113   -0.0098   -0.0189   -0.0031   -0.0291
          36   -0.0358   -0.0093   -0.0091    0.0025   -0.0013    0.0394   -0.0010   -0.0007
          37    0.0125    0.0045    0.0360   -0.0239    0.0211    0.0123   -0.0253    0.0075
          38    0.0137   -0.0248   -0.0102   -0.0007    0.0031   -0.0562    0.0025   -0.0291
          39   -0.0198    0.0021    0.0155   -0.0225    0.0221   -0.0215    0.0002    0.0054
          40    0.0190    0.0249    0.0041    0.0156   -0.0248    0.0071   -0.0071   -0.0071
          41    0.0172   -0.0236    0.0188   -0.0164    0.0236    0.0174   -0.0136   -0.0205
          42   -0.0159    0.0358   -0.0314    0.0376   -0.0518   -0.0259    0.0295   -0.0095
          43    0.0095    0.0042    0.0352   -0.0256    0.0264    0.0154   -0.0161    0.0169
          44   -0.0135    0.0069    0.0004    0.0066   -0.0112   -0.0207    0.0360   -0.0116
          45   -0.0162    0.0366   -0.0316    0.0381   -0.0531   -0.0265    0.0284   -0.0099
          46    0.0118   -0.0256   -0.0087   -0.0109    0.0388    0.0597    0.0273   -0.0035
          47   -0.0270    0.0266   -0.0008    0.0192   -0.0457   -0.0458   -0.0516   -0.0204
          48    0.0664   -0.0332    0.0101   -0.0139    0.0287    0.0110    0.0153   -0.0141
          49   -0.0399    0.0021   -0.0180    0.0192   -0.0332   -0.0504   -0.0214   -0.0212
          50   -0.0373    0.0421   -0.0036    0.0247   -0.0558   -0.0340   -0.0747   -0.0180
          51    0.0485   -0.0036    0.0049   -0.0044    0.0115    0.0393   -0.0310   -0.0080
          52   -0.0127    0.0168   -0.0657   -0.0747    0.0138   -0.0200   -0.0017    0.0534
          53   -0.0268   -0.0020    0.1451    0.1069   -0.0006    0.0115    0.0330   -0.0363
          54    0.0545   -0.0022   -0.0125   -0.0583   -0.0879    0.0256    0.0505    0.0302
          55   -0.0650   -0.0527    0.1148    0.1270    0.0712   -0.0261   -0.0090    0.0396
          56   -0.0071    0.0992    0.0034   -0.0133    0.0458   -0.0189    0.0136   -0.0682
          57    0.0388    0.0552   -0.0355   -0.0441    0.0001   -0.0099    0.0249   -0.0151
          58   -0.0273    0.0098   -0.0717   -0.0613    0.0497   -0.0393   -0.0304    0.0855
          59    0.0044    0.0997   -0.0654   -0.0841    0.0287   -0.0234   -0.0045   -0.0144
          60    0.0056   -0.0717    0.0841    0.0718   -0.0236    0.0013    0.0044    0.0941
          61   -0.0477   -0.0204   -0.0232    0.0043    0.0072    0.0133    0.0276   -0.0078
          62   -0.0114    0.0260    0.0026   -0.0072    0.0235    0.1330   -0.0361    0.0086
          63    0.0029   -0.0253   -0.0083    0.0057   -0.0107   -0.0464    0.0081   -0.0226
          64   -0.0164   -0.0111   -0.0137    0.0049    0.0011    0.0048   -0.0002   -0.0146
          65    0.0209   -0.0256   -0.0106   -0.0136    0.0467    0.0172    0.0711   -0.0176
          66   -0.0622   -0.0137   -0.0170    0.0087   -0.0125    0.0304   -0.0025   -0.0080
          67    0.0146    0.0261   -0.0298    0.0434    0.0115    0.0149    0.0634    0.0015
          68    0.0238    0.0206   -0.0571    0.0673    0.0272    0.0106    0.0139    0.0873
          69   -0.0368   -0.0430    0.0482   -0.0744   -0.0110   -0.0415   -0.0180   -0.0607
          70   -0.0067   -0.0004    0.0467   -0.0447   -0.0557    0.0135    0.0495   -0.0421
          71   -0.0171   -0.0351    0.0506   -0.0675   -0.0709    0.0003   -0.0114    0.0341
          72    0.0355    0.0763   -0.0182    0.0578    0.0644   -0.0133    0.0263    0.0179


   Root No.       9        10        11        12        13        14        15        16

                 9 A      10 A      11 A      12 A      13 A      14 A      15 A      16 A   

                 445.2     482.6     562.9     650.5     740.0     772.1     819.1     860.9
  
           1   -0.0018   -0.0078    0.0140   -0.0089   -0.0027    0.0123    0.0481   -0.0066
           2   -0.0193    0.0200   -0.0003    0.0261    0.0117    0.0126    0.0203    0.0027
           3    0.0157   -0.0098   -0.0126    0.0284   -0.0390   -0.0235   -0.0229   -0.0018
           4   -0.0003   -0.0070    0.0131   -0.0150    0.0270    0.0166    0.0299   -0.0034
           5   -0.0105   -0.0208   -0.0011   -0.0269   -0.0074   -0.0108   -0.0106   -0.0147
           6    0.0171    0.0068    0.0032   -0.0203   -0.0158    0.0021    0.0477    0.0006
           7    0.0001    0.0259   -0.0008   -0.0291   -0.0098   -0.0121   -0.0153    0.0012
           8   -0.0164   -0.0229    0.0103   -0.0268   -0.0265    0.0026   -0.0103    0.0068
           9    0.0122    0.0045    0.0621    0.0221    0.0128    0.0039    0.0048    0.0009
          10    0.0009    0.0361    0.0076   -0.0315   -0.0133   -0.0138   -0.0239   -0.0046
          11   -0.0187    0.0219   -0.0011    0.0293   -0.0085    0.0100    0.0068   -0.0082
          12   -0.0220    0.0301   -0.0004    0.0049   -0.0057   -0.0062   -0.0084    0.0012
          13   -0.0045    0.0047   -0.0034    0.0411   -0.0388   -0.0102    0.0182    0.0000
          14    0.0203   -0.0091   -0.0040    0.0206    0.0165   -0.0126    0.0202    0.0105
          15   -0.0032    0.0008   -0.0065    0.0280    0.0018    0.0081   -0.0114    0.0021
          16   -0.0040   -0.0138   -0.0288    0.0042    0.0021    0.0014    0.0015   -0.0060
          17   -0.0020   -0.0079   -0.0060    0.0017    0.0013    0.0011    0.0007   -0.0125
          18   -0.0012   -0.0181   -0.0239    0.0042    0.0003    0.0014    0.0035    0.0128
          19   -0.0021    0.0024   -0.0073    0.0231    0.0491    0.0143   -0.0402    0.0128
          20    0.0491    0.0199   -0.0154   -0.0183    0.0100   -0.0323    0.0099   -0.0070
          21   -0.0106   -0.0111   -0.0034   -0.0335   -0.0074    0.0078    0.0125   -0.0089
          22    0.0071   -0.0237    0.0099   -0.0007   -0.0032    0.0005    0.0000    0.0165
          23    0.0049    0.0087    0.0432   -0.0079   -0.0135   -0.0005   -0.0130    0.0350
          24   -0.0077    0.0033    0.0274   -0.0087   -0.0078    0.0006   -0.0141   -0.0125
          25   -0.0009    0.0061   -0.0086    0.0158   -0.0028   -0.0039   -0.0131    0.0005
          26   -0.0171   -0.0146   -0.0026   -0.0107    0.0323   -0.0129   -0.0115    0.0012
          27    0.0227    0.0027   -0.0112   -0.0202    0.0559    0.0213   -0.0220    0.0048
          28    0.0057   -0.0240    0.0129    0.0024    0.0000    0.0022   -0.0023   -0.0054
          29   -0.0003    0.0056   -0.0185    0.0109    0.0079   -0.0003    0.0005   -0.0170
          30   -0.0069   -0.0110   -0.0288   -0.0030   -0.0026   -0.0006    0.0027    0.0120
          31   -0.0068   -0.0323    0.0166   -0.0120    0.0235    0.0225    0.0299   -0.0246
          32   -0.0178    0.0342   -0.0022    0.0476    0.0045    0.0247    0.0123    0.0050
          33    0.0124   -0.0149   -0.0117    0.0380   -0.0272   -0.0108   -0.0361   -0.0097
          34    0.0109   -0.0274    0.0067   -0.0120   -0.0075   -0.0043    0.0473   -0.0259
          35   -0.0307   -0.0541   -0.0264   -0.0632   -0.0368    0.0057   -0.0080   -0.0307
          36   -0.0013   -0.0002   -0.0067   -0.0419   -0.0118    0.0230    0.0392    0.0038
          37    0.0124    0.0475    0.0131   -0.0375   -0.0225   -0.0260   -0.0315   -0.0265
          38   -0.0315   -0.0493    0.0243   -0.0311   -0.0157    0.0093   -0.0556   -0.0271
          39    0.0091    0.0018    0.0735    0.0150    0.0106    0.0010   -0.0242   -0.0278
          40   -0.0287    0.0819   -0.0518   -0.0623   -0.0309   -0.0209   -0.0447   -0.0245
          41    0.0169   -0.0069   -0.0013    0.0796   -0.0496   -0.0325   -0.0515   -0.0068
          42   -0.0566    0.0705   -0.0320   -0.0373    0.0066    0.0129    0.0116   -0.0101
          43    0.0323    0.0206    0.0636    0.0092    0.0038   -0.0210   -0.0439    0.0000
          44   -0.0508    0.0792   -0.0045    0.0017    0.0346    0.0462    0.0324   -0.0210
          45   -0.0578    0.0718   -0.0334   -0.0342    0.0085    0.0175    0.0166   -0.0093
          46   -0.0907    0.0144    0.0102    0.0473    0.0156   -0.0878    0.0704    0.0226
          47    0.0683   -0.0106   -0.0106    0.0199   -0.0141    0.0402    0.0026   -0.0015
          48   -0.0528    0.0277    0.0084    0.0423    0.0418    0.0142    0.0808    0.0199
          49    0.0776    0.0005   -0.0228    0.0407   -0.0946    0.0576   -0.0541   -0.0204
          50    0.0872   -0.0310   -0.0147    0.0149   -0.0477    0.0187   -0.0324   -0.0139
          51   -0.0197   -0.0167    0.0027    0.0231   -0.0085   -0.0314    0.0100   -0.0024
          52   -0.0033   -0.0130   -0.0321    0.0098    0.0078    0.0022    0.0019   -0.0355
          53    0.0046   -0.0155    0.0256    0.0012   -0.0014    0.0031   -0.0081   -0.0196
          54    0.0114   -0.0263    0.0164    0.0223    0.0156    0.0073   -0.0096   -0.1014
          55   -0.0090   -0.0137   -0.0468   -0.0059   -0.0077   -0.0010    0.0084    0.0656
          56   -0.0066   -0.0157    0.0023   -0.0190   -0.0197   -0.0002   -0.0009    0.0901
          57   -0.0039   -0.0253   -0.0129   -0.0108   -0.0151    0.0010    0.0006    0.0828
          58   -0.0122   -0.0040   -0.0735    0.0064    0.0058   -0.0010    0.0144    0.0064
          59   -0.0080   -0.0051   -0.0238   -0.0050   -0.0044   -0.0007    0.0058    0.0276
          60   -0.0015   -0.0094   -0.0513    0.0195    0.0156    0.0014    0.0113   -0.0447
          61    0.0032    0.0079   -0.0102   -0.0380   -0.0177   -0.0187    0.0075   -0.0246
          62   -0.0547   -0.0249   -0.0055   -0.0185   -0.0593    0.2366   -0.0815   -0.0146
          63    0.0416    0.0079   -0.0100   -0.0165    0.1019   -0.1033    0.0129    0.0125
          64   -0.0032    0.0040   -0.0111    0.0273    0.0356    0.0021   -0.0463    0.0097
          65    0.1346    0.0808   -0.0592   -0.0191   -0.0785    0.1613    0.0407    0.0161
          66   -0.0504   -0.0306    0.0005   -0.0173   -0.0203   -0.1172   -0.0204   -0.0301
          67    0.0160   -0.0382    0.0617    0.0173    0.0041    0.0088   -0.0100   -0.0354
          68    0.0201    0.0030    0.0873    0.0257    0.0135    0.0049   -0.0224   -0.0569
          69   -0.0246   -0.0057    0.0125   -0.0461   -0.0480    0.0016   -0.0104    0.0879
          70    0.0001   -0.0359   -0.0250   -0.0074   -0.0061    0.0004    0.0174    0.0537
          71   -0.0097    0.0074   -0.0451   -0.0094   -0.0098   -0.0051    0.0108    0.0909
          72    0.0032   -0.0298   -0.0253    0.0209    0.0207    0.0059    0.0080   -0.1058


   Root No.      17        18        19        20        21        22        23        24

                17 A      18 A      19 A      20 A      21 A      22 A      23 A      24 A   

                 891.8     897.3     921.0     950.7     965.0     971.3     995.2    1009.5
  
           1    0.0019   -0.0091    0.0054    0.0248    0.0141   -0.0067   -0.0024   -0.0166
           2    0.0001    0.0023    0.0008    0.0006   -0.0042    0.0141   -0.0026   -0.0057
           3    0.0044    0.0070   -0.0029   -0.0146    0.0044    0.0003   -0.0102    0.0069
           4    0.0155   -0.0050    0.0033   -0.0343   -0.0037    0.0081   -0.0024    0.0026
           5    0.0101    0.0004   -0.0062    0.0094   -0.0057    0.0063    0.0047    0.0289
           6   -0.0013   -0.0068    0.0045   -0.0180   -0.0033    0.0018   -0.0009   -0.0127
           7   -0.0057    0.0075   -0.0023    0.0160   -0.0013    0.0108   -0.0059    0.0095
           8   -0.0124    0.0089    0.0020   -0.0028   -0.0062   -0.0082    0.0009   -0.0230
           9    0.0111   -0.0079    0.0025    0.0039   -0.0071   -0.0047   -0.0017    0.0117
          10    0.0083    0.0093   -0.0002   -0.0037   -0.0110   -0.0064    0.0185   -0.0143
          11    0.0213   -0.0171    0.0089   -0.0080    0.0234   -0.0161   -0.0090    0.0003
          12    0.0324    0.0160    0.0089    0.0050    0.0037    0.0088    0.0071   -0.0099
          13   -0.0143   -0.0008   -0.0045   -0.0024   -0.0165    0.0062    0.0097    0.0087
          14   -0.0142    0.0330   -0.0127    0.0100   -0.0072    0.0085   -0.0008    0.0122
          15   -0.0190   -0.0154    0.0004    0.0127   -0.0104   -0.0042    0.0134   -0.0009
          16   -0.0090    0.0017   -0.0009   -0.0083    0.0215    0.0130    0.0181   -0.0043
          17   -0.0022    0.0035    0.0027   -0.0005   -0.0060   -0.0043   -0.0051   -0.0120
          18    0.0006   -0.0046   -0.0029   -0.0022    0.0055    0.0013    0.0032    0.0053
          19   -0.0058    0.0030    0.0016   -0.0031    0.0040   -0.0080   -0.0034   -0.0061
          20    0.0034   -0.0217    0.0074    0.0076   -0.0069    0.0236   -0.0013   -0.0046
          21    0.0073    0.0083   -0.0043    0.0078    0.0053   -0.0068    0.0030    0.0064
          22    0.0019   -0.0015    0.0143    0.0040   -0.0091   -0.0054   -0.0076    0.0022
          23   -0.0143   -0.0007    0.0207   -0.0046    0.0077    0.0021   -0.0067    0.0021
          24   -0.0183    0.0039   -0.0214   -0.0050    0.0059    0.0020   -0.0097   -0.0041
          25    0.0001    0.0009   -0.0002    0.0057    0.0036   -0.0021   -0.0013   -0.0008
          26   -0.0025   -0.0075    0.0026   -0.0082    0.0063   -0.0182    0.0036   -0.0103
          27    0.0025    0.0047    0.0001   -0.0029   -0.0030    0.0104   -0.0049    0.0072
          28   -0.0091    0.0019    0.0045   -0.0012   -0.0004   -0.0012   -0.0060    0.0062
          29    0.0027    0.0039    0.0095    0.0035   -0.0034   -0.0013    0.0004    0.0112
          30    0.0059   -0.0033   -0.0079    0.0017   -0.0023   -0.0003    0.0003   -0.0079
          31    0.0388   -0.0206    0.0157    0.1336    0.0978   -0.0250   -0.0445    0.0045
          32   -0.0302   -0.0362    0.0022   -0.0633   -0.0413    0.0004    0.0219   -0.0309
          33    0.0068   -0.0191    0.0033    0.0155    0.0307   -0.0167   -0.0202    0.0049
          34    0.0567   -0.0188   -0.0097   -0.1209   -0.0047    0.0180   -0.0178    0.0835
          35    0.0293    0.0177   -0.0339   -0.0419   -0.0167   -0.0150    0.0347    0.0617
          36   -0.0138    0.0105   -0.0031    0.0069   -0.0075   -0.0159    0.0243   -0.0413
          37   -0.0464   -0.0136   -0.0360    0.0399    0.0219    0.0076   -0.0756    0.0962
          38    0.0052    0.0456   -0.0302   -0.0117   -0.0596   -0.0210    0.0531   -0.0593
          39   -0.0017    0.0002   -0.0292    0.0106   -0.0215   -0.0122   -0.0112    0.0342
          40   -0.0612   -0.0112   -0.0408   -0.0591    0.0167   -0.0066   -0.0748   -0.0151
          41    0.1110    0.0485    0.0146   -0.0433    0.0677    0.0187   -0.0685   -0.0515
          42   -0.0520   -0.0300   -0.0153   -0.0083   -0.0046   -0.0097   -0.0120    0.0164
          43    0.1153    0.0238    0.0363    0.0314   -0.0359   -0.0230    0.1325    0.0186
          44   -0.0230   -0.0928    0.0086   -0.0115   -0.0080   -0.0704    0.0654    0.0743
          45   -0.0528   -0.0354   -0.0122   -0.0152   -0.0003   -0.0127   -0.0145    0.0155
          46   -0.0163    0.1014   -0.0360   -0.0224   -0.0145    0.0041   -0.0042    0.0653
          47   -0.0153   -0.0236    0.0054    0.0355   -0.0133    0.0261    0.0066   -0.0330
          48   -0.0305    0.0493   -0.0147    0.0765   -0.0356    0.0821    0.0031   -0.0444
          49   -0.0050   -0.0933    0.0240   -0.0189   -0.0312    0.0257    0.0153   -0.0266
          50   -0.0218   -0.0623    0.0094    0.0117    0.0063   -0.0589    0.0312    0.0105
          51   -0.0361   -0.0177   -0.0064    0.0318    0.0187   -0.0941    0.0411    0.0348
          52   -0.0117    0.0094    0.0052   -0.0083    0.0128    0.0084    0.0132   -0.0201
          53   -0.0355    0.0085   -0.0002   -0.0235    0.0615    0.0374    0.0456   -0.0121
          54   -0.0607    0.0305    0.0140   -0.0371    0.0788    0.0495    0.0633   -0.0487
          55    0.0165   -0.0198   -0.0132    0.0023    0.0062    0.0006    0.0046    0.0295
          56   -0.0050   -0.0232   -0.0222   -0.0128    0.0554    0.0296    0.0375    0.0372
          57   -0.0086   -0.0221   -0.0213   -0.0160    0.0632    0.0341    0.0442    0.0391
          58    0.0355   -0.0061    0.0034    0.0205   -0.0688   -0.0447   -0.0514   -0.0062
          59    0.0183   -0.0089   -0.0038    0.0100   -0.0297   -0.0207   -0.0249    0.0036
          60    0.0226    0.0079    0.0152    0.0172   -0.0738   -0.0475   -0.0558   -0.0276
          61    0.0475   -0.0048    0.0076    0.0094    0.0444    0.0018   -0.0292   -0.0086
          62    0.0297   -0.0131    0.0044    0.0349   -0.0363    0.1060   -0.0212    0.0365
          63   -0.0137    0.0075   -0.0009   -0.0231    0.0185   -0.0516    0.0076   -0.0161
          64   -0.0095    0.0019    0.0002    0.0256    0.0085   -0.0101    0.0007   -0.0067
          65   -0.0135    0.1389   -0.0496    0.0267    0.0436   -0.1035    0.0193    0.0244
          66   -0.0003   -0.0626    0.0142    0.1041   -0.0010    0.0393    0.0101   -0.0072
          67   -0.0076   -0.0108   -0.1141   -0.0123   -0.0227   -0.0287   -0.0458   -0.0407
          68   -0.0077   -0.0141   -0.1829   -0.0067    0.0079   -0.0001   -0.0121   -0.0233
          69   -0.0425    0.0167    0.1837   -0.0229   -0.0106   -0.0236   -0.0479   -0.0137
          70    0.0425   -0.0313   -0.0929    0.0088   -0.0441   -0.0272   -0.0296   -0.0198
          71    0.0540   -0.0448   -0.1461    0.0124   -0.0117   -0.0059    0.0001   -0.0291
          72   -0.0225    0.0422    0.1480   -0.0021   -0.0403   -0.0239   -0.0280    0.0307


   Root No.      25        26        27        28        29        30        31        32

                25 A      26 A      27 A      28 A      29 A      30 A      31 A      32 A   

                1026.3    1032.0    1044.3    1077.6    1082.3    1102.6    1104.9    1130.2
  
           1    0.0047    0.0001   -0.0124   -0.0036    0.0004   -0.0130    0.0004    0.0105
           2   -0.0005    0.0098    0.0171   -0.0157    0.0036   -0.0064   -0.0019   -0.0182
           3    0.0036   -0.0052    0.0074   -0.0039   -0.0075    0.0171   -0.0097    0.0005
           4    0.0006    0.0030    0.0081   -0.0069    0.0090   -0.0046    0.0071   -0.0142
           5   -0.0149    0.0073    0.0044    0.0021    0.0082    0.0037    0.0094   -0.0213
           6   -0.0039    0.0040   -0.0144    0.0025    0.0092    0.0012    0.0019    0.0052
           7   -0.0167    0.0133    0.0139   -0.0232    0.0106   -0.0102   -0.0056   -0.0069
           8    0.0036   -0.0020   -0.0104   -0.0055   -0.0009   -0.0035   -0.0227    0.0252
           9    0.0013   -0.0024    0.0050    0.0042   -0.0041    0.0037    0.0256   -0.0107
          10    0.0160   -0.0085   -0.0112    0.0146   -0.0116    0.0075   -0.0005   -0.0045
          11   -0.0024   -0.0048   -0.0168    0.0040   -0.0034   -0.0046    0.0013    0.0214
          12   -0.0085    0.0102   -0.0003   -0.0057    0.0166   -0.0129   -0.0087    0.0078
          13   -0.0139    0.0104   -0.0127   -0.0041   -0.0178   -0.0002    0.0016    0.0030
          14    0.0067   -0.0160   -0.0066    0.0042   -0.0036    0.0111   -0.0013   -0.0011
          15   -0.0030    0.0053    0.0045    0.0031    0.0044   -0.0017    0.0034    0.0052
          16   -0.0051   -0.0074    0.0012    0.0011   -0.0029    0.0013    0.0051    0.0041
          17   -0.0132   -0.0141    0.0034    0.0017   -0.0025    0.0016   -0.0031   -0.0003
          18    0.0158    0.0097   -0.0082    0.0033   -0.0008    0.0014   -0.0070    0.0016
          19   -0.0014   -0.0020   -0.0049    0.0101    0.0161   -0.0015    0.0009    0.0030
          20    0.0058   -0.0098   -0.0148   -0.0030    0.0015    0.0019    0.0011   -0.0015
          21    0.0039    0.0026    0.0143   -0.0065   -0.0156   -0.0058   -0.0003    0.0010
          22   -0.0066   -0.0049    0.0067   -0.0035   -0.0019    0.0001    0.0114   -0.0011
          23   -0.0083   -0.0103    0.0085    0.0041   -0.0014    0.0016    0.0032   -0.0051
          24    0.0019    0.0063   -0.0038    0.0021    0.0090   -0.0039   -0.0276   -0.0149
          25    0.0079   -0.0071    0.0086    0.0031    0.0122    0.0057    0.0008   -0.0004
          26   -0.0099    0.0256    0.0179    0.0050   -0.0141   -0.0030   -0.0031    0.0083
          27   -0.0041   -0.0067   -0.0202   -0.0116   -0.0173   -0.0045   -0.0062    0.0069
          28    0.0101    0.0110   -0.0042    0.0000    0.0044   -0.0016   -0.0094   -0.0048
          29    0.0178    0.0190   -0.0069   -0.0031    0.0033   -0.0026   -0.0008    0.0000
          30   -0.0189   -0.0152    0.0099   -0.0040   -0.0021   -0.0005    0.0127   -0.0014
          31   -0.0118    0.0105   -0.0086    0.0177   -0.1043    0.0795   -0.0025   -0.0961
          32    0.0487   -0.0084    0.0838   -0.0609    0.0532   -0.0142   -0.0155   -0.1113
          33    0.0198   -0.0086    0.0450   -0.0152   -0.0398    0.0665   -0.0193   -0.1068
          34    0.0380   -0.0650    0.0885    0.0597   -0.0295   -0.0836   -0.0444    0.0712
          35   -0.0383    0.0176   -0.0049    0.1283    0.0980    0.0525    0.0488   -0.0507
          36   -0.0388    0.0499   -0.0665    0.0324    0.0809    0.0743    0.0557   -0.0622
          37   -0.0602    0.0319    0.0170    0.0017    0.0455   -0.0054    0.0241    0.1695
          38    0.0824    0.0188    0.0108   -0.0809   -0.0773    0.0086    0.1491    0.0590
          39    0.0188    0.0169    0.0168   -0.0207   -0.0239    0.0117    0.1237    0.0894
          40    0.0539   -0.0174   -0.0326    0.0591   -0.0431    0.0295    0.1142   -0.0594
          41    0.0055    0.0193   -0.0476    0.0254    0.0261   -0.0347    0.0818   -0.0112
          42    0.0085   -0.0074    0.0052    0.0061   -0.0152    0.0143    0.0114   -0.0046
          43   -0.0156   -0.0180   -0.0114    0.0316   -0.0147    0.0409   -0.0755    0.0174
          44   -0.0002   -0.0502   -0.0073    0.0304   -0.0579    0.0695   -0.0366    0.0187
          45    0.0095   -0.0098    0.0057    0.0004   -0.0128    0.0113    0.0115   -0.0052
          46   -0.0184   -0.0354   -0.0720   -0.0451   -0.0683    0.0017   -0.0150   -0.0343
          47    0.0174    0.0163    0.0461    0.0514    0.0318    0.0254    0.0103    0.0356
          48    0.0388    0.0139    0.0726    0.1189    0.0262    0.0739    0.0107    0.0809
          49   -0.0458    0.0868    0.0279    0.0119   -0.0802   -0.0057   -0.0121   -0.0010
          50    0.0027   -0.0216   -0.0177   -0.0456    0.0611   -0.0209    0.0194   -0.0078
          51    0.0256   -0.0796   -0.0493   -0.0657    0.1324   -0.0271    0.0378    0.0032
          52   -0.0271   -0.0278    0.0084    0.0020   -0.0056    0.0028    0.0063    0.0050
          53   -0.0179   -0.0210    0.0058    0.0023   -0.0063    0.0026    0.0106    0.0073
          54   -0.0680   -0.0704    0.0215    0.0057   -0.0150    0.0073    0.0189    0.0144
          55    0.0522    0.0415   -0.0215    0.0046    0.0020    0.0010   -0.0111    0.0049
          56    0.0616    0.0476   -0.0245    0.0054    0.0007    0.0013   -0.0070    0.0081
          57    0.0663    0.0506   -0.0270    0.0061    0.0004    0.0015   -0.0067    0.0094
          58    0.0074    0.0014   -0.0076    0.0079   -0.0001    0.0034   -0.0246   -0.0021
          59    0.0154    0.0103   -0.0083    0.0042    0.0006    0.0015   -0.0161   -0.0022
          60   -0.0202   -0.0247    0.0010    0.0095   -0.0033    0.0052   -0.0264   -0.0031
          61    0.0727   -0.0429    0.0982   -0.0854    0.0592    0.1808   -0.0366    0.0608
          62    0.0174   -0.0658   -0.0614   -0.0211   -0.0012    0.0023   -0.0038   -0.0030
          63   -0.0169    0.0383    0.0202    0.0006   -0.0243   -0.0065   -0.0063    0.0139
          64    0.0183   -0.0195    0.0134    0.0333    0.0165   -0.0592    0.0055   -0.0134
          65    0.0140    0.0064    0.0754    0.0305   -0.0195   -0.0885    0.0069   -0.0279
          66    0.0684   -0.0640    0.0385    0.0608   -0.0112   -0.1736    0.0140   -0.0462
          67    0.0204   -0.0072   -0.0318    0.0354    0.0005    0.0063   -0.0814    0.0019
          68    0.0178    0.0160   -0.0217    0.0089    0.0118   -0.0045   -0.0638   -0.0085
          69   -0.0098   -0.0447    0.0011    0.0434   -0.0124    0.0149   -0.0235   -0.0048
          70   -0.0316   -0.0324    0.0132    0.0119    0.0015    0.0031    0.0121    0.0102
          71   -0.0440   -0.0412    0.0197   -0.0049   -0.0099    0.0026    0.0282    0.0064
          72    0.0399    0.0379   -0.0164    0.0141    0.0174   -0.0035   -0.0124    0.0063


   Root No.      33        34        35        36        37        38        39        40

                33 A      34 A      35 A      36 A      37 A      38 A      39 A      40 A   

                1131.1    1163.2    1169.9    1193.6    1203.2    1229.1    1238.6    1245.5
  
           1    0.0039    0.0276    0.0132   -0.0229   -0.0010   -0.0229    0.0123    0.0252
           2    0.0010    0.0017   -0.0056    0.0113    0.0219    0.0139   -0.0141   -0.0265
           3    0.0243   -0.0104   -0.0016   -0.0037   -0.0218   -0.0220   -0.0048    0.0016
           4   -0.0016   -0.0189   -0.0224    0.0303   -0.0141   -0.0223   -0.0068   -0.0159
           5   -0.0230    0.0114   -0.0046    0.0105   -0.0358   -0.0067   -0.0002    0.0061
           6    0.0188   -0.0180   -0.0060    0.0074   -0.0101    0.0181   -0.0036   -0.0066
           7    0.0046   -0.0367   -0.0036   -0.0084    0.0114    0.0006    0.0036    0.0203
           8    0.0155    0.0059    0.0085    0.0052   -0.0207    0.0104   -0.0059   -0.0175
           9   -0.0067    0.0177    0.0087   -0.0087   -0.0142   -0.0019   -0.0098   -0.0099
          10   -0.0058    0.0277    0.0124   -0.0072   -0.0071    0.0085   -0.0185   -0.0263
          11    0.0059   -0.0123    0.0062   -0.0181   -0.0057   -0.0102   -0.0078   -0.0020
          12    0.0027    0.0126   -0.0043    0.0070    0.0082    0.0064    0.0050    0.0044
          13   -0.0198    0.0058    0.0031   -0.0015    0.0095    0.0067    0.0052    0.0066
          14    0.0026   -0.0008    0.0007   -0.0012    0.0001   -0.0072    0.0000   -0.0019
          15   -0.0205   -0.0045   -0.0007    0.0036    0.0153   -0.0087   -0.0093   -0.0197
          16    0.0012    0.0067    0.0021    0.0083    0.0017   -0.0007   -0.0005   -0.0004
          17   -0.0035    0.0053   -0.0276   -0.0080   -0.0001    0.0017   -0.0099    0.0045
          18   -0.0028    0.0094   -0.0274   -0.0029    0.0011    0.0013   -0.0106    0.0043
          19    0.0147   -0.0051    0.0007   -0.0022   -0.0097    0.0055   -0.0018   -0.0006
          20    0.0046   -0.0026   -0.0011   -0.0009    0.0088    0.0079    0.0032    0.0039
          21   -0.0182    0.0062    0.0002    0.0038   -0.0031    0.0173    0.0059    0.0097
          22    0.0009   -0.0064    0.0006   -0.0161   -0.0078    0.0013    0.0151   -0.0114
          23   -0.0029   -0.0083    0.0041   -0.0007    0.0135   -0.0023   -0.0128    0.0175
          24   -0.0056   -0.0239    0.0094   -0.0123    0.0039    0.0007   -0.0032    0.0097
          25    0.0042   -0.0078   -0.0028    0.0055   -0.0101    0.0238   -0.0007    0.0003
          26   -0.0108    0.0066    0.0045   -0.0051    0.0028   -0.0030    0.0024    0.0044
          27   -0.0054    0.0124    0.0085   -0.0115    0.0118   -0.0059    0.0057    0.0092
          28   -0.0006   -0.0104    0.0009   -0.0134   -0.0046    0.0022   -0.0028    0.0008
          29    0.0028   -0.0070    0.0225    0.0017   -0.0045   -0.0011    0.0311   -0.0186
          30    0.0021   -0.0101    0.0235   -0.0068   -0.0076   -0.0007    0.0302   -0.0187
          31    0.0499   -0.0243   -0.0122    0.0393    0.0555    0.1195   -0.0157   -0.0476
          32    0.0814    0.1645    0.0144   -0.0132   -0.0211    0.0136    0.0740    0.0995
          33    0.0931    0.0443   -0.0055    0.0184   -0.0135    0.0574    0.0254    0.0267
          34   -0.0003   -0.0162    0.0256   -0.0545    0.0722    0.1196    0.0043   -0.0070
          35    0.0637    0.0251    0.0196   -0.0988    0.1430   -0.0072    0.0058   -0.0060
          36    0.0667   -0.0131   -0.0220   -0.0029    0.0371   -0.0665   -0.0065   -0.0175
          37    0.0839    0.1163   -0.0553    0.0737   -0.0033    0.0034    0.0171   -0.0268
          38    0.0648   -0.0967   -0.0479   -0.0034    0.0749    0.0115    0.0146    0.0473
          39    0.0559    0.0402   -0.0426    0.0249    0.0267    0.0002    0.0065   -0.0005
          40   -0.0813    0.0134    0.0020    0.0292   -0.0259    0.0065    0.0245    0.0238
          41   -0.0702   -0.0183   -0.0174    0.0330    0.0090   -0.0003    0.0527    0.0761
          42    0.0041    0.0087    0.0022   -0.0001   -0.0101   -0.0002   -0.0039   -0.0086
          43    0.0076   -0.0141   -0.0370    0.0658   -0.0008   -0.0043    0.0494    0.0433
          44    0.0313   -0.0999   -0.0327    0.0293   -0.0296   -0.0528    0.0479    0.0762
          45    0.0107   -0.0111    0.0012   -0.0065   -0.0099   -0.0104   -0.0006    0.0103
          46    0.0108    0.0317    0.0088   -0.0097    0.0405   -0.0404    0.0023   -0.0081
          47   -0.0210   -0.0216   -0.0017    0.0020   -0.0300    0.0320    0.0107    0.0229
          48   -0.0384   -0.0370    0.0037   -0.0074   -0.0499    0.0382    0.0335    0.0601
          49   -0.0260    0.0242    0.0093   -0.0080    0.0405   -0.0404   -0.0036   -0.0162
          50   -0.0482    0.0059   -0.0028    0.0128    0.0314    0.0439    0.0055    0.0000
          51   -0.0679   -0.0154   -0.0099    0.0238    0.0186    0.0900    0.0064    0.0065
          52   -0.0003    0.0129   -0.0141    0.0088    0.0041    0.0000   -0.0223    0.0122
          53    0.0011    0.0134    0.0002    0.0202    0.0094   -0.0028   -0.0031    0.0052
          54   -0.0004    0.0357   -0.0315    0.0348    0.0190   -0.0026   -0.0542    0.0354
          55   -0.0010    0.0178   -0.0258    0.0126    0.0076    0.0004   -0.0413    0.0236
          56    0.0000    0.0218   -0.0175    0.0261    0.0146   -0.0023   -0.0319    0.0224
          57    0.0006    0.0234   -0.0144    0.0283    0.0141   -0.0025   -0.0263    0.0182
          58   -0.0105    0.0201   -0.0854   -0.0096    0.0103    0.0036   -0.0684    0.0410
          59   -0.0068    0.0094   -0.0524   -0.0115    0.0033    0.0026   -0.0288    0.0165
          60   -0.0143    0.0244   -0.1138   -0.0188    0.0106    0.0051   -0.0771    0.0453
          61   -0.0790    0.0149    0.0242   -0.0298    0.0726   -0.1188   -0.0233   -0.0471
          62    0.0025    0.0093    0.0050   -0.0065    0.0047   -0.0051    0.0036    0.0062
          63   -0.0142    0.0120    0.0091   -0.0118    0.0127   -0.0057    0.0055    0.0089
          64    0.0324   -0.0149   -0.0104    0.0050   -0.0035   -0.0406   -0.0097   -0.0156
          65   -0.0038    0.0001   -0.0142    0.0148   -0.0037   -0.0598   -0.0078   -0.0146
          66    0.0448   -0.0256   -0.0317    0.0205    0.0282   -0.1191   -0.0155   -0.0332
          67   -0.0227    0.0260   -0.0528    0.0909    0.0734   -0.0251    0.1321   -0.0348
          68   -0.0078   -0.0140   -0.0011    0.0237    0.0271   -0.0056    0.0113    0.0121
          69   -0.0265    0.0269   -0.0435    0.0806    0.0826   -0.0269    0.0984   -0.0080
          70    0.0177    0.0007    0.1729    0.1150    0.0369   -0.0154   -0.1049    0.0768
          71    0.0051    0.0014    0.0579    0.0317    0.0029   -0.0074    0.0121   -0.0037
          72    0.0206   -0.0108    0.1756    0.1019    0.0317   -0.0119   -0.0583    0.0474


   Root No.      41        42        43        44        45        46        47        48

                41 A      42 A      43 A      44 A      45 A      46 A      47 A      48 A   

                1266.2    1323.0    1358.0    1373.9    1391.7    1397.2    1407.4    1410.1
  
           1    0.0045    0.0391    0.0036    0.0117   -0.0005    0.0000   -0.0122    0.0030
           2   -0.0027    0.0502   -0.0445    0.0090    0.0006   -0.0001   -0.0149    0.0091
           3    0.0187    0.0259   -0.0431    0.0072    0.0026    0.0000   -0.0136    0.0104
           4   -0.0062   -0.0374   -0.0128    0.0110    0.0095    0.0000   -0.0007    0.0061
           5    0.0211    0.0108    0.0173   -0.0123   -0.0158    0.0001   -0.0020   -0.0187
           6   -0.0015    0.0162    0.0249   -0.0285   -0.0211    0.0001    0.0046   -0.0251
           7    0.0189    0.0110    0.0180   -0.0251   -0.0047   -0.0001    0.0115    0.0067
           8   -0.0296    0.0060    0.0005   -0.0199    0.0044   -0.0002    0.0132    0.0172
           9    0.0084    0.0173    0.0015   -0.0207   -0.0002    0.0000    0.0098    0.0163
          10    0.0170   -0.0190   -0.0051    0.0038    0.0006   -0.0001    0.0006    0.0089
          11    0.0283   -0.0350    0.0109    0.0020   -0.0018    0.0003   -0.0009   -0.0190
          12   -0.0072   -0.0097    0.0069    0.0021   -0.0010    0.0000    0.0010   -0.0053
          13   -0.0031   -0.0164   -0.0445   -0.0017    0.0080    0.0001    0.0429   -0.0149
          14   -0.0046   -0.0062    0.0399    0.0067    0.0029    0.0000    0.0083   -0.0026
          15   -0.0114    0.0038    0.0728    0.0162    0.0055    0.0000    0.0103   -0.0018
          16    0.0033    0.0002   -0.0024    0.0109   -0.0330   -0.0183    0.0007   -0.0010
          17   -0.0031   -0.0016   -0.0022    0.0061    0.0038   -0.0283   -0.0112   -0.0133
          18   -0.0009   -0.0015   -0.0040    0.0139   -0.0185    0.0271   -0.0114   -0.0145
          19    0.0037    0.0146    0.0054   -0.0130   -0.0094    0.0000   -0.0032   -0.0068
          20    0.0004   -0.0068   -0.0002    0.0163    0.0092    0.0000   -0.0054    0.0107
          21    0.0070   -0.0113    0.0041    0.0305    0.0164   -0.0001   -0.0107    0.0200
          22   -0.0084   -0.0023   -0.0012   -0.0010    0.0082   -0.0001    0.0026    0.0044
          23   -0.0045   -0.0103   -0.0050    0.0174   -0.0008   -0.0001   -0.0082   -0.0093
          24   -0.0134   -0.0118   -0.0038    0.0135    0.0045    0.0002   -0.0050   -0.0063
          25    0.0097    0.0079    0.0308    0.0239    0.0085   -0.0001   -0.0161    0.0152
          26   -0.0007   -0.0019   -0.0161   -0.0047   -0.0008    0.0000    0.0040   -0.0022
          27   -0.0040   -0.0064   -0.0332   -0.0102   -0.0012    0.0000    0.0092   -0.0046
          28   -0.0161   -0.0086   -0.0052    0.0122    0.0032   -0.0003   -0.0055   -0.0059
          29    0.0040    0.0027    0.0022   -0.0086    0.0090   -0.0005    0.0050    0.0066
          30   -0.0060   -0.0032   -0.0019    0.0004    0.0116    0.0004    0.0009    0.0026
          31   -0.0313   -0.0373   -0.0023   -0.0319   -0.0103    0.0000    0.0271   -0.0206
          32   -0.0271   -0.0684    0.0630   -0.0100   -0.0030    0.0001    0.0277   -0.0266
          33   -0.0139   -0.0775    0.0103   -0.0280   -0.0051    0.0001    0.0305   -0.0210
          34   -0.0125    0.0432    0.0465   -0.0378   -0.0193    0.0001    0.0107   -0.0158
          35   -0.0071    0.0124   -0.0296    0.0091    0.0205   -0.0001    0.0059    0.0331
          36   -0.0118   -0.0301   -0.0345    0.0115    0.0151    0.0000    0.0017    0.0154
          37   -0.0659   -0.0343   -0.0177    0.0324    0.0091    0.0001   -0.0083   -0.0020
          38    0.0416   -0.0058    0.0216    0.0069   -0.0171    0.0003   -0.0096   -0.0350
          39    0.0016   -0.0082   -0.0060    0.0194   -0.0038    0.0003   -0.0107   -0.0125
          40   -0.0903    0.1125   -0.0117   -0.0058   -0.0107    0.0007   -0.0159   -0.0599
          41   -0.1046   -0.0018    0.0491   -0.0214    0.0136   -0.0011    0.0348    0.0789
          42    0.0030    0.0377   -0.0160    0.0082   -0.0125    0.0010   -0.0225   -0.0791
          43   -0.0891    0.0895   -0.0238    0.0237   -0.0098    0.0008   -0.0275   -0.0755
          44   -0.0631    0.0345   -0.0046   -0.0042    0.0189   -0.0011    0.0193    0.0887
          45    0.0007   -0.0247    0.0079   -0.0112    0.0140   -0.0011    0.0250    0.0877
          46   -0.0377   -0.0518    0.0642   -0.0696   -0.0477   -0.0001   -0.1286    0.0307
          47    0.0195   -0.0088   -0.0605    0.0225    0.0243    0.0001    0.0809   -0.0226
          48    0.0105   -0.1041   -0.0918   -0.0861   -0.0402   -0.0001   -0.0968    0.0234
          49   -0.0353   -0.0398    0.0564   -0.0659   -0.0466   -0.0002   -0.1276    0.0311
          50   -0.0179   -0.0548   -0.0517   -0.0845   -0.0510   -0.0002   -0.1403    0.0347
          51    0.0044   -0.0303   -0.1241   -0.0265   -0.0041    0.0000    0.0006   -0.0013
          52    0.0063    0.0064    0.0073   -0.0313    0.1083   -0.0876   -0.0263   -0.0260
          53    0.0171    0.0057    0.0017    0.0155   -0.1592    0.2293    0.0655    0.0694
          54    0.0329    0.0238    0.0260   -0.0840    0.1496    0.0920    0.0113    0.0202
          55    0.0122    0.0137    0.0176   -0.0738    0.2392    0.1272   -0.0476   -0.0441
          56    0.0261    0.0165    0.0171   -0.0475    0.0341   -0.1599    0.0343    0.0414
[...]

 VIBRATION   46   46A       ATOM PAIR        ENERGY CONTRIBUTION    RADIAL
 FREQ.      1397.16        C  6 --  H 20          +53.8% ( 63.4%)     0.0%
 T-DIPOLE    0.0578        C  6 --  H 18          +20.9% ( 39.5%)    11.0%
 TRAVEL      0.1758        C  6 --  H 19          +20.3% ( 38.9%)    11.8%
 RED. MASS   0.4206        C  6 --  C 10           +5.0% ( 19.4%)     0.0%
 EFF. MASS   1.5609

 VIBRATION   47   47A       ATOM PAIR        ENERGY CONTRIBUTION    RADIAL
 FREQ.      1407.42        C  5 --  H 17          +20.6% ( 55.1%)     5.5%
 T-DIPOLE    0.0575        C  5 --  H 16          +18.7% ( 52.6%)     7.2%
 TRAVEL      0.1033        C  1 --  C  5          +11.7% ( 41.5%)    50.6%
 RED. MASS   0.5403        C  5 --  C  9          +11.4% ( 40.9%)    69.2%
 EFF. MASS   4.4935

 VIBRATION   48   48A       ATOM PAIR        ENERGY CONTRIBUTION    RADIAL
 FREQ.      1410.05        C  4 --  H 15           +9.9% ( 41.6%)     1.6%
 T-DIPOLE    0.0437        C  2 --  C  7           +9.2% ( 40.1%)    98.4%
 TRAVEL      0.0945        C  2 --  C  3           +7.6% ( 36.4%)    43.0%
 RED. MASS   0.3609        C  4 --  H 14           +7.3% ( 35.7%)     6.8%
 EFF. MASS   5.3550

 VIBRATION   49   49A       ATOM PAIR        ENERGY CONTRIBUTION    RADIAL
 FREQ.      1424.21        C  6 --  H 20          +12.7% ( 43.9%)     6.2%
 T-DIPOLE    0.0168        C  4 --  H 15          +12.5% ( 43.5%)     4.5%
 TRAVEL      0.1026        C  4 --  H 14          +12.3% ( 43.3%)     4.3%
 RED. MASS   0.4725        C  6 --  C 10          +10.5% ( 39.9%)    96.7%
 EFF. MASS   4.5007        C  6 --  H 19          +10.4% ( 39.7%)     2.3%
                           C  6 --  H 18          +10.3% ( 39.6%)     2.2%

 VIBRATION   50   50A       ATOM PAIR        ENERGY CONTRIBUTION    RADIAL
 FREQ.      1456.42        C  3 --  C  8          +13.5% ( 61.4%)    95.6%
 T-DIPOLE    0.0400        C  2 --  C  3          +11.9% ( 57.5%)    47.2%
 TRAVEL      0.0689        C  3 --  C  4          +10.2% ( 53.4%)    61.2%
 RED. MASS   1.7705        C  3 --  H 13           +9.3% ( 50.8%)     0.1%
 EFF. MASS   9.7463

 VIBRATION   51   51A       ATOM PAIR        ENERGY CONTRIBUTION    RADIAL
 FREQ.      1819.95        C  7 --  C  9          +45.8% (100.1%)   100.0%
 T-DIPOLE    0.1388        C  5 --  C  9          +14.0% ( 55.4%)    26.1%
 TRAVEL      0.0558        C  2 --  C  7          +13.8% ( 55.0%)    25.3%
 RED. MASS   5.3934        C  9 --  H 21          +13.1% ( 53.5%)     9.6%
 EFF. MASS  11.8809        C  7 --  H 22          +12.8% ( 53.0%)     9.8%

 VIBRATION   52   52A       ATOM PAIR        ENERGY CONTRIBUTION    RADIAL
 FREQ.      1889.66        C  8 --  C 10          +43.5% ( 97.4%)    96.2%
 T-DIPOLE    0.1081        C  3 --  C  8          +14.4% ( 56.1%)    57.3%
 TRAVEL      0.0550        C  6 --  C 10          +14.1% ( 55.5%)    56.5%
 RED. MASS   5.3607        C  8 --  H 23          +13.3% ( 53.8%)     3.4%
 EFF. MASS  11.8117        C 10 --  H 24          +13.1% ( 53.5%)     3.1%

 VIBRATION   53   53A       ATOM PAIR        ENERGY CONTRIBUTION    RADIAL
 FREQ.      2937.91        C  3 --  H 13          +95.2% ( 99.7%)   100.0%
 T-DIPOLE    0.1211        C  3 --  C  4           +1.0% ( 10.3%)    13.7%
 TRAVEL      0.1262        C  2 --  C  3           +1.0% ( 10.3%)    15.6%
 RED. MASS   0.9174        C  1 --  C  3           +1.0% ( 10.3%)    32.4%
 EFF. MASS   1.4416

 VIBRATION   54   54A       ATOM PAIR        ENERGY CONTRIBUTION    RADIAL
 FREQ.      2973.39        C  5 --  H 17          +51.2% ( 74.3%)    97.0%
 T-DIPOLE    0.0408        C  5 --  H 16          +44.5% ( 69.2%)    96.2%
 TRAVEL      0.1213        C  1 --  H 11           +1.9% ( 14.3%)    99.8%
 RED. MASS   0.4998        C  1 --  C  5           +1.2% ( 11.2%)     0.4%
 EFF. MASS   1.5419

 VIBRATION   55   55A       ATOM PAIR        ENERGY CONTRIBUTION    RADIAL
 FREQ.      2995.89        C  2 --  H 12          +88.5% ( 96.3%)   100.0%
 T-DIPOLE    0.1431        C  1 --  H 11           +6.3% ( 25.8%)   100.0%
 TRAVEL      0.1244        C  1 --  C  2           +1.1% ( 10.9%)     8.1%
 RED. MASS   0.8024        C  2 --  C  4           +1.0% ( 10.5%)    40.2%
 EFF. MASS   1.4548

 VIBRATION   56   56A       ATOM PAIR        ENERGY CONTRIBUTION    RADIAL
 FREQ.      3007.06        C  1 --  H 11          +83.4% ( 93.5%)   100.0%
 T-DIPOLE    0.1440        C  2 --  H 12           +6.4% ( 25.9%)   100.0%
 TRAVEL      0.1240        C  4 --  H 14           +2.3% ( 15.4%)    96.9%
 RED. MASS   0.7156        C  4 --  H 15           +1.7% ( 13.3%)    95.4%
 EFF. MASS   1.4581

 VIBRATION   57   57A       ATOM PAIR        ENERGY CONTRIBUTION    RADIAL
 FREQ.      3031.80        C  8 --  H 23          +73.0% ( 87.2%)   100.0%
 T-DIPOLE    0.2506        C  4 --  H 14          +12.1% ( 35.4%)    97.2%
 TRAVEL      0.1210        C  4 --  H 15          +10.6% ( 33.2%)    96.4%
 RED. MASS   0.5646        C  8 --  C 10           +1.1% ( 10.7%)    39.8%
 EFF. MASS   1.5186

 VIBRATION   58   58A       ATOM PAIR        ENERGY CONTRIBUTION    RADIAL
 FREQ.      3033.03        C  4 --  H 15          +36.1% ( 62.1%)    96.9%
 T-DIPOLE    0.1436        C  4 --  H 14          +35.2% ( 61.4%)    96.8%
 TRAVEL      0.1206        C  8 --  H 23          +22.1% ( 48.6%)   100.0%
 RED. MASS   0.3265        C  1 --  H 11           +2.5% ( 16.3%)    99.9%
 EFF. MASS   1.5275

 VIBRATION   59   59A       ATOM PAIR        ENERGY CONTRIBUTION    RADIAL
 FREQ.      3039.02        C 10 --  H 24          +94.4% ( 98.7%)   100.0%
 T-DIPOLE    0.2267        C  6 --  H 20           +1.5% ( 12.4%)    98.1%
 TRAVEL      0.1208        C  8 --  C 10           +1.5% ( 12.4%)    38.4%
 RED. MASS   0.8823        C  6 --  C 10           +1.4% ( 12.0%)    11.2%
 EFF. MASS   1.5200

 VIBRATION   60   60A       ATOM PAIR        ENERGY CONTRIBUTION    RADIAL
 FREQ.      3050.34        C  5 --  H 16          +53.1% ( 71.9%)    98.0%
 T-DIPOLE    0.0908        C  5 --  H 17          +44.3% ( 65.7%)    96.9%
 TRAVEL      0.1311        C  1 --  C  5           +0.7% (  8.2%)    42.7%
 RED. MASS   0.4765        C  5 --  C  9           +0.7% (  8.2%)    30.8%
 EFF. MASS   1.2859

 VIBRATION   61   61A       ATOM PAIR        ENERGY CONTRIBUTION    RADIAL
 FREQ.      3069.59        C  6 --  H 19          +49.1% ( 72.3%)    97.0%
 T-DIPOLE    0.0173        C  6 --  H 18          +49.0% ( 72.2%)    97.0%
 TRAVEL      0.1210        C  6 --  C 10           +1.0% ( 10.2%)     0.0%
 RED. MASS   0.5093        C  6 --  H 20           +0.9% (  9.9%)     0.0%
 EFF. MASS   1.5012

 VIBRATION   62   62A       ATOM PAIR        ENERGY CONTRIBUTION    RADIAL
 FREQ.      3075.44        C  6 --  H 20          +62.6% ( 81.6%)    98.9%
 T-DIPOLE    0.0537        C  6 --  H 18          +17.2% ( 42.7%)    85.0%
 TRAVEL      0.1206        C  6 --  H 19          +17.0% ( 42.5%)    84.8%
 RED. MASS   0.4779        C 10 --  H 24           +2.1% ( 14.9%)   100.0%
 EFF. MASS   1.5083

 VIBRATION   63   63A       ATOM PAIR        ENERGY CONTRIBUTION    RADIAL
 FREQ.      3097.08        C  4 --  H 15          +49.7% ( 69.9%)    97.3%
 T-DIPOLE    0.0704        C  4 --  H 14          +48.1% ( 68.8%)    97.1%
 TRAVEL      0.1303        C  2 --  C  4           +0.7% (  8.3%)   100.0%
 RED. MASS   0.4831        C  1 --  C  4           +0.7% (  8.2%)    49.8%
 EFF. MASS   1.2822

 VIBRATION   64   64A       ATOM PAIR        ENERGY CONTRIBUTION    RADIAL
 FREQ.      3114.87        C  9 --  H 21          +60.7% ( 79.1%)   100.0%
 T-DIPOLE    0.3651        C  7 --  H 22          +36.7% ( 61.5%)   100.0%
 TRAVEL      0.1215        C  7 --  C  9           +1.1% ( 10.8%)     1.4%
 RED. MASS   0.4933        C  5 --  C  9           +0.9% (  9.7%)    25.9%
 EFF. MASS   1.4656

 VIBRATION   65   65A       ATOM PAIR        ENERGY CONTRIBUTION    RADIAL
 FREQ.      3134.20        C  7 --  H 22          +59.8% ( 78.7%)    99.9%
 T-DIPOLE    0.3394        C  9 --  H 21          +35.8% ( 61.0%)    99.9%
 TRAVEL      0.1144        C  7 --  C  9           +2.4% ( 15.9%)    98.3%
 RED. MASS   0.4948        C  2 --  C  7           +1.1% ( 10.8%)    20.7%
 EFF. MASS   1.6438

 VIBRATION   66   66A       ATOM PAIR        ENERGY CONTRIBUTION    RADIAL
 FREQ.      3169.33        C  6 --  H 20          +34.5% ( 56.5%)    97.2%
 T-DIPOLE    0.0634        C  6 --  H 19          +32.7% ( 55.0%)    97.1%
 TRAVEL      0.1367        C  6 --  H 18          +32.5% ( 54.9%)    97.0%
 RED. MASS   0.3272        C  6 --  C 10           +0.3% (  5.4%)   100.0%
 EFF. MASS   1.1393

 SYMMETRY NUMBER FOR POINT-GROUP C1  =  1


          SYSTEM IS A GROUND STATE


    NULL



          MOLECULE IS NOT LINEAR

          THERE ARE 66 GENUINE VIBRATIONS IN THIS SYSTEM
          THIS THERMODYNAMICS CALCULATION IS LIMITED TO
          MOLECULES WHICH HAVE NO INTERNAL ROTATIONS




                    CALCULATED THERMODYNAMIC PROPERTIES
                                          *
   TEMP. (K)   PARTITION FUNCTION   H.O.F.    ENTHALPY  HEAT CAPACITY ENTROPY
                                   KCAL/MOL   CAL/MOLE    CAL/K/MOL  CAL/K/MOL


 298.00  VIB.     0.1977D+03                  4105.6995    30.6281    24.2834
         ROT.     0.6780D+06                   888.2813     2.9808    29.6628
         INT.     0.1340D+09                  4993.9808    33.6089    53.9462
         TRA.     0.1503D+28                  1480.4688     4.9680    40.5931
         TOT.                       24.604    6474.4497    38.5769    94.5392

 200.00  VIB.     0.2181D+02                  1734.9638    18.2918    14.7998
         ROT.     0.3728D+06                   596.1620     2.9808    28.4741
         INT.     0.8129D+07                  2331.1258    21.2727    43.2739
         TRA.     0.8266D+27                   993.6033     4.9680    38.6119
         TOT.                       21.454    3324.7290    26.2407    81.8859

 210.00  VIB.     0.2714D+02                  1923.2949    19.3821    15.7185
         ROT.     0.4011D+06                   625.9700     2.9808    28.6195
         INT.     0.1089D+08                  2549.2649    22.3629    44.3380
         TRA.     0.8893D+27                  1043.2834     4.9680    38.8543
         TOT.                       21.722    3592.5483    27.3309    83.1923

 220.00  VIB.     0.3382D+02                  2122.7590    20.5183    16.6462
         ROT.     0.4301D+06                   655.7781     2.9808    28.7582
         INT.     0.1455D+08                  2778.5372    23.4991    45.4044
         TRA.     0.9536D+27                  1092.9636     4.9680    39.0854
         TOT.                       22.001    3871.5007    28.4671    84.4898

 230.00  VIB.     0.4220D+02                  2333.8096    21.6990    17.5842
         ROT.     0.4597D+06                   685.5862     2.9808    28.8907
         INT.     0.1940D+08                  3019.3958    24.6798    46.4748
         TRA.     0.1019D+28                  1142.6437     4.9680    39.3063
         TOT.                       22.291    4162.0396    29.6478    85.7811

 240.00  VIB.     0.5273D+02                  2556.8788    22.9215    18.5334
         ROT.     0.4900D+06                   715.3943     2.9808    29.0175
         INT.     0.2584D+08                  3272.2731    25.9023    47.5509
         TRA.     0.1087D+28                  1192.3239     4.9680    39.5177
         TOT.                       22.594    4464.5970    30.8703    87.0686

 250.00  VIB.     0.6598D+02                  2792.3678    24.1823    19.4945
         ROT.     0.5210D+06                   745.2024     2.9808    29.1392
         INT.     0.3437D+08                  3537.5702    27.1631    48.6337
         TRA.     0.1155D+28                  1242.0041     4.9680    39.7205
         TOT.                       22.909    4779.5743    32.1312    88.3542

 260.00  VIB.     0.8267D+02                  3040.6392    25.4773    20.4681
         ROT.     0.5525D+06                   775.0105     2.9808    29.2561
         INT.     0.4568D+08                  3815.6498    28.4581    49.7242
         TRA.     0.1225D+28                  1291.6842     4.9680    39.9154
         TOT.                       23.236    5107.3340    33.4261    89.6396

 270.00  VIB.     0.1038D+03                  3302.0126    26.8019    21.4543
         ROT.     0.5847D+06                   804.8186     2.9808    29.3686
         INT.     0.6067D+08                  4106.8312    29.7827    50.8230
         TRA.     0.1297D+28                  1341.3644     4.9680    40.1029
         TOT.                       23.577    5448.1956    34.7507    90.9258

 280.00  VIB.     0.1304D+03                  3576.7607    28.1514    22.4534
         ROT.     0.6175D+06                   834.6267     2.9808    29.4770
         INT.     0.8053D+08                  4411.3874    31.1323    51.9304
         TRA.     0.1369D+28                  1391.0445     4.9680    40.2835
         TOT.                       23.932    5802.4320    36.1003    92.2140

 290.00  VIB.     0.1642D+03                  3865.1086    29.5211    23.4651
         ROT.     0.6509D+06                   864.4348     2.9808    29.5816
         INT.     0.1069D+09                  4729.5434    32.5019    53.0467
         TRA.     0.1443D+28                  1440.7247     4.9680    40.4579
         TOT.                       24.299    6170.2681    37.4699    93.5046

 300.00  VIB.     0.2071D+03                  4167.2336    30.9061    24.4892
         ROT.     0.6848D+06                   894.2429     2.9808    29.6827
         INT.     0.1418D+09                  5061.4766    33.8869    54.1719
         TRA.     0.1518D+28                  1490.4049     4.9680    40.6263
         TOT.                       24.681    6551.8814    38.8549    94.7982

 310.00  VIB.     0.2617D+03                  4483.2667    32.3019    25.5254
         ROT.     0.7193D+06                   924.0510     2.9808    29.7804
         INT.     0.1883D+09                  5407.3177    35.2827    55.3058
         TRA.     0.1595D+28                  1540.0850     4.9680    40.7892
         TOT.                       25.077    6947.4027    40.2508    96.0950

 320.00  VIB.     0.3312D+03                  4813.2939    33.7043    26.5730
         ROT.     0.7544D+06                   953.8591     2.9808    29.8751
         INT.     0.2499D+09                  5767.1531    36.6851    56.4481
         TRA.     0.1673D+28                  1589.7652     4.9680    40.9469
         TOT.                       25.486    7356.9183    41.6531    97.3950

 330.00  VIB.     0.4200D+03                  5157.3599    35.1090    27.6317
         ROT.     0.7901D+06                   983.6672     2.9808    29.9668
         INT.     0.3318D+09                  6141.0271    38.0898    57.5985
         TRA.     0.1752D+28                  1639.4454     4.9680    41.0998
         TOT.                       25.910    7780.4725    43.0579    98.6983

 340.00  VIB.     0.5335D+03                  5515.4702    36.5125    28.7006
         ROT.     0.8262D+06                  1013.4753     2.9808    30.0558
         INT.     0.4408D+09                  6528.9455    39.4933    58.7564
         TRA.     0.1832D+28                  1689.1255     4.9680    41.2481
         TOT.                       26.347    8218.0711    44.4614   100.0045

 350.00  VIB.     0.6789D+03                  5887.5950    37.9114    29.7792
         ROT.     0.8630D+06                  1043.2834     2.9808    30.1422
         INT.     0.5859D+09                  6930.8784    40.8922    59.9214
         TRA.     0.1914D+28                  1738.8057     4.9680    41.3921
         TOT.                       26.799    8669.6841    45.8602   101.3135

 360.00  VIB.     0.8654D+03                  6273.6724    39.3026    30.8667
         ROT.     0.9002D+06                  1073.0915     2.9808    30.2262
         INT.     0.7790D+09                  7346.7639    42.2834    61.0929
         TRA.     0.1996D+28                  1788.4859     4.9680    41.5321
         TOT.                       27.264    9135.2497    47.2514   102.6250

 370.00  VIB.     0.1105D+04                  6673.6119    40.6834    31.9625
         ROT.     0.9380D+06                  1102.8996     2.9808    30.3078
         INT.     0.1037D+10                  7776.5115    43.6642    62.2703
         TRA.     0.2080D+28                  1838.1660     4.9680    41.6682
         TOT.                       27.744    9614.6775    48.6322   103.9385

 380.00  VIB.     0.1413D+04                  7087.2979    42.0515    33.0656
         ROT.     0.9763D+06                  1132.7077     2.9808    30.3873
         INT.     0.1380D+10                  8220.0056    45.0323    63.4529
         TRA.     0.2165D+28                  1887.8462     4.9680    41.8007
         TOT.                       28.237   10107.8518    50.0003   105.2536

 390.00  VIB.     0.1811D+04                  7514.5930    43.4049    34.1754
         ROT.     0.1015D+07                  1162.5158     2.9808    30.4648
         INT.     0.1838D+10                  8677.1088    46.3857    64.6402
         TRA.     0.2251D+28                  1937.5263     4.9680    41.9297
         TOT.                       28.744   10614.6352    51.3537   106.5699

 400.00  VIB.     0.2324D+04                  7955.3408    44.7418    35.2913
         ROT.     0.1054D+07                  1192.3239     2.9808    30.5402
         INT.     0.2450D+10                  9147.6647    47.7226    65.8315
         TRA.     0.2338D+28                  1987.2065     4.9680    42.0555
         TOT.                       29.264   11134.8712    52.6906   107.8870

   *: NOTE: HEATS OF FORMATION ARE RELATIVE TO THE
            ELEMENTS IN THEIR STANDARD STATE AT 298K
              (=  Standard Enthalpy of Formation).

            Hvib:  Zero-point energy is not included.
                   frequencies of less than zero cm-1 are not included.
            Hrot = (3/2)RT
            Htra = (3/2)RT + pV = (5/2)RT

            Heat capacity is Cp, not Cv

           For more information, see: HTTP://OpenMOPAC.net/Manual/thermochemistry.html


           FORCE CONSTANT IN CARTESIAN COORDINATES (Millidynes/A)

    ATOM   CHEMICAL       X               Y               Z
   NUMBER   SYMBOL  FORCE CONSTANT  FORCE CONSTANT  FORCE CONSTANT

      1       C        7.570256        8.219360        8.910695
      2       C        7.634461        7.851974        9.627158
      3       C        8.165114        7.934523        8.966945
      4       C        7.729195        7.965000        8.667903
      5       C        9.458686        8.126745        7.706192
      6       C        8.424683        8.369399        8.666886
      7       C       14.541022        4.131466        8.846773
      8       C       12.985084        6.773512        7.587393
      9       C       11.866891        4.557325       10.874067
     10       C       12.834182        6.736184        7.619756
     11       H        1.511636        1.453729        3.426319
     12       H        1.569745        1.478273        3.276911
     13       H        1.310032        1.326320        3.481382
     14       H        1.471336        1.414296        3.735919
     15       H        1.472611        1.522335        3.618489
     16       H        1.825710        3.729966        0.831433
     17       H        2.000846        2.315729        2.058494
     18       H        4.225315        1.377158        1.063976
     19       H        0.777650        2.766117        3.121311
     20       H        2.258660        3.181535        1.328436
     21       H        0.713777        1.354282        4.354362
     22       H        4.969918        0.469102        0.973132
     23       H        1.878413        2.982313        1.339814
     24       H        1.868977        2.992375        1.357195



 TOTAL CPU TIME:             3.76 SECONDS

 == MOPAC DONE ==
