 *******************************************************************************
 ** Site#: 14399           For non-commercial use only        Version 13.159M **
 *******************************************************************************
 ** Cite this work as: MOPAC2012, James J. P. Stewart, Stewart Computational  **
 ** Chemistry, Version 13.159M web: HTTP://OpenMOPAC.net  Days remaining:   6 **
 *******************************************************************************
 **                                                                           **
 **                                MOPAC2012                                  **
 **                                                                           **
 *******************************************************************************

                            PM3 CALCULATION RESULTS


 *******************************************************************************
 *  CALCULATION DONE:                                Mon Jun  2 14:11:33 2014  *
 *  PM3      - The PM3 Hamiltonian to be used
 *  PRECISE  - CRITERIA TO BE INCREASED BY 100 TIMES
 *  NOSYM    - POINT-GROUP SYMMETRY SET TO C1
 *  T=       - A TIME OF 172800.0 SECONDS REQUESTED
 *  DUMP=N   - RESTART FILE WRITTEN EVERY  7200.000 SECONDS
 *******************************************************************************
pm3  precise nosym
 InChI=1S/C8H14O/c1-3-4-5-8-6-9-7(8)2/h4-5,7-8H,3,6H2,1-2H3

   ATOM   CHEMICAL          X               Y               Z
  NUMBER   SYMBOL      (ANGSTROMS)     (ANGSTROMS)     (ANGSTROMS)
 
     1       C         -1.13440000  *  -0.65930000  *  -0.58550000  *
     2       C         -1.76510000  *   0.67160000  *  -0.06280000  *
     3       C          2.67380000  *  -0.58180000  *   0.15870000  *
     4       C         -1.96340000  *  -0.33230000  *  -1.81700000  *
     5       C         -2.63790000  *   0.51610000  *   1.17830000  *
     6       C          3.24360000  *   0.65030000  *   0.84950000  *
     7       C          0.35750000  *  -0.60430000  *  -0.76580000  *
     8       C          1.17840000  *  -0.63280000  *   0.29190000  *
     9       O         -2.55750000  *   0.82450000  *  -1.25810000  *
    10       H         -1.48620000  *  -1.58400000  *  -0.06960000  *
    11       H         -1.04590000  *   1.51960000  *   0.04120000  *
    12       H          3.09930000  *  -1.49720000  *   0.62960000  *
    13       H          3.00510000  *  -0.57830000  *  -0.90630000  *
    14       H         -2.73730000  *  -1.10550000  *  -2.03210000  *
    15       H         -1.38650000  *  -0.06780000  *  -2.73440000  *
    16       H          2.99390000  *   0.65170000  *   1.93540000  *
    17       H          4.35290000  *   0.65880000  *   0.75180000  *
    18       H          2.84730000  *   1.58190000  *   0.38400000  *
    19       H         -2.00250000  *   0.25400000  *   2.05410000  *
    20       H         -3.40650000  *  -0.27840000  *   1.03960000  *
    21       H         -3.15970000  *   1.47570000  *   1.39340000  *
    22       H          0.75980000  *  -0.69200000  *   1.29690000  *
    23       H          0.77130000  *  -0.55180000  *  -1.77250000  *
 


          CARTESIAN COORDINATES 

    NO.       ATOM         X         Y         Z

     1         C       -1.1344   -0.6593   -0.5855
     2         C       -1.7651    0.6716   -0.0628
     3         C        2.6738   -0.5818    0.1587
     4         C       -1.9634   -0.3323   -1.8170
     5         C       -2.6379    0.5161    1.1783
     6         C        3.2436    0.6503    0.8495
     7         C        0.3575   -0.6043   -0.7658
     8         C        1.1784   -0.6328    0.2919
     9         O       -2.5575    0.8245   -1.2581
    10         H       -1.4862   -1.5840   -0.0696
    11         H       -1.0459    1.5196    0.0412
    12         H        3.0993   -1.4972    0.6296
    13         H        3.0051   -0.5783   -0.9063
    14         H       -2.7373   -1.1055   -2.0321
    15         H       -1.3865   -0.0678   -2.7344
    16         H        2.9939    0.6517    1.9354
    17         H        4.3529    0.6588    0.7518
    18         H        2.8473    1.5819    0.3840
    19         H       -2.0025    0.2540    2.0541
    20         H       -3.4065   -0.2784    1.0396
    21         H       -3.1597    1.4757    1.3934
    22         H        0.7598   -0.6920    1.2969
    23         H        0.7713   -0.5518   -1.7725

  H: (PM3): J. J. P. STEWART, J. COMP. CHEM. 10, 209 (1989).
  C: (PM3): J. J. P. STEWART, J. COMP. CHEM. 10, 209 (1989).
  O: (PM3): J. J. P. STEWART, J. COMP. CHEM. 10, 209 (1989).

           Empirical Formula: C8 H14 O  =    23 atoms



      MOLECULAR POINT GROUP   :   C1  


      RHF CALCULATION, NO. OF DOUBLY OCCUPIED LEVELS =   26

      Geometry optimization using EF

          DIAGONAL MATRIX USED AS START HESSIAN

 CYCLE:     1 TIME:   0.010 TIME LEFT:  2.00D  GRAD.:   101.710 HEAT:-25.88245
 CYCLE:     2 TIME:   0.017 TIME LEFT:  2.00D  GRAD.:   109.952 HEAT:-26.59414
 CYCLE:     3 TIME:   0.013 TIME LEFT:  2.00D  GRAD.:    63.517 HEAT:-28.84870
 CYCLE:     4 TIME:   0.013 TIME LEFT:  2.00D  GRAD.:    39.330 HEAT:-29.46269
 CYCLE:     5 TIME:   0.007 TIME LEFT:  2.00D  GRAD.:    32.665 HEAT:-29.72278
 CYCLE:     6 TIME:   0.007 TIME LEFT:  2.00D  GRAD.:    28.437 HEAT:-30.06466
 CYCLE:     7 TIME:   0.007 TIME LEFT:  2.00D  GRAD.:    30.387 HEAT:-30.13704
 CYCLE:     8 TIME:   0.013 TIME LEFT:  2.00D  GRAD.:    23.386 HEAT:-30.32498
 CYCLE:     9 TIME:   0.013 TIME LEFT:  2.00D  GRAD.:     8.487 HEAT:-30.43546
 CYCLE:    10 TIME:   0.007 TIME LEFT:  2.00D  GRAD.:    12.729 HEAT:-30.44732
 CYCLE:    11 TIME:   0.007 TIME LEFT:  2.00D  GRAD.:    11.037 HEAT:-30.46917
 CYCLE:    12 TIME:   0.013 TIME LEFT:  2.00D  GRAD.:     7.585 HEAT:-30.50103
 CYCLE:    13 TIME:   0.012 TIME LEFT:  2.00D  GRAD.:     4.639 HEAT:-30.51652
 CYCLE:    14 TIME:   0.007 TIME LEFT:  2.00D  GRAD.:     6.600 HEAT:-30.52527
 CYCLE:    15 TIME:   0.007 TIME LEFT:  2.00D  GRAD.:     3.933 HEAT:-30.54179
 CYCLE:    16 TIME:   0.013 TIME LEFT:  2.00D  GRAD.:     4.882 HEAT:-30.54559
 CYCLE:    17 TIME:   0.007 TIME LEFT:  2.00D  GRAD.:     5.288 HEAT:-30.54903
 CYCLE:    18 TIME:   0.010 TIME LEFT:  2.00D  GRAD.:     5.481 HEAT:-30.55000
 CYCLE:    19 TIME:   0.011 TIME LEFT:  2.00D  GRAD.:     5.303 HEAT:-30.55276
 CYCLE:    20 TIME:   0.019 TIME LEFT:  2.00D  GRAD.:     2.166 HEAT:-30.56010
 CYCLE:    21 TIME:   0.009 TIME LEFT:  2.00D  GRAD.:     3.165 HEAT:-30.56026
 CYCLE:    22 TIME:   0.007 TIME LEFT:  2.00D  GRAD.:     1.828 HEAT:-30.56411
 CYCLE:    23 TIME:   0.007 TIME LEFT:  2.00D  GRAD.:     2.500 HEAT:-30.56582
 CYCLE:    24 TIME:   0.009 TIME LEFT:  2.00D  GRAD.:     1.512 HEAT:-30.56907
 CYCLE:    25 TIME:   0.008 TIME LEFT:  2.00D  GRAD.:     1.455 HEAT:-30.57108
 CYCLE:    26 TIME:   0.007 TIME LEFT:  2.00D  GRAD.:     1.771 HEAT:-30.57138
 CYCLE:    27 TIME:   0.007 TIME LEFT:  2.00D  GRAD.:     0.704 HEAT:-30.57251
 CYCLE:    28 TIME:   0.007 TIME LEFT:  2.00D  GRAD.:     1.020 HEAT:-30.57282
 CYCLE:    29 TIME:   0.007 TIME LEFT:  2.00D  GRAD.:     0.817 HEAT:-30.57356
 CYCLE:    30 TIME:   0.007 TIME LEFT:  2.00D  GRAD.:     1.216 HEAT:-30.57467
 CYCLE:    31 TIME:   0.007 TIME LEFT:  2.00D  GRAD.:     1.054 HEAT:-30.57590
 CYCLE:    32 TIME:   0.007 TIME LEFT:  2.00D  GRAD.:     1.243 HEAT:-30.57790
 CYCLE:    33 TIME:   0.007 TIME LEFT:  2.00D  GRAD.:     1.418 HEAT:-30.58018
 CYCLE:    34 TIME:   0.007 TIME LEFT:  2.00D  GRAD.:     1.362 HEAT:-30.58333
 CYCLE:    35 TIME:   0.007 TIME LEFT:  2.00D  GRAD.:     1.369 HEAT:-30.58687
 CYCLE:    36 TIME:   0.007 TIME LEFT:  2.00D  GRAD.:     1.443 HEAT:-30.58976
 CYCLE:    37 TIME:   0.007 TIME LEFT:  2.00D  GRAD.:     1.485 HEAT:-30.59294
 CYCLE:    38 TIME:   0.007 TIME LEFT:  2.00D  GRAD.:     1.305 HEAT:-30.59605
 CYCLE:    39 TIME:   0.007 TIME LEFT:  2.00D  GRAD.:     1.446 HEAT:-30.59940
 CYCLE:    40 TIME:   0.010 TIME LEFT:  2.00D  GRAD.:     1.587 HEAT:-30.60315
 CYCLE:    41 TIME:   0.009 TIME LEFT:  2.00D  GRAD.:     1.363 HEAT:-30.60696
 CYCLE:    42 TIME:   0.007 TIME LEFT:  2.00D  GRAD.:     1.190 HEAT:-30.61059
 CYCLE:    43 TIME:   0.007 TIME LEFT:  2.00D  GRAD.:     1.202 HEAT:-30.61293
 CYCLE:    44 TIME:   0.009 TIME LEFT:  2.00D  GRAD.:     1.312 HEAT:-30.61637
 CYCLE:    45 TIME:   0.009 TIME LEFT:  2.00D  GRAD.:     1.289 HEAT:-30.61932
 CYCLE:    46 TIME:   0.007 TIME LEFT:  2.00D  GRAD.:     1.043 HEAT:-30.62137
 CYCLE:    47 TIME:   0.008 TIME LEFT:  2.00D  GRAD.:     0.763 HEAT:-30.62289
 CYCLE:    48 TIME:   0.007 TIME LEFT:  2.00D  GRAD.:     0.668 HEAT:-30.62416
 CYCLE:    49 TIME:   0.007 TIME LEFT:  2.00D  GRAD.:     0.610 HEAT:-30.62504
 CYCLE:    50 TIME:   0.007 TIME LEFT:  2.00D  GRAD.:     0.590 HEAT:-30.62574
 CYCLE:    51 TIME:   0.007 TIME LEFT:  2.00D  GRAD.:     0.540 HEAT:-30.62649
 CYCLE:    52 TIME:   0.007 TIME LEFT:  2.00D  GRAD.:     0.506 HEAT:-30.62710
 CYCLE:    53 TIME:   0.007 TIME LEFT:  2.00D  GRAD.:     0.504 HEAT:-30.62767
 CYCLE:    54 TIME:   0.007 TIME LEFT:  2.00D  GRAD.:     0.532 HEAT:-30.62823
 CYCLE:    55 TIME:   0.007 TIME LEFT:  2.00D  GRAD.:     0.747 HEAT:-30.62926
 CYCLE:    56 TIME:   0.007 TIME LEFT:  2.00D  GRAD.:     0.728 HEAT:-30.63021
 CYCLE:    57 TIME:   0.007 TIME LEFT:  2.00D  GRAD.:     0.612 HEAT:-30.63135
 CYCLE:    58 TIME:   0.007 TIME LEFT:  2.00D  GRAD.:     0.499 HEAT:-30.63202
 CYCLE:    59 TIME:   0.007 TIME LEFT:  2.00D  GRAD.:     0.425 HEAT:-30.63251
 CYCLE:    60 TIME:   0.007 TIME LEFT:  2.00D  GRAD.:     0.452 HEAT:-30.63292
 CYCLE:    61 TIME:   0.007 TIME LEFT:  2.00D  GRAD.:     0.441 HEAT:-30.63342
 CYCLE:    62 TIME:   0.007 TIME LEFT:  2.00D  GRAD.:     0.448 HEAT:-30.63390
 CYCLE:    63 TIME:   0.007 TIME LEFT:  2.00D  GRAD.:     0.478 HEAT:-30.63444
 CYCLE:    64 TIME:   0.007 TIME LEFT:  2.00D  GRAD.:     0.537 HEAT:-30.63510
 CYCLE:    65 TIME:   0.007 TIME LEFT:  2.00D  GRAD.:     0.493 HEAT:-30.63558
 CYCLE:    66 TIME:   0.007 TIME LEFT:  2.00D  GRAD.:     0.407 HEAT:-30.63623
 CYCLE:    67 TIME:   0.007 TIME LEFT:  2.00D  GRAD.:     0.328 HEAT:-30.63643
 CYCLE:    68 TIME:   0.007 TIME LEFT:  2.00D  GRAD.:     0.334 HEAT:-30.63675
 CYCLE:    69 TIME:   0.007 TIME LEFT:  2.00D  GRAD.:     0.250 HEAT:-30.63690
 CYCLE:    70 TIME:   0.007 TIME LEFT:  2.00D  GRAD.:     0.255 HEAT:-30.63714
 CYCLE:    71 TIME:   0.007 TIME LEFT:  2.00D  GRAD.:     0.276 HEAT:-30.63737
 CYCLE:    72 TIME:   0.007 TIME LEFT:  2.00D  GRAD.:     0.308 HEAT:-30.63764
 CYCLE:    73 TIME:   0.007 TIME LEFT:  2.00D  GRAD.:     0.360 HEAT:-30.63795
 CYCLE:    74 TIME:   0.007 TIME LEFT:  2.00D  GRAD.:     0.373 HEAT:-30.63830
 CYCLE:    75 TIME:   0.007 TIME LEFT:  2.00D  GRAD.:     0.450 HEAT:-30.63876
 CYCLE:    76 TIME:   0.007 TIME LEFT:  2.00D  GRAD.:     0.296 HEAT:-30.63903
 CYCLE:    77 TIME:   0.007 TIME LEFT:  2.00D  GRAD.:     0.231 HEAT:-30.63925
 CYCLE:    78 TIME:   0.007 TIME LEFT:  2.00D  GRAD.:     0.222 HEAT:-30.63940
 CYCLE:    79 TIME:   0.007 TIME LEFT:  2.00D  GRAD.:     0.284 HEAT:-30.63963
 CYCLE:    80 TIME:   0.007 TIME LEFT:  2.00D  GRAD.:     0.269 HEAT:-30.63983
 CYCLE:    81 TIME:   0.007 TIME LEFT:  2.00D  GRAD.:     0.235 HEAT:-30.64000
 CYCLE:    82 TIME:   0.007 TIME LEFT:  2.00D  GRAD.:     0.218 HEAT:-30.64010
 CYCLE:    83 TIME:   0.007 TIME LEFT:  2.00D  GRAD.:     0.324 HEAT:-30.64041
 CYCLE:    84 TIME:   0.007 TIME LEFT:  2.00D  GRAD.:     0.286 HEAT:-30.64056
 CYCLE:    85 TIME:   0.007 TIME LEFT:  2.00D  GRAD.:     0.325 HEAT:-30.64132
 CYCLE:    86 TIME:   0.007 TIME LEFT:  2.00D  GRAD.:     0.320 HEAT:-30.64170
 CYCLE:    87 TIME:   0.007 TIME LEFT:  2.00D  GRAD.:     0.439 HEAT:-30.64254
 CYCLE:    88 TIME:   0.007 TIME LEFT:  2.00D  GRAD.:     0.335 HEAT:-30.64276
 CYCLE:    89 TIME:   0.007 TIME LEFT:  2.00D  GRAD.:     0.243 HEAT:-30.64306
 CYCLE:    90 TIME:   0.007 TIME LEFT:  2.00D  GRAD.:     0.231 HEAT:-30.64322
 CYCLE:    91 TIME:   0.007 TIME LEFT:  2.00D  GRAD.:     0.272 HEAT:-30.64344
 CYCLE:    92 TIME:   0.007 TIME LEFT:  2.00D  GRAD.:     0.241 HEAT:-30.64360
 CYCLE:    93 TIME:   0.007 TIME LEFT:  2.00D  GRAD.:     0.194 HEAT:-30.64376
 CYCLE:    94 TIME:   0.007 TIME LEFT:  2.00D  GRAD.:     0.157 HEAT:-30.64381
 CYCLE:    95 TIME:   0.007 TIME LEFT:  2.00D  GRAD.:     0.190 HEAT:-30.64397
 CYCLE:    96 TIME:   0.007 TIME LEFT:  2.00D  GRAD.:     0.208 HEAT:-30.64407
 CYCLE:    97 TIME:   0.007 TIME LEFT:  2.00D  GRAD.:     0.417 HEAT:-30.64430
 CYCLE:    98 TIME:   0.007 TIME LEFT:  2.00D  GRAD.:     0.350 HEAT:-30.64453
 CYCLE:    99 TIME:   0.007 TIME LEFT:  2.00D  GRAD.:     1.296 HEAT:-30.64508
 CYCLE:   100 TIME:   0.007 TIME LEFT:  2.00D  GRAD.:     0.565 HEAT:-30.64588
 CYCLE:   101 TIME:   0.007 TIME LEFT:  2.00D  GRAD.:     0.474 HEAT:-30.64676
 CYCLE:   102 TIME:   0.007 TIME LEFT:  2.00D  GRAD.:     1.068 HEAT:-30.65264
 CYCLE:   103 TIME:   0.007 TIME LEFT:  2.00D  GRAD.:     1.393 HEAT:-30.65777
 CYCLE:   104 TIME:   0.007 TIME LEFT:  2.00D  GRAD.:     1.875 HEAT:-30.66239
 CYCLE:   105 TIME:   0.007 TIME LEFT:  2.00D  GRAD.:     1.074 HEAT:-30.66602
 CYCLE:   106 TIME:   0.007 TIME LEFT:  2.00D  GRAD.:     1.208 HEAT:-30.66799
 CYCLE:   107 TIME:   0.007 TIME LEFT:  2.00D  GRAD.:     1.728 HEAT:-30.66767
 CYCLE:   108 TIME:   0.007 TIME LEFT:  2.00D  GRAD.:     0.593 HEAT:-30.67002
 CYCLE:   109 TIME:   0.007 TIME LEFT:  2.00D  GRAD.:     0.512 HEAT:-30.67035
 CYCLE:   110 TIME:   0.007 TIME LEFT:  2.00D  GRAD.:     0.382 HEAT:-30.67083
 CYCLE:   111 TIME:   0.007 TIME LEFT:  2.00D  GRAD.:     0.392 HEAT:-30.67116
 CYCLE:   112 TIME:   0.007 TIME LEFT:  2.00D  GRAD.:     0.394 HEAT:-30.67145
 CYCLE:   113 TIME:   0.007 TIME LEFT:  2.00D  GRAD.:     0.444 HEAT:-30.67180
 CYCLE:   114 TIME:   0.007 TIME LEFT:  2.00D  GRAD.:     0.527 HEAT:-30.67235
 CYCLE:   115 TIME:   0.007 TIME LEFT:  2.00D  GRAD.:     0.658 HEAT:-30.67297
 CYCLE:   116 TIME:   0.007 TIME LEFT:  2.00D  GRAD.:     0.905 HEAT:-30.67476
 CYCLE:   117 TIME:   0.007 TIME LEFT:  2.00D  GRAD.:     1.453 HEAT:-30.67631
 CYCLE:   118 TIME:   0.007 TIME LEFT:  2.00D  GRAD.:     1.557 HEAT:-30.68013
 CYCLE:   119 TIME:   0.007 TIME LEFT:  2.00D  GRAD.:     2.191 HEAT:-30.68860
 CYCLE:   120 TIME:   0.007 TIME LEFT:  2.00D  GRAD.:     2.276 HEAT:-30.68746
 CYCLE:   121 TIME:   0.007 TIME LEFT:  2.00D  GRAD.:     0.879 HEAT:-30.69403
 CYCLE:   122 TIME:   0.007 TIME LEFT:  2.00D  GRAD.:     1.182 HEAT:-30.69573
 CYCLE:   123 TIME:   0.007 TIME LEFT:  2.00D  GRAD.:     0.703 HEAT:-30.69659
 CYCLE:   124 TIME:   0.007 TIME LEFT:  2.00D  GRAD.:     0.505 HEAT:-30.69700
 CYCLE:   125 TIME:   0.007 TIME LEFT:  2.00D  GRAD.:     0.574 HEAT:-30.69737
 CYCLE:   126 TIME:   0.007 TIME LEFT:  2.00D  GRAD.:     0.429 HEAT:-30.69819
 CYCLE:   127 TIME:   0.007 TIME LEFT:  2.00D  GRAD.:     0.348 HEAT:-30.69866
 CYCLE:   128 TIME:   0.007 TIME LEFT:  2.00D  GRAD.:     0.240 HEAT:-30.69887
 CYCLE:   129 TIME:   0.007 TIME LEFT:  2.00D  GRAD.:     0.232 HEAT:-30.69893
 CYCLE:   130 TIME:   0.007 TIME LEFT:  2.00D  GRAD.:     0.151 HEAT:-30.69898
 CYCLE:   131 TIME:   0.007 TIME LEFT:  2.00D  GRAD.:     0.120 HEAT:-30.69901
 CYCLE:   132 TIME:   0.007 TIME LEFT:  2.00D  GRAD.:     0.106 HEAT:-30.69902
 CYCLE:   133 TIME:   0.007 TIME LEFT:  2.00D  GRAD.:     2.232 HEAT:-30.69313
 CYCLE:   134 TIME:   0.007 TIME LEFT:  2.00D  GRAD.:     0.244 HEAT:-30.69879
 CYCLE:   135 TIME:   0.008 TIME LEFT:  2.00D  GRAD.:     0.399 HEAT:-30.69899
 CYCLE:   136 TIME:   0.007 TIME LEFT:  2.00D  GRAD.:     0.136 HEAT:-30.69910
 CYCLE:   137 TIME:   0.010 TIME LEFT:  2.00D  GRAD.:     0.187 HEAT:-30.69909
 CYCLE:   138 TIME:   0.007 TIME LEFT:  2.00D  GRAD.:     0.110 HEAT:-30.69916
 CYCLE:   139 TIME:   0.007 TIME LEFT:  2.00D  GRAD.:     0.147 HEAT:-30.69917
 CYCLE:   140 TIME:   0.007 TIME LEFT:  2.00D  GRAD.:     0.105 HEAT:-30.69920
 CYCLE:   141 TIME:   0.007 TIME LEFT:  2.00D  GRAD.:     0.136 HEAT:-30.69927
 CYCLE:   142 TIME:   0.007 TIME LEFT:  2.00D  GRAD.:     0.103 HEAT:-30.69931
 CYCLE:   143 TIME:   0.007 TIME LEFT:  2.00D  GRAD.:     1.704 HEAT:-30.69586
 CYCLE:   144 TIME:   0.007 TIME LEFT:  2.00D  GRAD.:     0.244 HEAT:-30.69933
 CYCLE:   145 TIME:   0.007 TIME LEFT:  2.00D  GRAD.:     0.117 HEAT:-30.69943
 CYCLE:   146 TIME:   0.007 TIME LEFT:  2.00D  GRAD.:     0.073 HEAT:-30.69946
 CYCLE:   147 TIME:   0.007 TIME LEFT:  2.00D  GRAD.:     0.077 HEAT:-30.69947
 CYCLE:   148 TIME:   0.007 TIME LEFT:  2.00D  GRAD.:     0.242 HEAT:-30.69948
 CYCLE:   149 TIME:   0.007 TIME LEFT:  2.00D  GRAD.:     0.180 HEAT:-30.69952
 CYCLE:   150 TIME:   0.007 TIME LEFT:  2.00D  GRAD.:     0.151 HEAT:-30.69955
 CYCLE:   151 TIME:   0.007 TIME LEFT:  2.00D  GRAD.:     0.147 HEAT:-30.69958
 CYCLE:   152 TIME:   0.007 TIME LEFT:  2.00D  GRAD.:     0.121 HEAT:-30.69961
 CYCLE:   153 TIME:   0.007 TIME LEFT:  2.00D  GRAD.:     0.084 HEAT:-30.69964
 CYCLE:   154 TIME:   0.007 TIME LEFT:  2.00D  GRAD.:     0.068 HEAT:-30.69967
 CYCLE:   155 TIME:   0.007 TIME LEFT:  2.00D  GRAD.:     0.103 HEAT:-30.69972
 CYCLE:   156 TIME:   0.007 TIME LEFT:  2.00D  GRAD.:     0.075 HEAT:-30.69975
 CYCLE:   157 TIME:   0.007 TIME LEFT:  2.00D  GRAD.:     0.041 HEAT:-30.69976

     RMS GRADIENT =  0.04073  IS LESS THAN CUTOFF =  0.05000



 -------------------------------------------------------------------------------
pm3  precise nosym
 InChI=1S/C8H14O/c1-3-4-5-8-6-9-7(8)2/h4-5,7-8H,3,6H2,1-2H3



     GEOMETRY OPTIMISED USING EIGENVECTOR FOLLOWING (EF).     
     SCF FIELD WAS ACHIEVED                                   


                              PM3 CALCULATION
                                                       MOPAC2012 (Version: 13.159M)
                                                       Mon Jun  2 14:11:34 2014
                                                       No. of days left =   6




          FINAL HEAT OF FORMATION =        -30.69976 KCAL/MOL =    -128.44780 KJ/MOL


          TOTAL ENERGY            =      -1457.03703 EV
          ELECTRONIC ENERGY       =      -7366.03740 EV  POINT GROUP:     C1  
          CORE-CORE REPULSION     =       5909.00037 EV
          COSMO AREA              =        184.98 SQUARE ANGSTROMS
          COSMO VOLUME            =        182.45 CUBIC ANGSTROMS

          GRADIENT NORM           =          0.04073
          IONIZATION POTENTIAL    =          9.927009 EV
          HOMO LUMO ENERGIES (EV) =         -9.927  0.882
          NO. OF FILLED LEVELS    =         26
          MOLECULAR WEIGHT        =        126.198

          MOLECULAR DIMENSIONS (Angstroms)

            Atom       Atom       Distance
            H    17    H    21     7.71198
            H    16    H    14     5.09487
            H    18    H    12     2.97844


          SCF CALCULATIONS        =        167
          COMPUTATION TIME        =          1.205 SECONDS




   ATOM   CHEMICAL          X               Y               Z
  NUMBER   SYMBOL      (ANGSTROMS)     (ANGSTROMS)     (ANGSTROMS)
 
     1       C         -1.15022645  *  -0.67299903  *  -0.60307692  *
     2       C         -1.75578744  *   0.61696056  *   0.03243711  *
     3       C          2.62040992  *  -0.57418656  *   0.20712399  *
     4       C         -1.90322895  *  -0.24452529  *  -1.88818239  *
     5       C         -2.69887147  *   0.40229519  *   1.19077055  *
     6       C          3.30141226  *   0.66959196  *   0.73673072  *
     7       C          0.32384604  *  -0.74571147  *  -0.71267672  *
     8       C          1.14024422  *  -0.46211876  *   0.30317542  *
     9       O         -2.44941695  *   0.91738857  *  -1.21800358  *
    10       H         -1.52620913  *  -1.61601175  *  -0.15157463  *
    11       H         -1.01682639  *   1.41760845  *   0.24954053  *
    12       H          2.93979994  *  -1.46282549  *   0.78830056  *
    13       H          2.94097275  *  -0.76731464  *  -0.83632678  *
    14       H         -2.70362641  *  -0.91525791  *  -2.23206418  *
    15       H         -1.28011746  *   0.04849272  *  -2.74648711  *
    16       H          3.03298109  *   0.86603140  *   1.78328922  *
    17       H          4.39361744  *   0.57346090  *   0.68999867  *
    18       H          3.02428890  *   1.55934027  *   0.15669396  *
    19       H         -2.13773002  *   0.09870010  *   2.08378015  *
    20       H         -3.44441258  *  -0.37690063  *   0.98381699  *
    21       H         -3.24591261  *   1.32256792  *   1.43232262  *
    22       H          0.74216820  *  -0.13092959  *   1.27139882  *
    23       H          0.71325664  *  -1.06850343  *  -1.68693736  *

           Empirical Formula: C8 H14 O  =    23 atoms



      MOLECULAR POINT GROUP   :   C1  


                  EIGENVALUES  
 -41.26823 -36.81973 -31.81695 -30.87967 -27.19621 -23.74683 -22.19858 -20.26554
 -19.19430 -17.53036 -16.81057 -16.66010 -15.58548 -15.24314 -14.50273 -14.19945
 -13.69507 -13.60023 -13.30618 -13.01468 -12.66949 -12.19264 -12.00408 -11.75041
 -10.59625  -9.92701   0.88241   2.78691   2.86690   3.07395   3.35449   3.58051
   3.71239   3.72455   3.84905   3.90748   3.95920   4.01736   4.10696   4.25147
   4.43415   4.48385   4.59728   4.64951   4.75356   4.90156   5.02083   5.15507
   5.56167   5.75798


              NET ATOMIC CHARGES AND DIPOLE CONTRIBUTIONS

  ATOM NO.   TYPE          CHARGE      No. of ELECS.   s-Pop       p-Pop       
    1          C          -0.115625        4.1156     1.19169     2.92393
    2          C           0.070894        3.9291     1.18853     2.74058
    3          C          -0.060831        4.0608     1.14552     2.91531
    4          C           0.059683        3.9403     1.16835     2.77197
    5          C          -0.127133        4.1271     1.14054     2.98659
    6          C          -0.106364        4.1064     1.13764     2.96873
    7          C          -0.143293        4.1433     1.19158     2.95172
    8          C          -0.143512        4.1435     1.19596     2.94755
    9          O          -0.273662        6.2737     1.88319     4.39047
   10          H           0.089704        0.9103     0.91030
   11          H           0.072069        0.9279     0.92793
   12          H           0.053995        0.9460     0.94600
   13          H           0.052168        0.9478     0.94783
   14          H           0.047055        0.9529     0.95294
   15          H           0.051654        0.9483     0.94835
   16          H           0.038093        0.9619     0.96191
   17          H           0.038080        0.9619     0.96192
   18          H           0.041195        0.9588     0.95880
   19          H           0.044626        0.9554     0.95537
   20          H           0.048951        0.9510     0.95105
   21          H           0.052664        0.9473     0.94734
   22          H           0.102886        0.8971     0.89711
   23          H           0.106703        0.8933     0.89330
 DIPOLE           X         Y         Z       TOTAL
 POINT-CHG.     1.063    -1.026     0.641     1.610
 HYBRID         0.082    -0.203     0.087     0.236
 SUM            1.145    -1.229     0.728     1.831


          ATOMIC ORBITAL ELECTRON POPULATIONS

    Atom      s        px        py        pz   
    1  C   1.19169   0.94940   0.99189   0.98264
    2  C   1.18853   0.93238   0.93948   0.86872
    3  C   1.14552   0.92927   0.97612   1.00993
    4  C   1.16835   0.95274   0.88457   0.93465
    5  C   1.14054   0.99183   1.02190   0.97285
    6  C   1.13764   0.99384   0.97200   1.00289
    7  C   1.19158   0.94356   1.02012   0.98804
    8  C   1.19596   0.95957   1.00339   0.98459
    9  O   1.88319   1.69859   1.44981   1.24207
   10  H   0.91030
   11  H   0.92793
   12  H   0.94600
   13  H   0.94783
   14  H   0.95294
   15  H   0.94835
   16  H   0.96191
   17  H   0.96192
   18  H   0.95880
   19  H   0.95537
   20  H   0.95105
   21  H   0.94734
   22  H   0.89711
   23  H   0.89330
 *******************************************************************************
 ** Site#: 14399           For non-commercial use only        Version 13.159M **
 *******************************************************************************
 ** Cite this work as: MOPAC2012, James J. P. Stewart, Stewart Computational  **
 ** Chemistry, Version 13.159M web: HTTP://OpenMOPAC.net  Days remaining:   6 **
 *******************************************************************************
 **                                                                           **
 **                                MOPAC2012                                  **
 **                                                                           **
 *******************************************************************************

                            PM3 CALCULATION RESULTS


 *******************************************************************************
 *  CALCULATION DONE:                                Mon Jun  2 14:11:34 2014  *
 *  PM3      - The PM3 Hamiltonian to be used
 *  OLDGEO   - PREVIOUS GEOMETRY TO BE USED
 *  PRECISE  - CRITERIA TO BE INCREASED BY 100 TIMES
 *  NOSYM    - POINT-GROUP SYMMETRY SET TO C1
 *  T=       - A TIME OF 172800.0 SECONDS REQUESTED
 *  DUMP=N   - RESTART FILE WRITTEN EVERY  7200.000 SECONDS
 *  THERMO   - THERMODYNAMIC QUANTITIES TO BE CALCULATED
 *******************************************************************************
oldgeo thermo nosym precise  pm3

   ATOM   CHEMICAL          X               Y               Z
  NUMBER   SYMBOL      (ANGSTROMS)     (ANGSTROMS)     (ANGSTROMS)
 
     1       C         -1.15022645  *  -0.67299903  *  -0.60307692  *
     2       C         -1.75578744  *   0.61696056  *   0.03243711  *
     3       C          2.62040992  *  -0.57418656  *   0.20712399  *
     4       C         -1.90322895  *  -0.24452529  *  -1.88818239  *
     5       C         -2.69887147  *   0.40229519  *   1.19077055  *
     6       C          3.30141226  *   0.66959196  *   0.73673072  *
     7       C          0.32384604  *  -0.74571147  *  -0.71267672  *
     8       C          1.14024422  *  -0.46211876  *   0.30317542  *
     9       O         -2.44941695  *   0.91738857  *  -1.21800358  *
    10       H         -1.52620913  *  -1.61601175  *  -0.15157463  *
    11       H         -1.01682639  *   1.41760845  *   0.24954053  *
    12       H          2.93979994  *  -1.46282549  *   0.78830056  *
    13       H          2.94097275  *  -0.76731464  *  -0.83632678  *
    14       H         -2.70362641  *  -0.91525791  *  -2.23206418  *
    15       H         -1.28011746  *   0.04849272  *  -2.74648711  *
    16       H          3.03298109  *   0.86603140  *   1.78328922  *
    17       H          4.39361744  *   0.57346090  *   0.68999867  *
    18       H          3.02428890  *   1.55934027  *   0.15669396  *
    19       H         -2.13773002  *   0.09870010  *   2.08378015  *
    20       H         -3.44441258  *  -0.37690063  *   0.98381699  *
    21       H         -3.24591261  *   1.32256792  *   1.43232262  *
    22       H          0.74216820  *  -0.13092959  *   1.27139882  *
    23       H          0.71325664  *  -1.06850343  *  -1.68693736  *
 


          CARTESIAN COORDINATES 

    NO.       ATOM         X         Y         Z

     1         C       -1.1502   -0.6730   -0.6031
     2         C       -1.7558    0.6170    0.0324
     3         C        2.6204   -0.5742    0.2071
     4         C       -1.9032   -0.2445   -1.8882
     5         C       -2.6989    0.4023    1.1908
     6         C        3.3014    0.6696    0.7367
     7         C        0.3238   -0.7457   -0.7127
     8         C        1.1402   -0.4621    0.3032
     9         O       -2.4494    0.9174   -1.2180
    10         H       -1.5262   -1.6160   -0.1516
    11         H       -1.0168    1.4176    0.2495
    12         H        2.9398   -1.4628    0.7883
    13         H        2.9410   -0.7673   -0.8363
    14         H       -2.7036   -0.9153   -2.2321
    15         H       -1.2801    0.0485   -2.7465
    16         H        3.0330    0.8660    1.7833
    17         H        4.3936    0.5735    0.6900
    18         H        3.0243    1.5593    0.1567
    19         H       -2.1377    0.0987    2.0838
    20         H       -3.4444   -0.3769    0.9838
    21         H       -3.2459    1.3226    1.4323
    22         H        0.7422   -0.1309    1.2714
    23         H        0.7133   -1.0685   -1.6869

  H: (PM3): J. J. P. STEWART, J. COMP. CHEM. 10, 209 (1989).
  C: (PM3): J. J. P. STEWART, J. COMP. CHEM. 10, 209 (1989).
  O: (PM3): J. J. P. STEWART, J. COMP. CHEM. 10, 209 (1989).

           Empirical Formula: C8 H14 O  =    23 atoms



      MOLECULAR POINT GROUP   :   C1  


      RHF CALCULATION, NO. OF DOUBLY OCCUPIED LEVELS =   26



          HEAT OF FORMATION =     -30.699762 KCALS/MOLE


          INTERNAL COORDINATE DERIVATIVES

   NUMBER  ATOM       BOND         ANGLE      DIHEDRAL

     1       C      0.001164     0.002956    -0.000342
     2       C     -0.002359     0.000456     0.001619
     3       C     -0.001779    -0.010369    -0.005291
     4       C      0.003389     0.001161     0.001417
     5       C      0.002811     0.001869     0.009487
     6       C      0.002316     0.002728     0.002405
     7       C      0.009418     0.004806    -0.012753
     8       C     -0.002456    -0.008505    -0.002431
     9       O      0.001672    -0.001757    -0.004861
    10       H     -0.005483     0.001267    -0.001481
    11       H      0.006278    -0.000293     0.003785
    12       H     -0.003472    -0.004274    -0.005198
    13       H     -0.000534     0.006687     0.011088
    14       H      0.000231    -0.003863     0.001966
    15       H     -0.003481     0.002108     0.002061
    16       H      0.004916     0.005892    -0.002993
    17       H     -0.001336    -0.002604    -0.002276
    18       H      0.001286    -0.001284     0.005003
    19       H     -0.000237     0.008830    -0.010175
    20       H     -0.006239    -0.010436    -0.004314
    21       H      0.001673     0.002324     0.004015
    22       H      0.000879     0.002264     0.002916
    23       H     -0.008657     0.000039     0.006352


          GRADIENT NORM =   0.04056


          TIME FOR SCF CALCULATION =    0.00

          TIME FOR DERIVATIVES     =    0.00

          MOLECULAR WEIGHT =  126.20



          ROTATIONAL CONSTANTS IN CM(-1)

          A =    0.10247652   B =    0.02541926   C =    0.02298728



           PRINCIPAL MOMENTS OF INERTIA IN UNITS OF 10**(-40)*GRAM-CM**2

          A =      273.1628   B =     1101.2429   C =     1217.7506


          ORIENTATION OF MOLECULE IN FORCE CALCULATION

    NO.       ATOM         X         Y         Z

     1          C      -0.4012   -1.0787   -0.1532
     2          C       1.1591   -1.0787   -0.1532
     3          C      -1.4529    2.6331   -0.1532
     4          C      -0.2782   -2.0779    1.0252
     5          C       1.8194   -1.6026   -1.4050
     6          C      -0.4733    3.7512    0.1320
     7          C      -1.0781    0.2010    0.1537
     8          C      -0.7467    1.3535   -0.4301
     9          O       1.1674   -2.0460    0.9419
    10          H      -0.8510   -1.5147   -1.0709
    11          H       1.6226   -0.1280    0.1866
    12          H      -2.0748    2.8845   -1.0361
    13          H      -2.1620    2.5249    0.6920
    14          H      -0.6621   -3.0927    0.8474
    15          H      -0.6273   -1.7234    2.0066
    16          H       0.2196    3.9085   -0.7054
    17          H      -0.9957    4.6999    0.3090
    18          H       0.1336    3.5387    1.0216
    19          H       1.7144   -0.8754   -2.2203
    20          H       1.3803   -2.5502   -1.7439
    21          H       2.8909   -1.7774   -1.2444
    22          H       0.0759    1.4024   -1.1557
    23          H      -1.8929    0.1445    0.8871


    FIRST DERIVATIVES WILL BE USED IN THE CALCULATION OF SECOND DERIVATIVES

          ESTIMATED TIME TO COMPLETE CALCULATION =        2.65 SECONDS

    FOR POINT-GROUP C1   THERE ARE   1 UNIQUE SYMMETRY FUNCTIONS.

 STEP:   1 TIME =     0.03 SECS, INTEGRAL =      0.03 TIME LEFT: 172799.96
 STEP:   2 TIME =     0.03 SECS, INTEGRAL =      0.06 TIME LEFT: 172799.93
 STEP:   3 TIME =     0.03 SECS, INTEGRAL =      0.09 TIME LEFT: 172799.90
 STEP:   4 TIME =     0.03 SECS, INTEGRAL =      0.12 TIME LEFT: 172799.87
 STEP:   5 TIME =     0.03 SECS, INTEGRAL =      0.15 TIME LEFT: 172799.84
 STEP:   6 TIME =     0.03 SECS, INTEGRAL =      0.18 TIME LEFT: 172799.81
 STEP:   7 TIME =     0.03 SECS, INTEGRAL =      0.21 TIME LEFT: 172799.78
 STEP:   8 TIME =     0.03 SECS, INTEGRAL =      0.24 TIME LEFT: 172799.75
 STEP:   9 TIME =     0.03 SECS, INTEGRAL =      0.28 TIME LEFT: 172799.71
 STEP:  10 TIME =     0.03 SECS, INTEGRAL =      0.31 TIME LEFT: 172799.68
 STEP:  11 TIME =     0.03 SECS, INTEGRAL =      0.34 TIME LEFT: 172799.65
 STEP:  12 TIME =     0.03 SECS, INTEGRAL =      0.37 TIME LEFT: 172799.62
 STEP:  13 TIME =     0.03 SECS, INTEGRAL =      0.40 TIME LEFT: 172799.59
 STEP:  14 TIME =     0.03 SECS, INTEGRAL =      0.43 TIME LEFT: 172799.56
 STEP:  15 TIME =     0.03 SECS, INTEGRAL =      0.46 TIME LEFT: 172799.53
 STEP:  16 TIME =     0.03 SECS, INTEGRAL =      0.49 TIME LEFT: 172799.50
 STEP:  17 TIME =     0.03 SECS, INTEGRAL =      0.52 TIME LEFT: 172799.47
 STEP:  18 TIME =     0.03 SECS, INTEGRAL =      0.55 TIME LEFT: 172799.44
 STEP:  19 TIME =     0.03 SECS, INTEGRAL =      0.58 TIME LEFT: 172799.41
 STEP:  20 TIME =     0.03 SECS, INTEGRAL =      0.61 TIME LEFT: 172799.38
 STEP:  21 TIME =     0.03 SECS, INTEGRAL =      0.64 TIME LEFT: 172799.35
 STEP:  22 TIME =     0.03 SECS, INTEGRAL =      0.67 TIME LEFT: 172799.32
 STEP:  23 TIME =     0.03 SECS, INTEGRAL =      0.70 TIME LEFT: 172799.29
 STEP:  24 TIME =     0.03 SECS, INTEGRAL =      0.73 TIME LEFT: 172799.26
 STEP:  25 TIME =     0.03 SECS, INTEGRAL =      0.76 TIME LEFT: 172799.23
 STEP:  26 TIME =     0.03 SECS, INTEGRAL =      0.79 TIME LEFT: 172799.20
 STEP:  27 TIME =     0.03 SECS, INTEGRAL =      0.83 TIME LEFT: 172799.16
 STEP:  28 TIME =     0.03 SECS, INTEGRAL =      0.86 TIME LEFT: 172799.13
 STEP:  29 TIME =     0.03 SECS, INTEGRAL =      0.89 TIME LEFT: 172799.10
 STEP:  30 TIME =     0.03 SECS, INTEGRAL =      0.92 TIME LEFT: 172799.07
 STEP:  31 TIME =     0.03 SECS, INTEGRAL =      0.95 TIME LEFT: 172799.04
 STEP:  32 TIME =     0.03 SECS, INTEGRAL =      0.98 TIME LEFT: 172799.01
 STEP:  33 TIME =     0.03 SECS, INTEGRAL =      1.01 TIME LEFT: 172798.98
 STEP:  34 TIME =     0.03 SECS, INTEGRAL =      1.04 TIME LEFT: 172798.95
 STEP:  35 TIME =     0.03 SECS, INTEGRAL =      1.07 TIME LEFT: 172798.92
 STEP:  36 TIME =     0.03 SECS, INTEGRAL =      1.10 TIME LEFT: 172798.89
 STEP:  37 TIME =     0.04 SECS, INTEGRAL =      1.14 TIME LEFT: 172798.85
 STEP:  38 TIME =     0.03 SECS, INTEGRAL =      1.17 TIME LEFT: 172798.82
 STEP:  39 TIME =     0.04 SECS, INTEGRAL =      1.21 TIME LEFT: 172798.78
 STEP:  40 TIME =     0.03 SECS, INTEGRAL =      1.24 TIME LEFT: 172798.75
 STEP:  41 TIME =     0.03 SECS, INTEGRAL =      1.27 TIME LEFT: 172798.72
 STEP:  42 TIME =     0.03 SECS, INTEGRAL =      1.30 TIME LEFT: 172798.69
 STEP:  43 TIME =     0.03 SECS, INTEGRAL =      1.33 TIME LEFT: 172798.66
 STEP:  44 TIME =     0.03 SECS, INTEGRAL =      1.36 TIME LEFT: 172798.63
 STEP:  45 TIME =     0.03 SECS, INTEGRAL =      1.39 TIME LEFT: 172798.60
 STEP:  46 TIME =     0.03 SECS, INTEGRAL =      1.42 TIME LEFT: 172798.57
 STEP:  47 TIME =     0.03 SECS, INTEGRAL =      1.45 TIME LEFT: 172798.54
 STEP:  48 TIME =     0.03 SECS, INTEGRAL =      1.48 TIME LEFT: 172798.51
 STEP:  49 TIME =     0.03 SECS, INTEGRAL =      1.52 TIME LEFT: 172798.48
 STEP:  50 TIME =     0.03 SECS, INTEGRAL =      1.54 TIME LEFT: 172798.45
 STEP:  51 TIME =     0.03 SECS, INTEGRAL =      1.58 TIME LEFT: 172798.41
 STEP:  52 TIME =     0.03 SECS, INTEGRAL =      1.61 TIME LEFT: 172798.38
 STEP:  53 TIME =     0.03 SECS, INTEGRAL =      1.64 TIME LEFT: 172798.35
 STEP:  54 TIME =     0.03 SECS, INTEGRAL =      1.67 TIME LEFT: 172798.32
 STEP:  55 TIME =     0.03 SECS, INTEGRAL =      1.70 TIME LEFT: 172798.29
 STEP:  56 TIME =     0.03 SECS, INTEGRAL =      1.73 TIME LEFT: 172798.26
 STEP:  57 TIME =     0.03 SECS, INTEGRAL =      1.76 TIME LEFT: 172798.23
 STEP:  58 TIME =     0.03 SECS, INTEGRAL =      1.79 TIME LEFT: 172798.20
 STEP:  59 TIME =     0.03 SECS, INTEGRAL =      1.82 TIME LEFT: 172798.17
 STEP:  60 TIME =     0.03 SECS, INTEGRAL =      1.85 TIME LEFT: 172798.14
 STEP:  61 TIME =     0.03 SECS, INTEGRAL =      1.88 TIME LEFT: 172798.11
 STEP:  62 TIME =     0.03 SECS, INTEGRAL =      1.91 TIME LEFT: 172798.08
 STEP:  63 TIME =     0.03 SECS, INTEGRAL =      1.94 TIME LEFT: 172798.05
 STEP:  64 TIME =     0.03 SECS, INTEGRAL =      1.97 TIME LEFT: 172798.02
 STEP:  65 TIME =     0.03 SECS, INTEGRAL =      2.00 TIME LEFT: 172797.99
 STEP:  66 TIME =     0.03 SECS, INTEGRAL =      2.03 TIME LEFT: 172797.96
 STEP:  67 TIME =     0.03 SECS, INTEGRAL =      2.06 TIME LEFT: 172797.93
 STEP:  68 TIME =     0.03 SECS, INTEGRAL =      2.10 TIME LEFT: 172797.90
 STEP:  69 TIME =     0.03 SECS, INTEGRAL =      2.13 TIME LEFT: 172797.86

(To convert to Hartree/Bohr^2, multiply by (10^(-21) x N x a0^2)/(4.184 x 627.51) = 0.0642)


           FORCE MATRIX IN MILLIDYNES/ANGSTROM


                  C  1       C  2       C  3       C  4       C  5       C  6
 ------------------------------------------------------------------------------
     C    1  14.861916
     C    2   3.052877  14.425211
     C    3   0.145299   0.009609  14.691130
     C    4   3.404811   2.306037   0.011365  14.645508
     C    5   0.513542   4.472091   0.000955   0.072215  14.494291
     C    6   0.018888   0.002199   4.411010   0.002042   0.000892  14.351299
     C    7   5.167843   0.530332   0.822702   0.555272   0.036840   0.041180
     C    8   0.836724   0.050763   4.970362   0.051099   0.004461   0.717819
     O    9   2.092890   3.959766   0.004315   4.409824   0.718725   0.001695
     H   10   4.399415   0.438070   0.017918   0.428785   0.024393   0.001980
     H   11   0.423576   4.370792   0.001394   0.056181   0.420997   0.000336
     H   12   0.019938   0.002333   4.420223   0.001667   0.000470   0.446002
     H   13   0.003481   0.001139   4.441673   0.000616   0.000325   0.434752
     H   14   0.427162   0.058521   0.001468   4.676508   0.002966   0.000617
     H   15   0.439713   0.058418   0.000622   4.648237   0.012948   0.000337
     H   16   0.000628   0.000555   0.464746   0.000486   0.000253   4.725297
     H   17   0.003132   0.000673   0.449943   0.000638   0.000436   4.752247
     H   18   0.000842   0.000739   0.460907   0.000456   0.000345   4.746544
     H   19   0.009637   0.437051   0.000530   0.010004   4.750539   0.000223
     H   20   0.018965   0.481659   0.000289   0.005556   4.738909   0.000159
     H   21   0.046903   0.460856   0.000297   0.006984   4.762597   0.000268
     H   22   0.086752   0.019085   0.431487   0.004338   0.004009   0.026178
     H   23   0.433920   0.034786   0.086787   0.031813   0.005272   0.008724


                  C  7       C  8       O  9       H 10       H 11       H 12
 ------------------------------------------------------------------------------
     C    7  18.300632
     C    8  10.672055  18.174067
     O    9   0.058706   0.008694   8.887272
     H   10   0.392464   0.023855   0.042382   4.891694
     H   11   0.015235   0.010200   0.338405   0.031358   4.768736
     H   12   0.032936   0.407449   0.000502   0.002986   0.000259   5.017225
     H   13   0.049527   0.460623   0.001050   0.000742   0.000291   0.566357
     H   14   0.036241   0.005780   0.358104   0.022845   0.010656   0.000129
     H   15   0.018794   0.002864   0.360989   0.033511   0.002059   0.000246
     H   16   0.002166   0.027522   0.000555   0.000168   0.000148   0.023758
     H   17   0.007050   0.052376   0.000547   0.000261   0.000203   0.028458
     H   18   0.002547   0.016149   0.000535   0.000182   0.000330   0.049259
     H   19   0.001524   0.002099   0.058623   0.003782   0.027508   0.000133
     H   20   0.001727   0.000747   0.026420   0.019624   0.044221   0.000102
     H   21   0.006285   0.000913   0.020166   0.003065   0.026236   0.000144
     H   22   0.470890   4.755796   0.005264   0.010282   0.016233   0.016941
     H   23   4.761523   0.471522   0.004394   0.013804   0.002532   0.010539


                  H 13       H 14       H 15       H 16       H 17       H 18
 ------------------------------------------------------------------------------
     H   13   5.051867
     H   14   0.000121   5.139603
     H   15   0.000148   0.489950   5.118083
     H   16   0.047927   0.000099   0.000102   5.469883
     H   17   0.030282   0.000161   0.000097   0.573791   5.488641
     H   18   0.024513   0.000108   0.000084   0.578550   0.574126   5.483703
     H   19   0.000133   0.000849   0.002226   0.000129   0.000085   0.000090
     H   20   0.000041   0.001275   0.000762   0.000063   0.000078   0.000069
     H   21   0.000092   0.000906   0.001186   0.000091   0.000082   0.000065
     H   22   0.039107   0.000947   0.000662   0.020027   0.002017   0.002630
     H   23   0.030065   0.002416   0.022453   0.000622   0.001757   0.000526


                  H 19       H 20       H 21       H 22       H 23
 ------------------------------------------------------------------
     H   19   5.464278
     H   20   0.564833   5.475706
     H   21   0.562044   0.574702   5.487393
     H   22   0.006586   0.000721   0.000681   5.131771
     H   23   0.000375   0.000499   0.001042   0.107527   5.134068


          HEAT OF FORMATION =     -30.699762 KCALS/MOLE

          ZERO POINT ENERGY     126.159 KCAL/MOL


           NORMAL COORDINATE ANALYSIS (Total motion = 1 Angstrom)


   Root No.       1         2         3         4         5         6         7         8

                 1 A       2 A       3 A       4 A       5 A       6 A       7 A       8 A   

                  30.2      72.7      96.6     109.9     146.0     163.7     210.5     287.0
  
           1   -0.0024   -0.0043   -0.0134   -0.0115    0.0042    0.0015    0.0030    0.0038
           2   -0.0025    0.0039   -0.0146   -0.0119    0.0035   -0.0011   -0.0021    0.0169
           3    0.0000    0.0138   -0.0193    0.0116   -0.0012    0.0067   -0.0055    0.0052
           4   -0.0025   -0.0039   -0.0128   -0.0119    0.0037    0.0010    0.0039    0.0089
           5    0.0008    0.0115    0.0199    0.0059   -0.0025   -0.0075   -0.0126    0.0011
           6   -0.0142    0.0128   -0.0093    0.0048    0.0058    0.0058   -0.0035   -0.0099
           7    0.0014   -0.0025    0.0096    0.0169    0.0011    0.0005   -0.0084   -0.0235
           8   -0.0003    0.0019   -0.0078   -0.0059    0.0027   -0.0020    0.0000    0.0268
           9   -0.0288   -0.0227    0.0303   -0.0154   -0.0018   -0.0096    0.0285   -0.0176
          10    0.0105    0.0013    0.0019    0.0045   -0.0053   -0.0018   -0.0035    0.0098
          11    0.0215   -0.0088    0.0032   -0.0039   -0.0087    0.0145    0.0348    0.0062
          12    0.0191    0.0019   -0.0054    0.0162   -0.0108    0.0207    0.0276   -0.0051
          13   -0.0132   -0.0009    0.0076   -0.0102   -0.0050    0.0000    0.0228    0.0298
          14   -0.0243    0.0414    0.0031    0.0438   -0.0030    0.0131    0.0032   -0.0249
          15   -0.0095    0.0024    0.0085   -0.0093    0.0012   -0.0027    0.0006    0.0095
          16   -0.0032    0.0329    0.0372    0.0072   -0.0041   -0.0058    0.0039    0.0165
          17   -0.0169   -0.0362   -0.0223    0.0017    0.0065   -0.0011   -0.0037   -0.0076
          18    0.0526    0.0073   -0.0049   -0.0121    0.0006    0.0071    0.0017   -0.0088
          19   -0.0060    0.0029   -0.0307   -0.0242    0.0099   -0.0003   -0.0038   -0.0341
          20   -0.0001    0.0058   -0.0221   -0.0145    0.0049    0.0023   -0.0013   -0.0009
          21   -0.0183    0.0233   -0.0247   -0.0071    0.0061   -0.0158   -0.0269    0.0196
          22    0.0056   -0.0345   -0.0122    0.0238    0.0036    0.0095   -0.0156   -0.0335
          23   -0.0013   -0.0127   -0.0135   -0.0105    0.0037    0.0025    0.0051    0.0091
          24   -0.0139   -0.0347    0.0031    0.0276   -0.0003   -0.0101   -0.0196    0.0414
          25    0.0096    0.0012    0.0020    0.0036   -0.0041   -0.0024   -0.0052    0.0074
          26    0.0236   -0.0074    0.0483   -0.0105   -0.0059   -0.0213   -0.0248   -0.0162
          27    0.0057   -0.0041    0.0150   -0.0100    0.0028   -0.0059   -0.0132   -0.0253
          28   -0.0096   -0.0038   -0.0019   -0.0093    0.0086    0.0022    0.0053    0.0038
          29   -0.0215    0.0111   -0.0304   -0.0259    0.0145   -0.0158   -0.0290    0.0222
          30    0.0125    0.0102   -0.0168    0.0168   -0.0085    0.0131    0.0064    0.0023
          31   -0.0006   -0.0108   -0.0352   -0.0224    0.0062    0.0022    0.0008    0.0166
          32    0.0084    0.0089    0.0384    0.0054   -0.0042   -0.0128   -0.0155   -0.0036
          33   -0.0380    0.0299   -0.0297    0.0218    0.0063    0.0195    0.0105   -0.0080
          34    0.0559    0.0151   -0.0218    0.0414    0.0033    0.0029   -0.0480    0.0243
          35    0.0247    0.0368    0.0028   -0.0247    0.0003    0.0036    0.0121    0.0269
          36   -0.0600   -0.0249    0.0557   -0.0382   -0.0042   -0.0094    0.0600   -0.0511
          37   -0.0494   -0.0147    0.0419   -0.0066   -0.0015   -0.0028    0.0292   -0.0623
          38   -0.0105    0.0099   -0.0020    0.0099    0.0015   -0.0132   -0.0118    0.0676
          39   -0.0728   -0.0321    0.0580   -0.0332   -0.0042   -0.0135    0.0587   -0.0463
          40    0.0115    0.0012    0.0368   -0.0024   -0.0023   -0.0296   -0.0498   -0.0093
          41    0.0169   -0.0071   -0.0110   -0.0039   -0.0072    0.0207    0.0431    0.0134
          42    0.0430   -0.0078    0.0003    0.0317   -0.0265    0.0472    0.0835   -0.0045
          43    0.0181    0.0055   -0.0234    0.0225   -0.0148    0.0244    0.0391    0.0317
          44    0.0406   -0.0202    0.0030    0.0067   -0.0208    0.0420    0.0915    0.0061
          45    0.0149    0.0076   -0.0144    0.0187   -0.0100    0.0203    0.0230    0.0027
          46    0.0500    0.0496   -0.0097    0.0436    0.0104   -0.1126    0.0405    0.0097
          47   -0.0092   -0.0483   -0.0133   -0.0283   -0.0039    0.1235   -0.0671   -0.0150
          48    0.0981    0.0189   -0.0421    0.0123    0.0106   -0.0577    0.0199   -0.0162
          49   -0.0032    0.0641    0.0572    0.0016   -0.0076   -0.0185    0.0173    0.0541
          50   -0.0143   -0.0205   -0.0204    0.0089    0.0086   -0.0411    0.0179    0.0074
          51    0.0385    0.0148    0.0432   -0.0673   -0.0207    0.1840   -0.0747    0.0191
          52   -0.0604    0.0135    0.0868   -0.0314   -0.0195    0.1091   -0.0356    0.0231
          53   -0.0409   -0.0713   -0.0453    0.0313    0.0183   -0.0865    0.0360   -0.0491
          54    0.0858    0.0122   -0.0442    0.0213    0.0139   -0.0916    0.0382   -0.0230
          55   -0.0217   -0.0110   -0.0116   -0.0332   -0.2228   -0.0279    0.0117    0.0414
          56   -0.0416    0.0559   -0.0244    0.0585   -0.1062    0.0147    0.0012   -0.0535
          57   -0.0238    0.0165   -0.0135    0.0066   -0.0628    0.0021    0.0002   -0.0166
          58   -0.0151    0.0087    0.0376    0.0079    0.1486    0.0197    0.0480    0.0448
          59   -0.0320    0.0431   -0.0204    0.0412   -0.1235    0.0038   -0.0071   -0.0402
          60    0.0144   -0.0144    0.0353   -0.0250    0.1393   -0.0019   -0.0028    0.0327
          61   -0.0115    0.0014    0.0123   -0.0050    0.0436    0.0062    0.0260    0.0284
          62   -0.0195    0.0503    0.0406    0.0645    0.2231    0.0395    0.0290   -0.0119
          63   -0.0157   -0.0033    0.0177   -0.0217   -0.0799   -0.0161    0.0084    0.0370
          64    0.0200   -0.0819   -0.0027    0.0720   -0.0028    0.0218   -0.0277    0.0005
          65   -0.0016   -0.0392   -0.0076   -0.0127    0.0023    0.0087    0.0183    0.0040
          66    0.0024   -0.0904    0.0140    0.0813   -0.0076    0.0049   -0.0319    0.0779
          67   -0.0207    0.0519   -0.0461   -0.0708    0.0178   -0.0155   -0.0020   -0.0603
          68    0.0019    0.0257   -0.0324   -0.0215    0.0070    0.0047   -0.0036   -0.0332
          69   -0.0345    0.0788   -0.0428   -0.0601    0.0150   -0.0322   -0.0241   -0.0130


   Root No.       9        10        11        12        13        14        15        16

                 9 A      10 A      11 A      12 A      13 A      14 A      15 A      16 A   

                 312.3     380.0     451.3     478.5     578.5     780.6     813.9     873.3
  
           1   -0.0326   -0.0132    0.0109    0.0139    0.0002   -0.0315   -0.0055    0.0327
           2   -0.0166   -0.0205   -0.0235    0.0094   -0.0357    0.0125    0.0092    0.0132
           3   -0.0022    0.0174   -0.0191   -0.0169   -0.0405   -0.0390    0.0035    0.0047
           4   -0.0316   -0.0116    0.0133    0.0186   -0.0131   -0.0187   -0.0005   -0.0321
           5   -0.0032   -0.0034   -0.0441    0.0210    0.0196   -0.0454   -0.0049   -0.0056
           6   -0.0312    0.0067   -0.0100    0.0117    0.0131    0.0101    0.0013   -0.0164
           7    0.0178    0.0176   -0.0015    0.0372   -0.0167    0.0033    0.0042    0.0034
           8   -0.0070    0.0330    0.0250   -0.0124    0.0163   -0.0027   -0.0134   -0.0045
           9   -0.0058    0.0002   -0.0065   -0.0020   -0.0006   -0.0048    0.0354    0.0004
          10   -0.0056    0.0258   -0.0116   -0.0041    0.0070    0.0325    0.0036   -0.0009
          11    0.0022   -0.0420    0.0030    0.0265   -0.0005    0.0222    0.0059    0.0127
          12    0.0109    0.0083    0.0067   -0.0118   -0.0012   -0.0344   -0.0001   -0.0003
          13    0.0389   -0.0012    0.0151   -0.0098   -0.0256   -0.0127    0.0003   -0.0274
          14    0.0003   -0.0067    0.0107   -0.0035    0.0055   -0.0047   -0.0015    0.0058
          15    0.0055    0.0150   -0.0384    0.0078    0.0292    0.0221    0.0004    0.0043
          16   -0.0093    0.0028    0.0062   -0.0025    0.0034   -0.0038   -0.0016    0.0056
          17    0.0130    0.0502    0.0233    0.0223    0.0036   -0.0065   -0.0088    0.0001
          18    0.0034    0.0116    0.0014    0.0058   -0.0027   -0.0016    0.0061    0.0019
          19    0.0134   -0.0237    0.0069   -0.0262    0.0416   -0.0287   -0.0102    0.0299
          20    0.0019   -0.0037   -0.0213   -0.0243   -0.0181    0.0224    0.0063   -0.0095
          21    0.0311   -0.0307    0.0050    0.0180   -0.0105    0.0124   -0.0180    0.0098
          22    0.0133   -0.0289   -0.0303   -0.0182   -0.0018    0.0098    0.0056   -0.0178
          23   -0.0110    0.0046   -0.0020   -0.0368    0.0118    0.0056    0.0061   -0.0077
          24    0.0041   -0.0297    0.0199   -0.0004    0.0228   -0.0001    0.0010   -0.0063
          25   -0.0088    0.0242   -0.0086   -0.0040    0.0066    0.0414    0.0040    0.0116
          26    0.0124   -0.0131    0.0110   -0.0050   -0.0068   -0.0145   -0.0021   -0.0099
          27   -0.0190   -0.0044    0.0433   -0.0107   -0.0131    0.0232    0.0021    0.0099
          28   -0.0648   -0.0118    0.0100    0.0479    0.0140   -0.0551   -0.0061    0.0116
          29   -0.0162   -0.0428   -0.0268    0.0143   -0.0481    0.0589   -0.0039    0.0429
          30    0.0156    0.0267   -0.0161   -0.0359   -0.0399   -0.0475    0.0097   -0.0012
          31   -0.0615   -0.0278    0.0149    0.0296   -0.0530   -0.0425    0.0046   -0.0432
          32    0.0163    0.0052   -0.0420    0.0107    0.0361   -0.0375   -0.0081    0.0198
          33   -0.0395    0.0044   -0.0168    0.0215    0.0220    0.0201    0.0025   -0.0618
          34    0.0282    0.0097    0.0360    0.0470    0.0238   -0.0268    0.1629    0.0159
          35   -0.0187    0.0570    0.0274   -0.0155    0.0070   -0.0139   -0.0067    0.0241
          36   -0.0170    0.0123   -0.0330   -0.0107   -0.0326    0.0141   -0.0801   -0.0007
          37    0.0054    0.0264   -0.0323    0.0283   -0.0520    0.0281   -0.1416   -0.0031
          38   -0.0078    0.0298    0.0543   -0.0055    0.0402   -0.0142    0.0056   -0.0062
          39   -0.0159    0.0074   -0.0300   -0.0081   -0.0294    0.0163   -0.0900   -0.0061
          40   -0.0015    0.0515   -0.0011   -0.0332   -0.0008    0.0333    0.0062   -0.0459
          41   -0.0039   -0.0482   -0.0043    0.0329   -0.0090    0.0191    0.0106    0.0404
          42    0.0380   -0.0142    0.0255    0.0193    0.0749    0.0006   -0.0357   -0.0678
          43    0.0123    0.0272   -0.0414    0.0089    0.0242    0.0306    0.0015   -0.0254
          44    0.0169   -0.0746    0.0266    0.0640    0.0714    0.0845   -0.0257   -0.0155
          45    0.0124    0.0192   -0.0118   -0.0192   -0.0196   -0.0583    0.0094    0.0004
          46   -0.0138    0.0046    0.0044   -0.0066    0.0013    0.0054   -0.0752   -0.0044
          47    0.0394    0.0722    0.0305    0.0629   -0.0131    0.0006   -0.0697    0.0144
          48    0.0049    0.0180    0.0014    0.0111   -0.0082    0.0079   -0.0703   -0.0039
          49   -0.0366   -0.0226    0.0076   -0.0585    0.0313   -0.0054   -0.0122   -0.0270
          50   -0.0032    0.0373    0.0228   -0.0068    0.0174   -0.0088   -0.0042   -0.0145
          51    0.0114    0.0120    0.0105    0.0038    0.0027    0.0050   -0.0504   -0.0110
          52   -0.0041    0.0008    0.0080    0.0015    0.0061   -0.0145    0.0768    0.0162
          53    0.0229    0.0643    0.0165    0.0574   -0.0145   -0.0198    0.0911    0.0376
          54    0.0020    0.0159   -0.0017    0.0107   -0.0088    0.0031   -0.0273    0.0026
          55    0.0675    0.0093   -0.0155   -0.0150   -0.0211   -0.0388   -0.0018    0.0421
          56   -0.0153   -0.0142    0.0621   -0.0170   -0.0117    0.0580    0.0060   -0.0021
          57   -0.0117    0.0075    0.0092   -0.0032    0.0143    0.0803    0.0072   -0.0106
          58    0.0870    0.0036    0.0325   -0.0391   -0.0492    0.0283    0.0071    0.0571
          59   -0.0175   -0.0103    0.0241   -0.0011    0.0049    0.0039   -0.0008   -0.0176
          60   -0.0046    0.0183   -0.0947    0.0362    0.0575   -0.0499   -0.0095   -0.0338
          61    0.0355   -0.0031    0.0224   -0.0104   -0.0292   -0.0069    0.0012   -0.0376
          62    0.0351   -0.0056    0.0296   -0.0259   -0.0141    0.0352    0.0044    0.0589
          63    0.0722    0.0309   -0.0697   -0.0150    0.0275    0.0255    0.0015    0.1441
          64   -0.0159   -0.0432   -0.0444   -0.0456   -0.0237    0.0102   -0.0552   -0.0006
          65   -0.0310   -0.0016   -0.0061   -0.0824    0.0411   -0.0236    0.0147    0.0083
          66   -0.0299   -0.0462    0.0022   -0.0347   -0.0015   -0.0010   -0.0677    0.0136
          67    0.0514   -0.0232    0.0283    0.0022    0.0819   -0.0091    0.0185   -0.0612
          68    0.0286    0.0037   -0.0447   -0.0352   -0.0292    0.0465    0.0333   -0.0878
          69    0.0755   -0.0295    0.0274    0.0477    0.0339    0.0361    0.0159   -0.0980


   Root No.      17        18        19        20        21        22        23        24

                17 A      18 A      19 A      20 A      21 A      22 A      23 A      24 A   

                 909.0     920.6     922.4     939.4     963.2     967.2     991.4    1012.8
  
           1   -0.0047    0.0048   -0.0009   -0.0158    0.0061    0.0053   -0.0073   -0.0128
           2   -0.0048    0.0054   -0.0027   -0.0124    0.0095   -0.0034    0.0083   -0.0121
           3   -0.0016    0.0000   -0.0007    0.0000   -0.0105    0.0036   -0.0246    0.0124
           4    0.0049   -0.0013   -0.0022    0.0085   -0.0030    0.0003   -0.0025    0.0055
           5   -0.0039   -0.0169    0.0122   -0.0006   -0.0006   -0.0009   -0.0052   -0.0156
           6    0.0051    0.0040   -0.0051   -0.0007   -0.0005    0.0004   -0.0053    0.0109
           7   -0.0025    0.0008   -0.0015   -0.0017    0.0047   -0.0093   -0.0003   -0.0020
           8   -0.0007   -0.0023   -0.0008   -0.0003   -0.0024    0.0062    0.0006   -0.0016
           9    0.0027   -0.0010    0.0007   -0.0015    0.0009   -0.0039   -0.0046    0.0063
          10   -0.0026   -0.0039    0.0038   -0.0002    0.0114   -0.0050    0.0315   -0.0210
          11   -0.0205    0.0110   -0.0036    0.0367    0.0075    0.0112    0.0069    0.0024
          12   -0.0068    0.0096   -0.0064   -0.0037    0.0226    0.0038    0.0024   -0.0123
          13    0.0059   -0.0074    0.0007    0.0156   -0.0093   -0.0076   -0.0039   -0.0093
          14   -0.0051   -0.0136    0.0120    0.0052    0.0017   -0.0024    0.0121    0.0111
          15    0.0062    0.0230   -0.0179    0.0075   -0.0049    0.0012   -0.0046   -0.0103
          16    0.0027    0.0049    0.0027    0.0034    0.0044   -0.0156   -0.0026    0.0024
          17   -0.0002   -0.0015   -0.0016    0.0004   -0.0117    0.0292    0.0045    0.0022
          18    0.0082    0.0007    0.0059    0.0020   -0.0041    0.0133    0.0042   -0.0036
          19    0.0162    0.0043   -0.0113    0.0179   -0.0019   -0.0069    0.0082    0.0073
          20    0.0082   -0.0102    0.0021   -0.0038    0.0072   -0.0085   -0.0023   -0.0031
          21    0.0265   -0.0116   -0.0018    0.0106    0.0003    0.0063    0.0050   -0.0005
          22   -0.0102   -0.0171   -0.0127   -0.0094   -0.0057    0.0185    0.0006   -0.0047
          23   -0.0052   -0.0053   -0.0046   -0.0054    0.0075   -0.0168   -0.0033   -0.0028
          24   -0.0209   -0.0086   -0.0208   -0.0052    0.0033   -0.0086   -0.0004   -0.0031
          25   -0.0042   -0.0033    0.0032    0.0071   -0.0155    0.0044   -0.0316    0.0288
          26    0.0138    0.0224   -0.0176   -0.0129   -0.0093   -0.0009    0.0022    0.0210
          27   -0.0100   -0.0283    0.0229   -0.0010   -0.0105   -0.0083    0.0123   -0.0124
          28   -0.0135    0.0071    0.0024   -0.1194    0.0324    0.0303   -0.0538   -0.0393
          29    0.0548   -0.0180    0.0041   -0.0544    0.0181   -0.0147   -0.0065   -0.0286
          30   -0.0235    0.0089   -0.0053    0.0709   -0.0261   -0.0040    0.0054    0.0328
          31    0.0140    0.0456   -0.0232   -0.0588    0.0488    0.0194    0.0505    0.0918
          32   -0.0131   -0.0460    0.0248    0.0292   -0.0447   -0.0084   -0.0804   -0.1192
          33    0.0166    0.0209   -0.0115    0.0091    0.0467   -0.0038    0.1186    0.1635
          34    0.0188    0.0029    0.0083   -0.0010    0.0072   -0.0199   -0.0081    0.0101
          35    0.0750    0.0203    0.0582    0.0294   -0.0099    0.0347    0.0254   -0.0339
          36    0.0081    0.0039    0.0099    0.0063   -0.0034    0.0127    0.0082   -0.0114
          37   -0.0216    0.0019   -0.0107   -0.0007    0.0062   -0.0109    0.0054   -0.0118
          38   -0.0333   -0.0047   -0.0289   -0.0054    0.0170   -0.0673   -0.0327    0.0354
          39   -0.0183   -0.0004   -0.0108   -0.0015    0.0051   -0.0158   -0.0042    0.0026
          40    0.0053    0.0076   -0.0151    0.0564    0.2611    0.0481    0.0478   -0.0746
          41   -0.0409    0.0179   -0.0014    0.0313   -0.0882   -0.0055    0.0103    0.0187
          42    0.1074   -0.0613    0.0231   -0.1051    0.0621   -0.0134   -0.0457   -0.0017
          43    0.0280    0.0220   -0.0103   -0.1029   -0.1637   -0.0837    0.1650   -0.0612
          44    0.0744   -0.0707    0.0360   -0.0416    0.0143    0.0001   -0.0679    0.0367
          45   -0.0281    0.0457   -0.0241   -0.0123   -0.0391   -0.0186    0.0701   -0.0366
          46   -0.0354    0.0004   -0.0248   -0.0041    0.0096   -0.0398   -0.0137    0.0167
          47   -0.0268    0.0159   -0.0161    0.0055    0.0347   -0.1139   -0.0257    0.0212
          48   -0.0303    0.0002   -0.0210   -0.0035    0.0102   -0.0376   -0.0117    0.0126
          49   -0.0093   -0.0239   -0.0115   -0.0121   -0.0581    0.1613    0.0254   -0.0024
          50    0.0002   -0.0149   -0.0038   -0.0058   -0.0443    0.1224    0.0204   -0.0024
          51   -0.0255   -0.0079   -0.0201   -0.0068   -0.0077    0.0164   -0.0013    0.0077
          52    0.0442    0.0098    0.0327    0.0117   -0.0051    0.0204    0.0110   -0.0126
          53    0.0640    0.0268    0.0500    0.0238    0.0172   -0.0431    0.0033   -0.0130
          54   -0.0069    0.0036   -0.0038    0.0013    0.0089   -0.0277   -0.0056    0.0035
          55   -0.0300   -0.0573    0.0547   -0.0330    0.0276    0.0058    0.0324    0.0601
          56    0.0221    0.0722   -0.0594   -0.0053   -0.0135    0.0081   -0.0388   -0.0526
          57    0.0342    0.1045   -0.0870    0.0042   -0.0221    0.0090   -0.0525   -0.0721
          58   -0.0098    0.0288   -0.0122   -0.0663    0.0242    0.0236   -0.0164    0.0094
          59    0.0069    0.0022   -0.0058    0.0213   -0.0119   -0.0073   -0.0026   -0.0157
          60   -0.0068   -0.0616    0.0443    0.0626   -0.0092   -0.0230    0.0492    0.0382
          61    0.0118    0.0025   -0.0092    0.0200   -0.0146   -0.0088   -0.0119   -0.0208
          62   -0.0089    0.0283   -0.0119   -0.0444    0.0181    0.0184   -0.0050    0.0065
          63   -0.0431   -0.0008    0.0284   -0.0905    0.0561    0.0366    0.0338    0.0764
          64    0.0426    0.0930    0.1386    0.0166   -0.0083    0.0231   -0.0002   -0.0004
          65    0.0013    0.0299    0.0327    0.0069    0.0154   -0.0774   -0.0316    0.0171
          66    0.0395    0.1178    0.1530    0.0252    0.0009   -0.0071   -0.0030    0.0038
          67   -0.0922    0.0897    0.0859   -0.0365   -0.0008    0.0015   -0.0136   -0.0113
          68   -0.0101   -0.0159    0.0453   -0.0217    0.0027   -0.0032   -0.0588    0.0299
          69   -0.0953    0.0829    0.1099   -0.0504    0.0011    0.0162   -0.0241   -0.0181


   Root No.      25        26        27        28        29        30        31        32

                25 A      26 A      27 A      28 A      29 A      30 A      31 A      32 A   

                1028.5    1049.8    1091.5    1115.8    1126.6    1138.7    1146.5    1164.0
  
           1   -0.0009    0.0053   -0.0251    0.0049    0.0117    0.0128   -0.0191    0.0282
           2   -0.0064    0.0123   -0.0226   -0.0001    0.0026    0.0137   -0.0118    0.0035
           3   -0.0052   -0.0186   -0.0139   -0.0020   -0.0114    0.0019    0.0170    0.0262
           4   -0.0007   -0.0266    0.0073   -0.0007   -0.0036   -0.0173    0.0133   -0.0229
           5   -0.0026   -0.0199    0.0130   -0.0028   -0.0028    0.0290    0.0174   -0.0136
           6    0.0049    0.0030    0.0185   -0.0043   -0.0077    0.0106    0.0239   -0.0238
           7   -0.0022    0.0045   -0.0067    0.0396    0.0360    0.0085    0.0062   -0.0202
           8    0.0152   -0.0040   -0.0003    0.0181    0.0238   -0.0036    0.0107    0.0027
           9   -0.0244    0.0031    0.0084    0.0460   -0.0097    0.0016   -0.0088    0.0020
          10   -0.0100   -0.0131    0.0011    0.0002    0.0000    0.0086   -0.0023    0.0145
          11    0.0005   -0.0060    0.0178   -0.0012   -0.0081   -0.0075    0.0141    0.0055
          12    0.0076    0.0360    0.0040    0.0013    0.0028   -0.0064   -0.0016   -0.0178
          13   -0.0008    0.0177   -0.0038   -0.0003   -0.0003    0.0057   -0.0025    0.0058
          14    0.0002    0.0076   -0.0124    0.0032    0.0034   -0.0313   -0.0159    0.0018
          15   -0.0041   -0.0048   -0.0153    0.0035    0.0052   -0.0208   -0.0175    0.0073
          16    0.0004   -0.0023    0.0030   -0.0459   -0.0324   -0.0012   -0.0126    0.0044
          17   -0.0226    0.0041    0.0009   -0.0180   -0.0249    0.0015   -0.0085    0.0002
          18    0.0084   -0.0003   -0.0030   -0.0486    0.0202   -0.0034    0.0082    0.0022
          19   -0.0091   -0.0015    0.0060    0.0016    0.0040   -0.0001    0.0129   -0.0029
          20    0.0017    0.0043    0.0095    0.0006    0.0151    0.0084   -0.0241   -0.0146
          21   -0.0013    0.0012    0.0284    0.0026    0.0050    0.0006   -0.0187   -0.0037
          22    0.0176   -0.0044   -0.0004    0.0018   -0.0158   -0.0070    0.0029    0.0189
          23    0.0116    0.0009   -0.0060   -0.0036    0.0104    0.0102   -0.0126   -0.0205
          24    0.0239   -0.0050   -0.0145   -0.0068   -0.0058    0.0005    0.0058   -0.0022
          25    0.0119    0.0203    0.0001   -0.0008    0.0006   -0.0015   -0.0010   -0.0143
          26    0.0041    0.0071   -0.0049    0.0005    0.0010   -0.0010   -0.0022    0.0056
          27   -0.0047   -0.0075    0.0014   -0.0003    0.0000    0.0043   -0.0006    0.0001
          28    0.0531    0.0858    0.1837   -0.0067    0.0142   -0.0187   -0.0833    0.0670
          29   -0.0459    0.1315   -0.1062   -0.0028   -0.0976   -0.0852    0.2071   -0.0144
          30   -0.0143   -0.1139   -0.0804    0.0050    0.0332    0.0643   -0.0507    0.0140
          31   -0.0007   -0.1061   -0.0193    0.0058    0.0053   -0.1356   -0.0452   -0.0853
          32   -0.0111   -0.0087    0.0270   -0.0034   -0.0080    0.0194    0.0396   -0.0254
          33    0.0259    0.0755    0.0136   -0.0108   -0.0054    0.1947    0.0453    0.0876
          34   -0.0519    0.0116    0.0072    0.1588    0.0117    0.0163   -0.0081   -0.0250
          35    0.1790   -0.0397   -0.0059    0.2839   -0.1061   -0.0182    0.0345    0.0490
          36    0.0559   -0.0116   -0.0033    0.0365   -0.0279   -0.0075    0.0081    0.0173
          37    0.0405   -0.0009   -0.0223   -0.0266    0.1011    0.0037    0.0400   -0.0254
          38   -0.0672   -0.0085    0.0498    0.0307    0.1678   -0.0710    0.1189    0.1289
          39    0.0032   -0.0026    0.0022   -0.0084    0.0619   -0.0119    0.0328    0.0152
          40   -0.0366   -0.0199    0.0116   -0.0038   -0.0229   -0.0220    0.0347    0.0244
          41    0.0139    0.0058    0.0254    0.0003   -0.0019   -0.0001    0.0058    0.0039
          42   -0.0220   -0.0199   -0.0675    0.0001    0.0086    0.0160   -0.0205   -0.0164
          43   -0.0265   -0.0336    0.0388   -0.0027   -0.0145   -0.0245    0.0295    0.0177
          44   -0.0249   -0.0628   -0.0597   -0.0015   -0.0031    0.0348   -0.0043    0.0554
          45    0.0113    0.0493    0.0419    0.0004   -0.0040   -0.0321    0.0160   -0.0362
          46   -0.0464    0.0020    0.0127    0.0361   -0.1003    0.0056   -0.0382    0.0042
          47   -0.0201   -0.0093    0.0221    0.0066   -0.1298   -0.0040   -0.0413    0.0243
          48   -0.0309    0.0006    0.0097    0.0271   -0.0564    0.0011   -0.0196    0.0070
          49   -0.0767    0.0216   -0.0071   -0.0107   -0.0077    0.0074   -0.0020   -0.0085
          50   -0.0540    0.0152   -0.0051   -0.0153   -0.0051    0.0038    0.0012   -0.0039
          51   -0.0400    0.0065    0.0032    0.0342   -0.0232    0.0035   -0.0093   -0.0004
          52    0.0430   -0.0056   -0.0066   -0.1627    0.0189   -0.0097    0.0092    0.0101
          53    0.0843   -0.0183   -0.0006   -0.2123   -0.0053   -0.0200    0.0083    0.0303
          54    0.0016   -0.0029    0.0036   -0.0140   -0.0115   -0.0026   -0.0032    0.0057
          55    0.0107   -0.0040    0.0205   -0.0039   -0.0086   -0.0051    0.0238   -0.0289
          56   -0.0098   -0.0342   -0.0019    0.0006    0.0030    0.0153   -0.0027    0.0087
          57   -0.0139   -0.0384   -0.0100    0.0019    0.0063    0.0202   -0.0102    0.0191
          58    0.0041   -0.0601    0.0493   -0.0100   -0.0138    0.0589    0.0549   -0.0369
          59   -0.0042    0.0139   -0.0188    0.0037    0.0049   -0.0237   -0.0202    0.0100
          60    0.0005    0.0680   -0.0658    0.0144    0.0179   -0.1105   -0.0763    0.0366
          61   -0.0025    0.0171   -0.0027   -0.0010   -0.0011    0.0142    0.0005    0.0049
          62   -0.0018   -0.0520    0.0109   -0.0016   -0.0033    0.0049    0.0175   -0.0162
          63    0.0074   -0.0789    0.0119    0.0016   -0.0006   -0.0404    0.0094   -0.0222
          64   -0.0433    0.0112    0.0258    0.0285    0.0272   -0.0001   -0.0083    0.0056
          65   -0.0570   -0.0022    0.0310   -0.0429   -0.0678    0.0032    0.0157   -0.0299
          66   -0.0489    0.0120    0.0179    0.0206    0.0362    0.0074   -0.0057   -0.0176
          67    0.0117    0.0031   -0.0709   -0.0042   -0.0130    0.0157    0.0230   -0.0026
          68   -0.0170   -0.0355    0.1105   -0.0052    0.0041   -0.0863    0.0213    0.1063
          69    0.0209    0.0023   -0.0494   -0.0050   -0.0164    0.0116   -0.0051    0.0045


   Root No.      33        34        35        36        37        38        39        40

                33 A      34 A      35 A      36 A      37 A      38 A      39 A      40 A   

                1178.9    1190.4    1213.6    1229.9    1283.8    1314.5    1343.0    1382.4
  
           1   -0.0004   -0.0039   -0.0321    0.0137   -0.0107   -0.0054    0.0189   -0.0171
           2   -0.0019   -0.0037   -0.0123   -0.0126   -0.0257    0.0168   -0.0104    0.0223
           3    0.0290    0.0012    0.0392    0.0007    0.0100   -0.0043   -0.0035    0.0052
           4    0.0089   -0.0181   -0.0269    0.0094    0.0432   -0.0125   -0.0141    0.0019
           5   -0.0334    0.0174    0.0132   -0.0014   -0.0121   -0.0248    0.0008   -0.0089
           6    0.0133   -0.0220   -0.0089   -0.0103   -0.0198    0.0516    0.0097    0.0021
           7    0.0202    0.0189    0.0025    0.0143   -0.0003   -0.0007    0.0061    0.0115
           8   -0.0025   -0.0078    0.0101    0.0043    0.0151   -0.0119    0.0445   -0.0048
           9   -0.0093   -0.0154    0.0050   -0.0015    0.0061   -0.0036    0.0104   -0.0020
          10   -0.0145    0.0197    0.0108    0.0070    0.0356    0.0451   -0.0050    0.0246
          11    0.0152   -0.0031    0.0128   -0.0006   -0.0052   -0.0173    0.0016    0.0126
          12   -0.0276    0.0072   -0.0179    0.0045    0.0106    0.0151    0.0022   -0.0204
          13   -0.0033    0.0065    0.0114   -0.0039   -0.0091   -0.0024   -0.0010   -0.0054
          14    0.0098   -0.0030   -0.0010   -0.0009    0.0013    0.0089    0.0018    0.0024
          15   -0.0023    0.0075    0.0034    0.0014   -0.0007    0.0007    0.0052    0.0063
          16   -0.0083   -0.0099    0.0012    0.0010    0.0019   -0.0020    0.0128    0.0089
          17   -0.0010    0.0009   -0.0031    0.0012   -0.0037    0.0014    0.0028    0.0104
          18    0.0016    0.0041   -0.0019   -0.0028   -0.0008    0.0002    0.0019    0.0037
          19   -0.0003   -0.0025    0.0198    0.0150   -0.0140    0.0082   -0.0109    0.0130
          20   -0.0013   -0.0115    0.0009   -0.0040    0.0100   -0.0027   -0.0107   -0.0089
          21   -0.0007    0.0059   -0.0147   -0.0155    0.0091   -0.0060    0.0115   -0.0080
          22   -0.0116   -0.0068   -0.0094   -0.0345    0.0097   -0.0053    0.0140   -0.0050
          23    0.0074   -0.0053    0.0137    0.0148    0.0079   -0.0017   -0.0121   -0.0078
          24    0.0079    0.0091    0.0018    0.0247   -0.0130    0.0062   -0.0129    0.0059
          25   -0.0041   -0.0028   -0.0001   -0.0076   -0.0213   -0.0221   -0.0004   -0.0046
          26    0.0098   -0.0059   -0.0066    0.0024    0.0070    0.0147    0.0016    0.0007
          27   -0.0088    0.0075    0.0080   -0.0017   -0.0061   -0.0182   -0.0029    0.0003
          28    0.0738    0.0270    0.1209   -0.0215    0.0276   -0.0030   -0.0338    0.0306
          29   -0.0344    0.0189    0.0310    0.0478    0.0506   -0.0276    0.0147   -0.0157
          30    0.0070   -0.0258   -0.0592   -0.0094   -0.0423    0.0168    0.0110   -0.0011
          31   -0.1003    0.0900    0.0984   -0.0433   -0.0821   -0.0004    0.0236   -0.0204
          32    0.0329   -0.0570   -0.0513    0.0093    0.0280    0.0228   -0.0093    0.0046
          33   -0.0201    0.0283   -0.0114    0.0335    0.0413   -0.0933   -0.0141   -0.0065
          34    0.0158    0.0089    0.0071    0.0082   -0.0033    0.0079   -0.0699   -0.0707
          35   -0.0047    0.0350   -0.0429   -0.0446   -0.0380    0.0239   -0.0716    0.0049
          36   -0.0060    0.0044   -0.0127   -0.0097   -0.0075    0.0014    0.0241    0.0505
          37    0.0425    0.0512   -0.0015    0.0167   -0.0136    0.0115   -0.0706   -0.0606
          38   -0.0727   -0.0346   -0.0450   -0.1680   -0.0155    0.0175   -0.0545    0.0241
          39   -0.0015    0.0060   -0.0055   -0.0202   -0.0088    0.0097   -0.0593   -0.0505
          40    0.0916   -0.0514    0.0191   -0.0125   -0.0844   -0.0559    0.0232   -0.0712
          41   -0.0276    0.0287    0.0153    0.0111    0.0445    0.0444    0.0022    0.0042
          42    0.0127   -0.0305   -0.0361   -0.0232   -0.0383   -0.1047   -0.0449    0.1729
          43    0.0850   -0.0534    0.0064   -0.0034   -0.0841   -0.0578    0.0266   -0.0798
          44    0.0255    0.0175    0.0570    0.0014    0.0173    0.1118    0.0315   -0.1523
          45    0.0002   -0.0242   -0.0358   -0.0006   -0.0354   -0.0698   -0.0006    0.0135
          46   -0.0167   -0.0204   -0.0007    0.0005   -0.0056    0.0070   -0.0439   -0.0329
          47   -0.0353   -0.0367   -0.0042   -0.0167   -0.0051    0.0077   -0.0497   -0.0310
          48   -0.0129   -0.0138   -0.0024   -0.0055   -0.0062    0.0076   -0.0474   -0.0337
          49    0.0154    0.0291   -0.0207   -0.0123   -0.0249    0.0206   -0.0972   -0.0340
          50    0.0111    0.0228   -0.0164   -0.0096   -0.0185    0.0140   -0.0588   -0.0138
          51   -0.0033   -0.0041   -0.0010    0.0010   -0.0063    0.0055   -0.0253   -0.0111
          52   -0.0031    0.0031   -0.0072   -0.0106   -0.0069    0.0075   -0.0443   -0.0313
          53   -0.0213   -0.0129   -0.0103   -0.0251   -0.0100    0.0118   -0.0703   -0.0452
          54   -0.0071   -0.0083    0.0015   -0.0020    0.0026   -0.0024    0.0151    0.0122
          55    0.0178   -0.0251   -0.0107   -0.0099   -0.0235    0.0647    0.0217    0.0377
          56   -0.0225    0.0186    0.0021    0.0110    0.0314   -0.0661   -0.0254   -0.0109
          57   -0.0320    0.0300    0.0073    0.0140    0.0332   -0.0808   -0.0257   -0.0142
          58   -0.0154   -0.0101   -0.0057   -0.0065   -0.0256    0.0400    0.0192    0.0134
          59    0.0011    0.0070    0.0067   -0.0010   -0.0029   -0.0005    0.0022   -0.0026
          60    0.0344    0.0015    0.0011    0.0076    0.0417   -0.0428   -0.0293   -0.0059
          61   -0.0094    0.0111    0.0175   -0.0071   -0.0219    0.0090    0.0070    0.0048
          62   -0.0054   -0.0071   -0.0210    0.0091    0.0259   -0.0214   -0.0089    0.0060
          63    0.0226   -0.0325   -0.0567    0.0271    0.0928   -0.0732   -0.0451   -0.0367
          64   -0.0289   -0.0463    0.0146   -0.0150    0.0131   -0.0040    0.0103   -0.0051
          65    0.1220    0.2265   -0.1187   -0.1212    0.0174   -0.0170    0.0464   -0.0017
          66   -0.0047   -0.0209    0.0206    0.0426   -0.0103    0.0077   -0.0151    0.0070
          67    0.0081   -0.0161    0.0346   -0.0251    0.0014    0.0062   -0.0143    0.0078
          68   -0.0341    0.0574   -0.1055    0.2494   -0.0896    0.0177    0.0088    0.0118
          69    0.0081   -0.0020   -0.0070   -0.0426    0.0208   -0.0074    0.0107   -0.0138


   Root No.      41        42        43        44        45        46        47        48

                41 A      42 A      43 A      44 A      45 A      46 A      47 A      48 A   

                1390.6    1395.2    1406.3    1407.2    1410.9    1412.5    1424.1    1463.4
  
           1    0.0126   -0.0084    0.0018   -0.0007   -0.0043   -0.0087    0.0000   -0.0506
           2   -0.0167    0.0096   -0.0045   -0.0034    0.0081    0.0187    0.0094    0.0691
           3    0.0029   -0.0025    0.0007    0.0006   -0.0010   -0.0025   -0.0007   -0.0044
           4    0.0008    0.0034    0.0020    0.0047   -0.0027   -0.0080   -0.0166    0.0411
           5   -0.0023    0.0027    0.0002    0.0003   -0.0003   -0.0010   -0.0013   -0.0022
           6   -0.0097   -0.0009   -0.0035   -0.0056    0.0058    0.0153    0.0230   -0.0407
           7   -0.0149    0.0147    0.0111    0.0077   -0.0056   -0.0278    0.0112   -0.0049
           8    0.0144   -0.0160   -0.0005   -0.0089    0.0012    0.0105    0.0400    0.0385
           9    0.0035   -0.0034   -0.0005   -0.0013   -0.0003    0.0005    0.0084    0.0055
          10    0.0034   -0.0088   -0.0014   -0.0037    0.0018    0.0051    0.0100   -0.0179
          11    0.0092   -0.0104    0.0003   -0.0018   -0.0009   -0.0013    0.0051   -0.0263
          12   -0.0079    0.0106    0.0003    0.0024   -0.0001   -0.0010   -0.0069    0.0209
          13   -0.0249   -0.0095    0.0007    0.0095    0.0056    0.0128    0.0137   -0.0159
          14   -0.0035   -0.0149   -0.0029   -0.0193   -0.0063   -0.0129   -0.0101    0.0097
          15    0.0216   -0.0176    0.0084    0.0189   -0.0076   -0.0201   -0.0248    0.0282
          16   -0.0069    0.0043   -0.0012   -0.0014   -0.0174    0.0208   -0.0252   -0.0072
          17   -0.0094    0.0066   -0.0033   -0.0017    0.0302    0.0118   -0.0345   -0.0127
          18   -0.0033    0.0023   -0.0302    0.0074   -0.0005   -0.0003   -0.0072   -0.0030
          19   -0.0090    0.0054   -0.0014   -0.0003    0.0027    0.0058    0.0034    0.0244
          20    0.0014    0.0025    0.0027    0.0047   -0.0047   -0.0123   -0.0143   -0.0316
          21    0.0058   -0.0042    0.0005   -0.0007   -0.0007   -0.0012    0.0017   -0.0096
          22    0.0065   -0.0063   -0.0019   -0.0032    0.0018    0.0064    0.0045    0.0042
          23    0.0019    0.0017    0.0029    0.0046   -0.0050   -0.0131   -0.0120   -0.0342
          24   -0.0059    0.0050    0.0002    0.0017   -0.0004   -0.0013   -0.0040    0.0025
          25   -0.0026    0.0035    0.0001    0.0011    0.0002    0.0002   -0.0023    0.0115
          26    0.0006   -0.0013    0.0000   -0.0003    0.0001    0.0004    0.0015   -0.0058
          27   -0.0006    0.0013    0.0001    0.0002   -0.0002   -0.0008   -0.0025    0.0094
          28   -0.0076    0.0082   -0.0001    0.0062    0.0037    0.0063   -0.0047    0.0522
          29    0.0212   -0.0149    0.0040   -0.0002   -0.0086   -0.0190   -0.0064   -0.0565
          30   -0.0047    0.0007   -0.0023   -0.0047    0.0026    0.0072    0.0085    0.0030
          31   -0.0049   -0.0033   -0.0004   -0.0002    0.0023    0.0066    0.0167   -0.0584
          32   -0.0079    0.0058   -0.0019   -0.0031    0.0019    0.0043    0.0004    0.0184
          33    0.0108    0.0004    0.0051    0.0097   -0.0070   -0.0187   -0.0272    0.0408
          34    0.0786   -0.0709   -0.0389   -0.0301    0.0044    0.1008   -0.0332    0.0033
          35   -0.0134    0.0137   -0.0069    0.0062    0.0066    0.0040   -0.0489   -0.0273
          36   -0.0607    0.0564    0.0272    0.0258   -0.0054   -0.0786    0.0108   -0.0169
          37    0.0686   -0.0626   -0.0360   -0.0273    0.0040    0.0936   -0.0309    0.0079
          38   -0.0408    0.0410    0.0114    0.0191    0.0052   -0.0385   -0.0498   -0.0494
          39    0.0568   -0.0521   -0.0340   -0.0229    0.0075    0.0824   -0.0346    0.0030
          40   -0.0127    0.0239    0.0024    0.0073   -0.0029   -0.0085   -0.0166    0.0219
          41    0.0037   -0.0057    0.0000   -0.0015   -0.0003    0.0000    0.0050   -0.0259
          42    0.0404   -0.0627   -0.0051   -0.0173    0.0061    0.0183    0.0401   -0.0430
          43   -0.0115    0.0244    0.0031    0.0080   -0.0042   -0.0114   -0.0187    0.0134
          44   -0.0508    0.0686    0.0026    0.0156   -0.0015   -0.0079   -0.0359    0.0839
          45    0.0112   -0.0104    0.0008   -0.0008   -0.0017   -0.0035    0.0001   -0.0110
[...]
 T-DIPOLE    0.0521        C  5 --  H 20          +14.0% ( 38.8%)    11.7%
 TRAVEL      0.1336        C  5 --  H 21           +9.0% ( 31.0%)     3.2%
 RED. MASS   0.2389        C  3 --  H 13           +7.5% ( 28.4%)     4.4%
 EFF. MASS   2.7065

 VIBRATION   43   43A       ATOM PAIR        ENERGY CONTRIBUTION    RADIAL
 FREQ.      1406.29        C  6 --  H 17          +45.7% ( 59.8%)     0.3%
 T-DIPOLE    0.0428        C  6 --  H 18          +25.4% ( 44.6%)     7.4%
 TRAVEL      0.1676        C  6 --  H 16          +11.8% ( 30.4%)    18.4%
 RED. MASS   0.3583        C  3 --  C  6           +5.4% ( 20.6%)    23.4%
 EFF. MASS   1.7062

 VIBRATION   44   44A       ATOM PAIR        ENERGY CONTRIBUTION    RADIAL
 FREQ.      1407.19        C  5 --  H 20          +40.6% ( 57.1%)     0.4%
 T-DIPOLE    0.1072        C  5 --  H 21          +28.1% ( 47.5%)     2.9%
 TRAVEL      0.1633        C  5 --  H 19           +9.8% ( 28.1%)    34.0%
 RED. MASS   0.3328        C  2 --  C  5           +5.1% ( 20.2%)    12.9%
 EFF. MASS   1.7959

 VIBRATION   45   45A       ATOM PAIR        ENERGY CONTRIBUTION    RADIAL
 FREQ.      1410.90        C  6 --  H 16          +42.0% ( 58.0%)     0.2%
 T-DIPOLE    0.0562        C  6 --  H 18          +29.1% ( 48.2%)     2.2%
 TRAVEL      0.1647        C  6 --  H 17          +14.6% ( 34.2%)    25.4%
 RED. MASS   0.3635        C  3 --  C  6           +5.0% ( 19.9%)    19.5%
 EFF. MASS   1.7627

 VIBRATION   46   46A       ATOM PAIR        ENERGY CONTRIBUTION    RADIAL
 FREQ.      1412.47        C  3 --  H 13          +10.8% ( 39.9%)     5.7%
 T-DIPOLE    0.0992        C  3 --  H 12          +10.3% ( 39.1%)     6.3%
 TRAVEL      0.1032        C  5 --  H 20           +7.6% ( 33.6%)     4.2%
 RED. MASS   0.3129        C  3 --  C  6           +7.2% ( 32.6%)    43.9%
 EFF. MASS   4.4783

 VIBRATION   47   47A       ATOM PAIR        ENERGY CONTRIBUTION    RADIAL
 FREQ.      1424.10        C  3 --  C  6          +14.2% ( 52.9%)    93.4%
 T-DIPOLE    0.1477        C  6 --  H 16           +9.8% ( 44.1%)     3.3%
 TRAVEL      0.0840        C  6 --  H 18           +8.9% ( 42.0%)     2.6%
 RED. MASS   0.8387        C  6 --  H 17           +7.7% ( 38.9%)     5.7%
 EFF. MASS   6.7096

 VIBRATION   48   48A       ATOM PAIR        ENERGY CONTRIBUTION    RADIAL
 FREQ.      1463.41        C  1 --  C  7          +13.3% ( 62.6%)    95.0%
 T-DIPOLE    0.3052        C  1 --  C  2          +12.6% ( 60.8%)    56.8%
 TRAVEL      0.0665        C  1 --  C  4          +10.5% ( 55.6%)    64.2%
 RED. MASS   1.9976        C  1 --  H 10           +9.2% ( 52.0%)     0.1%
 EFF. MASS  10.4071

 VIBRATION   49   49A       ATOM PAIR        ENERGY CONTRIBUTION    RADIAL
 FREQ.      1890.01        C  7 --  C  8          +43.5% ( 97.5%)    96.2%
 T-DIPOLE    0.0898        C  1 --  C  7          +14.5% ( 56.4%)    57.4%
 TRAVEL      0.0549        C  3 --  C  8          +14.0% ( 55.3%)    55.0%
 RED. MASS   5.3631        C  7 --  H 23          +13.3% ( 53.9%)     3.4%
 EFF. MASS  11.8227        C  8 --  H 22          +13.1% ( 53.5%)     3.5%

 VIBRATION   50   50A       ATOM PAIR        ENERGY CONTRIBUTION    RADIAL
 FREQ.      2910.08        C  2 --  H 11          +94.4% ( 99.4%)   100.0%
 T-DIPOLE    0.0407        C  1 --  C  2           +1.1% ( 10.9%)    18.3%
 TRAVEL      0.1258        C  2 --  C  5           +1.1% ( 10.7%)    12.2%
 RED. MASS   0.9078        C  2 --  O  9           +1.1% ( 10.7%)    11.0%
 EFF. MASS   1.4632

 VIBRATION   51   51A       ATOM PAIR        ENERGY CONTRIBUTION    RADIAL
 FREQ.      2944.90        C  3 --  H 12          +52.4% ( 75.2%)    96.9%
 T-DIPOLE    0.0233        C  3 --  H 13          +44.8% ( 69.5%)    96.1%
 TRAVEL      0.1218        C  3 --  C  6           +1.2% ( 11.2%)     0.0%
 RED. MASS   0.5166        C  3 --  C  8           +1.2% ( 11.1%)     0.2%
 EFF. MASS   1.5436

 VIBRATION   52   52A       ATOM PAIR        ENERGY CONTRIBUTION    RADIAL
 FREQ.      2945.61        C  1 --  H 10          +94.0% ( 99.0%)   100.0%
 T-DIPOLE    0.1894        C  1 --  C  4           +1.0% ( 10.4%)    13.9%
 TRAVEL      0.1261        C  1 --  O  9           +1.0% ( 10.2%)    31.6%
 RED. MASS   0.8939        C  1 --  C  7           +1.0% ( 10.2%)     9.5%
 EFF. MASS   1.4406

 VIBRATION   53   53A       ATOM PAIR        ENERGY CONTRIBUTION    RADIAL
 FREQ.      3002.60        C  4 --  H 15          +56.0% ( 77.9%)    97.5%
 T-DIPOLE    0.0265        C  4 --  H 14          +39.5% ( 65.5%)    95.4%
 TRAVEL      0.1194        C  4 --  O  9           +1.2% ( 11.4%)     0.2%
 RED. MASS   0.5313        C  2 --  C  4           +1.2% ( 11.4%)     0.3%
 EFF. MASS   1.5753

 VIBRATION   54   54A       ATOM PAIR        ENERGY CONTRIBUTION    RADIAL
 FREQ.      3024.01        C  3 --  H 13          +50.6% ( 70.2%)    98.1%
 T-DIPOLE    0.0462        C  3 --  H 12          +44.1% ( 65.5%)    97.3%
 TRAVEL      0.1315        C  8 --  H 22           +2.7% ( 16.3%)    99.8%
 RED. MASS   0.4513        C  3 --  C  8           +0.7% (  8.2%)    29.0%
 EFF. MASS   1.2894

 VIBRATION   55   55A       ATOM PAIR        ENERGY CONTRIBUTION    RADIAL
 FREQ.      3033.58        C  8 --  H 22          +68.2% ( 83.4%)   100.0%
 T-DIPOLE    0.3554        C  7 --  H 23          +28.5% ( 54.0%)   100.0%
 TRAVEL      0.1243        C  3 --  C  8           +0.9% (  9.4%)    17.5%
 RED. MASS   0.5298        C  7 --  C  8           +0.8% (  9.2%)    38.0%
 EFF. MASS   1.4377

 VIBRATION   56   56A       ATOM PAIR        ENERGY CONTRIBUTION    RADIAL
 FREQ.      3035.27        C  7 --  H 23          +67.1% ( 83.3%)    99.9%
 T-DIPOLE    0.1072        C  8 --  H 22          +26.5% ( 52.3%)    99.9%
 TRAVEL      0.1187        C  7 --  C  8           +2.1% ( 14.8%)    39.7%
 RED. MASS   0.5201        C  3 --  H 13           +1.7% ( 13.2%)    99.3%
 EFF. MASS   1.5771

 VIBRATION   57   57A       ATOM PAIR        ENERGY CONTRIBUTION    RADIAL
 FREQ.      3043.78        C  4 --  H 14          +57.4% ( 75.4%)    98.0%
 T-DIPOLE    0.0255        C  4 --  H 15          +39.6% ( 62.6%)    95.4%
 TRAVEL      0.1307        C  7 --  H 23           +0.8% (  8.7%)    99.9%
 RED. MASS   0.4907        C  2 --  C  4           +0.8% (  8.7%)    96.5%
 EFF. MASS   1.2970

 VIBRATION   58   58A       ATOM PAIR        ENERGY CONTRIBUTION    RADIAL
 FREQ.      3081.26        C  6 --  H 16          +63.6% ( 82.3%)    98.7%
 T-DIPOLE    0.0104        C  6 --  H 18          +29.3% ( 55.9%)    92.5%
 TRAVEL      0.1207        C  6 --  H 17           +5.8% ( 24.9%)    59.4%
 RED. MASS   0.5217        C  3 --  C  6           +1.0% ( 10.2%)     0.0%
 EFF. MASS   1.5013

 VIBRATION   59   59A       ATOM PAIR        ENERGY CONTRIBUTION    RADIAL
 FREQ.      3083.02        C  5 --  H 20          +64.9% ( 83.2%)    98.9%
 T-DIPOLE    0.0702        C  5 --  H 19          +17.9% ( 43.7%)    85.4%
 TRAVEL      0.1205        C  5 --  H 21          +16.0% ( 41.3%)    83.3%
 RED. MASS   0.5088        C  2 --  C  5           +1.0% ( 10.4%)     0.0%
 EFF. MASS   1.5060

 VIBRATION   60   60A       ATOM PAIR        ENERGY CONTRIBUTION    RADIAL
 FREQ.      3086.17        C  6 --  H 17          +58.6% ( 79.0%)    98.3%
 T-DIPOLE    0.0126        C  6 --  H 18          +35.7% ( 61.6%)    94.4%
 TRAVEL      0.1205        C  6 --  H 16           +4.3% ( 21.4%)    49.1%
 RED. MASS   0.5009        C  3 --  C  6           +1.0% ( 10.3%)     0.0%
 EFF. MASS   1.5043

 VIBRATION   61   61A       ATOM PAIR        ENERGY CONTRIBUTION    RADIAL
 FREQ.      3087.21        C  5 --  H 19          +50.5% ( 73.3%)    97.1%
 T-DIPOLE    0.0837        C  5 --  H 21          +47.3% ( 71.0%)    97.0%
 TRAVEL      0.1203        C  5 --  H 20           +1.1% ( 10.7%)     2.4%
 RED. MASS   0.5097        C  2 --  C  5           +1.0% ( 10.4%)     0.0%
 EFF. MASS   1.5087

 VIBRATION   62   62A       ATOM PAIR        ENERGY CONTRIBUTION    RADIAL
 FREQ.      3179.64        C  5 --  H 21          +36.3% ( 58.0%)    97.5%
 T-DIPOLE    0.0890        C  5 --  H 20          +33.1% ( 55.4%)    97.0%
 TRAVEL      0.1366        C  5 --  H 19          +30.3% ( 53.0%)    96.5%
 RED. MASS   0.3285        C  2 --  C  5           +0.3% (  5.1%)    99.6%
 EFF. MASS   1.1360

 VIBRATION   63   63A       ATOM PAIR        ENERGY CONTRIBUTION    RADIAL
 FREQ.      3183.04        C  6 --  H 17          +34.7% ( 56.7%)    97.3%
 T-DIPOLE    0.0270        C  6 --  H 18          +34.2% ( 56.3%)    97.3%
 TRAVEL      0.1366        C  6 --  H 16          +30.8% ( 53.4%)    96.7%
 RED. MASS   0.3277        C  3 --  C  6           +0.3% (  5.1%)    99.7%
 EFF. MASS   1.1361

 SYMMETRY NUMBER FOR POINT-GROUP C1  =  1


          SYSTEM IS A GROUND STATE


    NULL



          MOLECULE IS NOT LINEAR

          THERE ARE 63 GENUINE VIBRATIONS IN THIS SYSTEM
          THIS THERMODYNAMICS CALCULATION IS LIMITED TO
          MOLECULES WHICH HAVE NO INTERNAL ROTATIONS




                    CALCULATED THERMODYNAMIC PROPERTIES
                                          *
   TEMP. (K)   PARTITION FUNCTION   H.O.F.    ENTHALPY  HEAT CAPACITY ENTROPY
                                   KCAL/MOL   CAL/MOLE    CAL/K/MOL  CAL/K/MOL


 298.00  VIB.     0.3074D+04                  4837.9977    31.7364    32.1938
         ROT.     0.6828D+06                   888.2813     2.9808    29.6768
         INT.     0.2099D+10                  5726.2790    34.7172    61.8706
         TRA.     0.1371D+28                  1480.4688     4.9680    40.4094
         TOT.                      -30.700    7206.7478    39.6852   102.2799

 200.00  VIB.     0.2000D+03                  2277.8345    20.9829    21.9183
         ROT.     0.3754D+06                   596.1620     2.9808    28.4881
         INT.     0.7509D+08                  2873.9964    23.9637    50.4064
         TRA.     0.7536D+27                   993.6033     4.9680    38.4282
         TOT.                      -34.039    3867.5997    28.9317    88.8346

 210.00  VIB.     0.2661D+03                  2492.4090    21.9379    22.9650
         ROT.     0.4039D+06                   625.9700     2.9808    28.6335
         INT.     0.1075D+09                  3118.3791    24.9187    51.5986
         TRA.     0.8108D+27                  1043.2834     4.9680    38.6706
         TOT.                      -33.745    4161.6625    29.8868    90.2692

 220.00  VIB.     0.3533D+03                  2716.7135    22.9290    24.0083
         ROT.     0.4331D+06                   655.7781     2.9808    28.7722
         INT.     0.1530D+09                  3372.4916    25.9098    52.7805
         TRA.     0.8694D+27                  1092.9636     4.9680    38.9017
         TOT.                      -33.441    4465.4552    30.8779    91.6822

 230.00  VIB.     0.4682D+03                  2951.1105    23.9564    25.0501
         ROT.     0.4630D+06                   685.5862     2.9808    28.9047
         INT.     0.2168D+09                  3636.6968    26.9372    53.9548
         TRA.     0.9293D+27                  1142.6437     4.9680    39.1226
         TOT.                      -33.127    4779.3405    31.9052    93.0773

 240.00  VIB.     0.6195D+03                  3195.9582    25.0189    26.0920
         ROT.     0.4935D+06                   715.3943     2.9808    29.0315
         INT.     0.3057D+09                  3911.3525    27.9997    55.1235
         TRA.     0.9906D+27                  1192.3239     4.9680    39.3340
         TOT.                      -32.803    5103.6764    32.9677    94.4575

 250.00  VIB.     0.8185D+03                  3451.5990    26.1146    27.1354
         ROT.     0.5246D+06                   745.2024     2.9808    29.1532
         INT.     0.4294D+09                  4196.8014    29.0954    56.2887
         TRA.     0.1053D+28                  1242.0041     4.9680    39.5368
         TOT.                      -32.468    5438.8055    34.0634    95.8255

 260.00  VIB.     0.1080D+04                  3718.3516    27.2407    28.1815
         ROT.     0.5564D+06                   775.0105     2.9808    29.2701
         INT.     0.6010D+09                  4493.3621    30.2215    57.4516
         TRA.     0.1117D+28                  1291.6842     4.9680    39.7317
         TOT.                      -32.121    5785.0463    35.1896    97.1833

 270.00  VIB.     0.1424D+04                  3996.5044    28.3941    29.2311
         ROT.     0.5888D+06                   804.8186     2.9808    29.3826
         INT.     0.8384D+09                  4801.3230    31.3749    58.6138
         TRA.     0.1182D+28                  1341.3644     4.9680    39.9191
         TOT.                      -31.764    6142.6874    36.3429    98.5329

 280.00  VIB.     0.1875D+04                  4286.3111    29.5709    30.2850
         ROT.     0.6218D+06                   834.6267     2.9808    29.4910
         INT.     0.1166D+10                  5120.9379    32.5517    59.7760
         TRA.     0.1248D+28                  1391.0445     4.9680    40.0998
         TOT.                      -31.395    6511.9824    37.5197    99.8758

 290.00  VIB.     0.2469D+04                  4587.9883    30.7675    31.3435
         ROT.     0.6555D+06                   864.4348     2.9808    29.5956
         INT.     0.1618D+10                  5452.4231    33.7483    60.9391
         TRA.     0.1316D+28                  1440.7247     4.9680    40.2742
         TOT.                      -31.013    6893.1479    38.7163   101.2133

 300.00  VIB.     0.3248D+04                  4901.7139    31.9799    32.4069
         ROT.     0.6897D+06                   894.2429     2.9808    29.6967
         INT.     0.2240D+10                  5795.9568    34.9607    62.1036
         TRA.     0.1384D+28                  1490.4049     4.9680    40.4426
         TOT.                      -30.620    7286.3617    39.9288   102.5462

 310.00  VIB.     0.4271D+04                  5227.6271    33.2044    33.4755
         ROT.     0.7244D+06                   924.0510     2.9808    29.7944
         INT.     0.3094D+10                  6151.6781    36.1852    63.2699
         TRA.     0.1454D+28                  1540.0850     4.9680    40.6055
         TOT.                      -30.215    7691.7632    41.1532   103.8754

 320.00  VIB.     0.5615D+04                  5565.8296    34.4372    34.5491
         ROT.     0.7598D+06                   953.8591     2.9808    29.8891
         INT.     0.4266D+10                  6519.6887    37.4180    64.4382
         TRA.     0.1525D+28                  1589.7652     4.9680    40.7632
         TOT.                      -29.797    8109.4539    42.3860   105.2014

 330.00  VIB.     0.7381D+04                  5916.3867    35.6747    35.6277
         ROT.     0.7956D+06                   983.6672     2.9808    29.9808
         INT.     0.5872D+10                  6900.0539    38.6556    65.6085
         TRA.     0.1597D+28                  1639.4454     4.9680    40.9161
         TOT.                      -29.367    8539.4993    43.6236   106.5246

 340.00  VIB.     0.9701D+04                  6279.3296    36.9138    36.7111
         ROT.     0.8321D+06                  1013.4753     2.9808    30.0698
         INT.     0.8072D+10                  7292.8049    39.8946    66.7809
         TRA.     0.1670D+28                  1689.1255     4.9680    41.0644
         TOT.                      -28.925    8981.9304    44.8626   107.8453

 350.00  VIB.     0.1275D+05                  6654.6579    38.1513    37.7990
         ROT.     0.8691D+06                  1043.2834     2.9808    30.1562
         INT.     0.1108D+11                  7697.9413    41.1322    67.9552
         TRA.     0.1745D+28                  1738.8057     4.9680    41.2084
         TOT.                      -28.470    9436.7470    46.1002   109.1636

 360.00  VIB.     0.1676D+05                  7042.3421    39.3846    38.8911
         ROT.     0.9066D+06                  1073.0915     2.9808    30.2402
         INT.     0.1519D+11                  8115.4336    42.3654    69.1313
         TRA.     0.1820D+28                  1788.4859     4.9680    41.3484
         TOT.                      -28.003    9903.9195    47.3334   110.4796

 370.00  VIB.     0.2203D+05                  7442.3268    40.6110    39.9869
         ROT.     0.9446D+06                  1102.8996     2.9808    30.3218
         INT.     0.2081D+11                  8545.2264    43.5918    70.3088
         TRA.     0.1896D+28                  1838.1660     4.9680    41.4845
         TOT.                      -27.523   10383.3924    48.5599   111.7933

 380.00  VIB.     0.2897D+05                  7854.5328    41.8285    41.0861
         ROT.     0.9832D+06                  1132.7077     2.9808    30.4013
         INT.     0.2848D+11                  8987.2405    44.8093    71.4875
         TRA.     0.1974D+28                  1887.8462     4.9680    41.6170
         TOT.                      -27.031   10875.0866    49.7773   113.1044

 390.00  VIB.     0.3809D+05                  8278.8605    43.0351    42.1883
         ROT.     0.1022D+07                  1162.5158     2.9808    30.4788
         INT.     0.3894D+11                  9441.3763    46.0159    72.6670
         TRA.     0.2052D+28                  1937.5263     4.9680    41.7460
         TOT.                      -26.528   11378.9026    50.9839   114.4131

 400.00  VIB.     0.5010D+05                  8715.1923    44.2291    43.2929
         ROT.     0.1062D+07                  1192.3239     2.9808    30.5542
         INT.     0.5319D+11                  9907.5162    47.2099    73.8471
         TRA.     0.2131D+28                  1987.2065     4.9680    41.8718
         TOT.                      -26.012   11894.7227    52.1779   115.7189

   *: NOTE: HEATS OF FORMATION ARE RELATIVE TO THE
            ELEMENTS IN THEIR STANDARD STATE AT 298K
              (=  Standard Enthalpy of Formation).

            Hvib:  Zero-point energy is not included.
                   frequencies of less than zero cm-1 are not included.
            Hrot = (3/2)RT
            Htra = (3/2)RT + pV = (5/2)RT

            Heat capacity is Cp, not Cv

           For more information, see: HTTP://OpenMOPAC.net/Manual/thermochemistry.html


           FORCE CONSTANT IN CARTESIAN COORDINATES (Millidynes/A)

    ATOM   CHEMICAL       X               Y               Z
   NUMBER   SYMBOL  FORCE CONSTANT  FORCE CONSTANT  FORCE CONSTANT

      1       C        7.988938        9.065388        8.132777
      2       C        8.094318        8.357464        8.136993
      3       C        8.446611        8.816936        8.153169
      4       C        7.825169        8.549044        8.529215
      5       C        8.346036        8.363826        8.394258
      6       C        8.223858        8.413200        8.217756
      7       C        6.767024       13.962675        6.638506
      8       C        6.736608       13.913330        6.514619
      9       O        6.317785        3.086364        3.961383
     10       H        1.383917        1.278224        3.475718
     11       H        1.433202        3.497268        1.087835
     12       H        1.920708        0.886072        3.465626
     13       H        2.329998        0.806996        3.258711
     14       H        1.077559        4.456981        0.820942
     15       H        0.988560        1.171699        4.187235
     16       H        2.496611        0.786594        3.498183
     17       H        1.868229        4.137075        0.784983
     18       H        2.071514        0.914937        3.793323
     19       H        0.702960        2.820854        3.192968
     20       H        1.496084        4.176313        1.107051
     21       H        5.164511        0.778587        0.821082
     22       H        3.004156        0.764092        2.424086
     23       H        2.964109        0.771615        2.452371



 TOTAL CPU TIME:             3.36 SECONDS

 == MOPAC DONE ==
