 *******************************************************************************
 ** Site#: 14399           For non-commercial use only        Version 13.159M **
 *******************************************************************************
 ** Cite this work as: MOPAC2012, James J. P. Stewart, Stewart Computational  **
 ** Chemistry, Version 13.159M web: HTTP://OpenMOPAC.net  Days remaining:   6 **
 *******************************************************************************
 **                                                                           **
 **                                MOPAC2012                                  **
 **                                                                           **
 *******************************************************************************

                            PM3 CALCULATION RESULTS


 *******************************************************************************
 *  CALCULATION DONE:                                Mon Jun  2 11:11:32 2014  *
 *  PM3      - The PM3 Hamiltonian to be used
 *  PRECISE  - CRITERIA TO BE INCREASED BY 100 TIMES
 *  NOSYM    - POINT-GROUP SYMMETRY SET TO C1
 *  T=       - A TIME OF 172800.0 SECONDS REQUESTED
 *  DUMP=N   - RESTART FILE WRITTEN EVERY  7200.000 SECONDS
 *******************************************************************************
pm3  precise nosym
 InChI=1S/C10H14/c1-2-3-4-7-10-8-5-6-9-10/h2-7,10H,8-9H2,1H3

   ATOM   CHEMICAL          X               Y               Z
  NUMBER   SYMBOL      (ANGSTROMS)     (ANGSTROMS)     (ANGSTROMS)
 
     1       C         -1.49190000  *   0.41110000  *  -0.07600000  *
     2       C         -2.31180000  *   0.92740000  *   1.11360000  *
     3       C         -2.39120000  *  -0.59090000  *  -0.81170000  *
     4       C          4.73010000  *  -0.48390000  *   0.37320000  *
     5       C         -0.17860000  *  -0.19110000  *   0.34470000  *
     6       C         -3.69760000  *   0.49430000  *   0.79230000  *
     7       C         -3.74040000  *  -0.32460000  *  -0.24610000  *
     8       C          3.44320000  *   0.13720000  *  -0.06360000  *
     9       C          2.26650000  *  -0.33110000  *   0.35430000  *
    10       C          0.99820000  *   0.27890000  *  -0.07440000  *
    11       H         -1.33340000  *   1.27700000  *  -0.76540000  *
    12       H         -2.02420000  *   0.47570000  *   2.09170000  *
    13       H         -2.25890000  *   2.03760000  *   1.19690000  *
    14       H         -2.13580000  *  -1.65830000  *  -0.61420000  *
    15       H         -2.38720000  *  -0.41430000  *  -1.91210000  *
    16       H          4.77330000  *  -1.55010000  *   0.05430000  *
    17       H          4.83220000  *  -0.42530000  *   1.48060000  *
    18       H          5.58980000  *   0.05390000  *  -0.08640000  *
    19       H         -4.57470000  *   0.77280000  *   1.37330000  *
    20       H         -0.21000000  *  -1.04420000  *   1.01880000  *
    21       H          3.48880000  *   0.98920000  *  -0.73730000  *
    22       H         -4.65630000  *  -0.78870000  *  -0.60670000  *
    23       H          1.02710000  *   1.13180000  *  -0.74830000  *
    24       H          2.24280000  *  -1.18460000  *   1.02830000  *
 


          CARTESIAN COORDINATES 

    NO.       ATOM         X         Y         Z

     1         C       -1.4919    0.4111   -0.0760
     2         C       -2.3118    0.9274    1.1136
     3         C       -2.3912   -0.5909   -0.8117
     4         C        4.7301   -0.4839    0.3732
     5         C       -0.1786   -0.1911    0.3447
     6         C       -3.6976    0.4943    0.7923
     7         C       -3.7404   -0.3246   -0.2461
     8         C        3.4432    0.1372   -0.0636
     9         C        2.2665   -0.3311    0.3543
    10         C        0.9982    0.2789   -0.0744
    11         H       -1.3334    1.2770   -0.7654
    12         H       -2.0242    0.4757    2.0917
    13         H       -2.2589    2.0376    1.1969
    14         H       -2.1358   -1.6583   -0.6142
    15         H       -2.3872   -0.4143   -1.9121
    16         H        4.7733   -1.5501    0.0543
    17         H        4.8322   -0.4253    1.4806
    18         H        5.5898    0.0539   -0.0864
    19         H       -4.5747    0.7728    1.3733
    20         H       -0.2100   -1.0442    1.0188
    21         H        3.4888    0.9892   -0.7373
    22         H       -4.6563   -0.7887   -0.6067
    23         H        1.0271    1.1318   -0.7483
    24         H        2.2428   -1.1846    1.0283

  H: (PM3): J. J. P. STEWART, J. COMP. CHEM. 10, 209 (1989).
  C: (PM3): J. J. P. STEWART, J. COMP. CHEM. 10, 209 (1989).

           Empirical Formula: C10 H14  =    24 atoms



      MOLECULAR POINT GROUP   :   C1  


      RHF CALCULATION, NO. OF DOUBLY OCCUPIED LEVELS =   27

      Geometry optimization using EF

          DIAGONAL MATRIX USED AS START HESSIAN

 CYCLE:     1 TIME:   0.010 TIME LEFT:  2.00D  GRAD.:    69.312 HEAT: 30.21391
 CYCLE:     2 TIME:   0.022 TIME LEFT:  2.00D  GRAD.:    69.205 HEAT: 29.45344
 CYCLE:     3 TIME:   0.008 TIME LEFT:  2.00D  GRAD.:    76.180 HEAT: 29.19155
 CYCLE:     4 TIME:   0.008 TIME LEFT:  2.00D  GRAD.:    48.597 HEAT: 28.48637
 CYCLE:     5 TIME:   0.014 TIME LEFT:  2.00D  GRAD.:    30.347 HEAT: 27.98669
 CYCLE:     6 TIME:   0.014 TIME LEFT:  2.00D  GRAD.:    25.308 HEAT: 27.84416
 CYCLE:     7 TIME:   0.008 TIME LEFT:  2.00D  GRAD.:    13.906 HEAT: 27.65558
 CYCLE:     8 TIME:   0.008 TIME LEFT:  2.00D  GRAD.:    30.656 HEAT: 27.64344
 CYCLE:     9 TIME:   0.008 TIME LEFT:  2.00D  GRAD.:    24.229 HEAT: 27.49617
 CYCLE:    10 TIME:   0.014 TIME LEFT:  2.00D  GRAD.:    13.730 HEAT: 27.38282
 CYCLE:    11 TIME:   0.014 TIME LEFT:  2.00D  GRAD.:     6.612 HEAT: 27.33384
 CYCLE:    12 TIME:   0.014 TIME LEFT:  2.00D  GRAD.:     5.782 HEAT: 27.31899
 CYCLE:    13 TIME:   0.008 TIME LEFT:  2.00D  GRAD.:     5.714 HEAT: 27.30087
 CYCLE:    14 TIME:   0.008 TIME LEFT:  2.00D  GRAD.:    11.596 HEAT: 27.29642
 CYCLE:    15 TIME:   0.008 TIME LEFT:  2.00D  GRAD.:    12.263 HEAT: 27.28908
 CYCLE:    16 TIME:   0.014 TIME LEFT:  2.00D  GRAD.:     7.153 HEAT: 27.26575
 CYCLE:    17 TIME:   0.008 TIME LEFT:  2.00D  GRAD.:     7.589 HEAT: 27.26153
 CYCLE:    18 TIME:   0.008 TIME LEFT:  2.00D  GRAD.:     7.074 HEAT: 27.25169
 CYCLE:    19 TIME:   0.008 TIME LEFT:  2.00D  GRAD.:     7.925 HEAT: 27.25067
 CYCLE:    20 TIME:   0.008 TIME LEFT:  2.00D  GRAD.:     7.654 HEAT: 27.24388
 CYCLE:    21 TIME:   0.008 TIME LEFT:  2.00D  GRAD.:     5.875 HEAT: 27.23327
 CYCLE:    22 TIME:   0.008 TIME LEFT:  2.00D  GRAD.:     5.057 HEAT: 27.22534
 CYCLE:    23 TIME:   0.008 TIME LEFT:  2.00D  GRAD.:     4.512 HEAT: 27.21686
 CYCLE:    24 TIME:   0.007 TIME LEFT:  2.00D  GRAD.:     2.662 HEAT: 27.20730
 CYCLE:    25 TIME:   0.008 TIME LEFT:  2.00D  GRAD.:     4.235 HEAT: 27.19671
 CYCLE:    26 TIME:   0.008 TIME LEFT:  2.00D  GRAD.:     4.183 HEAT: 27.18303
 CYCLE:    27 TIME:   0.008 TIME LEFT:  2.00D  GRAD.:     3.342 HEAT: 27.17149
 CYCLE:    28 TIME:   0.008 TIME LEFT:  2.00D  GRAD.:     3.194 HEAT: 27.16171
 CYCLE:    29 TIME:   0.008 TIME LEFT:  2.00D  GRAD.:     4.811 HEAT: 27.15371
 CYCLE:    30 TIME:   0.008 TIME LEFT:  2.00D  GRAD.:     3.020 HEAT: 27.14296
 CYCLE:    31 TIME:   0.008 TIME LEFT:  2.00D  GRAD.:     4.209 HEAT: 27.13769
 CYCLE:    32 TIME:   0.007 TIME LEFT:  2.00D  GRAD.:     3.396 HEAT: 27.12618
 CYCLE:    33 TIME:   0.008 TIME LEFT:  2.00D  GRAD.:     4.211 HEAT: 27.10716
 CYCLE:    34 TIME:   0.008 TIME LEFT:  2.00D  GRAD.:     5.460 HEAT: 27.08481
 CYCLE:    35 TIME:   0.008 TIME LEFT:  2.00D  GRAD.:     4.545 HEAT: 27.06685
 CYCLE:    36 TIME:   0.008 TIME LEFT:  2.00D  GRAD.:     3.972 HEAT: 27.04754
 CYCLE:    37 TIME:   0.008 TIME LEFT:  2.00D  GRAD.:     4.168 HEAT: 27.02937
 CYCLE:    38 TIME:   0.008 TIME LEFT:  2.00D  GRAD.:     3.893 HEAT: 27.00814
 CYCLE:    39 TIME:   0.008 TIME LEFT:  2.00D  GRAD.:     3.291 HEAT: 26.98946
 CYCLE:    40 TIME:   0.008 TIME LEFT:  2.00D  GRAD.:     3.526 HEAT: 26.97642
 CYCLE:    41 TIME:   0.008 TIME LEFT:  2.00D  GRAD.:     2.977 HEAT: 26.96707
 CYCLE:    42 TIME:   0.008 TIME LEFT:  2.00D  GRAD.:     2.913 HEAT: 26.96058
 CYCLE:    43 TIME:   0.008 TIME LEFT:  2.00D  GRAD.:     1.599 HEAT: 26.95524
 CYCLE:    44 TIME:   0.008 TIME LEFT:  2.00D  GRAD.:     1.399 HEAT: 26.95197
 CYCLE:    45 TIME:   0.008 TIME LEFT:  2.00D  GRAD.:     1.604 HEAT: 26.94606
 CYCLE:    46 TIME:   0.008 TIME LEFT:  2.00D  GRAD.:     1.448 HEAT: 26.94138
 CYCLE:    47 TIME:   0.008 TIME LEFT:  2.00D  GRAD.:     1.508 HEAT: 26.93571
 CYCLE:    48 TIME:   0.008 TIME LEFT:  2.00D  GRAD.:     1.607 HEAT: 26.93023
 CYCLE:    49 TIME:   0.008 TIME LEFT:  2.00D  GRAD.:     1.627 HEAT: 26.92480
 CYCLE:    50 TIME:   0.008 TIME LEFT:  2.00D  GRAD.:     1.604 HEAT: 26.91938
 CYCLE:    51 TIME:   0.008 TIME LEFT:  2.00D  GRAD.:     1.723 HEAT: 26.91342
 CYCLE:    52 TIME:   0.008 TIME LEFT:  2.00D  GRAD.:     1.579 HEAT: 26.90779
 CYCLE:    53 TIME:   0.008 TIME LEFT:  2.00D  GRAD.:     1.375 HEAT: 26.90300
 CYCLE:    54 TIME:   0.008 TIME LEFT:  2.00D  GRAD.:     1.109 HEAT: 26.89954
 CYCLE:    55 TIME:   0.008 TIME LEFT:  2.00D  GRAD.:     0.930 HEAT: 26.89702
 CYCLE:    56 TIME:   0.008 TIME LEFT:  2.00D  GRAD.:     0.866 HEAT: 26.89531
 CYCLE:    57 TIME:   0.008 TIME LEFT:  2.00D  GRAD.:     0.749 HEAT: 26.89385
 CYCLE:    58 TIME:   0.008 TIME LEFT:  2.00D  GRAD.:     0.685 HEAT: 26.89248
 CYCLE:    59 TIME:   0.008 TIME LEFT:  2.00D  GRAD.:     0.672 HEAT: 26.89123
 CYCLE:    60 TIME:   0.008 TIME LEFT:  2.00D  GRAD.:     0.558 HEAT: 26.89027
 CYCLE:    61 TIME:   0.008 TIME LEFT:  2.00D  GRAD.:     0.446 HEAT: 26.88965
 CYCLE:    62 TIME:   0.008 TIME LEFT:  2.00D  GRAD.:     0.368 HEAT: 26.88926
 CYCLE:    63 TIME:   0.008 TIME LEFT:  2.00D  GRAD.:     0.347 HEAT: 26.88893
 CYCLE:    64 TIME:   0.008 TIME LEFT:  2.00D  GRAD.:     0.354 HEAT: 26.88860
 CYCLE:    65 TIME:   0.008 TIME LEFT:  2.00D  GRAD.:     0.347 HEAT: 26.88829
 CYCLE:    66 TIME:   0.008 TIME LEFT:  2.00D  GRAD.:     0.267 HEAT: 26.88803
 CYCLE:    67 TIME:   0.008 TIME LEFT:  2.00D  GRAD.:     0.218 HEAT: 26.88788
 CYCLE:    68 TIME:   0.008 TIME LEFT:  2.00D  GRAD.:     0.227 HEAT: 26.88775
 CYCLE:    69 TIME:   0.008 TIME LEFT:  2.00D  GRAD.:     0.283 HEAT: 26.88762
 CYCLE:    70 TIME:   0.008 TIME LEFT:  2.00D  GRAD.:     0.453 HEAT: 26.88727
 CYCLE:    71 TIME:   0.008 TIME LEFT:  2.00D  GRAD.:     0.719 HEAT: 26.88641
 CYCLE:    72 TIME:   0.008 TIME LEFT:  2.00D  GRAD.:     2.100 HEAT: 26.88467
 CYCLE:    73 TIME:   0.008 TIME LEFT:  2.00D  GRAD.:     1.386 HEAT: 26.88183
 CYCLE:    74 TIME:   0.008 TIME LEFT:  2.00D  GRAD.:     1.000 HEAT: 26.87067
 CYCLE:    75 TIME:   0.008 TIME LEFT:  2.00D  GRAD.:     4.268 HEAT: 26.86732
 CYCLE:    76 TIME:   0.008 TIME LEFT:  2.00D  GRAD.:     1.254 HEAT: 26.86016
 CYCLE:    77 TIME:   0.008 TIME LEFT:  2.00D  GRAD.:     1.221 HEAT: 26.85299
 CYCLE:    78 TIME:   0.015 TIME LEFT:  2.00D  GRAD.:     2.314 HEAT: 26.83717
 CYCLE:    79 TIME:   0.008 TIME LEFT:  2.00D  GRAD.:     3.330 HEAT: 26.82871
 CYCLE:    80 TIME:   0.008 TIME LEFT:  2.00D  GRAD.:     3.422 HEAT: 26.82679
 CYCLE:    81 TIME:   0.008 TIME LEFT:  2.00D  GRAD.:     2.069 HEAT: 26.81292
 CYCLE:    82 TIME:   0.008 TIME LEFT:  2.00D  GRAD.:     3.799 HEAT: 26.79963
 CYCLE:    83 TIME:   0.008 TIME LEFT:  2.00D  GRAD.:     3.703 HEAT: 26.78371
 CYCLE:    84 TIME:   0.008 TIME LEFT:  2.00D  GRAD.:     7.202 HEAT: 26.75201
 CYCLE:    85 TIME:   0.008 TIME LEFT:  2.00D  GRAD.:     5.034 HEAT: 26.74376
 CYCLE:    86 TIME:   0.008 TIME LEFT:  2.00D  GRAD.:     3.301 HEAT: 26.70141
 CYCLE:    87 TIME:   0.008 TIME LEFT:  2.00D  GRAD.:     6.351 HEAT: 26.68304
 CYCLE:    88 TIME:   0.007 TIME LEFT:  2.00D  GRAD.:     3.570 HEAT: 26.65988
 CYCLE:    89 TIME:   0.008 TIME LEFT:  2.00D  GRAD.:     3.813 HEAT: 26.62171
 CYCLE:    90 TIME:   0.008 TIME LEFT:  2.00D  GRAD.:     5.458 HEAT: 26.55721
 CYCLE:    91 TIME:   0.008 TIME LEFT:  2.00D  GRAD.:     4.202 HEAT: 26.50994
 CYCLE:    92 TIME:   0.008 TIME LEFT:  2.00D  GRAD.:     9.439 HEAT: 26.50496
 CYCLE:    93 TIME:   0.008 TIME LEFT:  2.00D  GRAD.:     5.949 HEAT: 26.45893
 CYCLE:    94 TIME:   0.008 TIME LEFT:  2.00D  GRAD.:     3.503 HEAT: 26.43567
 CYCLE:    95 TIME:   0.008 TIME LEFT:  2.00D  GRAD.:     3.280 HEAT: 26.41662
 CYCLE:    96 TIME:   0.008 TIME LEFT:  2.00D  GRAD.:     3.808 HEAT: 26.39929
 CYCLE:    97 TIME:   0.008 TIME LEFT:  2.00D  GRAD.:     3.233 HEAT: 26.37915
 CYCLE:    98 TIME:   0.008 TIME LEFT:  2.00D  GRAD.:     2.266 HEAT: 26.36198
 CYCLE:    99 TIME:   0.008 TIME LEFT:  2.00D  GRAD.:     1.607 HEAT: 26.35313
 CYCLE:   100 TIME:   0.008 TIME LEFT:  2.00D  GRAD.:     1.108 HEAT: 26.34993
 CYCLE:   101 TIME:   0.008 TIME LEFT:  2.00D  GRAD.:     1.908 HEAT: 26.34823
 CYCLE:   102 TIME:   0.008 TIME LEFT:  2.00D  GRAD.:     1.227 HEAT: 26.34535
 CYCLE:   103 TIME:   0.008 TIME LEFT:  2.00D  GRAD.:     1.241 HEAT: 26.34167
 CYCLE:   104 TIME:   0.008 TIME LEFT:  2.00D  GRAD.:     1.497 HEAT: 26.33761
 CYCLE:   105 TIME:   0.008 TIME LEFT:  2.00D  GRAD.:     1.337 HEAT: 26.33442
 CYCLE:   106 TIME:   0.008 TIME LEFT:  2.00D  GRAD.:     1.049 HEAT: 26.33185
 CYCLE:   107 TIME:   0.008 TIME LEFT:  2.00D  GRAD.:     0.930 HEAT: 26.32973
 CYCLE:   108 TIME:   0.008 TIME LEFT:  2.00D  GRAD.:     0.904 HEAT: 26.32749
 CYCLE:   109 TIME:   0.008 TIME LEFT:  2.00D  GRAD.:     0.925 HEAT: 26.32510
 CYCLE:   110 TIME:   0.008 TIME LEFT:  2.00D  GRAD.:     1.040 HEAT: 26.32257
 CYCLE:   111 TIME:   0.008 TIME LEFT:  2.00D  GRAD.:     1.171 HEAT: 26.31971
 CYCLE:   112 TIME:   0.008 TIME LEFT:  2.00D  GRAD.:     1.251 HEAT: 26.31637
 CYCLE:   113 TIME:   0.008 TIME LEFT:  2.00D  GRAD.:     1.393 HEAT: 26.31239
 CYCLE:   114 TIME:   0.008 TIME LEFT:  2.00D  GRAD.:     1.487 HEAT: 26.30745
 CYCLE:   115 TIME:   0.008 TIME LEFT:  2.00D  GRAD.:     1.771 HEAT: 26.30208
 CYCLE:   116 TIME:   0.008 TIME LEFT:  2.00D  GRAD.:     1.496 HEAT: 26.29696
 CYCLE:   117 TIME:   0.008 TIME LEFT:  2.00D  GRAD.:     1.739 HEAT: 26.29361
 CYCLE:   118 TIME:   0.008 TIME LEFT:  2.00D  GRAD.:     0.906 HEAT: 26.29133
 CYCLE:   119 TIME:   0.008 TIME LEFT:  2.00D  GRAD.:     0.776 HEAT: 26.29003
 CYCLE:   120 TIME:   0.008 TIME LEFT:  2.00D  GRAD.:     0.796 HEAT: 26.28901
 CYCLE:   121 TIME:   0.008 TIME LEFT:  2.00D  GRAD.:     0.743 HEAT: 26.28846
 CYCLE:   122 TIME:   0.008 TIME LEFT:  2.00D  GRAD.:     0.643 HEAT: 26.28780
 CYCLE:   123 TIME:   0.007 TIME LEFT:  2.00D  GRAD.:     0.552 HEAT: 26.28755
 CYCLE:   124 TIME:   0.008 TIME LEFT:  2.00D  GRAD.:     0.545 HEAT: 26.28695
 CYCLE:   125 TIME:   0.008 TIME LEFT:  2.00D  GRAD.:     0.550 HEAT: 26.28661
 CYCLE:   126 TIME:   0.008 TIME LEFT:  2.00D  GRAD.:     0.997 HEAT: 26.28489
 CYCLE:   127 TIME:   0.008 TIME LEFT:  2.00D  GRAD.:     0.749 HEAT: 26.28420
 CYCLE:   128 TIME:   0.012 TIME LEFT:  2.00D  GRAD.:     0.538 HEAT: 26.28252
 CYCLE:   129 TIME:   0.008 TIME LEFT:  2.00D  GRAD.:     0.466 HEAT: 26.28151
 CYCLE:   130 TIME:   0.008 TIME LEFT:  2.00D  GRAD.:     0.485 HEAT: 26.28097
 CYCLE:   131 TIME:   0.008 TIME LEFT:  2.00D  GRAD.:     0.587 HEAT: 26.28033
 CYCLE:   132 TIME:   0.008 TIME LEFT:  2.00D  GRAD.:     0.632 HEAT: 26.27963
 CYCLE:   133 TIME:   0.008 TIME LEFT:  2.00D  GRAD.:     0.422 HEAT: 26.27893
 CYCLE:   134 TIME:   0.008 TIME LEFT:  2.00D  GRAD.:     0.246 HEAT: 26.27870
 CYCLE:   135 TIME:   0.008 TIME LEFT:  2.00D  GRAD.:     0.308 HEAT: 26.27849
 CYCLE:   136 TIME:   0.008 TIME LEFT:  2.00D  GRAD.:     0.198 HEAT: 26.27843
 CYCLE:   137 TIME:   0.008 TIME LEFT:  2.00D  GRAD.:     0.427 HEAT: 26.27829
 CYCLE:   138 TIME:   0.008 TIME LEFT:  2.00D  GRAD.:     0.268 HEAT: 26.27807
 CYCLE:   139 TIME:   0.008 TIME LEFT:  2.00D  GRAD.:     0.249 HEAT: 26.27765
 CYCLE:   140 TIME:   0.008 TIME LEFT:  2.00D  GRAD.:     0.335 HEAT: 26.27716
 CYCLE:   141 TIME:   0.008 TIME LEFT:  2.00D  GRAD.:     0.473 HEAT: 26.27631
 CYCLE:   142 TIME:   0.008 TIME LEFT:  2.00D  GRAD.:     0.506 HEAT: 26.27571
 CYCLE:   143 TIME:   0.008 TIME LEFT:  2.00D  GRAD.:     0.612 HEAT: 26.27494
 CYCLE:   144 TIME:   0.008 TIME LEFT:  2.00D  GRAD.:     0.552 HEAT: 26.27440
 CYCLE:   145 TIME:   0.008 TIME LEFT:  2.00D  GRAD.:     1.071 HEAT: 26.27312
 CYCLE:   146 TIME:   0.008 TIME LEFT:  2.00D  GRAD.:     0.729 HEAT: 26.27222
 CYCLE:   147 TIME:   0.008 TIME LEFT:  2.00D  GRAD.:     0.545 HEAT: 26.27055
 CYCLE:   148 TIME:   0.008 TIME LEFT:  2.00D  GRAD.:     0.900 HEAT: 26.26719
 CYCLE:   149 TIME:   0.008 TIME LEFT:  2.00D  GRAD.:     1.441 HEAT: 26.26245
 CYCLE:   150 TIME:   0.008 TIME LEFT:  2.00D  GRAD.:     1.547 HEAT: 26.25985
 CYCLE:   151 TIME:   0.008 TIME LEFT:  2.00D  GRAD.:     3.306 HEAT: 26.26237
 CYCLE:   152 TIME:   0.008 TIME LEFT:  2.00D  GRAD.:     2.088 HEAT: 26.25708
 CYCLE:   153 TIME:   0.008 TIME LEFT:  2.00D  GRAD.:     1.445 HEAT: 26.25794
 CYCLE:   154 TIME:   0.008 TIME LEFT:  2.00D  GRAD.:     0.409 HEAT: 26.25545
 CYCLE:   155 TIME:   0.008 TIME LEFT:  2.00D  GRAD.:     0.497 HEAT: 26.25494
 CYCLE:   156 TIME:   0.008 TIME LEFT:  2.00D  GRAD.:     0.433 HEAT: 26.25473
 CYCLE:   157 TIME:   0.008 TIME LEFT:  2.00D  GRAD.:     0.359 HEAT: 26.25443
 CYCLE:   158 TIME:   0.008 TIME LEFT:  2.00D  GRAD.:     0.289 HEAT: 26.25432
 CYCLE:   159 TIME:   0.008 TIME LEFT:  2.00D  GRAD.:     0.294 HEAT: 26.25422
 CYCLE:   160 TIME:   0.008 TIME LEFT:  2.00D  GRAD.:     0.240 HEAT: 26.25411
 CYCLE:   161 TIME:   0.007 TIME LEFT:  2.00D  GRAD.:     0.176 HEAT: 26.25407
 CYCLE:   162 TIME:   0.008 TIME LEFT:  2.00D  GRAD.:     0.145 HEAT: 26.25401
 CYCLE:   163 TIME:   0.008 TIME LEFT:  2.00D  GRAD.:     0.135 HEAT: 26.25397
 CYCLE:   164 TIME:   0.008 TIME LEFT:  2.00D  GRAD.:     0.048 HEAT: 26.25395

     RMS GRADIENT =  0.04786  IS LESS THAN CUTOFF =  0.05000



 -------------------------------------------------------------------------------
pm3  precise nosym
 InChI=1S/C10H14/c1-2-3-4-7-10-8-5-6-9-10/h2-7,10H,8-9H2,1H3



     GEOMETRY OPTIMISED USING EIGENVECTOR FOLLOWING (EF).     
     SCF FIELD WAS ACHIEVED                                   


                              PM3 CALCULATION
                                                       MOPAC2012 (Version: 13.159M)
                                                       Mon Jun  2 11:11:33 2014
                                                       No. of days left =   6




          FINAL HEAT OF FORMATION =         26.25395 KCAL/MOL =     109.84654 KJ/MOL


          TOTAL ENERGY            =      -1399.92318 EV
          ELECTRONIC ENERGY       =      -7374.07035 EV  POINT GROUP:     C1  
          CORE-CORE REPULSION     =       5974.14717 EV
          COSMO AREA              =        201.46 SQUARE ANGSTROMS
          COSMO VOLUME            =        197.21 CUBIC ANGSTROMS

          GRADIENT NORM           =          0.04786
          IONIZATION POTENTIAL    =          9.007296 EV
          HOMO LUMO ENERGIES (EV) =         -9.007  0.200
          NO. OF FILLED LEVELS    =         27
          MOLECULAR WEIGHT        =        134.221

          MOLECULAR DIMENSIONS (Angstroms)

            Atom       Atom       Distance
            H    17    H    22    10.02051
            H    13    H    18     4.69041
            H    15    H    16     2.83219


          SCF CALCULATIONS        =        174
          COMPUTATION TIME        =          1.369 SECONDS




   ATOM   CHEMICAL          X               Y               Z
  NUMBER   SYMBOL      (ANGSTROMS)     (ANGSTROMS)     (ANGSTROMS)
 
     1       C         -1.48217904  *   0.52779479  *  -0.13861585  *
     2       C         -2.31876235  *   0.96985632  *   1.08454032  *
     3       C         -2.38428462  *  -0.45072918  *  -0.92606242  *
     4       C          4.68279882  *  -0.53995935  *   0.41658934  *
     5       C         -0.21589204  *  -0.13374518  *   0.28746912  *
     6       C         -3.64373202  *   0.30039187  *   0.91164164  *
     7       C         -3.67928831  *  -0.47113738  *  -0.18032929  *
     8       C          3.42368966  *   0.11145001  *  -0.00309666  *
     9       C          2.21559393  *  -0.33985478  *   0.35390649  *
    10       C          0.99111828  *   0.31831166  *  -0.07131682  *
    11       H         -1.25278324  *   1.41553850  *  -0.77333442  *
    12       H         -1.85191535  *   0.67145735  *   2.04220926  *
    13       H         -2.43288133  *   2.06829532  *   1.12698032  *
    14       H         -1.95065866  *  -1.46695947  *  -0.98423713  *
    15       H         -2.53370095  *  -0.11979101  *  -1.96988149  *
    16       H          4.51956841  *  -1.42700552  *   1.04314609  *
    17       H          5.30578958  *   0.16048379  *   0.98930288  *
    18       H          5.26338748  *  -0.85608097  *  -0.46071265  *
    19       H         -4.45264943  *   0.45671948  *   1.62463535  *
    20       H         -0.32547617  *  -1.02437341  *   0.92026536  *
    21       H          3.52895328  *   1.00237847  *  -0.63498272  *
    22       H         -4.52268403  *  -1.06572197  *  -0.52994874  *
    23       H          1.09708816  *   1.20949482  *  -0.70448775  *
    24       H          2.11070022  *  -1.23138455  *   0.98641729  *

           Empirical Formula: C10 H14  =    24 atoms



      MOLECULAR POINT GROUP   :   C1  


                  EIGENVALUES  
 -40.63625 -36.60784 -32.31005 -28.10605 -27.96101 -24.61005 -20.58802 -20.00150
 -19.07011 -18.52520 -17.55682 -16.51557 -16.06472 -14.60765 -14.32942 -13.77036
 -13.63636 -13.58095 -13.20019 -13.09502 -12.60886 -12.59955 -12.28156 -12.05326
 -11.40198  -9.57278  -9.00730   0.20045   1.11395   2.08234   3.13680   3.45337
   3.53542   3.63272   3.70501   3.80757   3.88268   3.92679   3.98106   4.14322
   4.19832   4.32055   4.33904   4.34098   4.46002   4.54414   4.82258   4.93390
   5.34091   5.51825   5.58499   5.97711   6.05259   6.13960


              NET ATOMIC CHARGES AND DIPOLE CONTRIBUTIONS

  ATOM NO.   TYPE          CHARGE      No. of ELECS.   s-Pop       p-Pop       
    1          C          -0.048808        4.0488     1.17393     2.87487
    2          C          -0.063546        4.0635     1.15710     2.90645
    3          C          -0.063566        4.0636     1.15710     2.90647
    4          C          -0.076232        4.0762     1.12530     2.95094
    5          C          -0.135746        4.1357     1.20010     2.93565
    6          C          -0.155923        4.1559     1.20224     2.95368
    7          C          -0.155930        4.1559     1.20224     2.95369
    8          C          -0.133101        4.1331     1.19473     2.93837
    9          C          -0.122104        4.1221     1.18224     2.93987
   10          C          -0.111610        4.1116     1.18226     2.92935
   11          H           0.067125        0.9329     0.93288
   12          H           0.062230        0.9378     0.93777
   13          H           0.056489        0.9435     0.94351
   14          H           0.062226        0.9378     0.93777
   15          H           0.056497        0.9435     0.94350
   16          H           0.041992        0.9580     0.95801
   17          H           0.045225        0.9548     0.95478
   18          H           0.045169        0.9548     0.95483
   19          H           0.110948        0.8891     0.88905
   20          H           0.105293        0.8947     0.89471
   21          H           0.098117        0.9019     0.90188
   22          H           0.110939        0.8891     0.88906
   23          H           0.101608        0.8984     0.89839
   24          H           0.102707        0.8973     0.89729
 DIPOLE           X         Y         Z       TOTAL
 POINT-CHG.     0.285     0.009    -0.015     0.285
 HYBRID         0.013    -0.013     0.009     0.021
 SUM            0.298    -0.004    -0.006     0.298


          ATOMIC ORBITAL ELECTRON POPULATIONS

    Atom      s        px        py        pz   
    1  C   1.17393   0.93614   0.97515   0.96358
    2  C   1.15710   0.93896   0.99265   0.97484
    3  C   1.15710   0.93800   0.99071   0.97776
    4  C   1.12530   0.95743   0.99323   1.00028
    5  C   1.20010   0.94489   0.99398   0.99677
    6  C   1.20224   0.97846   0.99247   0.98275
    7  C   1.20224   0.97973   0.99890   0.97507
    8  C   1.19473   0.95045   0.99301   0.99491
    9  C   1.18224   0.93539   0.99604   1.00844
   10  C   1.18226   0.93537   0.99215   1.00183
   11  H   0.93288
   12  H   0.93777
   13  H   0.94351
   14  H   0.93777
   15  H   0.94350
   16  H   0.95801
   17  H   0.95478
   18  H   0.95483
   19  H   0.88905
   20  H   0.89471
   21  H   0.90188
   22  H   0.88906
   23  H   0.89839
   24  H   0.89729
 *******************************************************************************
 ** Site#: 14399           For non-commercial use only        Version 13.159M **
 *******************************************************************************
 ** Cite this work as: MOPAC2012, James J. P. Stewart, Stewart Computational  **
 ** Chemistry, Version 13.159M web: HTTP://OpenMOPAC.net  Days remaining:   6 **
 *******************************************************************************
 **                                                                           **
 **                                MOPAC2012                                  **
 **                                                                           **
 *******************************************************************************

                            PM3 CALCULATION RESULTS


 *******************************************************************************
 *  CALCULATION DONE:                                Mon Jun  2 11:11:33 2014  *
 *  PM3      - The PM3 Hamiltonian to be used
 *  OLDGEO   - PREVIOUS GEOMETRY TO BE USED
 *  PRECISE  - CRITERIA TO BE INCREASED BY 100 TIMES
 *  NOSYM    - POINT-GROUP SYMMETRY SET TO C1
 *  T=       - A TIME OF 172800.0 SECONDS REQUESTED
 *  DUMP=N   - RESTART FILE WRITTEN EVERY  7200.000 SECONDS
 *  THERMO   - THERMODYNAMIC QUANTITIES TO BE CALCULATED
 *******************************************************************************
oldgeo thermo nosym precise  pm3

   ATOM   CHEMICAL          X               Y               Z
  NUMBER   SYMBOL      (ANGSTROMS)     (ANGSTROMS)     (ANGSTROMS)
 
     1       C         -1.48217904  *   0.52779479  *  -0.13861585  *
     2       C         -2.31876235  *   0.96985632  *   1.08454032  *
     3       C         -2.38428462  *  -0.45072918  *  -0.92606242  *
     4       C          4.68279882  *  -0.53995935  *   0.41658934  *
     5       C         -0.21589204  *  -0.13374518  *   0.28746912  *
     6       C         -3.64373202  *   0.30039187  *   0.91164164  *
     7       C         -3.67928831  *  -0.47113738  *  -0.18032929  *
     8       C          3.42368966  *   0.11145001  *  -0.00309666  *
     9       C          2.21559393  *  -0.33985478  *   0.35390649  *
    10       C          0.99111828  *   0.31831166  *  -0.07131682  *
    11       H         -1.25278324  *   1.41553850  *  -0.77333442  *
    12       H         -1.85191535  *   0.67145735  *   2.04220926  *
    13       H         -2.43288133  *   2.06829532  *   1.12698032  *
    14       H         -1.95065866  *  -1.46695947  *  -0.98423713  *
    15       H         -2.53370095  *  -0.11979101  *  -1.96988149  *
    16       H          4.51956841  *  -1.42700552  *   1.04314609  *
    17       H          5.30578958  *   0.16048379  *   0.98930288  *
    18       H          5.26338748  *  -0.85608097  *  -0.46071265  *
    19       H         -4.45264943  *   0.45671948  *   1.62463535  *
    20       H         -0.32547617  *  -1.02437341  *   0.92026536  *
    21       H          3.52895328  *   1.00237847  *  -0.63498272  *
    22       H         -4.52268403  *  -1.06572197  *  -0.52994874  *
    23       H          1.09708816  *   1.20949482  *  -0.70448775  *
    24       H          2.11070022  *  -1.23138455  *   0.98641729  *
 


          CARTESIAN COORDINATES 

    NO.       ATOM         X         Y         Z

     1         C       -1.4822    0.5278   -0.1386
     2         C       -2.3188    0.9699    1.0845
     3         C       -2.3843   -0.4507   -0.9261
     4         C        4.6828   -0.5400    0.4166
     5         C       -0.2159   -0.1337    0.2875
     6         C       -3.6437    0.3004    0.9116
     7         C       -3.6793   -0.4711   -0.1803
     8         C        3.4237    0.1115   -0.0031
     9         C        2.2156   -0.3399    0.3539
    10         C        0.9911    0.3183   -0.0713
    11         H       -1.2528    1.4155   -0.7733
    12         H       -1.8519    0.6715    2.0422
    13         H       -2.4329    2.0683    1.1270
    14         H       -1.9507   -1.4670   -0.9842
    15         H       -2.5337   -0.1198   -1.9699
    16         H        4.5196   -1.4270    1.0431
    17         H        5.3058    0.1605    0.9893
    18         H        5.2634   -0.8561   -0.4607
    19         H       -4.4526    0.4567    1.6246
    20         H       -0.3255   -1.0244    0.9203
    21         H        3.5290    1.0024   -0.6350
    22         H       -4.5227   -1.0657   -0.5299
    23         H        1.0971    1.2095   -0.7045
    24         H        2.1107   -1.2314    0.9864

  H: (PM3): J. J. P. STEWART, J. COMP. CHEM. 10, 209 (1989).
  C: (PM3): J. J. P. STEWART, J. COMP. CHEM. 10, 209 (1989).

           Empirical Formula: C10 H14  =    24 atoms



      MOLECULAR POINT GROUP   :   C1  


      RHF CALCULATION, NO. OF DOUBLY OCCUPIED LEVELS =   27



          HEAT OF FORMATION =      26.253952 KCALS/MOLE


          INTERNAL COORDINATE DERIVATIVES

   NUMBER  ATOM       BOND         ANGLE      DIHEDRAL

     1       C      0.000850    -0.005272    -0.001424
     2       C     -0.000596    -0.009819     0.004961
     3       C     -0.001143     0.001505    -0.004287
     4       C     -0.006556    -0.011691    -0.015485
     5       C     -0.002593    -0.005198    -0.004600
     6       C      0.000408    -0.001690     0.001542
     7       C      0.002920    -0.001386     0.000370
     8       C     -0.003001     0.011062    -0.009504
     9       C     -0.001623     0.000022     0.000618
    10       C     -0.005158    -0.002241     0.001535
    11       H     -0.000896     0.001237     0.001691
    12       H     -0.001442    -0.005771    -0.001839
    13       H      0.003658     0.006834     0.001367
    14       H     -0.002800     0.009074     0.001727
    15       H     -0.002651    -0.000209     0.001069
    16       H     -0.008348     0.007986     0.003866
    17       H      0.004868    -0.006152     0.003607
    18       H      0.009411     0.002728     0.006845
    19       H      0.011400     0.010266    -0.005830
    20       H     -0.000657     0.005076     0.005167
    21       H      0.006769     0.005577     0.012792
    22       H     -0.007293    -0.011385     0.003975
    23       H     -0.001165     0.002042    -0.003621
    24       H      0.005636    -0.002595    -0.004541


          GRADIENT NORM =   0.04832


          TIME FOR SCF CALCULATION =    0.01

          TIME FOR DERIVATIVES     =    0.01

          MOLECULAR WEIGHT =  134.22



          ROTATIONAL CONSTANTS IN CM(-1)

          A =    0.17374223   B =    0.01475820   C =    0.01430922



           PRINCIPAL MOMENTS OF INERTIA IN UNITS OF 10**(-40)*GRAM-CM**2

          A =      161.1167   B =     1896.7603   C =     1956.2749


          ORIENTATION OF MOLECULE IN FORCE CALCULATION

    NO.       ATOM         X         Y         Z

     1          C       0.5908    0.7781   -1.0243
     2          C       2.1372    0.7781   -1.0243
     3          C       0.1763    2.2679   -1.0243
     4          C      -2.6104   -3.4378    2.3571
     5          C       0.0537    0.0711    0.1734
     6          C       2.5259    2.2196   -1.0917
     7          C       1.4609    3.0287   -1.0917
     8          C      -2.0750   -2.7325    1.1732
     9          C      -1.2681   -1.6687    1.2620
    10          C      -0.7539   -0.9917    0.0827
    11          H       0.2184    0.2879   -1.9542
    12          H       2.5568    0.3019   -0.1180
    13          H       2.5465    0.2171   -1.8841
    14          H      -0.3948    2.5446   -0.1180
    15          H      -0.4739    2.5118   -1.8840
    16          H      -2.2801   -2.9956    3.3065
    17          H      -2.2942   -4.4899    2.3535
    18          H      -3.7088   -3.4237    2.3492
    19          H       3.5721    2.5210   -1.1326
    20          H       0.3589    0.4729    1.1486
    21          H      -2.3771   -3.1314    0.1966
    22          H       1.4706    4.1174   -1.1324
    23          H      -1.0572   -1.3910   -0.8945
    24          H      -0.9659   -1.2698    2.2395


    FIRST DERIVATIVES WILL BE USED IN THE CALCULATION OF SECOND DERIVATIVES

          ESTIMATED TIME TO COMPLETE CALCULATION =        3.18 SECONDS

    FOR POINT-GROUP C1   THERE ARE   1 UNIQUE SYMMETRY FUNCTIONS.

 STEP:   1 TIME =     0.03 SECS, INTEGRAL =      0.03 TIME LEFT: 172799.95
 STEP:   2 TIME =     0.03 SECS, INTEGRAL =      0.07 TIME LEFT: 172799.92
 STEP:   3 TIME =     0.03 SECS, INTEGRAL =      0.10 TIME LEFT: 172799.89
 STEP:   4 TIME =     0.03 SECS, INTEGRAL =      0.14 TIME LEFT: 172799.85
 STEP:   5 TIME =     0.03 SECS, INTEGRAL =      0.17 TIME LEFT: 172799.82
 STEP:   6 TIME =     0.04 SECS, INTEGRAL =      0.21 TIME LEFT: 172799.78
 STEP:   7 TIME =     0.03 SECS, INTEGRAL =      0.24 TIME LEFT: 172799.75
 STEP:   8 TIME =     0.03 SECS, INTEGRAL =      0.28 TIME LEFT: 172799.71
 STEP:   9 TIME =     0.04 SECS, INTEGRAL =      0.31 TIME LEFT: 172799.68
 STEP:  10 TIME =     0.04 SECS, INTEGRAL =      0.35 TIME LEFT: 172799.64
 STEP:  11 TIME =     0.04 SECS, INTEGRAL =      0.38 TIME LEFT: 172799.61
 STEP:  12 TIME =     0.03 SECS, INTEGRAL =      0.41 TIME LEFT: 172799.57
 STEP:  13 TIME =     0.04 SECS, INTEGRAL =      0.45 TIME LEFT: 172799.54
 STEP:  14 TIME =     0.04 SECS, INTEGRAL =      0.49 TIME LEFT: 172799.50
 STEP:  15 TIME =     0.03 SECS, INTEGRAL =      0.52 TIME LEFT: 172799.47
 STEP:  16 TIME =     0.03 SECS, INTEGRAL =      0.56 TIME LEFT: 172799.43
 STEP:  17 TIME =     0.03 SECS, INTEGRAL =      0.59 TIME LEFT: 172799.40
 STEP:  18 TIME =     0.04 SECS, INTEGRAL =      0.63 TIME LEFT: 172799.36
 STEP:  19 TIME =     0.03 SECS, INTEGRAL =      0.66 TIME LEFT: 172799.33
 STEP:  20 TIME =     0.03 SECS, INTEGRAL =      0.69 TIME LEFT: 172799.29
 STEP:  21 TIME =     0.04 SECS, INTEGRAL =      0.73 TIME LEFT: 172799.26
 STEP:  22 TIME =     0.04 SECS, INTEGRAL =      0.77 TIME LEFT: 172799.22
 STEP:  23 TIME =     0.03 SECS, INTEGRAL =      0.80 TIME LEFT: 172799.19
 STEP:  24 TIME =     0.03 SECS, INTEGRAL =      0.83 TIME LEFT: 172799.15
 STEP:  25 TIME =     0.04 SECS, INTEGRAL =      0.87 TIME LEFT: 172799.12
 STEP:  26 TIME =     0.03 SECS, INTEGRAL =      0.90 TIME LEFT: 172799.08
 STEP:  27 TIME =     0.03 SECS, INTEGRAL =      0.94 TIME LEFT: 172799.05
 STEP:  28 TIME =     0.04 SECS, INTEGRAL =      0.97 TIME LEFT: 172799.01
 STEP:  29 TIME =     0.03 SECS, INTEGRAL =      1.01 TIME LEFT: 172798.98
 STEP:  30 TIME =     0.03 SECS, INTEGRAL =      1.04 TIME LEFT: 172798.95
 STEP:  31 TIME =     0.04 SECS, INTEGRAL =      1.08 TIME LEFT: 172798.91
 STEP:  32 TIME =     0.03 SECS, INTEGRAL =      1.11 TIME LEFT: 172798.88
 STEP:  33 TIME =     0.03 SECS, INTEGRAL =      1.15 TIME LEFT: 172798.84
 STEP:  34 TIME =     0.03 SECS, INTEGRAL =      1.18 TIME LEFT: 172798.81
 STEP:  35 TIME =     0.03 SECS, INTEGRAL =      1.22 TIME LEFT: 172798.77
 STEP:  36 TIME =     0.03 SECS, INTEGRAL =      1.25 TIME LEFT: 172798.74
 STEP:  37 TIME =     0.04 SECS, INTEGRAL =      1.28 TIME LEFT: 172798.70
 STEP:  38 TIME =     0.03 SECS, INTEGRAL =      1.32 TIME LEFT: 172798.67
 STEP:  39 TIME =     0.03 SECS, INTEGRAL =      1.35 TIME LEFT: 172798.63
 STEP:  40 TIME =     0.03 SECS, INTEGRAL =      1.39 TIME LEFT: 172798.60
 STEP:  41 TIME =     0.04 SECS, INTEGRAL =      1.42 TIME LEFT: 172798.56
 STEP:  42 TIME =     0.04 SECS, INTEGRAL =      1.46 TIME LEFT: 172798.53
 STEP:  43 TIME =     0.03 SECS, INTEGRAL =      1.50 TIME LEFT: 172798.49
 STEP:  44 TIME =     0.04 SECS, INTEGRAL =      1.53 TIME LEFT: 172798.46
 STEP:  45 TIME =     0.03 SECS, INTEGRAL =      1.57 TIME LEFT: 172798.42
 STEP:  46 TIME =     0.03 SECS, INTEGRAL =      1.60 TIME LEFT: 172798.39
 STEP:  47 TIME =     0.03 SECS, INTEGRAL =      1.63 TIME LEFT: 172798.35
 STEP:  48 TIME =     0.03 SECS, INTEGRAL =      1.67 TIME LEFT: 172798.32
 STEP:  49 TIME =     0.04 SECS, INTEGRAL =      1.70 TIME LEFT: 172798.29
 STEP:  50 TIME =     0.03 SECS, INTEGRAL =      1.74 TIME LEFT: 172798.25
 STEP:  51 TIME =     0.04 SECS, INTEGRAL =      1.77 TIME LEFT: 172798.22
 STEP:  52 TIME =     0.03 SECS, INTEGRAL =      1.81 TIME LEFT: 172798.18
 STEP:  53 TIME =     0.04 SECS, INTEGRAL =      1.84 TIME LEFT: 172798.15
 STEP:  54 TIME =     0.04 SECS, INTEGRAL =      1.88 TIME LEFT: 172798.11
 STEP:  55 TIME =     0.03 SECS, INTEGRAL =      1.91 TIME LEFT: 172798.08
 STEP:  56 TIME =     0.04 SECS, INTEGRAL =      1.95 TIME LEFT: 172798.04
 STEP:  57 TIME =     0.04 SECS, INTEGRAL =      1.98 TIME LEFT: 172798.00
 STEP:  58 TIME =     0.04 SECS, INTEGRAL =      2.02 TIME LEFT: 172797.97
 STEP:  59 TIME =     0.04 SECS, INTEGRAL =      2.06 TIME LEFT: 172797.93
 STEP:  60 TIME =     0.03 SECS, INTEGRAL =      2.09 TIME LEFT: 172797.90
 STEP:  61 TIME =     0.04 SECS, INTEGRAL =      2.12 TIME LEFT: 172797.86
 STEP:  62 TIME =     0.04 SECS, INTEGRAL =      2.16 TIME LEFT: 172797.83
 STEP:  63 TIME =     0.03 SECS, INTEGRAL =      2.19 TIME LEFT: 172797.79
 STEP:  64 TIME =     0.04 SECS, INTEGRAL =      2.23 TIME LEFT: 172797.76
 STEP:  65 TIME =     0.03 SECS, INTEGRAL =      2.26 TIME LEFT: 172797.72
 STEP:  66 TIME =     0.04 SECS, INTEGRAL =      2.30 TIME LEFT: 172797.69
 STEP:  67 TIME =     0.04 SECS, INTEGRAL =      2.34 TIME LEFT: 172797.65
 STEP:  68 TIME =     0.04 SECS, INTEGRAL =      2.37 TIME LEFT: 172797.62
 STEP:  69 TIME =     0.03 SECS, INTEGRAL =      2.41 TIME LEFT: 172797.58
 STEP:  70 TIME =     0.04 SECS, INTEGRAL =      2.44 TIME LEFT: 172797.55
 STEP:  71 TIME =     0.04 SECS, INTEGRAL =      2.48 TIME LEFT: 172797.51
 STEP:  72 TIME =     0.03 SECS, INTEGRAL =      2.51 TIME LEFT: 172797.48

(To convert to Hartree/Bohr^2, multiply by (10^(-21) x N x a0^2)/(4.184 x 627.51) = 0.0642)


           FORCE MATRIX IN MILLIDYNES/ANGSTROM


                  C  1       C  2       C  3       C  4       C  5       C  6
 ------------------------------------------------------------------------------
     C    1  14.580330
     C    2   3.421566  14.566266
     C    3   3.421997   0.721623  14.566208
     C    4   0.012053   0.001900   0.002043  14.711321
     C    5   4.848132   0.643481   0.643588   0.016658  18.060553
     C    6   0.862909   4.741150   1.179595   0.000716   0.032993  18.365969
     C    7   0.862892   1.179478   4.741529   0.000857   0.033058  10.577797
     C    8   0.016048   0.002228   0.002251   5.283133   0.110317   0.000938
     C    9   0.141387   0.019911   0.019859   0.860204   1.092727   0.003252
     C   10   0.818321   0.035673   0.035219   0.148630  10.368372   0.004030
     H   11   4.291971   0.422393   0.422506   0.000276   0.448418   0.025419
     H   12   0.449648   4.495041   0.025790   0.000266   0.064344   0.428683
     H   13   0.438108   4.534034   0.030514   0.000310   0.025145   0.431821
     H   14   0.449650   0.025799   4.494767   0.000226   0.064271   0.037638
     H   15   0.438007   0.030516   4.533932   0.000306   0.025094   0.039296
     H   16   0.000229   0.000078   0.000134   4.724288   0.000970   0.000283
     H   17   0.001834   0.000186   0.000455   4.699336   0.001685   0.000250
     H   18   0.001967   0.000453   0.000224   4.701165   0.001671   0.000177
     H   19   0.042505   0.412422   0.118639   0.000138   0.004954   5.019574
     H   20   0.432432   0.019630   0.019674   0.004740   4.756689   0.002817
     H   21   0.004714   0.000905   0.000889   0.424624   0.004782   0.000423
     H   22   0.042550   0.118707   0.412550   0.000254   0.005049   0.450364
     H   23   0.082974   0.008562   0.008604   0.003517   0.466327   0.001983
     H   24   0.002748   0.000828   0.000775   0.083464   0.040614   0.000493


                  C  7       C  8       C  9       C 10       H 11       H 12
 ------------------------------------------------------------------------------
     C    7  18.367346
     C    8   0.001065  18.022447
     C    9   0.003364  10.349206  18.445586
     C   10   0.004306   1.097157   5.597440  18.451856
     H   11   0.025328   0.000862   0.002038   0.059497   4.746188
     H   12   0.037654   0.000263   0.001437   0.004074   0.027191   5.113887
     H   13   0.039321   0.000263   0.001987   0.003576   0.028941   0.570969
     H   14   0.428614   0.000255   0.001358   0.004178   0.027229   0.001457
     H   15   0.431722   0.000313   0.002005   0.003414   0.028902   0.003921
     H   16   0.000246   0.481337   0.040770   0.002427   0.000070   0.000084
     H   17   0.000118   0.438371   0.036028   0.020892   0.000085   0.000106
     H   18   0.000244   0.438257   0.036243   0.020879   0.000106   0.000084
     H   19   0.450274   0.000320   0.000416   0.001013   0.002723   0.014220
     H   20   0.002784   0.004426   0.087674   0.465471   0.038000   0.022698
     H   21   0.000409   4.776240   0.468540   0.088334   0.000349   0.000247
     H   22   5.020331   0.000302   0.000526   0.001093   0.002730   0.016153
     H   23   0.002043   0.040985   0.443972   4.741223   0.029375   0.000851
     H   24   0.000513   0.465727   4.749093   0.444107   0.000694   0.000361


                  H 13       H 14       H 15       H 16       H 17       H 18
 ------------------------------------------------------------------------------
     H   13   5.136332
     H   14   0.003910   5.113664
     H   15   0.001233   0.570905   5.136234
     H   16   0.000087   0.000088   0.000088   5.449520
     H   17   0.000059   0.000086   0.000103   0.564817   5.419522
     H   18   0.000103   0.000080   0.000071   0.565104   0.577109   5.420627
     H   19   0.014963   0.016195   0.016087   0.000067   0.000097   0.000094
     H   20   0.001392   0.022709   0.001368   0.000313   0.000714   0.000708
     H   21   0.000156   0.000240   0.000173   0.041845   0.023675   0.023947
     H   22   0.016003   0.014214   0.014952   0.000073   0.000088   0.000050
     H   23   0.001010   0.000866   0.001006   0.000627   0.000795   0.000773
     H   24   0.000241   0.000350   0.000213   0.029779   0.009449   0.009470


                  H 19       H 20       H 21       H 22       H 23       H 24
 ------------------------------------------------------------------------------
     H   19   5.415809
     H   20   0.000877   5.141797
     H   21   0.000157   0.002785   5.155245
     H   22   0.048749   0.000885   0.000155   5.416480
     H   23   0.000336   0.104319   0.028810   0.000339   5.117742
     H   24   0.000150   0.028545   0.104829   0.000144   0.035765   5.126241


          HEAT OF FORMATION =      26.253952 KCALS/MOLE

          ZERO POINT ENERGY     131.082 KCAL/MOL


           NORMAL COORDINATE ANALYSIS (Total motion = 1 Angstrom)


   Root No.       1         2         3         4         5         6         7         8

                 1 A       2 A       3 A       4 A       5 A       6 A       7 A       8 A   

                  22.9      52.3      73.1      91.9     126.8     133.5     271.9     301.5
  
           1    0.0169   -0.0051   -0.0196   -0.0004    0.0051   -0.0047   -0.0113   -0.0096
           2   -0.0130   -0.0061    0.0149    0.0004   -0.0039   -0.0062    0.0086   -0.0126
           3   -0.0006   -0.0295   -0.0002    0.0004    0.0002    0.0004    0.0000    0.0162
           4    0.0167   -0.0049   -0.0194    0.0001    0.0047   -0.0052   -0.0107   -0.0141
           5    0.0156   -0.0071   -0.0048   -0.0037    0.0025   -0.0076   -0.0018   -0.0283
           6   -0.0063   -0.0253    0.0039    0.0232   -0.0130   -0.0276    0.0128    0.0173
           7   -0.0107   -0.0048   -0.0006    0.0038   -0.0012   -0.0059   -0.0012   -0.0235
           8   -0.0205   -0.0058    0.0199    0.0012   -0.0052   -0.0071    0.0107   -0.0211
           9    0.0054   -0.0261   -0.0041   -0.0221    0.0134   -0.0279   -0.0127    0.0173
          10   -0.0208    0.0149   -0.0212    0.0300   -0.0143   -0.0174   -0.0209    0.0355
          11    0.0165    0.0173    0.0163   -0.0228    0.0111   -0.0231    0.0159    0.0467
          12    0.0005    0.0208    0.0002    0.0000    0.0000   -0.0368   -0.0001   -0.0196
          13    0.0316   -0.0029   -0.0250   -0.0137    0.0095    0.0151    0.0067    0.0104
          14   -0.0242   -0.0021    0.0189    0.0102   -0.0073    0.0200   -0.0051    0.0136
          15   -0.0006   -0.0260   -0.0002    0.0001    0.0001    0.0266   -0.0001    0.0290
          16   -0.0101   -0.0025   -0.0009    0.0049   -0.0018   -0.0048   -0.0001   -0.0216
          17    0.0231   -0.0043   -0.0100   -0.0057    0.0047   -0.0064   -0.0054   -0.0292
          18   -0.0021    0.0510    0.0024    0.0122   -0.0081    0.0038    0.0137    0.0039
          19   -0.0250   -0.0021    0.0094    0.0069   -0.0050   -0.0049    0.0051   -0.0223
          20    0.0034   -0.0039    0.0035   -0.0030    0.0005   -0.0064    0.0015   -0.0286
          21    0.0042    0.0505   -0.0018   -0.0136    0.0077    0.0036   -0.0137    0.0039
          22   -0.0270    0.0050    0.0034   -0.0114    0.0367    0.0096    0.0329    0.0148
          23    0.0207    0.0052   -0.0026    0.0084   -0.0279    0.0128   -0.0248    0.0198
          24    0.0002    0.0091    0.0001   -0.0001   -0.0001   -0.0019    0.0000   -0.0408
          25    0.0207    0.0041    0.0354   -0.0030   -0.0259    0.0086    0.0393    0.0126
          26   -0.0155    0.0072   -0.0269    0.0020    0.0195    0.0113   -0.0297    0.0166
          27   -0.0002   -0.0073   -0.0001   -0.0002   -0.0002    0.0346    0.0001   -0.0224
          28    0.0112   -0.0034    0.0446   -0.0245   -0.0018    0.0147   -0.0328    0.0143
          29   -0.0087   -0.0025   -0.0340    0.0184    0.0014    0.0195    0.0249    0.0187
          30   -0.0005   -0.0162   -0.0002   -0.0001   -0.0001    0.0424    0.0000   -0.0076
          31    0.0227   -0.0065   -0.0240    0.0116    0.0000   -0.0215   -0.0110   -0.0162
          32   -0.0174   -0.0079    0.0183   -0.0084    0.0001   -0.0285    0.0084   -0.0212
          33   -0.0006   -0.0276   -0.0002    0.0002    0.0001    0.0187   -0.0001    0.0229
          34    0.0293   -0.0074   -0.0287   -0.0140    0.0141    0.0113   -0.0192   -0.0159
          35    0.0196   -0.0578   -0.0082    0.0057   -0.0010   -0.0361   -0.0044   -0.0195
          36   -0.0100   -0.0509    0.0064    0.0348   -0.0193   -0.0505    0.0158    0.0234
          37    0.0239   -0.0036   -0.0241    0.0113   -0.0004   -0.0223   -0.0074   -0.0153
          38    0.0268    0.0401   -0.0120   -0.0149    0.0093    0.0184   -0.0051   -0.0414
          39   -0.0102   -0.0556    0.0064    0.0358   -0.0198   -0.0530    0.0166    0.0254
          40   -0.0131   -0.0532   -0.0003   -0.0074    0.0053   -0.0379   -0.0007   -0.0145
          41   -0.0344   -0.0209    0.0296    0.0125   -0.0132    0.0012    0.0196   -0.0205
          42    0.0081   -0.0522   -0.0069   -0.0327    0.0200   -0.0509   -0.0155    0.0235
          43   -0.0178    0.0409    0.0055    0.0160   -0.0096    0.0238    0.0027   -0.0358
          44   -0.0298    0.0083    0.0266   -0.0069   -0.0022   -0.0167    0.0086   -0.0258
          45    0.0081   -0.0569   -0.0069   -0.0336    0.0206   -0.0535   -0.0163    0.0254
          46    0.0329    0.0229    0.0309    0.1516    0.0699   -0.0382   -0.0533    0.0533
          47   -0.0236    0.0270   -0.0226   -0.1145   -0.0520   -0.0538    0.0405    0.0710
          48    0.0005    0.0136    0.0002    0.0004    0.0001   -0.0155   -0.0003   -0.0363
          49   -0.0719    0.0146   -0.0985   -0.0641   -0.1549   -0.0190   -0.0483    0.0373
          50    0.0013    0.0172   -0.0067   -0.0505   -0.0306   -0.0235    0.0080    0.0475
          51   -0.0369    0.0290   -0.0227   -0.0965   -0.0301   -0.0639    0.0498    0.0015
          52   -0.0204    0.0148   -0.0204    0.0304   -0.0131   -0.0173   -0.0207    0.0357
          53    0.0700    0.0175    0.0971    0.0757    0.1579   -0.0214    0.0443    0.0475
          54    0.0382    0.0300    0.0233    0.0960    0.0301   -0.0619   -0.0498    0.0014
          55   -0.0158   -0.0011    0.0031    0.0062   -0.0034   -0.0044    0.0028   -0.0230
          56    0.0426   -0.0028   -0.0234   -0.0088    0.0092   -0.0054   -0.0130   -0.0259
          57   -0.0042    0.0981    0.0047    0.0243   -0.0164    0.0226    0.0305   -0.0055
          58    0.0572    0.0005   -0.0857   -0.0057    0.0137    0.0267    0.0812    0.0087
          59   -0.0435    0.0026    0.0651    0.0039   -0.0106    0.0352   -0.0616    0.0115
          60   -0.0006   -0.0289   -0.0002    0.0003    0.0001    0.0159   -0.0001    0.0297
          61   -0.0744   -0.0014   -0.0108   -0.0493    0.1175    0.0286    0.0295    0.0123
          62    0.0561   -0.0054    0.0079    0.0370   -0.0893    0.0381   -0.0222    0.0167
          63    0.0004    0.0154    0.0001   -0.0001    0.0000   -0.0187    0.0000   -0.0377
          64   -0.0453   -0.0001    0.0234    0.0103   -0.0098   -0.0042    0.0132   -0.0187
          65    0.0038   -0.0021    0.0033   -0.0036    0.0008   -0.0057    0.0007   -0.0291
          66    0.0081    0.0971   -0.0036   -0.0271    0.0155    0.0223   -0.0306   -0.0056
          67   -0.0152   -0.0086    0.1055   -0.0395    0.0013    0.0141   -0.1222    0.0258
          68    0.0111   -0.0094   -0.0802    0.0300   -0.0009    0.0188    0.0926    0.0338
          69   -0.0004   -0.0116   -0.0002   -0.0002   -0.0001    0.0419    0.0001   -0.0174
          70    0.0677    0.0096    0.0489    0.0300   -0.1028   -0.0018    0.0716    0.0069
          71   -0.0508    0.0168   -0.0370   -0.0230    0.0779   -0.0027   -0.0542    0.0088
          72   -0.0004   -0.0128   -0.0002   -0.0001   -0.0002    0.0426    0.0001   -0.0170


   Root No.       9        10        11        12        13        14        15        16

                 9 A      10 A      11 A      12 A      13 A      14 A      15 A      16 A   

                 319.1     358.9     439.3     510.7     554.2     703.9     746.5     769.3
  
           1    0.0037   -0.0054   -0.0244    0.0027   -0.0091    0.0260    0.0142    0.0401
           2    0.0049    0.0041    0.0186    0.0035   -0.0119    0.0342    0.0188   -0.0304
           3    0.0312   -0.0001    0.0000    0.0532    0.0086    0.0100    0.0169    0.0000
           4    0.0033   -0.0061   -0.0299   -0.0001   -0.0061    0.0391    0.0242   -0.0026
           5    0.0075   -0.0010   -0.0007    0.0005    0.0157   -0.0235   -0.0127   -0.0573
           6   -0.0208   -0.0128    0.0205   -0.0037   -0.0035    0.0094   -0.0129    0.0022
           7    0.0064   -0.0007   -0.0073    0.0005    0.0167   -0.0331   -0.0188    0.0544
           8    0.0052    0.0062    0.0290    0.0001   -0.0017    0.0314    0.0199    0.0179
           9   -0.0208    0.0130   -0.0205   -0.0037   -0.0036    0.0093   -0.0129   -0.0023
          10    0.0065    0.0027    0.0039   -0.0027    0.0277    0.0006    0.0012    0.0013
          11    0.0086   -0.0021   -0.0030   -0.0035    0.0365    0.0008    0.0015   -0.0010
          12    0.0207   -0.0001    0.0000   -0.0072   -0.0267   -0.0006   -0.0017    0.0000
          13    0.0065    0.0126    0.0523   -0.0174   -0.0287    0.0010   -0.0035    0.0072
          14    0.0085   -0.0097   -0.0397   -0.0230   -0.0379    0.0013   -0.0046   -0.0055
          15    0.0405   -0.0001    0.0000    0.0175   -0.0106   -0.0296   -0.0020    0.0000
          16    0.0062   -0.0002   -0.0068    0.0007    0.0107   -0.0119   -0.0061   -0.0975
          17    0.0084    0.0002   -0.0113    0.0008    0.0154   -0.0187   -0.0098   -0.0195
          18   -0.0037    0.0541   -0.0028   -0.0032   -0.0020    0.0057   -0.0197    0.0028
          19    0.0064   -0.0003    0.0091    0.0007    0.0120   -0.0148   -0.0078   -0.0074
          20    0.0082    0.0001    0.0096    0.0009    0.0144   -0.0165   -0.0086    0.0991
          21   -0.0041   -0.0541    0.0028   -0.0032   -0.0020    0.0058   -0.0197   -0.0029
          22   -0.0235   -0.0056   -0.0112    0.0180    0.0025   -0.0044   -0.0005    0.0038
          23   -0.0309    0.0044    0.0084    0.0237    0.0032   -0.0058   -0.0007   -0.0029
          24   -0.0211    0.0001    0.0000    0.0238   -0.0413   -0.0078   -0.0021    0.0000
          25   -0.0225   -0.0085   -0.0163    0.0166   -0.0030   -0.0038   -0.0008   -0.0028
          26   -0.0298    0.0066    0.0123    0.0219   -0.0040   -0.0050   -0.0011    0.0021
          27   -0.0271    0.0001    0.0000   -0.0084    0.0530    0.0147    0.0077    0.0000
          28    0.0056    0.0108    0.0289   -0.0151   -0.0287   -0.0010   -0.0046   -0.0064
          29    0.0075   -0.0083   -0.0219   -0.0199   -0.0378   -0.0013   -0.0060    0.0048
          30    0.0086    0.0000    0.0000   -0.0453    0.0321    0.0112    0.0000    0.0000
          31   -0.0127   -0.0181   -0.0386   -0.0030   -0.0063    0.0538    0.0199    0.0220
          32   -0.0166    0.0139    0.0293   -0.0040   -0.0083    0.0708    0.0263   -0.0167
          33    0.0475   -0.0002    0.0000    0.0568    0.0056   -0.0198    0.0112    0.0000
          34    0.0364    0.0051   -0.0502    0.0463    0.0063    0.0655    0.0308    0.0282
          35   -0.0223   -0.0799    0.0303   -0.0350    0.0087   -0.0837    0.0511   -0.0483
          36   -0.0530   -0.0609    0.0486   -0.0459   -0.0141   -0.0364    0.0195   -0.0051
          37   -0.0317   -0.0218   -0.0197   -0.0531   -0.0147    0.0061    0.0180    0.0334
          38    0.0352    0.0697   -0.0434    0.0305    0.0299    0.0184   -0.0783   -0.0372
          39   -0.0563   -0.0680    0.0542   -0.0500   -0.0171   -0.0367    0.0283    0.0035
          40   -0.0307    0.0785   -0.0426   -0.0461    0.0067   -0.0982    0.0409    0.0542
          41    0.0293    0.0164    0.0402    0.0352    0.0084    0.0405    0.0436   -0.0141
          42   -0.0527    0.0612   -0.0486   -0.0459   -0.0141   -0.0364    0.0194    0.0052
          43    0.0420   -0.0732    0.0366    0.0437    0.0327    0.0161   -0.0804    0.0444
          44   -0.0211    0.0024    0.0307   -0.0429   -0.0061    0.0109   -0.0038   -0.0222
          45   -0.0559    0.0683   -0.0542   -0.0500   -0.0171   -0.0367    0.0283   -0.0034
          46    0.0344    0.0087    0.0159   -0.0279    0.0577    0.0113    0.0046   -0.0059
          47    0.0456   -0.0069   -0.0122   -0.0367    0.0762    0.0149    0.0061    0.0045
          48   -0.0053    0.0001    0.0001    0.0158   -0.0536   -0.0102   -0.0048    0.0000
          49    0.0069    0.0079    0.0163   -0.0032    0.0321    0.0011    0.0017   -0.0096
          50    0.0088   -0.0007    0.0005   -0.0039    0.0388    0.0011    0.0018   -0.0040
          51    0.0552   -0.0094   -0.0191   -0.0398    0.0066    0.0134    0.0022    0.0126
          52    0.0065    0.0027    0.0039   -0.0027    0.0285    0.0007    0.0013    0.0013
          53    0.0087   -0.0075   -0.0158   -0.0040    0.0411    0.0014    0.0021    0.0103
          54    0.0553    0.0090    0.0191   -0.0402    0.0068    0.0135    0.0022   -0.0125
          55    0.0069    0.0033   -0.0004    0.0005    0.0137   -0.0257   -0.0066   -0.0846
          56    0.0075   -0.0005   -0.0345    0.0000    0.0051    0.0167    0.0246   -0.0666
          57    0.0056    0.1363   -0.0106   -0.0134   -0.0027   -0.0950    0.2146    0.0005
          58    0.0013    0.0197    0.1180   -0.0472   -0.0317    0.0010   -0.0154   -0.0334
          59    0.0013   -0.0150   -0.0896   -0.0621   -0.0416    0.0014   -0.0202    0.0253
          60    0.0437   -0.0002    0.0000    0.0426   -0.0077   -0.0290    0.0085    0.0000
          61   -0.0387    0.0014    0.0119    0.0222    0.0198   -0.0016    0.0021   -0.0164
          62   -0.0508   -0.0008   -0.0091    0.0292    0.0262   -0.0021    0.0029    0.0124
          63   -0.0068    0.0000    0.0000    0.0190   -0.0548   -0.0099   -0.0043    0.0000
          64    0.0054    0.0014    0.0331   -0.0001    0.0012    0.0231    0.0253    0.0414
          65    0.0086   -0.0030    0.0097    0.0005    0.0145   -0.0203    0.0000    0.0993
          66    0.0046   -0.1365    0.0106   -0.0133   -0.0027   -0.0949    0.2147    0.0004
          67    0.0238    0.0143   -0.0051   -0.0153   -0.0553   -0.0140   -0.0101    0.0183
          68    0.0319   -0.0110    0.0039   -0.0201   -0.0730   -0.0184   -0.0134   -0.0139
          69   -0.0074    0.0000    0.0000   -0.0439    0.0542    0.0221    0.0048    0.0000
          70   -0.0333   -0.0226   -0.0569    0.0398   -0.0181   -0.0124   -0.0023    0.0228
          71   -0.0442    0.0173    0.0431    0.0525   -0.0238   -0.0162   -0.0030   -0.0173
          72   -0.0166    0.0000    0.0000   -0.0282    0.0647    0.0218    0.0089    0.0000


   Root No.      17        18        19        20        21        22        23        24

                17 A      18 A      19 A      20 A      21 A      22 A      23 A      24 A   

                 834.2     866.3     909.5     914.8     923.5     957.1     968.5     986.6
  
           1    0.0011   -0.0006    0.0022   -0.0069   -0.0029   -0.0062    0.0041    0.0115
           2   -0.0008    0.0004   -0.0017   -0.0091    0.0021    0.0047    0.0054   -0.0088
           3    0.0000    0.0000    0.0000   -0.0054    0.0000    0.0000    0.0050    0.0000
           4    0.0045   -0.0037   -0.0065    0.0281    0.0062    0.0093   -0.0042   -0.0119
           5   -0.0045    0.0043    0.0054   -0.0072   -0.0053   -0.0085    0.0000    0.0159
           6    0.0057    0.0308    0.0038   -0.0301   -0.0020   -0.0002   -0.0069    0.0144
           7    0.0056   -0.0051   -0.0071   -0.0145    0.0067    0.0107    0.0012   -0.0185
           8   -0.0032    0.0024    0.0050    0.0251   -0.0045   -0.0067   -0.0041    0.0073
           9   -0.0057   -0.0307   -0.0040   -0.0302    0.0019    0.0003   -0.0069   -0.0143
          10   -0.0128    0.0036   -0.0069    0.0035   -0.0036    0.0145   -0.0250    0.0009
          11    0.0097   -0.0027    0.0054    0.0046    0.0028   -0.0108   -0.0330   -0.0007
          12    0.0000    0.0000    0.0000   -0.0022    0.0000    0.0000   -0.0077    0.0000
          13   -0.0183   -0.0008    0.0228   -0.0065   -0.0304   -0.0279    0.0021   -0.0018
          14    0.0139    0.0007   -0.0174   -0.0084    0.0231    0.0212    0.0030    0.0014
          15    0.0000    0.0000    0.0001    0.0307    0.0001    0.0000    0.0003    0.0000
          16   -0.0050    0.0010    0.0025   -0.0013   -0.0024   -0.0019    0.0006   -0.0026
          17    0.0001   -0.0017   -0.0016   -0.0007    0.0013    0.0034    0.0001   -0.0102
          18   -0.0003    0.0033    0.0022    0.0196   -0.0024   -0.0029    0.0054   -0.0350
          19   -0.0014    0.0019    0.0022   -0.0003   -0.0019   -0.0038   -0.0001    0.0092
          20    0.0048   -0.0005   -0.0020   -0.0014    0.0020    0.0009    0.0006    0.0053
          21    0.0003   -0.0034   -0.0021    0.0196    0.0025    0.0028    0.0054    0.0348
          22   -0.0192    0.0040   -0.0112    0.0015   -0.0029   -0.0091    0.0021   -0.0008
          23    0.0146   -0.0030    0.0085    0.0019    0.0022    0.0069    0.0028    0.0006
          24    0.0000    0.0000    0.0000    0.0032    0.0000    0.0000   -0.0052    0.0000
          25    0.0257   -0.0052   -0.0153   -0.0005    0.0008   -0.0285    0.0091   -0.0007
          26   -0.0195    0.0039    0.0116   -0.0008   -0.0007    0.0215    0.0123    0.0005
          27    0.0000    0.0000    0.0000    0.0000    0.0000   -0.0001    0.0130    0.0000
          28    0.0116    0.0018   -0.0138   -0.0078   -0.0192    0.0389    0.0020    0.0025
          29   -0.0088   -0.0013    0.0104   -0.0104    0.0145   -0.0296    0.0024   -0.0019
          30    0.0000    0.0000    0.0000   -0.0058    0.0000    0.0001   -0.0143    0.0000
          31    0.0148    0.0436    0.0042   -0.0379   -0.0059   -0.0108   -0.0021    0.1111
          32   -0.0112   -0.0331   -0.0034   -0.0501    0.0043    0.0083   -0.0027   -0.0845
          33    0.0000    0.0000    0.0001    0.0313    0.0000   -0.0001    0.0112    0.0000
          34    0.0168    0.0354   -0.0072   -0.0214    0.0161    0.0121   -0.0100    0.0757
          35   -0.0228   -0.0872   -0.0066    0.0611    0.0081   -0.0081    0.0181    0.0257
          36   -0.0105   -0.0385   -0.0024    0.0312    0.0008   -0.0016    0.0061   -0.0229
          37   -0.0038   -0.0486   -0.0090    0.1194    0.0048    0.0018   -0.0100   -0.0783
          38    0.0141    0.0854    0.0168   -0.0414   -0.0166   -0.0167   -0.0266    0.0293
          39   -0.0113   -0.0468   -0.0051    0.0382    0.0049    0.0017    0.0082   -0.0283
          40    0.0265    0.0933    0.0049    0.0648   -0.0033    0.0109    0.0203   -0.0048
          41   -0.0100   -0.0108    0.0086   -0.0043   -0.0177   -0.0094   -0.0048   -0.0799
          42    0.0105    0.0385    0.0026    0.0313   -0.0006    0.0015    0.0061    0.0229
          43   -0.0146   -0.0951   -0.0191   -0.0722    0.0171    0.0167   -0.0228   -0.0487
          44   -0.0003    0.0238    0.0050    0.1040    0.0004    0.0027   -0.0167    0.0681
          45    0.0113    0.0467    0.0054    0.0384   -0.0048   -0.0018    0.0082    0.0282
          46    0.0374   -0.0089    0.0166   -0.0057    0.0073   -0.0222    0.0928   -0.0012
          47   -0.0286    0.0068   -0.0130   -0.0074   -0.0058    0.0162    0.1222    0.0010
          48    0.0004   -0.0001    0.0004    0.0060    0.0002    0.0002   -0.1145   -0.0001
          49    0.0662   -0.0164    0.0307    0.0047    0.0146   -0.0477   -0.0293   -0.0028
          50    0.0314   -0.0082    0.0158    0.0051    0.0079   -0.0281   -0.0341   -0.0017
          51   -0.0891    0.0223   -0.0427   -0.0175   -0.0203    0.0660    0.1597    0.0041
          52   -0.0123    0.0034   -0.0067    0.0037   -0.0035    0.0143   -0.0255    0.0009
          53   -0.0720    0.0179   -0.0335    0.0062   -0.0160    0.0536   -0.0378    0.0031
          54    0.0885   -0.0221    0.0418   -0.0180    0.0199   -0.0669    0.1608   -0.0038
          55   -0.0066   -0.0001    0.0054   -0.0163   -0.0051   -0.0095    0.0021    0.0224
          56    0.0024   -0.0150   -0.0146    0.0393    0.0134    0.0312   -0.0089   -0.0694
          57   -0.0227   -0.1266   -0.0234   -0.0857    0.0228    0.0155   -0.0175    0.1523
          58    0.0326    0.0312   -0.0833   -0.0266    0.2541    0.0756   -0.0067    0.0042
          59   -0.0248   -0.0236    0.0631   -0.0352   -0.1930   -0.0573   -0.0095   -0.0031
          60    0.0000   -0.0001    0.0002    0.0476    0.0001   -0.0001    0.0084    0.0000
          61    0.1237   -0.0361    0.1822    0.0007    0.0485    0.0477    0.0553    0.0022
          62   -0.0939    0.0274   -0.1383    0.0023   -0.0369   -0.0365    0.0721   -0.0016
          63    0.0001    0.0000    0.0002    0.0031    0.0001    0.0002   -0.0485    0.0000
          64   -0.0041    0.0142    0.0158    0.0424   -0.0141   -0.0327   -0.0095    0.0734
          65    0.0057    0.0041   -0.0013   -0.0051    0.0013    0.0008   -0.0003   -0.0030
          66    0.0229    0.1268    0.0227   -0.0854   -0.0230   -0.0152   -0.0176   -0.1517
          67   -0.0917    0.0165    0.0467   -0.0039    0.2190   -0.1258    0.0043   -0.0098
          68    0.0695   -0.0125   -0.0355   -0.0040   -0.1663    0.0954    0.0064    0.0076
          69    0.0001    0.0000   -0.0001   -0.0096    0.0000    0.0001   -0.0167    0.0000
          70   -0.0872    0.0042    0.1909    0.0034    0.0410    0.1163    0.0389    0.0024
          71    0.0661   -0.0032   -0.1449    0.0059   -0.0311   -0.0885    0.0496   -0.0017
          72    0.0000    0.0000    0.0001   -0.0038    0.0000    0.0001   -0.0104    0.0000


   Root No.      25        26        27        28        29        30        31        32

                25 A      26 A      27 A      28 A      29 A      30 A      31 A      32 A   

                 996.7    1013.8    1029.2    1061.7    1073.0    1098.5    1109.4    1123.3
  
           1   -0.0212    0.0132    0.0012   -0.0228    0.0058   -0.0076    0.0188    0.0130
           2   -0.0279   -0.0100   -0.0009   -0.0299   -0.0046   -0.0098   -0.0145    0.0170
           3   -0.0183    0.0000    0.0000    0.0001    0.0001   -0.0087   -0.0001    0.0086
           4    0.0178   -0.0097   -0.0003    0.0072   -0.0020    0.0053   -0.0240   -0.0216
           5    0.0009    0.0200    0.0033    0.0074    0.0011   -0.0162   -0.0058    0.0197
           6    0.0209   -0.0181   -0.0038    0.0050   -0.0079    0.0058   -0.0135   -0.0046
           7   -0.0037   -0.0219   -0.0032    0.0053   -0.0014   -0.0170   -0.0011    0.0248
           8    0.0173    0.0040   -0.0006    0.0089    0.0017    0.0006    0.0248   -0.0155
           9    0.0209    0.0181    0.0038    0.0049    0.0079    0.0057    0.0136   -0.0046
          10   -0.0043    0.0061   -0.0299   -0.0011    0.0000   -0.0001   -0.0001   -0.0009
          11   -0.0056   -0.0046    0.0227   -0.0014    0.0000   -0.0002    0.0001   -0.0012
          12   -0.0030    0.0000    0.0000   -0.0008    0.0000   -0.0013    0.0000    0.0055
          13   -0.0026   -0.0102   -0.0097    0.0001   -0.0013   -0.0007   -0.0012    0.0034
          14   -0.0034    0.0077    0.0074    0.0001    0.0010   -0.0010    0.0009    0.0045
          15    0.0175    0.0000    0.0000   -0.0126   -0.0001    0.0018    0.0000   -0.0075
          16   -0.0045   -0.0031   -0.0011   -0.0102    0.0004    0.0174    0.0081   -0.0222
          17   -0.0015   -0.0125   -0.0025   -0.0056    0.0020    0.0193    0.0089   -0.0173
          18   -0.0185    0.0167    0.0027    0.0089    0.0329   -0.0014    0.0025    0.0008
          19   -0.0003    0.0112    0.0021   -0.0027   -0.0019    0.0139   -0.0063   -0.0107
          20   -0.0047    0.0063    0.0018   -0.0113   -0.0011    0.0220   -0.0099   -0.0261
          21   -0.0187   -0.0167   -0.0027    0.0093   -0.0328   -0.0014   -0.0025    0.0008
          22    0.0017   -0.0076    0.0442    0.0004    0.0001    0.0001    0.0002    0.0009
          23    0.0022    0.0058   -0.0335    0.0005   -0.0001    0.0002   -0.0001    0.0011
          24    0.0020    0.0000    0.0001    0.0007    0.0000    0.0015    0.0000   -0.0066
          25    0.0021    0.0016   -0.0269    0.0009   -0.0001    0.0000   -0.0003    0.0018
          26    0.0028   -0.0012    0.0204    0.0012    0.0001    0.0000    0.0002    0.0024
          27   -0.0025    0.0000    0.0000   -0.0074    0.0000   -0.0027    0.0000    0.0046
          28   -0.0022    0.0046    0.0157    0.0009    0.0006   -0.0009    0.0014    0.0046
          29   -0.0029   -0.0035   -0.0119    0.0011   -0.0005   -0.0012   -0.0011    0.0060
          30   -0.0029    0.0000    0.0000    0.0048    0.0000    0.0015    0.0000   -0.0047
          31   -0.0285    0.0665    0.0158   -0.0259    0.0298   -0.0309    0.2097    0.0212
          32   -0.0368   -0.0505   -0.0120   -0.0335   -0.0230   -0.0389   -0.1597    0.0272
          33   -0.0085    0.0000    0.0000    0.0020    0.0001    0.0145    0.0000   -0.0002
          34    0.0115   -0.0263   -0.0014    0.1641    0.1257   -0.0401   -0.1220   -0.0457
          35   -0.0619    0.0662    0.0140    0.1230    0.1117   -0.0852   -0.0667    0.0408
          36   -0.0114    0.0152    0.0025   -0.0099   -0.0100   -0.0083    0.0024    0.0157
          37    0.0962    0.0820    0.0190   -0.0618   -0.1546   -0.0844   -0.0359    0.0098
          38    0.1223    0.0495    0.0099   -0.0086   -0.1218   -0.0936   -0.0657    0.0588
          39   -0.0217    0.0067    0.0011   -0.0158   -0.0005    0.0125    0.0175   -0.0122
          40   -0.0626   -0.0709   -0.0139    0.0754   -0.0726   -0.0715    0.0307    0.0519
          41   -0.0054    0.0077   -0.0026    0.1927   -0.1483   -0.0627    0.1353   -0.0322
          42   -0.0115   -0.0152   -0.0025   -0.0100    0.0100   -0.0082   -0.0026    0.0157
          43    0.0925   -0.0254   -0.0045    0.0074    0.0759   -0.0677    0.0528    0.0544
          44    0.1256   -0.0922   -0.0211   -0.0638    0.1807   -0.1065    0.0511    0.0257
          45   -0.0219   -0.0068   -0.0011   -0.0158    0.0004    0.0126   -0.0174   -0.0123
          46    0.0185   -0.0077    0.0364    0.0028    0.0000    0.0028    0.0001   -0.0103
          47    0.0243    0.0060   -0.0280    0.0036    0.0000    0.0037    0.0000   -0.0136
          48   -0.0238   -0.0002    0.0005   -0.0045    0.0000   -0.0042    0.0000    0.0151
          49   -0.0045   -0.0182    0.0868   -0.0015    0.0000    0.0004    0.0002   -0.0051
          50   -0.0055   -0.0115    0.0557   -0.0016    0.0000    0.0001    0.0001   -0.0030
          51    0.0269    0.0259   -0.1241    0.0036   -0.0001    0.0001   -0.0003    0.0069
          52   -0.0043    0.0061   -0.0299   -0.0012    0.0000    0.0000   -0.0001   -0.0015
          53   -0.0061    0.0205   -0.0982   -0.0020   -0.0001    0.0005   -0.0002   -0.0056
          54    0.0272   -0.0256    0.1232    0.0037    0.0001    0.0001    0.0002    0.0068
          55   -0.0153    0.0265    0.0047   -0.0287   -0.0016   -0.0244   -0.0155   -0.0744
          56    0.0475   -0.1197   -0.0234    0.0542   -0.0051    0.1670    0.0844    0.1527
          57    0.0536   -0.0518   -0.0072   -0.0158   -0.0655   -0.0036   -0.0093   -0.0043
          58    0.0096    0.0314    0.0278    0.0574   -0.0042    0.0139    0.0173   -0.0421
          59    0.0129   -0.0238   -0.0212    0.0756    0.0041    0.0184   -0.0127   -0.0555
          60    0.0065    0.0000    0.0000   -0.0623   -0.0005   -0.0108   -0.0002    0.0315
          61    0.0141    0.0179   -0.1043   -0.0027   -0.0004   -0.0001   -0.0002   -0.0001
          62    0.0186   -0.0135    0.0787   -0.0035    0.0002   -0.0003    0.0002   -0.0001
          63   -0.0082   -0.0001    0.0002    0.0032    0.0001    0.0017    0.0000   -0.0058
          64    0.0493    0.1228    0.0238    0.0599    0.0049    0.1681   -0.0848    0.1667
          65   -0.0021    0.0066    0.0017   -0.0131    0.0026    0.0213   -0.0074   -0.0307
          66    0.0542    0.0520    0.0072   -0.0166    0.0653   -0.0035    0.0092   -0.0042
          67    0.0108   -0.0115   -0.0417    0.0012   -0.0043    0.0003   -0.0016   -0.0095
          68    0.0143    0.0088    0.0316    0.0015    0.0031    0.0004    0.0013   -0.0125
          69   -0.0141    0.0000    0.0000    0.0039    0.0001    0.0003    0.0000    0.0075
          70    0.0179   -0.0045    0.0756    0.0149    0.0002    0.0090    0.0011   -0.0318
          71    0.0234    0.0034   -0.0574    0.0195    0.0001    0.0119   -0.0005   -0.0419
          72   -0.0157    0.0000    0.0000   -0.0196   -0.0001   -0.0105   -0.0002    0.0331


   Root No.      33        34        35        36        37        38        39        40

                33 A      34 A      35 A      36 A      37 A      38 A      39 A      40 A   

                1138.4    1160.6    1191.2    1218.5    1227.6    1233.8    1247.3    1253.6
  
           1   -0.0009   -0.0078    0.0093    0.0059    0.0638   -0.0025   -0.0330   -0.0001
           2   -0.0012   -0.0103    0.0122    0.0076   -0.0485   -0.0029    0.0251   -0.0001
           3   -0.0084   -0.0105    0.0232   -0.0060    0.0001    0.0244    0.0000    0.0013
           4   -0.0055    0.0054   -0.0031    0.0024   -0.0145   -0.0023    0.0405   -0.0014
           5    0.0018   -0.0044    0.0034    0.0029    0.0102   -0.0028    0.0138    0.0000
           6   -0.0057    0.0040   -0.0043    0.0045    0.0055   -0.0057   -0.0036   -0.0009
           7    0.0032   -0.0057    0.0041    0.0021   -0.0138   -0.0020   -0.0024    0.0003
           8   -0.0049    0.0040   -0.0020    0.0032    0.0112   -0.0030   -0.0427   -0.0013
           9   -0.0057    0.0040   -0.0043    0.0045   -0.0055   -0.0056    0.0036   -0.0009
          10    0.0045   -0.0017    0.0029    0.0039    0.0000   -0.0020    0.0000    0.0002
          11    0.0060   -0.0021    0.0038    0.0051    0.0000   -0.0027    0.0000    0.0002
          12   -0.0046    0.0322    0.0158   -0.0193    0.0000   -0.0067    0.0000   -0.0087
          13   -0.0113   -0.0002   -0.0024    0.0015   -0.0107   -0.0062    0.0040    0.0034
          14   -0.0148   -0.0003   -0.0032    0.0020    0.0081   -0.0082   -0.0030    0.0044
          15    0.0296   -0.0011   -0.0164   -0.0247    0.0001   -0.0005    0.0000    0.0128
          16   -0.0014    0.0043   -0.0032   -0.0025    0.0069    0.0020   -0.0118    0.0001
          17   -0.0006    0.0042   -0.0035   -0.0031    0.0251    0.0024    0.0189    0.0002
          18    0.0017    0.0001   -0.0005   -0.0002   -0.0031   -0.0002   -0.0002    0.0000
          19   -0.0002    0.0029   -0.0025   -0.0023   -0.0223    0.0019   -0.0214    0.0002
          20   -0.0015    0.0052   -0.0040   -0.0033   -0.0133    0.0026    0.0063    0.0002
          21    0.0017    0.0001   -0.0005   -0.0002    0.0031   -0.0002    0.0002    0.0000
          22   -0.0037    0.0039   -0.0065   -0.0067    0.0001    0.0084    0.0000   -0.0007
          23   -0.0049    0.0050   -0.0086   -0.0088    0.0000    0.0111    0.0000   -0.0010
          24    0.0130   -0.0284   -0.0091    0.0366   -0.0001   -0.0049    0.0000    0.0434
          25   -0.0087    0.0025   -0.0075   -0.0113    0.0000    0.0089   -0.0001   -0.0089
          26   -0.0115    0.0033   -0.0099   -0.0149    0.0001    0.0117    0.0001   -0.0118
          27    0.0068    0.0098   -0.0001    0.0136    0.0000    0.0150    0.0000   -0.0286
          28   -0.0100    0.0034   -0.0055    0.0020    0.0038   -0.0055   -0.0016    0.0001
          29   -0.0132    0.0044   -0.0072    0.0027   -0.0029   -0.0072    0.0012    0.0002
          30    0.0061   -0.0154    0.0070   -0.0010   -0.0001   -0.0237    0.0000   -0.0095
          31    0.1361   -0.0082   -0.0496   -0.0777   -0.1727    0.0073    0.0534    0.0202
          32    0.1793   -0.0108   -0.0651   -0.1019    0.1315    0.0088   -0.0406    0.0265
          33   -0.1585   -0.0116    0.0892    0.0832   -0.0001    0.0158    0.0000   -0.0196
          34    0.0012    0.0340   -0.0465    0.0058   -0.0804   -0.0259   -0.0526   -0.0024
          35    0.0089    0.0013   -0.0079    0.0058   -0.0516   -0.0097   -0.0977   -0.0023
          36   -0.0059   -0.0067    0.0112    0.0040    0.0057    0.0031   -0.0161   -0.0012
          37   -0.0107   -0.0176    0.0297   -0.0191   -0.0812    0.0376   -0.0376    0.0043
          38   -0.0095   -0.0134    0.0144    0.0046   -0.0343    0.0031   -0.0968   -0.0012
          39   -0.0019   -0.0017    0.0053   -0.0058    0.0028    0.0095    0.0283    0.0023
          40    0.0082   -0.0080    0.0049    0.0041    0.0282   -0.0024    0.0800   -0.0015
          41    0.0033    0.0329   -0.0468    0.0074    0.0912   -0.0278    0.0770   -0.0029
          42   -0.0059   -0.0067    0.0111    0.0040   -0.0058    0.0031    0.0161   -0.0012
          43   -0.0062   -0.0082    0.0059    0.0095    0.0112   -0.0071    0.0831   -0.0023
          44   -0.0128   -0.0204    0.0324   -0.0170    0.0878    0.0367    0.0621    0.0038
          45   -0.0019   -0.0017    0.0054   -0.0058   -0.0027    0.0095   -0.0282    0.0023
          46    0.0111   -0.0568   -0.0235    0.0512    0.0000   -0.0029    0.0000    0.0492
          47    0.0146   -0.0752   -0.0311    0.0679   -0.0001   -0.0038    0.0000    0.0651
          48   -0.0120    0.0879    0.0402   -0.0670    0.0001   -0.0033    0.0000   -0.0570
          49    0.0158   -0.0215    0.0017    0.0419    0.0000   -0.0132    0.0000    0.0439
          50    0.0110   -0.0099    0.0039    0.0209    0.0000   -0.0079    0.0000    0.0187
          51   -0.0265    0.0209   -0.0221   -0.0440    0.0001    0.0342    0.0000   -0.0365
          52    0.0064   -0.0037    0.0034    0.0087   -0.0001   -0.0042    0.0000    0.0060
          53    0.0181   -0.0234    0.0027    0.0459   -0.0002   -0.0148    0.0000    0.0472
          54   -0.0265    0.0208   -0.0223   -0.0440    0.0003    0.0343   -0.0001   -0.0364
          55   -0.0097    0.0101   -0.0058   -0.0018    0.0378    0.0012    0.0359   -0.0003
          56    0.0261   -0.0137    0.0042   -0.0063   -0.0809    0.0056   -0.1442    0.0018
          57   -0.0056    0.0004    0.0006    0.0018    0.0038   -0.0010    0.0044   -0.0002
          58    0.0317   -0.0443    0.0841   -0.0531    0.0250    0.1126   -0.0079    0.0484
          59    0.0417   -0.0584    0.1108   -0.0700   -0.0180    0.1483    0.0058    0.0638
          60   -0.0064    0.0347   -0.0895    0.0191   -0.0004   -0.1022    0.0001   -0.0245
          61    0.0454    0.0941    0.0805    0.0134   -0.0006   -0.0665    0.0001    0.1079
          62    0.0598    0.1241    0.1062    0.0177    0.0000   -0.0877    0.0000    0.1422
          63   -0.0278   -0.1040   -0.0836    0.0217    0.0002    0.0598    0.0000   -0.0464
          64    0.0278   -0.0159    0.0055   -0.0055    0.0878    0.0048    0.1482    0.0018
          65   -0.0024    0.0061   -0.0045   -0.0034   -0.0147    0.0027    0.0041    0.0002
          66   -0.0056    0.0004    0.0006    0.0018   -0.0038   -0.0010   -0.0043   -0.0002
          67    0.1063    0.0434    0.0175    0.1142   -0.0124    0.0468    0.0058   -0.0905
          68    0.1400    0.0572    0.0230    0.1505    0.0093    0.0616   -0.0044   -0.1193
          69   -0.0907   -0.0502   -0.0139   -0.0960   -0.0001   -0.0700    0.0000    0.0647
          70    0.0422   -0.0794    0.0647   -0.0328    0.0002   -0.0958    0.0002   -0.1031
          71    0.0557   -0.1046    0.0853   -0.0432   -0.0007   -0.1262    0.0001   -0.1359
          72   -0.0358    0.0780   -0.0625    0.0332    0.0003    0.1038   -0.0001    0.0474


   Root No.      41        42        43        44        45        46        47        48

                41 A      42 A      43 A      44 A      45 A      46 A      47 A      48 A   

                1302.9    1340.3    1370.2    1387.9    1395.7    1402.8    1406.5    1409.8
  
           1   -0.0158    0.0006   -0.0056   -0.0150    0.0005   -0.0171    0.0170   -0.0108
           2   -0.0208    0.0007    0.0043   -0.0198    0.0006   -0.0225    0.0222    0.0086
           3    0.0471   -0.0128    0.0000    0.0164   -0.0005    0.0192   -0.0200   -0.0002
           4   -0.0127    0.0280   -0.0342    0.0133   -0.0003    0.0027   -0.0200    0.0063
           5   -0.0205    0.0313   -0.0255    0.0139   -0.0004    0.0326    0.0108   -0.0455
           6   -0.0087   -0.0002    0.0015   -0.0035    0.0001   -0.0041    0.0029    0.0011
           7   -0.0163    0.0226    0.0155    0.0097   -0.0003    0.0306    0.0150    0.0460
           8   -0.0177    0.0353    0.0398    0.0165   -0.0005    0.0114   -0.0165    0.0058
           9   -0.0087   -0.0002   -0.0015   -0.0035    0.0001   -0.0041    0.0030   -0.0011
          10   -0.0027    0.0023    0.0000   -0.0267   -0.0342    0.0004    0.0022    0.0000
          11   -0.0036    0.0030    0.0000   -0.0352    0.0262    0.0010    0.0025    0.0000
          12   -0.0035   -0.0086    0.0000    0.0119   -0.0009    0.0166   -0.0214   -0.0003
          13   -0.0108   -0.0136    0.0018   -0.0001   -0.0001    0.0049   -0.0044    0.0029
[...]
 EFF. MASS   1.5613

 VIBRATION   46   46A       ATOM PAIR        ENERGY CONTRIBUTION    RADIAL
 FREQ.      1402.79        C  1 --  C  2           +9.5% ( 39.1%)     9.9%
 T-DIPOLE    0.1593        C  1 --  C  3           +9.5% ( 39.0%)    10.0%
 TRAVEL      0.0939        C  2 --  H 13           +8.9% ( 37.8%)     3.2%
 RED. MASS   0.4560        C  3 --  H 15           +8.9% ( 37.7%)     3.2%
 EFF. MASS   5.4555

 VIBRATION   47   47A       ATOM PAIR        ENERGY CONTRIBUTION    RADIAL
 FREQ.      1406.52        C  2 --  H 12           +9.5% ( 36.5%)     2.5%
 T-DIPOLE    0.0580        C  3 --  H 14           +9.2% ( 35.9%)     2.5%
 TRAVEL      0.1042        C  1 --  C  2           +8.7% ( 34.9%)    67.7%
 RED. MASS   0.3302        C  1 --  C  5           +8.6% ( 34.8%)    96.1%
 EFF. MASS   4.4129

 VIBRATION   48   48A       ATOM PAIR        ENERGY CONTRIBUTION    RADIAL
 FREQ.      1409.82        C  3 --  C  7          +13.0% ( 46.0%)    93.0%
 T-DIPOLE    0.0685        C  2 --  C  6          +12.9% ( 45.7%)    93.2%
 TRAVEL      0.0915        C  3 --  H 14          +11.3% ( 42.8%)     5.6%
 RED. MASS   0.6500        C  2 --  H 12          +11.0% ( 42.2%)     5.6%
 EFF. MASS   5.7084        C  3 --  H 15          +10.8% ( 41.9%)     6.6%
                           C  2 --  H 13          +10.5% ( 41.3%)     6.5%

 VIBRATION   49   49A       ATOM PAIR        ENERGY CONTRIBUTION    RADIAL
 FREQ.      1436.56        C  4 --  C  8          +14.8% ( 56.1%)   100.0%
 T-DIPOLE    0.0620        C  4 --  H 16          +12.8% ( 52.2%)     4.9%
 TRAVEL      0.0761        C  4 --  H 18          +10.3% ( 46.8%)     3.5%
 RED. MASS   1.1674        C  4 --  H 17          +10.3% ( 46.7%)     3.4%
 EFF. MASS   8.1135

 VIBRATION   50   50A       ATOM PAIR        ENERGY CONTRIBUTION    RADIAL
 FREQ.      1829.28        C  6 --  C  7          +45.8% (100.0%)   100.0%
 T-DIPOLE    0.1836        C  3 --  C  7          +13.9% ( 55.1%)    25.6%
 TRAVEL      0.0557        C  2 --  C  6          +13.9% ( 55.1%)    25.6%
 RED. MASS   5.3705        C  7 --  H 22          +12.9% ( 53.2%)     9.7%
 EFF. MASS  11.8704        C  6 --  H 19          +12.9% ( 53.2%)     9.7%

 VIBRATION   51   51A       ATOM PAIR        ENERGY CONTRIBUTION    RADIAL
 FREQ.      1862.02        C  8 --  C  9          +22.7% ( 70.1%)    97.2%
 T-DIPOLE    0.4651        C  5 --  C 10          +22.0% ( 68.9%)    97.4%
 TRAVEL      0.0553        C  9 --  C 10           +9.9% ( 46.2%)    66.4%
 RED. MASS   2.7836        C  4 --  C  8           +8.8% ( 43.5%)    59.8%
 EFF. MASS  11.8410

 VIBRATION   52   52A       ATOM PAIR        ENERGY CONTRIBUTION    RADIAL
 FREQ.      1885.99        C  5 --  C 10          +21.7% ( 69.2%)    94.7%
 T-DIPOLE    0.3122        C  8 --  C  9          +20.9% ( 67.9%)    94.5%
 TRAVEL      0.0551        C  9 --  C 10          +18.6% ( 64.1%)    55.6%
 RED. MASS   2.8677        C 10 --  H 23           +8.1% ( 42.3%)     1.8%
 EFF. MASS  11.7650

 VIBRATION   53   53A       ATOM PAIR        ENERGY CONTRIBUTION    RADIAL
 FREQ.      2896.15        C  1 --  H 11          +95.6% ( 99.5%)   100.0%
 T-DIPOLE    0.0495        C  1 --  C  3           +1.1% ( 10.7%)     9.0%
 TRAVEL      0.1263        C  1 --  C  2           +1.1% ( 10.7%)     9.0%
 RED. MASS   0.9114        C  1 --  C  5           +1.1% ( 10.7%)    11.9%
 EFF. MASS   1.4588

 VIBRATION   54   54A       ATOM PAIR        ENERGY CONTRIBUTION    RADIAL
 FREQ.      2974.74        C  3 --  H 14          +28.6% ( 55.5%)    97.3%
 T-DIPOLE    0.0252        C  2 --  H 12          +26.0% ( 52.9%)    97.3%
 TRAVEL      0.1214        C  3 --  H 15          +22.6% ( 49.3%)    95.9%
 RED. MASS   0.2629        C  2 --  H 13          +20.5% ( 47.0%)    95.9%
 EFF. MASS   1.5387

 VIBRATION   55   55A       ATOM PAIR        ENERGY CONTRIBUTION    RADIAL
 FREQ.      2975.97        C  2 --  H 12          +28.5% ( 55.4%)    97.3%
 T-DIPOLE    0.0730        C  3 --  H 14          +25.9% ( 52.7%)    97.3%
 TRAVEL      0.1215        C  2 --  H 13          +22.4% ( 49.0%)    95.9%
 RED. MASS   0.2586        C  3 --  H 15          +20.3% ( 46.7%)    95.9%
 EFF. MASS   1.5346

 VIBRATION   56   56A       ATOM PAIR        ENERGY CONTRIBUTION    RADIAL
 FREQ.      3025.89        C 10 --  H 23          +62.4% ( 80.4%)   100.0%
 T-DIPOLE    0.0575        C  9 --  H 24          +34.1% ( 59.4%)   100.0%
 TRAVEL      0.1202        C  9 --  C 10           +1.7% ( 13.1%)    17.3%
 RED. MASS   0.5019        C  5 --  C 10           +1.0% ( 10.2%)    36.7%
 EFF. MASS   1.5415

 VIBRATION   57   57A       ATOM PAIR        ENERGY CONTRIBUTION    RADIAL
 FREQ.      3033.38        C  9 --  H 24          +50.1% ( 71.5%)   100.0%
 T-DIPOLE    0.4590        C 10 --  H 23          +27.1% ( 52.5%)   100.0%
 TRAVEL      0.1236        C  5 --  H 20          +18.7% ( 43.6%)   100.0%
 RED. MASS   0.3493        C  8 --  H 21           +2.0% ( 14.1%)    99.7%
 EFF. MASS   1.4557

 VIBRATION   58   58A       ATOM PAIR        ENERGY CONTRIBUTION    RADIAL
 FREQ.      3036.29        C  5 --  H 20          +77.9% ( 89.6%)   100.0%
 T-DIPOLE    0.1254        C  9 --  H 24          +12.6% ( 36.0%)   100.0%
 TRAVEL      0.1200        C 10 --  H 23           +6.1% ( 25.1%)    99.7%
 RED. MASS   0.6202        C  5 --  C 10           +1.6% ( 12.9%)    40.1%
 EFF. MASS   1.5427

 VIBRATION   59   59A       ATOM PAIR        ENERGY CONTRIBUTION    RADIAL
 FREQ.      3039.45        C  8 --  H 21          +92.4% ( 97.6%)   100.0%
 T-DIPOLE    0.2167        C  4 --  H 16           +1.5% ( 12.6%)    98.1%
 TRAVEL      0.1208        C  8 --  C  9           +1.5% ( 12.4%)    38.4%
 RED. MASS   0.8460        C  4 --  C  8           +1.4% ( 11.8%)    11.0%
 EFF. MASS   1.5212

 VIBRATION   60   60A       ATOM PAIR        ENERGY CONTRIBUTION    RADIAL
 FREQ.      3052.70        C  3 --  H 15          +29.1% ( 53.2%)    98.3%
 T-DIPOLE    0.1242        C  2 --  H 13          +26.5% ( 50.8%)    98.3%
 TRAVEL      0.1316        C  3 --  H 14          +22.5% ( 46.8%)    96.7%
 RED. MASS   0.2459        C  2 --  H 12          +20.5% ( 44.7%)    96.7%
 EFF. MASS   1.2750

 VIBRATION   61   61A       ATOM PAIR        ENERGY CONTRIBUTION    RADIAL
 FREQ.      3053.66        C  2 --  H 13          +29.0% ( 53.1%)    98.2%
 T-DIPOLE    0.0488        C  3 --  H 15          +26.4% ( 50.7%)    98.2%
 TRAVEL      0.1308        C  2 --  H 12          +22.4% ( 46.7%)    96.6%
 RED. MASS   0.2440        C  3 --  H 14          +20.3% ( 44.5%)    96.6%
 EFF. MASS   1.2904

 VIBRATION   62   62A       ATOM PAIR        ENERGY CONTRIBUTION    RADIAL
 FREQ.      3068.38        C  4 --  H 17          +49.8% ( 72.8%)    97.1%
 T-DIPOLE    0.0314        C  4 --  H 18          +48.4% ( 71.7%)    96.9%
 TRAVEL      0.1210        C  4 --  C  8           +1.0% ( 10.2%)     0.0%
 RED. MASS   0.5093        C  4 --  H 16           +0.9% (  9.9%)     0.1%
 EFF. MASS   1.5006

 VIBRATION   63   63A       ATOM PAIR        ENERGY CONTRIBUTION    RADIAL
 FREQ.      3075.30        C  4 --  H 16          +62.1% ( 81.2%)    98.9%
 T-DIPOLE    0.0771        C  4 --  H 18          +17.9% ( 43.6%)    85.6%
 TRAVEL      0.1206        C  4 --  H 17          +16.7% ( 42.2%)    84.5%
 RED. MASS   0.4730        C  8 --  H 21           +2.2% ( 15.2%)   100.0%
 EFF. MASS   1.5083

 VIBRATION   64   64A       ATOM PAIR        ENERGY CONTRIBUTION    RADIAL
 FREQ.      3115.40        C  6 --  H 19          +49.3% ( 71.3%)   100.0%
 T-DIPOLE    0.3779        C  7 --  H 22          +48.2% ( 70.5%)   100.0%
 TRAVEL      0.1217        C  6 --  C  7           +1.1% ( 10.7%)     0.0%
 RED. MASS   0.4648        C  2 --  C  6           +0.7% (  8.7%)    27.4%
 EFF. MASS   1.4621

 VIBRATION   65   65A       ATOM PAIR        ENERGY CONTRIBUTION    RADIAL
 FREQ.      3134.50        C  7 --  H 22          +48.3% ( 70.8%)    99.9%
 T-DIPOLE    0.3758        C  6 --  H 19          +47.2% ( 69.9%)    99.9%
 TRAVEL      0.1141        C  6 --  C  7           +2.5% ( 16.0%)   100.0%
 RED. MASS   0.4654        C  3 --  C  7           +1.0% (  9.9%)    20.6%
 EFF. MASS   1.6512

 VIBRATION   66   66A       ATOM PAIR        ENERGY CONTRIBUTION    RADIAL
 FREQ.      3168.62        C  4 --  H 16          +35.0% ( 57.0%)    97.3%
 T-DIPOLE    0.0936        C  4 --  H 18          +32.5% ( 54.8%)    97.0%
 TRAVEL      0.1367        C  4 --  H 17          +32.2% ( 54.6%)    97.0%
 RED. MASS   0.3274        C  4 --  C  8           +0.3% (  5.4%)   100.0%
 EFF. MASS   1.1395

 SYMMETRY NUMBER FOR POINT-GROUP C1  =  1


          SYSTEM IS A GROUND STATE


    NULL



          MOLECULE IS NOT LINEAR

          THERE ARE 66 GENUINE VIBRATIONS IN THIS SYSTEM
          THIS THERMODYNAMICS CALCULATION IS LIMITED TO
          MOLECULES WHICH HAVE NO INTERNAL ROTATIONS




                    CALCULATED THERMODYNAMIC PROPERTIES
                                          *
   TEMP. (K)   PARTITION FUNCTION   H.O.F.    ENTHALPY  HEAT CAPACITY ENTROPY
                                   KCAL/MOL   CAL/MOLE    CAL/K/MOL  CAL/K/MOL


 298.00  VIB.     0.8867D+04                  5051.7265    33.3246    35.0160
         ROT.     0.8722D+06                   888.2813     2.9808    30.1634
         INT.     0.7734D+10                  5940.0078    36.3054    65.1794
         TRA.     0.1503D+28                  1480.4688     4.9680    40.5931
         TOT.                       26.254    7420.4766    41.2734   105.7725

 200.00  VIB.     0.5118D+03                  2383.8546    21.5861    24.3154
         ROT.     0.4796D+06                   596.1620     2.9808    28.9748
         INT.     0.2455D+09                  2980.0166    24.5669    53.2902
         TRA.     0.8266D+27                   993.6033     4.9680    38.6119
         TOT.                       22.807    3973.6198    29.5349    91.9021

 210.00  VIB.     0.6899D+03                  2604.9447    22.6386    25.3939
         ROT.     0.5160D+06                   625.9700     2.9808    29.1202
         INT.     0.3560D+09                  3230.9148    25.6194    54.5141
         TRA.     0.8893D+27                  1043.2834     4.9680    38.8543
         TOT.                       23.108    4274.1982    30.5874    93.3684

 220.00  VIB.     0.9276D+03                  2836.7580    23.7306    26.4721
         ROT.     0.5533D+06                   655.7781     2.9808    29.2589
         INT.     0.5132D+09                  3492.5361    26.7114    55.7309
         TRA.     0.9536D+27                  1092.9636     4.9680    39.0854
         TOT.                       23.419    4585.4997    31.6794    94.8164

 230.00  VIB.     0.1245D+04                  3079.6840    24.8608    27.5518
         ROT.     0.5914D+06                   685.5862     2.9808    29.3914
         INT.     0.7360D+09                  3765.2702    27.8416    56.9431
         TRA.     0.1019D+28                  1142.6437     4.9680    39.3063
         TOT.                       23.741    4907.9139    32.8097    96.2494

 240.00  VIB.     0.1667D+04                  3334.0948    26.0271    28.6343
         ROT.     0.6304D+06                   715.3943     2.9808    29.5182
         INT.     0.1051D+10                  4049.4892    29.0079    58.1526
         TRA.     0.1087D+28                  1192.3239     4.9680    39.5177
         TOT.                       24.075    5241.8131    33.9759    97.6703

 250.00  VIB.     0.2229D+04                  3600.3367    27.2265    29.7210
         ROT.     0.6702D+06                   745.2024     2.9808    29.6399
         INT.     0.1494D+10                  4345.5392    30.2073    59.3609
         TRA.     0.1155D+28                  1242.0041     4.9680    39.7205
         TOT.                       24.421    5587.5432    35.1753    99.0814

 260.00  VIB.     0.2976D+04                  3878.7233    28.4554    30.8127
         ROT.     0.7108D+06                   775.0105     2.9808    29.7568
         INT.     0.2116D+10                  4653.7338    31.4362    60.5695
         TRA.     0.1225D+28                  1291.6842     4.9680    39.9154
         TOT.                       24.779    5945.4181    36.4043   100.4849

 270.00  VIB.     0.3971D+04                  4169.5309    29.7100    31.9101
         ROT.     0.7522D+06                   804.8186     2.9808    29.8693
         INT.     0.2987D+10                  4974.3496    32.6908    61.7794
         TRA.     0.1297D+28                  1341.3644     4.9680    40.1029
         TOT.                       25.149    6315.7140    37.6589   101.8823

 280.00  VIB.     0.5293D+04                  4472.9961    30.9862    33.0136
         ROT.     0.7944D+06                   834.6267     2.9808    29.9777
         INT.     0.4205D+10                  5307.6228    33.9670    62.9913
         TRA.     0.1369D+28                  1391.0445     4.9680    40.2835
         TOT.                       25.532    6698.6673    38.9351   103.2748

 290.00  VIB.     0.7051D+04                  4789.3138    32.2799    34.1234
         ROT.     0.8373D+06                   864.4348     2.9808    30.0823
         INT.     0.5904D+10                  5653.7486    35.2607    64.2058
         TRA.     0.1443D+28                  1440.7247     4.9680    40.4579
         TOT.                       25.928    7094.4733    40.2287   104.6636

 300.00  VIB.     0.9389D+04                  5118.6378    33.5868    35.2398
         ROT.     0.8810D+06                   894.2429     2.9808    30.1834
         INT.     0.8272D+10                  6012.8807    36.5676    65.4232
         TRA.     0.1518D+28                  1490.4049     4.9680    40.6263
         TOT.                       26.337    7503.2856    41.5356   106.0495

 310.00  VIB.     0.1250D+05                  5461.0812    34.9031    36.3625
         ROT.     0.9254D+06                   924.0510     2.9808    30.2811
         INT.     0.1157D+11                  6385.1322    37.8839    66.6436
         TRA.     0.1595D+28                  1540.0850     4.9680    40.7892
         TOT.                       26.759    7925.2172    42.8519   107.4328

 320.00  VIB.     0.1664D+05                  5816.7182    36.2249    37.4915
         ROT.     0.9706D+06                   953.8591     2.9808    30.3757
         INT.     0.1615D+11                  6770.5773    39.2057    67.8673
         TRA.     0.1673D+28                  1589.7652     4.9680    40.9469
         TOT.                       27.194    8360.3425    44.1738   108.8142

 330.00  VIB.     0.2214D+05                  6185.5864    37.5488    38.6265
         ROT.     0.1016D+07                   983.6672     2.9808    30.4675
         INT.     0.2250D+11                  7169.2536    40.5296    69.0940
         TRA.     0.1752D+28                  1639.4454     4.9680    41.0998
         TOT.                       27.642    8808.6990    45.4976   110.1938

 340.00  VIB.     0.2947D+05                  6567.6892    38.8713    39.7671
         ROT.     0.1063D+07                  1013.4753     2.9808    30.5565
         INT.     0.3132D+11                  7581.1646    41.8521    70.3235
         TRA.     0.1832D+28                  1689.1255     4.9680    41.2481
         TOT.                       28.104    9270.2901    46.8202   111.5716

 350.00  VIB.     0.3922D+05                  6962.9990    40.1897    40.9129
         ROT.     0.1110D+07                  1043.2834     2.9808    30.6429
         INT.     0.4354D+11                  8006.2824    43.1705    71.5558
         TRA.     0.1914D+28                  1738.8057     4.9680    41.3921
         TOT.                       28.579    9745.0881    48.1385   112.9479

 360.00  VIB.     0.5221D+05                  7371.4595    41.5011    42.0635
         ROT.     0.1158D+07                  1073.0915     2.9808    30.7268
         INT.     0.6047D+11                  8444.5510    44.4819    72.7903
         TRA.     0.1996D+28                  1788.4859     4.9680    41.5321
         TOT.                       29.067   10233.0369    49.4499   114.3224

 370.00  VIB.     0.6952D+05                  7792.9894    42.8032    43.2183
         ROT.     0.1207D+07                  1102.8996     2.9808    30.8085
         INT.     0.8390D+11                  8895.8890    45.7840    74.0268
         TRA.     0.2080D+28                  1838.1660     4.9680    41.6682
         TOT.                       29.568   10734.0551    50.7520   115.6950

 380.00  VIB.     0.9260D+05                  8227.4851    44.0939    44.3770
         ROT.     0.1256D+07                  1132.7077     2.9808    30.8880
         INT.     0.1163D+12                  9360.1928    47.0747    75.2650
         TRA.     0.2165D+28                  1887.8462     4.9680    41.8007
         TOT.                       30.082   11248.0390    52.0427   117.0657

 390.00  VIB.     0.1234D+06                  8674.8232    45.3714    45.5389
         ROT.     0.1306D+07                  1162.5158     2.9808    30.9654
         INT.     0.1611D+12                  9837.3390    48.3522    76.5043
         TRA.     0.2251D+28                  1937.5263     4.9680    41.9297
         TOT.                       30.608   11774.8654    53.3202   118.4341

 400.00  VIB.     0.1644D+06                  9134.8638    46.6341    46.7036
         ROT.     0.1356D+07                  1192.3239     2.9808    31.0409
         INT.     0.2230D+12                 10327.1877    49.6150    77.7444
         TRA.     0.2338D+28                  1987.2065     4.9680    42.0555
         TOT.                       31.148   12314.3942    54.5830   119.8000

   *: NOTE: HEATS OF FORMATION ARE RELATIVE TO THE
            ELEMENTS IN THEIR STANDARD STATE AT 298K
              (=  Standard Enthalpy of Formation).

            Hvib:  Zero-point energy is not included.
                   frequencies of less than zero cm-1 are not included.
            Hrot = (3/2)RT
            Htra = (3/2)RT + pV = (5/2)RT

            Heat capacity is Cp, not Cv

           For more information, see: HTTP://OpenMOPAC.net/Manual/thermochemistry.html


           FORCE CONSTANT IN CARTESIAN COORDINATES (Millidynes/A)

    ATOM   CHEMICAL       X               Y               Z
   NUMBER   SYMBOL  FORCE CONSTANT  FORCE CONSTANT  FORCE CONSTANT

      1       C        7.657917        8.339683        9.014769
      2       C        7.606413        9.338435        8.127725
      3       C        9.587193        7.358130        8.127105
      4       C        8.178248        8.364446        8.894374
      5       C        7.218080       10.641558        9.241060
      6       C       14.555362       10.514473        2.340078
      7       C       11.911368       13.160806        2.339684
      8       C        7.029462       10.485997        9.454315
      9       C        6.999202       10.564464        9.932663
     10       C        7.012682       10.563154        9.932114
     11       H        1.149549        1.480258        3.458162
     12       H        1.351289        1.394413        3.668970
     13       H        1.266646        1.716446        3.412150
     14       H        1.738794        1.006786        3.669048
     15       H        2.087443        0.895690        3.411858
     16       H        1.136647        1.515778        4.111940
     17       H        1.064546        4.911711        0.675861
     18       H        5.333728        0.642218        0.677399
     19       H        4.985295        1.076179        0.356742
     20       H        0.842672        1.197062        4.176741
     21       H        0.833440        1.191541        4.194841
     22       H        0.711348        5.350476        0.356543
     23       H        0.836149        1.191649        4.169186
     24       H        0.834308        1.192487        4.180519



 TOTAL CPU TIME:             3.91 SECONDS

 == MOPAC DONE ==
