 *******************************************************************************
 ** Site#: 14399           For non-commercial use only        Version 13.159M **
 *******************************************************************************
 ** Cite this work as: MOPAC2012, James J. P. Stewart, Stewart Computational  **
 ** Chemistry, Version 13.159M web: HTTP://OpenMOPAC.net  Days remaining:   6 **
 *******************************************************************************
 **                                                                           **
 **                                MOPAC2012                                  **
 **                                                                           **
 *******************************************************************************

                            PM3 CALCULATION RESULTS


 *******************************************************************************
 *  CALCULATION DONE:                                Mon Jun  2 11:14:05 2014  *
 *  PM3      - The PM3 Hamiltonian to be used
 *  PRECISE  - CRITERIA TO BE INCREASED BY 100 TIMES
 *  NOSYM    - POINT-GROUP SYMMETRY SET TO C1
 *  T=       - A TIME OF 172800.0 SECONDS REQUESTED
 *  DUMP=N   - RESTART FILE WRITTEN EVERY  7200.000 SECONDS
 *******************************************************************************
pm3  precise nosym
 InChI=1S/C10H10/c1-2-6-9(5-1)10-7-3-4-8-10/h1-10H

   ATOM   CHEMICAL          X               Y               Z
  NUMBER   SYMBOL      (ANGSTROMS)     (ANGSTROMS)     (ANGSTROMS)
 
     1       C          0.50520000  *  -0.36040000  *  -0.45400000  *
     2       C         -0.50520000  *   0.36040000  *   0.45400000  *
     3       C          1.64510000  *  -0.96120000  *   0.31460000  *
     4       C          1.26360000  *   0.58560000  *  -1.33770000  *
     5       C         -1.64510000  *   0.96120000  *  -0.31460000  *
     6       C         -1.26360000  *  -0.58560000  *   1.33770000  *
     7       C          2.80340000  *  -0.44250000  *  -0.05560000  *
     8       C          2.56270000  *   0.53340000  *  -1.09820000  *
     9       C         -2.80340000  *   0.44250000  *   0.05560000  *
    10       C         -2.56270000  *  -0.53340000  *   1.09820000  *
    11       H          0.01220000  *  -1.14530000  *  -1.07490000  *
    12       H         -0.01220000  *   1.14530000  *   1.07490000  *
    13       H          1.54750000  *  -1.73110000  *   1.07340000  *
    14       H          0.81740000  *   1.22920000  *  -2.08910000  *
    15       H         -1.54750000  *   1.73110000  *  -1.07340000  *
    16       H         -0.81740000  *  -1.22920000  *   2.08910000  *
    17       H          3.77110000  *  -0.71710000  *   0.35080000  *
    18       H          3.31820000  *   1.11930000  *  -1.61100000  *
    19       H         -3.77110000  *   0.71710000  *  -0.35080000  *
    20       H         -3.31820000  *  -1.11930000  *   1.61100000  *
 


          CARTESIAN COORDINATES 

    NO.       ATOM         X         Y         Z

     1         C        0.5052   -0.3604   -0.4540
     2         C       -0.5052    0.3604    0.4540
     3         C        1.6451   -0.9612    0.3146
     4         C        1.2636    0.5856   -1.3377
     5         C       -1.6451    0.9612   -0.3146
     6         C       -1.2636   -0.5856    1.3377
     7         C        2.8034   -0.4425   -0.0556
     8         C        2.5627    0.5334   -1.0982
     9         C       -2.8034    0.4425    0.0556
    10         C       -2.5627   -0.5334    1.0982
    11         H        0.0122   -1.1453   -1.0749
    12         H       -0.0122    1.1453    1.0749
    13         H        1.5475   -1.7311    1.0734
    14         H        0.8174    1.2292   -2.0891
    15         H       -1.5475    1.7311   -1.0734
    16         H       -0.8174   -1.2292    2.0891
    17         H        3.7711   -0.7171    0.3508
    18         H        3.3182    1.1193   -1.6110
    19         H       -3.7711    0.7171   -0.3508
    20         H       -3.3182   -1.1193    1.6110

  H: (PM3): J. J. P. STEWART, J. COMP. CHEM. 10, 209 (1989).
  C: (PM3): J. J. P. STEWART, J. COMP. CHEM. 10, 209 (1989).

           Empirical Formula: C10 H10  =    20 atoms



      MOLECULAR POINT GROUP   :   C1  


      RHF CALCULATION, NO. OF DOUBLY OCCUPIED LEVELS =   25

      Geometry optimization using EF

          DIAGONAL MATRIX USED AS START HESSIAN

 CYCLE:     1 TIME:   0.009 TIME LEFT:  2.00D  GRAD.:   149.164 HEAT: 79.88314
 CYCLE:     2 TIME:   0.018 TIME LEFT:  2.00D  GRAD.:    53.208 HEAT: 76.68104
 CYCLE:     3 TIME:   0.006 TIME LEFT:  2.00D  GRAD.:    32.040 HEAT: 75.31838
 CYCLE:     4 TIME:   0.012 TIME LEFT:  2.00D  GRAD.:    55.755 HEAT: 75.15217
 CYCLE:     5 TIME:   0.006 TIME LEFT:  2.00D  GRAD.:    36.509 HEAT: 74.37365
 CYCLE:     6 TIME:   0.012 TIME LEFT:  2.00D  GRAD.:    31.390 HEAT: 74.09003
 CYCLE:     7 TIME:   0.006 TIME LEFT:  2.00D  GRAD.:    18.160 HEAT: 73.69710
 CYCLE:     8 TIME:   0.016 TIME LEFT:  2.00D  GRAD.:    15.756 HEAT: 73.59194
 CYCLE:     9 TIME:   0.006 TIME LEFT:  2.00D  GRAD.:    12.484 HEAT: 73.48925
 CYCLE:    10 TIME:   0.006 TIME LEFT:  2.00D  GRAD.:     9.628 HEAT: 73.39090
 CYCLE:    11 TIME:   0.006 TIME LEFT:  2.00D  GRAD.:    14.828 HEAT: 73.38740
 CYCLE:    12 TIME:   0.011 TIME LEFT:  2.00D  GRAD.:     7.910 HEAT: 73.33293
 CYCLE:    13 TIME:   0.011 TIME LEFT:  2.00D  GRAD.:     9.630 HEAT: 73.32840
 CYCLE:    14 TIME:   0.006 TIME LEFT:  2.00D  GRAD.:     3.459 HEAT: 73.30562
 CYCLE:    15 TIME:   0.006 TIME LEFT:  2.00D  GRAD.:     4.661 HEAT: 73.29755
 CYCLE:    16 TIME:   0.006 TIME LEFT:  2.00D  GRAD.:     3.415 HEAT: 73.28075
 CYCLE:    17 TIME:   0.006 TIME LEFT:  2.00D  GRAD.:     1.537 HEAT: 73.26517
 CYCLE:    18 TIME:   0.006 TIME LEFT:  2.00D  GRAD.:     1.567 HEAT: 73.25770
 CYCLE:    19 TIME:   0.006 TIME LEFT:  2.00D  GRAD.:     6.994 HEAT: 73.26597
 CYCLE:    20 TIME:   0.006 TIME LEFT:  2.00D  GRAD.:     1.523 HEAT: 73.25588
 CYCLE:    21 TIME:   0.006 TIME LEFT:  2.00D  GRAD.:     3.057 HEAT: 73.25678
 CYCLE:    22 TIME:   0.006 TIME LEFT:  2.00D  GRAD.:     4.096 HEAT: 73.25774
 CYCLE:    23 TIME:   0.006 TIME LEFT:  2.00D  GRAD.:     2.787 HEAT: 73.25469
 CYCLE:    24 TIME:   0.006 TIME LEFT:  2.00D  GRAD.:     3.035 HEAT: 73.25313
 CYCLE:    25 TIME:   0.011 TIME LEFT:  2.00D  GRAD.:     3.125 HEAT: 73.25287
 CYCLE:    26 TIME:   0.006 TIME LEFT:  2.00D  GRAD.:     1.073 HEAT: 73.24969
 CYCLE:    27 TIME:   0.006 TIME LEFT:  2.00D  GRAD.:     1.584 HEAT: 73.24885
 CYCLE:    28 TIME:   0.006 TIME LEFT:  2.00D  GRAD.:     2.022 HEAT: 73.24749
 CYCLE:    29 TIME:   0.006 TIME LEFT:  2.00D  GRAD.:     1.688 HEAT: 73.24540
 CYCLE:    30 TIME:   0.006 TIME LEFT:  2.00D  GRAD.:     2.201 HEAT: 73.24515
 CYCLE:    31 TIME:   0.006 TIME LEFT:  2.00D  GRAD.:     0.829 HEAT: 73.24369
 CYCLE:    32 TIME:   0.006 TIME LEFT:  2.00D  GRAD.:     0.889 HEAT: 73.24303
 CYCLE:    33 TIME:   0.006 TIME LEFT:  2.00D  GRAD.:     1.634 HEAT: 73.24199
 CYCLE:    34 TIME:   0.006 TIME LEFT:  2.00D  GRAD.:     0.646 HEAT: 73.24123
 CYCLE:    35 TIME:   0.006 TIME LEFT:  2.00D  GRAD.:     0.600 HEAT: 73.24107
 CYCLE:    36 TIME:   0.006 TIME LEFT:  2.00D  GRAD.:     0.463 HEAT: 73.24093
 CYCLE:    37 TIME:   0.006 TIME LEFT:  2.00D  GRAD.:     0.264 HEAT: 73.24083
 CYCLE:    38 TIME:   0.006 TIME LEFT:  2.00D  GRAD.:     0.268 HEAT: 73.24072
 CYCLE:    39 TIME:   0.007 TIME LEFT:  2.00D  GRAD.:     0.227 HEAT: 73.24067
 CYCLE:    40 TIME:   0.009 TIME LEFT:  2.00D  GRAD.:     0.116 HEAT: 73.24064
 CYCLE:    41 TIME:   0.006 TIME LEFT:  2.00D  GRAD.:     0.090 HEAT: 73.24061
 CYCLE:    42 TIME:   0.006 TIME LEFT:  2.00D  GRAD.:     0.062 HEAT: 73.24060
 CYCLE:    43 TIME:   0.006 TIME LEFT:  2.00D  GRAD.:     0.032 HEAT: 73.24060

     RMS GRADIENT =  0.03209  IS LESS THAN CUTOFF =  0.05000



 -------------------------------------------------------------------------------
pm3  precise nosym
 InChI=1S/C10H10/c1-2-6-9(5-1)10-7-3-4-8-10/h1-10H



     GEOMETRY OPTIMISED USING EIGENVECTOR FOLLOWING (EF).     
     SCF FIELD WAS ACHIEVED                                   


                              PM3 CALCULATION
                                                       MOPAC2012 (Version: 13.159M)
                                                       Mon Jun  2 11:14:05 2014
                                                       No. of days left =   6




          FINAL HEAT OF FORMATION =         73.24060 KCAL/MOL =     306.43866 KJ/MOL


          TOTAL ENERGY            =      -1336.55493 EV
          ELECTRONIC ENERGY       =      -7007.17420 EV  POINT GROUP:     C1  
          CORE-CORE REPULSION     =       5670.61927 EV
          COSMO AREA              =        174.81 SQUARE ANGSTROMS
          COSMO VOLUME            =        178.14 CUBIC ANGSTROMS

          GRADIENT NORM           =          0.03209
          IONIZATION POTENTIAL    =          9.323616 EV
          HOMO LUMO ENERGIES (EV) =         -9.324  0.069
          NO. OF FILLED LEVELS    =         25
          MOLECULAR WEIGHT        =        130.189

          MOLECULAR DIMENSIONS (Angstroms)

            Atom       Atom       Distance
            H    20    H    18     7.79447
            H    19    H    17     5.00115
            H    12    H    11     3.08777


          SCF CALCULATIONS        =         53
          COMPUTATION TIME        =          0.324 SECONDS




   ATOM   CHEMICAL          X               Y               Z
  NUMBER   SYMBOL      (ANGSTROMS)     (ANGSTROMS)     (ANGSTROMS)
 
     1       C          0.51738668  *  -0.34355351  *  -0.44108296  *
     2       C         -0.51738266  *   0.34356133  *   0.44110732  *
     3       C          1.64531147  *  -0.96347222  *   0.35286491  *
     4       C          1.25415580  *   0.62257947  *  -1.34143422  *
     5       C         -1.64530644  *   0.96349939  *  -0.35284557  *
     6       C         -1.25416383  *  -0.62259252  *   1.34142948  *
     7       C          2.82604491  *  -0.45505821  *  -0.06039389  *
     8       C          2.58243497  *   0.53263429  *  -1.11567023  *
     9       C         -2.82603923  *   0.45505690  *   0.06038536  *
    10       C         -2.58244232  *  -0.53265391  *   1.11564204  *
    11       H          0.02856649  *  -1.12968308  *  -1.06414195  *
    12       H         -0.02856967  *   1.12968704  *   1.06418675  *
    13       H          1.47076670  *  -1.70917238  *   1.12594516  *
    14       H          0.73732701  *   1.26525822  *  -2.05138743  *
    15       H         -1.47074755  *   1.70922226  *  -1.12591242  *
    16       H         -0.73734529  *  -1.26527285  *   2.05139172  *
    17       H          3.82021124  *  -0.70903564  *   0.30200694  *
    18       H          3.37806153  *   1.08336615  *  -1.61353413  *
    19       H         -3.82019858  *   0.70903041  *  -0.30203629  *
    20       H         -3.37806963  *  -1.08340366  *   1.61347393  *

           Empirical Formula: C10 H10  =    20 atoms



      MOLECULAR POINT GROUP   :   C1  


                  EIGENVALUES  
 -41.57860 -37.44653 -29.06114 -28.02203 -26.73400 -24.04970 -19.75036 -19.39286
 -18.64989 -18.25198 -17.83924 -17.66914 -14.75134 -14.62800 -14.16755 -13.85842
 -13.60907 -13.59195 -12.95287 -12.28438 -12.14306 -11.44137 -10.89766  -9.33516
  -9.32362   0.06892   0.39369   1.93269   1.93714   3.16061   3.17869   3.32909
   3.36448   3.46296   3.63148   3.89834   4.02186   4.09193   4.19138   4.34280
   4.41353   4.44981   4.62911   4.70847   5.62279   5.68706   5.69953   5.79200
   6.06896   6.07500


              NET ATOMIC CHARGES AND DIPOLE CONTRIBUTIONS

  ATOM NO.   TYPE          CHARGE      No. of ELECS.   s-Pop       p-Pop       
    1          C          -0.007940        4.0079     1.16014     2.84780
    2          C          -0.007941        4.0079     1.16014     2.84780
    3          C          -0.160923        4.1609     1.21018     2.95074
    4          C          -0.160923        4.1609     1.21018     2.95074
    5          C          -0.160924        4.1609     1.21018     2.95074
    6          C          -0.160924        4.1609     1.21018     2.95074
    7          C          -0.117353        4.1174     1.19260     2.92476
    8          C          -0.117365        4.1174     1.19260     2.92477
    9          C          -0.117353        4.1174     1.19260     2.92476
   10          C          -0.117363        4.1174     1.19260     2.92477
   11          H           0.097967        0.9020     0.90203
   12          H           0.097967        0.9020     0.90203
   13          H           0.118722        0.8813     0.88128
   14          H           0.118721        0.8813     0.88128
   15          H           0.118724        0.8813     0.88128
   16          H           0.118721        0.8813     0.88128
   17          H           0.114549        0.8855     0.88545
   18          H           0.114546        0.8855     0.88545
   19          H           0.114547        0.8855     0.88545
   20          H           0.114545        0.8855     0.88545
 DIPOLE           X         Y         Z       TOTAL
 POINT-CHG.     0.000     0.000     0.000     0.000
 HYBRID         0.000     0.000     0.000     0.000
 SUM            0.000     0.000     0.000     0.000


          ATOMIC ORBITAL ELECTRON POPULATIONS

    Atom      s        px        py        pz   
    1  C   1.16014   0.94087   0.96083   0.94611
    2  C   1.16014   0.94087   0.96082   0.94611
    3  C   1.21018   0.95428   1.00183   0.99464
    4  C   1.21018   0.96112   0.99086   0.99876
    5  C   1.21018   0.95427   1.00183   0.99464
    6  C   1.21018   0.96112   0.99086   0.99876
    7  C   1.19260   0.97301   0.97626   0.97550
    8  C   1.19260   0.96169   0.98357   0.97951
    9  C   1.19260   0.97301   0.97625   0.97550
   10  C   1.19260   0.96169   0.98356   0.97951
   11  H   0.90203
   12  H   0.90203
   13  H   0.88128
   14  H   0.88128
   15  H   0.88128
   16  H   0.88128
   17  H   0.88545
   18  H   0.88545
   19  H   0.88545
   20  H   0.88545
 *******************************************************************************
 ** Site#: 14399           For non-commercial use only        Version 13.159M **
 *******************************************************************************
 ** Cite this work as: MOPAC2012, James J. P. Stewart, Stewart Computational  **
 ** Chemistry, Version 13.159M web: HTTP://OpenMOPAC.net  Days remaining:   6 **
 *******************************************************************************
 **                                                                           **
 **                                MOPAC2012                                  **
 **                                                                           **
 *******************************************************************************

                            PM3 CALCULATION RESULTS


 *******************************************************************************
 *  CALCULATION DONE:                                Mon Jun  2 11:14:05 2014  *
 *  PM3      - The PM3 Hamiltonian to be used
 *  OLDGEO   - PREVIOUS GEOMETRY TO BE USED
 *  PRECISE  - CRITERIA TO BE INCREASED BY 100 TIMES
 *  NOSYM    - POINT-GROUP SYMMETRY SET TO C1
 *  T=       - A TIME OF 172800.0 SECONDS REQUESTED
 *  DUMP=N   - RESTART FILE WRITTEN EVERY  7200.000 SECONDS
 *  THERMO   - THERMODYNAMIC QUANTITIES TO BE CALCULATED
 *******************************************************************************
oldgeo thermo nosym precise  pm3

   ATOM   CHEMICAL          X               Y               Z
  NUMBER   SYMBOL      (ANGSTROMS)     (ANGSTROMS)     (ANGSTROMS)
 
     1       C          0.51738668  *  -0.34355351  *  -0.44108296  *
     2       C         -0.51738266  *   0.34356133  *   0.44110732  *
     3       C          1.64531147  *  -0.96347222  *   0.35286491  *
     4       C          1.25415580  *   0.62257947  *  -1.34143422  *
     5       C         -1.64530644  *   0.96349939  *  -0.35284557  *
     6       C         -1.25416383  *  -0.62259252  *   1.34142948  *
     7       C          2.82604491  *  -0.45505821  *  -0.06039389  *
     8       C          2.58243497  *   0.53263429  *  -1.11567023  *
     9       C         -2.82603923  *   0.45505690  *   0.06038536  *
    10       C         -2.58244232  *  -0.53265391  *   1.11564204  *
    11       H          0.02856649  *  -1.12968308  *  -1.06414195  *
    12       H         -0.02856967  *   1.12968704  *   1.06418675  *
    13       H          1.47076670  *  -1.70917238  *   1.12594516  *
    14       H          0.73732701  *   1.26525822  *  -2.05138743  *
    15       H         -1.47074755  *   1.70922226  *  -1.12591242  *
    16       H         -0.73734529  *  -1.26527285  *   2.05139172  *
    17       H          3.82021124  *  -0.70903564  *   0.30200694  *
    18       H          3.37806153  *   1.08336615  *  -1.61353413  *
    19       H         -3.82019858  *   0.70903041  *  -0.30203629  *
    20       H         -3.37806963  *  -1.08340366  *   1.61347393  *
 


          CARTESIAN COORDINATES 

    NO.       ATOM         X         Y         Z

     1         C        0.5174   -0.3436   -0.4411
     2         C       -0.5174    0.3436    0.4411
     3         C        1.6453   -0.9635    0.3529
     4         C        1.2542    0.6226   -1.3414
     5         C       -1.6453    0.9635   -0.3528
     6         C       -1.2542   -0.6226    1.3414
     7         C        2.8260   -0.4551   -0.0604
     8         C        2.5824    0.5326   -1.1157
     9         C       -2.8260    0.4551    0.0604
    10         C       -2.5824   -0.5327    1.1156
    11         H        0.0286   -1.1297   -1.0641
    12         H       -0.0286    1.1297    1.0642
    13         H        1.4708   -1.7092    1.1259
    14         H        0.7373    1.2653   -2.0514
    15         H       -1.4707    1.7092   -1.1259
    16         H       -0.7373   -1.2653    2.0514
    17         H        3.8202   -0.7090    0.3020
    18         H        3.3781    1.0834   -1.6135
    19         H       -3.8202    0.7090   -0.3020
    20         H       -3.3781   -1.0834    1.6135

  H: (PM3): J. J. P. STEWART, J. COMP. CHEM. 10, 209 (1989).
  C: (PM3): J. J. P. STEWART, J. COMP. CHEM. 10, 209 (1989).

           Empirical Formula: C10 H10  =    20 atoms



      MOLECULAR POINT GROUP   :   C1  


      RHF CALCULATION, NO. OF DOUBLY OCCUPIED LEVELS =   25



          HEAT OF FORMATION =      73.240598 KCALS/MOLE


          INTERNAL COORDINATE DERIVATIVES

   NUMBER  ATOM       BOND         ANGLE      DIHEDRAL

     1       C     -0.002300     0.002355     0.004226
     2       C     -0.001660     0.002035    -0.005698
     3       C      0.002044    -0.005245    -0.006300
     4       C      0.003916    -0.002073    -0.001216
     5       C      0.000350     0.001034     0.005855
     6       C     -0.008555     0.003413     0.001196
     7       C      0.001420    -0.003084     0.005183
     8       C      0.006615     0.002451    -0.005621
     9       C      0.001704     0.008630    -0.011205
    10       C      0.000516    -0.008059     0.001628
    11       H     -0.004812     0.003902     0.002245
    12       H      0.006499    -0.002028     0.001220
    13       H     -0.001863    -0.005163    -0.005458
    14       H     -0.004624     0.001963     0.004117
    15       H     -0.000298     0.000894     0.010419
    16       H      0.004754    -0.000388    -0.004293
    17       H      0.001659    -0.000460     0.008152
    18       H     -0.005959    -0.002160    -0.008174
    19       H     -0.002808     0.000315    -0.007556
    20       H      0.003401     0.001667     0.011282


          GRADIENT NORM =   0.03742


          TIME FOR SCF CALCULATION =    0.01

          TIME FOR DERIVATIVES     =    0.00

          MOLECULAR WEIGHT =  130.19



          ROTATIONAL CONSTANTS IN CM(-1)

          A =    0.12781063   B =    0.03004885   C =    0.02526160



           PRINCIPAL MOMENTS OF INERTIA IN UNITS OF 10**(-40)*GRAM-CM**2

          A =      219.0176   B =      931.5757   C =     1108.1158


          ORIENTATION OF MOLECULE IN FORCE CALCULATION

    NO.       ATOM         X         Y         Z

     1          C      -0.7618    0.0000    0.0000
     2          C       0.7618    0.0000    0.0000
     3          C      -1.3477    1.3941    0.0000
     4          C      -1.3478   -0.5926    1.2619
     5          C       1.3477   -1.3941    0.0000
     6          C       1.3478    0.5926   -1.2619
     7          C      -2.1596    1.5467    1.0681
     8          C      -2.1598    0.3094    1.8539
     9          C       2.1596   -1.5467   -1.0681
    10          C       2.1598   -0.3094   -1.8539
    11          H      -1.1451   -0.5618   -0.8846
    12          H       1.1451    0.5619    0.8846
    13          H      -1.1178    2.1214   -0.7762
    14          H      -1.1180   -1.6042    1.5904
    15          H       1.1178   -2.1214    0.7762
    16          H       1.1180    1.6042   -1.5904
    17          H      -2.7396    2.4267    1.3394
    18          H      -2.7401    0.1808    2.7655
    19          H       2.7395   -2.4267   -1.3394
    20          H       2.7400   -0.1808   -2.7655


    FIRST DERIVATIVES WILL BE USED IN THE CALCULATION OF SECOND DERIVATIVES

          ESTIMATED TIME TO COMPLETE CALCULATION =        2.22 SECONDS

    FOR POINT-GROUP C1   THERE ARE   1 UNIQUE SYMMETRY FUNCTIONS.

 STEP:   1 TIME =     0.03 SECS, INTEGRAL =      0.03 TIME LEFT: 172799.96
 STEP:   2 TIME =     0.03 SECS, INTEGRAL =      0.06 TIME LEFT: 172799.93
 STEP:   3 TIME =     0.03 SECS, INTEGRAL =      0.09 TIME LEFT: 172799.90
 STEP:   4 TIME =     0.03 SECS, INTEGRAL =      0.12 TIME LEFT: 172799.87
 STEP:   5 TIME =     0.03 SECS, INTEGRAL =      0.15 TIME LEFT: 172799.84
 STEP:   6 TIME =     0.03 SECS, INTEGRAL =      0.18 TIME LEFT: 172799.81
 STEP:   7 TIME =     0.03 SECS, INTEGRAL =      0.21 TIME LEFT: 172799.78
 STEP:   8 TIME =     0.03 SECS, INTEGRAL =      0.24 TIME LEFT: 172799.76
 STEP:   9 TIME =     0.03 SECS, INTEGRAL =      0.27 TIME LEFT: 172799.72
 STEP:  10 TIME =     0.03 SECS, INTEGRAL =      0.30 TIME LEFT: 172799.69
 STEP:  11 TIME =     0.03 SECS, INTEGRAL =      0.33 TIME LEFT: 172799.66
 STEP:  12 TIME =     0.03 SECS, INTEGRAL =      0.36 TIME LEFT: 172799.63
 STEP:  13 TIME =     0.03 SECS, INTEGRAL =      0.39 TIME LEFT: 172799.60
 STEP:  14 TIME =     0.04 SECS, INTEGRAL =      0.43 TIME LEFT: 172799.56
 STEP:  15 TIME =     0.03 SECS, INTEGRAL =      0.46 TIME LEFT: 172799.53
 STEP:  16 TIME =     0.03 SECS, INTEGRAL =      0.49 TIME LEFT: 172799.50
 STEP:  17 TIME =     0.03 SECS, INTEGRAL =      0.52 TIME LEFT: 172799.47
 STEP:  18 TIME =     0.03 SECS, INTEGRAL =      0.55 TIME LEFT: 172799.44
 STEP:  19 TIME =     0.03 SECS, INTEGRAL =      0.58 TIME LEFT: 172799.41
 STEP:  20 TIME =     0.03 SECS, INTEGRAL =      0.61 TIME LEFT: 172799.38
 STEP:  21 TIME =     0.03 SECS, INTEGRAL =      0.64 TIME LEFT: 172799.35
 STEP:  22 TIME =     0.03 SECS, INTEGRAL =      0.67 TIME LEFT: 172799.32
 STEP:  23 TIME =     0.03 SECS, INTEGRAL =      0.70 TIME LEFT: 172799.29
 STEP:  24 TIME =     0.03 SECS, INTEGRAL =      0.73 TIME LEFT: 172799.26
 STEP:  25 TIME =     0.03 SECS, INTEGRAL =      0.76 TIME LEFT: 172799.23
 STEP:  26 TIME =     0.04 SECS, INTEGRAL =      0.79 TIME LEFT: 172799.20
 STEP:  27 TIME =     0.03 SECS, INTEGRAL =      0.82 TIME LEFT: 172799.17
 STEP:  28 TIME =     0.03 SECS, INTEGRAL =      0.85 TIME LEFT: 172799.14
 STEP:  29 TIME =     0.03 SECS, INTEGRAL =      0.88 TIME LEFT: 172799.11
 STEP:  30 TIME =     0.03 SECS, INTEGRAL =      0.91 TIME LEFT: 172799.08
 STEP:  31 TIME =     0.03 SECS, INTEGRAL =      0.94 TIME LEFT: 172799.05
 STEP:  32 TIME =     0.03 SECS, INTEGRAL =      0.97 TIME LEFT: 172799.02
 STEP:  33 TIME =     0.03 SECS, INTEGRAL =      1.00 TIME LEFT: 172798.99
 STEP:  34 TIME =     0.03 SECS, INTEGRAL =      1.03 TIME LEFT: 172798.97
 STEP:  35 TIME =     0.04 SECS, INTEGRAL =      1.06 TIME LEFT: 172798.93
 STEP:  36 TIME =     0.03 SECS, INTEGRAL =      1.09 TIME LEFT: 172798.90
 STEP:  37 TIME =     0.03 SECS, INTEGRAL =      1.12 TIME LEFT: 172798.87
 STEP:  38 TIME =     0.03 SECS, INTEGRAL =      1.15 TIME LEFT: 172798.84
 STEP:  39 TIME =     0.03 SECS, INTEGRAL =      1.19 TIME LEFT: 172798.80
 STEP:  40 TIME =     0.03 SECS, INTEGRAL =      1.22 TIME LEFT: 172798.77
 STEP:  41 TIME =     0.03 SECS, INTEGRAL =      1.25 TIME LEFT: 172798.74
 STEP:  42 TIME =     0.03 SECS, INTEGRAL =      1.28 TIME LEFT: 172798.71
 STEP:  43 TIME =     0.03 SECS, INTEGRAL =      1.31 TIME LEFT: 172798.68
 STEP:  44 TIME =     0.03 SECS, INTEGRAL =      1.35 TIME LEFT: 172798.65
 STEP:  45 TIME =     0.03 SECS, INTEGRAL =      1.38 TIME LEFT: 172798.62
 STEP:  46 TIME =     0.03 SECS, INTEGRAL =      1.41 TIME LEFT: 172798.58
 STEP:  47 TIME =     0.03 SECS, INTEGRAL =      1.44 TIME LEFT: 172798.55
 STEP:  48 TIME =     0.03 SECS, INTEGRAL =      1.47 TIME LEFT: 172798.52
 STEP:  49 TIME =     0.03 SECS, INTEGRAL =      1.50 TIME LEFT: 172798.49
 STEP:  50 TIME =     0.03 SECS, INTEGRAL =      1.53 TIME LEFT: 172798.46
 STEP:  51 TIME =     0.03 SECS, INTEGRAL =      1.56 TIME LEFT: 172798.43
 STEP:  52 TIME =     0.03 SECS, INTEGRAL =      1.59 TIME LEFT: 172798.40
 STEP:  53 TIME =     0.03 SECS, INTEGRAL =      1.62 TIME LEFT: 172798.37
 STEP:  54 TIME =     0.03 SECS, INTEGRAL =      1.65 TIME LEFT: 172798.35
 STEP:  55 TIME =     0.03 SECS, INTEGRAL =      1.67 TIME LEFT: 172798.32
 STEP:  56 TIME =     0.03 SECS, INTEGRAL =      1.70 TIME LEFT: 172798.29
 STEP:  57 TIME =     0.03 SECS, INTEGRAL =      1.73 TIME LEFT: 172798.26
 STEP:  58 TIME =     0.03 SECS, INTEGRAL =      1.76 TIME LEFT: 172798.23
 STEP:  59 TIME =     0.03 SECS, INTEGRAL =      1.80 TIME LEFT: 172798.20
 STEP:  60 TIME =     0.03 SECS, INTEGRAL =      1.83 TIME LEFT: 172798.17

(To convert to Hartree/Bohr^2, multiply by (10^(-21) x N x a0^2)/(4.184 x 627.51) = 0.0642)


           FORCE MATRIX IN MILLIDYNES/ANGSTROM


                  C  1       C  2       C  3       C  4       C  5       C  6
 ------------------------------------------------------------------------------
     C    1  14.820601
     C    2   3.919797  14.819864
     C    3   4.090335   0.587672  17.883124
     C    4   4.090871   0.587703   1.095880  17.889817
     C    5   0.587607   4.089929   0.044050   0.058286  17.882591
     C    6   0.587696   4.090662   0.058192   0.044015   1.095741  17.889942
     C    7   1.200922   0.049948   9.793880   1.573266   0.010109   0.011645
     C    8   1.201360   0.049751   1.575904   9.795678   0.011137   0.009958
     C    9   0.049949   1.200937   0.010114   0.011610   9.793524   1.573536
     C   10   0.049759   1.201301   0.011097   0.010059   1.575885   9.795660
     H   11   4.247412   0.442542   0.388145   0.387798   0.015198   0.015158
     H   12   0.442513   4.247339   0.015192   0.015153   0.388206   0.387779
     H   13   0.404589   0.009683   5.061564   0.042524   0.003000   0.010514
     H   14   0.404649   0.009849   0.042817   5.061991   0.010567   0.002951
     H   15   0.009691   0.404527   0.002983   0.010453   5.061353   0.042547
     H   16   0.009809   0.404612   0.010591   0.002997   0.042818   5.061872
     H   17   0.111959   0.016381   0.446870   0.049290   0.002288   0.001683
     H   18   0.111550   0.016229   0.049566   0.446812   0.001760   0.002264
     H   19   0.016376   0.111948   0.002318   0.001768   0.446875   0.049291
     H   20   0.016268   0.111161   0.001729   0.002258   0.049582   0.446810


                  C  7       C  8       C  9       C 10       H 11       H 12
 ------------------------------------------------------------------------------
     C    7  18.324224
     C    8   5.153982  18.320355
     C    9   0.003342   0.003483  18.323998
     C   10   0.003551   0.003453   5.154037  18.320558
     H   11   0.051320   0.051331   0.005056   0.005393   4.720994
     H   12   0.005075   0.005333   0.051365   0.051279   0.041178   4.720923
     H   13   0.442905   0.100630   0.001349   0.002063   0.011086   0.002480
     H   14   0.100224   0.442922   0.002059   0.001417   0.010996   0.002471
     H   15   0.001376   0.001916   0.442890   0.100627   0.002494   0.011074
     H   16   0.002032   0.001362   0.100408   0.442953   0.002474   0.011028
     H   17   5.070165   0.419748   0.000896   0.001101   0.014137   0.000738
     H   18   0.419944   5.070199   0.001141   0.000961   0.013851   0.000726
     H   19   0.000951   0.001170   5.070175   0.419797   0.000743   0.014099
     H   20   0.001131   0.000995   0.419875   5.070460   0.000727   0.013752


                  H 13       H 14       H 15       H 16       H 17       H 18
 ------------------------------------------------------------------------------
     H   13   5.462425
     H   14   0.010307   5.463290
     H   15   0.000821   0.023272   5.462212
     H   16   0.023269   0.000812   0.010318   5.463096
     H   17   0.041430   0.005282   0.000447   0.000644   5.459692
     H   18   0.005353   0.041042   0.000662   0.000423   0.009513   5.459868
     H   19   0.000432   0.000632   0.041445   0.005305   0.000241   0.000311
     H   20   0.000652   0.000414   0.005343   0.040973   0.000303   0.000237


                  H 19       H 20
 ------------------------------
     H   19   5.459676
     H   20   0.009517   5.460158


          HEAT OF FORMATION =      73.240598 KCALS/MOLE

          ZERO POINT ENERGY     104.999 KCAL/MOL


           NORMAL COORDINATE ANALYSIS (Total motion = 1 Angstrom)


   Root No.       1         2         3         4         5         6         7         8

                 1 A       2 A       3 A       4 A       5 A       6 A       7 A       8 A   

                  69.5     129.4     192.0     194.0     367.4     412.9     503.5     519.9
  
           1   -0.0002    0.0367    0.0003   -0.0008    0.0000    0.0120   -0.0004   -0.0007
           2   -0.0239    0.0162    0.0204   -0.0189    0.0313   -0.0013   -0.0032   -0.0103
           3    0.0150    0.0262   -0.0147   -0.0274   -0.0198   -0.0026    0.0016    0.0057
           4   -0.0002    0.0367    0.0003    0.0009    0.0001   -0.0119   -0.0003   -0.0006
           5   -0.0239    0.0162    0.0223    0.0168   -0.0313    0.0013   -0.0030    0.0097
           6    0.0150    0.0260   -0.0118    0.0289    0.0198    0.0026    0.0015   -0.0067
           7   -0.0053    0.0168   -0.0414    0.0003   -0.0178    0.0528    0.0210    0.0256
           8   -0.0262    0.0071    0.0017   -0.0193    0.0306    0.0091    0.0066   -0.0055
           9   -0.0284    0.0116   -0.0106   -0.0320   -0.0017    0.0009    0.0136    0.0135
          10    0.0050    0.0163    0.0413   -0.0039    0.0172    0.0529   -0.0207   -0.0252
          11    0.0144    0.0074    0.0081   -0.0217    0.0146   -0.0030   -0.0093   -0.0142
          12    0.0357    0.0117   -0.0001   -0.0313   -0.0271    0.0082   -0.0116   -0.0005
          13   -0.0053    0.0168   -0.0412    0.0041    0.0178   -0.0528    0.0207   -0.0251
          14   -0.0262    0.0070    0.0036    0.0191   -0.0306   -0.0091    0.0067    0.0058
          15   -0.0284    0.0115   -0.0073    0.0331    0.0017   -0.0009    0.0134   -0.0132
          16    0.0051    0.0163    0.0415   -0.0003   -0.0172   -0.0529   -0.0204    0.0262
          17    0.0144    0.0074    0.0103    0.0207   -0.0146    0.0030   -0.0091    0.0147
          18    0.0357    0.0116    0.0031    0.0311    0.0271   -0.0082   -0.0116    0.0011
          19   -0.0033   -0.0341   -0.0286    0.0412   -0.0277    0.0140   -0.0239   -0.0174
          20    0.0053   -0.0149   -0.0197   -0.0013   -0.0001   -0.0163   -0.0097   -0.0138
          21   -0.0315   -0.0238    0.0030   -0.0043   -0.0035   -0.0274   -0.0188   -0.0191
          22    0.0038   -0.0344    0.0323    0.0380    0.0275    0.0147    0.0239    0.0172
          23    0.0309   -0.0147   -0.0116   -0.0022    0.0033   -0.0176    0.0129    0.0114
          24    0.0089   -0.0237    0.0159   -0.0047    0.0018   -0.0263    0.0168    0.0205
          25   -0.0033   -0.0341   -0.0326   -0.0382    0.0276   -0.0140   -0.0237    0.0175
          26    0.0053   -0.0149   -0.0194    0.0033    0.0000    0.0163   -0.0095    0.0138
          27   -0.0315   -0.0238    0.0035    0.0039    0.0034    0.0274   -0.0186    0.0192
          28    0.0037   -0.0342    0.0282   -0.0412   -0.0275   -0.0147    0.0237   -0.0179
          29    0.0309   -0.0147   -0.0113    0.0033   -0.0033    0.0177    0.0128   -0.0117
          30    0.0089   -0.0237    0.0163    0.0030   -0.0018    0.0263    0.0165   -0.0210
          31   -0.0001    0.0459    0.0022    0.0351    0.0000   -0.0061   -0.0009   -0.0014
          32   -0.0522    0.0137    0.0115   -0.0250    0.0582    0.0023    0.0243    0.0065
          33    0.0330    0.0224   -0.0098   -0.0377   -0.0368    0.0025   -0.0156   -0.0046
          34   -0.0002    0.0460   -0.0014   -0.0350    0.0001    0.0062   -0.0009   -0.0017
          35   -0.0522    0.0137    0.0140    0.0238   -0.0581   -0.0024    0.0243   -0.0071
          36    0.0330    0.0222   -0.0058    0.0385    0.0368   -0.0025   -0.0156    0.0044
          37   -0.0114    0.0365   -0.0787   -0.0193   -0.0431    0.1011    0.0525    0.0708
          38   -0.0502    0.0155    0.0031   -0.0299    0.0420    0.0257    0.0185    0.0036
          39   -0.0527    0.0253   -0.0201   -0.0478    0.0017    0.0306    0.0340    0.0353
          40    0.0105    0.0355    0.0761   -0.0269    0.0415    0.1011   -0.0510   -0.0677
          41    0.0259    0.0163    0.0161   -0.0322    0.0158    0.0167   -0.0222   -0.0289
          42    0.0673    0.0255    0.0007   -0.0477   -0.0395    0.0354   -0.0303   -0.0162
          43   -0.0113    0.0364   -0.0763    0.0275    0.0433   -0.1012    0.0514   -0.0681
          44   -0.0502    0.0154    0.0062    0.0295   -0.0419   -0.0258    0.0185   -0.0024
          45   -0.0526    0.0252   -0.0151    0.0498   -0.0016   -0.0308    0.0335   -0.0334
          46    0.0106    0.0356    0.0786    0.0192   -0.0416   -0.1013   -0.0502    0.0720
          47    0.0260    0.0162    0.0194    0.0304   -0.0159   -0.0168   -0.0219    0.0307
          48    0.0674    0.0254    0.0057    0.0474    0.0394   -0.0356   -0.0303    0.0190
          49   -0.0062   -0.0672   -0.0567    0.0665   -0.0692   -0.0030   -0.0854   -0.0686
          50    0.0118   -0.0293   -0.0391    0.0099   -0.0263   -0.0254   -0.0359   -0.0324
          51   -0.0589   -0.0476    0.0060    0.0131   -0.0065   -0.0355   -0.0653   -0.0687
          52    0.0067   -0.0675    0.0623    0.0601    0.0688   -0.0012    0.0856    0.0691
          53    0.0586   -0.0293   -0.0217    0.0096   -0.0054   -0.0209    0.0437    0.0484
          54    0.0147   -0.0468    0.0335    0.0109    0.0267   -0.0372    0.0604    0.0589
          55   -0.0062   -0.0671   -0.0632   -0.0605    0.0690    0.0030   -0.0847    0.0701
          56    0.0118   -0.0293   -0.0399   -0.0059    0.0262    0.0254   -0.0355    0.0330
          57   -0.0589   -0.0476    0.0046   -0.0137    0.0063    0.0354   -0.0645    0.0698
          58    0.0066   -0.0670    0.0556   -0.0663   -0.0686    0.0011    0.0844   -0.0699
          59    0.0586   -0.0292   -0.0227   -0.0074    0.0055    0.0209    0.0430   -0.0489
          60    0.0146   -0.0466    0.0320   -0.0144   -0.0266    0.0372    0.0594   -0.0595


   Root No.       9        10        11        12        13        14        15        16

                 9 A      10 A      11 A      12 A      13 A      14 A      15 A      16 A   

                 525.8     723.6     786.5     804.6     809.5     813.5     824.3     826.6
  
           1    0.0412   -0.0089    0.0199    0.0113    0.0000    0.0003   -0.0001    0.0000
           2    0.0189   -0.0145   -0.0056   -0.0187   -0.0085   -0.0039   -0.0242   -0.0174
           3    0.0304   -0.0229   -0.0088   -0.0293    0.0067    0.0030    0.0148    0.0106
           4    0.0412    0.0089    0.0199    0.0113   -0.0003    0.0003   -0.0001    0.0001
           5    0.0194    0.0146   -0.0057   -0.0183    0.0089   -0.0042   -0.0238    0.0176
           6    0.0302    0.0229   -0.0089   -0.0292   -0.0058    0.0031    0.0149   -0.0109
           7   -0.0217   -0.0060   -0.0098    0.0080   -0.0198    0.0109   -0.0223    0.0013
           8   -0.0101   -0.0104   -0.0213   -0.0228   -0.0039    0.0039   -0.0085   -0.0044
           9   -0.0145    0.0063    0.0063    0.0246    0.0021    0.0135    0.0258    0.0290
          10   -0.0236   -0.0054   -0.0086    0.0075    0.0195   -0.0118    0.0228   -0.0012
          11   -0.0098    0.0103    0.0152    0.0316   -0.0051   -0.0112   -0.0263   -0.0277
          12   -0.0158   -0.0067   -0.0159   -0.0107    0.0032   -0.0097   -0.0032   -0.0084
          13   -0.0228    0.0060   -0.0098    0.0087    0.0199    0.0105   -0.0224   -0.0010
          14   -0.0098    0.0104   -0.0214   -0.0225    0.0046    0.0036   -0.0082    0.0044
          15   -0.0152   -0.0063    0.0065    0.0245   -0.0024    0.0138    0.0253   -0.0291
          16   -0.0223    0.0054   -0.0087    0.0068   -0.0201   -0.0113    0.0228    0.0010
          17   -0.0091   -0.0102    0.0153    0.0315    0.0039   -0.0113   -0.0262    0.0280
          18   -0.0157    0.0068   -0.0160   -0.0107   -0.0032   -0.0097   -0.0030    0.0084
          19    0.0064   -0.0120   -0.0139   -0.0025   -0.0207    0.0060   -0.0329   -0.0106
          20    0.0031   -0.0004   -0.0005    0.0064    0.0165    0.0113    0.0493    0.0373
          21    0.0051    0.0022    0.0036    0.0171   -0.0021    0.0079    0.0070    0.0107
          22    0.0073   -0.0115   -0.0130   -0.0029    0.0212   -0.0070    0.0334    0.0104
          23    0.0040    0.0023    0.0039    0.0126    0.0085   -0.0028    0.0150    0.0063
          24    0.0063    0.0004    0.0014    0.0126   -0.0145   -0.0143   -0.0471   -0.0382
          25    0.0071    0.0120   -0.0140   -0.0017    0.0209    0.0055   -0.0328    0.0109
          26    0.0037    0.0004   -0.0004    0.0060   -0.0164    0.0118    0.0488   -0.0377
          27    0.0059   -0.0022    0.0037    0.0172    0.0019    0.0079    0.0068   -0.0107
          28    0.0066    0.0113   -0.0128   -0.0037   -0.0212   -0.0063    0.0332   -0.0108
          29    0.0034   -0.0024    0.0040    0.0122   -0.0088   -0.0025    0.0147   -0.0064
          30    0.0053   -0.0005    0.0015    0.0129    0.0138   -0.0146   -0.0467    0.0386
          31    0.0966    0.0297    0.0688   -0.0033   -0.0005    0.0021   -0.0010    0.0004
          32    0.0078   -0.0218   -0.0169   -0.0153   -0.0320    0.0316   -0.0205    0.0070
          33    0.0112   -0.0332   -0.0235   -0.0257    0.0218   -0.0202    0.0129   -0.0050
          34    0.0965   -0.0296    0.0689   -0.0036    0.0009    0.0023   -0.0014   -0.0004
          35    0.0076    0.0217   -0.0170   -0.0140    0.0332    0.0307   -0.0204   -0.0068
          36    0.0115    0.0333   -0.0237   -0.0261   -0.0218   -0.0199    0.0133    0.0048
          37   -0.0992    0.0723    0.0465   -0.0537    0.0915   -0.0930    0.0430   -0.0552
          38   -0.0423    0.0327    0.0102   -0.0356    0.0243   -0.0530   -0.0272   -0.0672
          39   -0.0677    0.0699    0.0528   -0.0051    0.0618   -0.0704    0.0286   -0.0459
          40   -0.1030    0.0697    0.0393   -0.0492   -0.0916    0.0984   -0.0468    0.0551
          41   -0.0447    0.0480    0.0400    0.0128   -0.0473    0.0432   -0.0386    0.0134
          42   -0.0682    0.0573    0.0264   -0.0306   -0.0487    0.0818    0.0100    0.0805
          43   -0.1022   -0.0720    0.0468   -0.0572   -0.0924   -0.0909    0.0437    0.0544
          44   -0.0424   -0.0325    0.0101   -0.0366   -0.0247   -0.0527   -0.0262    0.0672
          45   -0.0692   -0.0698    0.0531   -0.0076   -0.0634   -0.0689    0.0290    0.0455
          46   -0.0999   -0.0696    0.0394   -0.0459    0.0958    0.0960   -0.0476   -0.0545
          47   -0.0435   -0.0481    0.0402    0.0142    0.0483    0.0422   -0.0390   -0.0129
          48   -0.0676   -0.0574    0.0266   -0.0288    0.0520    0.0807    0.0089   -0.0805
          49   -0.0073    0.0612    0.0756   -0.0757    0.0253   -0.0492   -0.0218   -0.0646
          50   -0.0026    0.0353    0.0458   -0.0150    0.0321   -0.0137    0.0463    0.0109
          51   -0.0053    0.0434    0.0449   -0.0694    0.0473   -0.0288    0.0443   -0.0168
          52   -0.0026    0.0602    0.0723   -0.0736   -0.0244    0.0596    0.0157    0.0650
          53   -0.0005    0.0230    0.0190   -0.0555   -0.0275    0.0249   -0.0236    0.0195
          54   -0.0007    0.0490    0.0578   -0.0419   -0.0490    0.0319   -0.0649   -0.0023
          55   -0.0043   -0.0607    0.0754   -0.0765   -0.0246   -0.0494   -0.0203    0.0645
          56   -0.0012   -0.0351    0.0458   -0.0161   -0.0320   -0.0131    0.0463   -0.0113
          57   -0.0023   -0.0431    0.0447   -0.0708   -0.0461   -0.0282    0.0452    0.0161
          58   -0.0057   -0.0599    0.0720   -0.0721    0.0279    0.0584    0.0158   -0.0649
          59   -0.0027   -0.0229    0.0188   -0.0542    0.0297    0.0238   -0.0232   -0.0193
          60   -0.0034   -0.0488    0.0575   -0.0399    0.0509    0.0301   -0.0643    0.0030


   Root No.      17        18        19        20        21        22        23        24

                17 A      18 A      19 A      20 A      21 A      22 A      23 A      24 A   

                 841.0     950.3     961.3     977.8     982.0    1000.6    1004.2    1022.7
  
           1   -0.0010   -0.0111   -0.0005   -0.0001    0.0001    0.0094   -0.0030    0.0000
           2    0.0179   -0.0050    0.0025    0.0037    0.0024   -0.0111   -0.0132    0.0065
           3    0.0282   -0.0079    0.0039   -0.0027   -0.0014   -0.0175   -0.0204   -0.0049
           4    0.0010    0.0111   -0.0005    0.0002    0.0000    0.0095    0.0029    0.0000
           5   -0.0180    0.0051    0.0024   -0.0036    0.0025   -0.0110    0.0133   -0.0065
           6   -0.0282    0.0080    0.0039    0.0026   -0.0016   -0.0173    0.0206    0.0049
           7   -0.0099   -0.0153   -0.0160    0.0062    0.0077   -0.0014    0.0111   -0.0149
           8    0.0220    0.0161   -0.0042   -0.0080   -0.0039    0.0143    0.0197   -0.0161
           9   -0.0211   -0.0151   -0.0120    0.0086    0.0075   -0.0010    0.0078   -0.0055
          10   -0.0100   -0.0151   -0.0156   -0.0062   -0.0084   -0.0015    0.0104    0.0156
          11   -0.0286   -0.0204   -0.0089   -0.0114   -0.0089   -0.0069   -0.0011   -0.0018
          12    0.0109    0.0081   -0.0088    0.0040   -0.0001    0.0123    0.0202    0.0179
          13    0.0098    0.0152   -0.0162   -0.0057    0.0078   -0.0014   -0.0110    0.0148
          14   -0.0221   -0.0161   -0.0041    0.0079   -0.0042    0.0142   -0.0198    0.0160
          15    0.0212    0.0151   -0.0122   -0.0082    0.0077   -0.0010   -0.0077    0.0055
          16    0.0103    0.0149   -0.0156    0.0060   -0.0086   -0.0016   -0.0104   -0.0155
          17    0.0287    0.0203   -0.0089    0.0112   -0.0093   -0.0069    0.0012    0.0017
          18   -0.0108   -0.0082   -0.0088   -0.0040    0.0001    0.0121   -0.0203   -0.0178
          19   -0.0020    0.0137    0.0130   -0.0167   -0.0168    0.0019   -0.0055    0.0152
          20   -0.0061    0.0025    0.0063   -0.0069   -0.0086   -0.0096   -0.0088    0.0064
          21   -0.0147    0.0065    0.0085   -0.0130   -0.0137    0.0021   -0.0028    0.0099
          22   -0.0020    0.0133    0.0122    0.0168    0.0174    0.0020   -0.0048   -0.0156
          23   -0.0107    0.0045    0.0046    0.0090    0.0090    0.0060    0.0014   -0.0062
          24   -0.0119    0.0047    0.0086    0.0117    0.0140   -0.0077   -0.0087   -0.0105
          25    0.0019   -0.0137    0.0133    0.0159   -0.0173    0.0019    0.0054   -0.0152
          26    0.0063   -0.0025    0.0064    0.0064   -0.0088   -0.0095    0.0089   -0.0063
          27    0.0148   -0.0065    0.0086    0.0124   -0.0141    0.0021    0.0027   -0.0099
          28    0.0022   -0.0132    0.0122   -0.0163    0.0180    0.0021    0.0049    0.0156
          29    0.0108   -0.0045    0.0045   -0.0087    0.0093    0.0060   -0.0015    0.0062
          30    0.0118   -0.0046    0.0086   -0.0112    0.0144   -0.0076    0.0088    0.0105
          31   -0.0469    0.0132    0.0554    0.0001    0.0012    0.0558    0.0624    0.0014
          32    0.0270   -0.0093   -0.0097    0.1222    0.1057   -0.0212   -0.0289    0.1325
          33    0.0419   -0.0139   -0.0128   -0.0781   -0.0675   -0.0304   -0.0366   -0.0855
          34    0.0464   -0.0126    0.0554   -0.0004    0.0014    0.0553   -0.0630   -0.0014
          35   -0.0274    0.0098   -0.0107   -0.1184    0.1102   -0.0208    0.0290   -0.1314
          36   -0.0416    0.0134   -0.0122    0.0757   -0.0705   -0.0302    0.0369    0.0848
          37    0.0171    0.0372    0.0795   -0.0228   -0.0251   -0.0711   -0.0916    0.0428
          38    0.0304    0.0700    0.0308   -0.0310   -0.0262    0.0807    0.0305    0.0012
          39   -0.0058    0.0507    0.0490   -0.0218   -0.0233    0.0413   -0.0121    0.0276
          40    0.0175    0.0371    0.0790    0.0217    0.0287   -0.0709   -0.0901   -0.0483
          41   -0.0181    0.0160    0.0309    0.0064    0.0115    0.0033   -0.0229   -0.0257
          42    0.0256    0.0846    0.0481    0.0390    0.0362    0.0904    0.0223   -0.0121
          43   -0.0167   -0.0368    0.0802    0.0209   -0.0257   -0.0704    0.0920   -0.0425
          44   -0.0303   -0.0700    0.0316    0.0299   -0.0270    0.0804   -0.0312   -0.0012
          45    0.0062   -0.0505    0.0496    0.0205   -0.0238    0.0413    0.0116   -0.0274
          46   -0.0191   -0.0359    0.0787   -0.0212    0.0291   -0.0702    0.0903    0.0479
          47    0.0173   -0.0155    0.0308   -0.0061    0.0116    0.0034    0.0228    0.0255
          48   -0.0266   -0.0838    0.0482   -0.0378    0.0378    0.0903   -0.0230    0.0121
          49    0.0798   -0.0811   -0.0678    0.0828    0.0827   -0.0196    0.0044   -0.0338
          50    0.0188   -0.0541   -0.0311    0.0454    0.0420   -0.0382   -0.0227   -0.0043
          51    0.0795   -0.0103   -0.0428    0.0290    0.0339    0.0512    0.0652   -0.0610
          52    0.0803   -0.0793   -0.0642   -0.0838   -0.0857   -0.0193    0.0033    0.0347
          53    0.0643    0.0148   -0.0240   -0.0050   -0.0133    0.0621    0.0661    0.0566
          54    0.0511   -0.0521   -0.0439   -0.0541   -0.0545   -0.0127    0.0062    0.0306
          55   -0.0802    0.0810   -0.0691   -0.0790    0.0851   -0.0195   -0.0040    0.0337
          56   -0.0187    0.0541   -0.0318   -0.0436    0.0433   -0.0380    0.0231    0.0044
          57   -0.0797    0.0101   -0.0433   -0.0271    0.0348    0.0508   -0.0655    0.0607
          58   -0.0813    0.0786   -0.0642    0.0815   -0.0893   -0.0195   -0.0033   -0.0350
          59   -0.0650   -0.0149   -0.0241    0.0050   -0.0135    0.0616   -0.0669   -0.0565
          60   -0.0521    0.0517   -0.0440    0.0527   -0.0568   -0.0129   -0.0062   -0.0308


   Root No.      25        26        27        28        29        30        31        32

                25 A      26 A      27 A      28 A      29 A      30 A      31 A      32 A   

                1025.1    1079.9    1088.2    1093.4    1095.8    1099.9    1105.6    1124.8
  
           1    0.0002    0.0000   -0.0036    0.0000   -0.0066   -0.0216   -0.0352   -0.0280
           2    0.0079    0.0013   -0.0017    0.0044   -0.0022   -0.0042   -0.0170   -0.0084
           3   -0.0052   -0.0007   -0.0032   -0.0027   -0.0034   -0.0067   -0.0267   -0.0132
           4    0.0002    0.0000   -0.0036    0.0000    0.0068   -0.0223    0.0345    0.0280
           5    0.0079   -0.0012   -0.0017    0.0044    0.0022   -0.0045    0.0168    0.0084
           6   -0.0052    0.0007   -0.0032   -0.0026    0.0035   -0.0072    0.0264    0.0132
           7   -0.0129   -0.0018    0.0023   -0.0005    0.0014    0.0065    0.0043    0.0011
           8   -0.0190   -0.0062   -0.0014   -0.0042   -0.0071    0.0168    0.0025    0.0255
           9   -0.0019    0.0089    0.0044    0.0105    0.0031    0.0023    0.0019   -0.0031
          10    0.0130    0.0018    0.0024    0.0004    0.0014    0.0066    0.0043    0.0011
          11   -0.0063   -0.0105    0.0034   -0.0117    0.0060   -0.0049    0.0006   -0.0136
          12    0.0182    0.0016    0.0005   -0.0005   -0.0052    0.0164    0.0031    0.0218
          13   -0.0130    0.0018    0.0023   -0.0005   -0.0015    0.0066   -0.0041   -0.0011
          14   -0.0191    0.0061   -0.0015   -0.0042    0.0069    0.0169   -0.0019   -0.0255
          15   -0.0019   -0.0089    0.0044    0.0105   -0.0031    0.0023   -0.0019    0.0030
          16    0.0130   -0.0018    0.0024    0.0003   -0.0015    0.0067   -0.0041   -0.0011
          17   -0.0063    0.0105    0.0034   -0.0118   -0.0060   -0.0049   -0.0008    0.0136
          18    0.0182   -0.0016    0.0005   -0.0005    0.0051    0.0165   -0.0025   -0.0219
          19    0.0130   -0.0012   -0.0023   -0.0029   -0.0007   -0.0047   -0.0004   -0.0077
          20    0.0057    0.0017   -0.0016    0.0006   -0.0035    0.0116   -0.0025    0.0219
          21    0.0078   -0.0007    0.0026   -0.0003    0.0031   -0.0053   -0.0020   -0.0060
          22   -0.0130    0.0012   -0.0021    0.0030   -0.0008   -0.0048   -0.0004   -0.0077
          23   -0.0045    0.0014    0.0030    0.0001    0.0042   -0.0098   -0.0007   -0.0147
          24   -0.0087   -0.0013   -0.0004   -0.0002   -0.0019    0.0082   -0.0031    0.0173
          25    0.0131    0.0012   -0.0023   -0.0029    0.0007   -0.0047    0.0002    0.0077
          26    0.0058   -0.0017   -0.0016    0.0006    0.0034    0.0115    0.0029   -0.0219
          27    0.0078    0.0007    0.0026   -0.0003   -0.0030   -0.0054    0.0018    0.0060
          28   -0.0132   -0.0012   -0.0021    0.0030    0.0008   -0.0048    0.0002    0.0078
          29   -0.0045   -0.0014    0.0030    0.0001   -0.0041   -0.0098    0.0004    0.0147
          30   -0.0088    0.0012   -0.0004   -0.0002    0.0018    0.0081    0.0034   -0.0173
          31   -0.0007   -0.0002    0.0399   -0.0005   -0.0489    0.1856   -0.2509    0.0390
          32    0.1400   -0.0325   -0.0134   -0.0531    0.0060   -0.0435    0.0250   -0.0203
          33   -0.0887    0.0208   -0.0151    0.0341    0.0089   -0.0716    0.0403   -0.0325
          34   -0.0008   -0.0001    0.0394   -0.0005    0.0476    0.1801    0.2573   -0.0396
          35    0.1406    0.0325   -0.0133   -0.0532   -0.0058   -0.0429   -0.0264    0.0205
          36   -0.0890   -0.0206   -0.0150    0.0342   -0.0084   -0.0707   -0.0428    0.0326
          37    0.0342   -0.0691    0.0411   -0.0699    0.0486    0.0028   -0.0444    0.0563
          38    0.0019    0.0665   -0.0613    0.0550   -0.0604   -0.0233    0.0243   -0.0598
          39    0.0314    0.0584   -0.0401    0.0467   -0.0327   -0.0379    0.0081   -0.0698
          40   -0.0366    0.0705    0.0480    0.0656    0.0469    0.0008   -0.0438    0.0560
          41   -0.0276   -0.0246   -0.0122   -0.0182   -0.0033   -0.0243   -0.0032   -0.0378
          42   -0.0136   -0.0870   -0.0793   -0.0628   -0.0665   -0.0357    0.0243   -0.0839
          43    0.0345    0.0689    0.0410   -0.0701   -0.0486    0.0012    0.0447   -0.0563
          44    0.0019   -0.0664   -0.0613    0.0552    0.0606   -0.0220   -0.0252    0.0599
          45    0.0316   -0.0582   -0.0400    0.0468    0.0330   -0.0373   -0.0095    0.0699
          46   -0.0365   -0.0705    0.0481    0.0659   -0.0468   -0.0009    0.0440   -0.0563
          47   -0.0277    0.0245   -0.0122   -0.0182    0.0035   -0.0242    0.0024    0.0379
          48   -0.0138    0.0867   -0.0793   -0.0630    0.0666   -0.0340   -0.0256    0.0840
          49   -0.0192    0.0357   -0.0428    0.0420   -0.0449    0.0156    0.0138    0.0017
          50    0.0086    0.0509   -0.0575    0.0567   -0.0628    0.0378    0.0160    0.0375
          51   -0.0714   -0.0811    0.0992   -0.0862    0.1014   -0.0451   -0.0324   -0.0312
          52    0.0198   -0.0366   -0.0466   -0.0371   -0.0438    0.0162    0.0135    0.0016
          53    0.0696    0.0981    0.1248    0.0892    0.1166   -0.0584   -0.0356   -0.0444
          54    0.0229   -0.0118   -0.0110   -0.0132   -0.0132    0.0153    0.0005    0.0207
          55   -0.0194   -0.0357   -0.0428    0.0421    0.0448    0.0163   -0.0134   -0.0017
          56    0.0087   -0.0508   -0.0575    0.0567    0.0625    0.0387   -0.0149   -0.0376
          57   -0.0720    0.0809    0.0993   -0.0862   -0.1010   -0.0467    0.0313    0.0313
          58    0.0202    0.0366   -0.0467   -0.0373    0.0436    0.0172   -0.0131   -0.0017
          59    0.0701   -0.0977    0.1249    0.0896   -0.1158   -0.0605    0.0340    0.0443
          60    0.0233    0.0118   -0.0111   -0.0133    0.0131    0.0155    0.0000   -0.0208


   Root No.      33        34        35        36        37        38        39        40

                33 A      34 A      35 A      36 A      37 A      38 A      39 A      40 A   

                1199.2    1212.3    1253.9    1300.7    1343.1    1390.0    1411.3    1431.6
  
           1    0.0000    0.0000    0.0510    0.0001   -0.0001   -0.0597   -0.0122   -0.0630
           2    0.0246    0.0154   -0.0226    0.0499    0.0763    0.0126    0.0069    0.0179
           3   -0.0156   -0.0098   -0.0355   -0.0317   -0.0484    0.0199    0.0109    0.0283
           4    0.0000    0.0000    0.0509    0.0001    0.0001    0.0598   -0.0121    0.0630
           5    0.0246   -0.0154   -0.0226    0.0500   -0.0763   -0.0126    0.0069   -0.0179
           6   -0.0156    0.0098   -0.0355   -0.0318    0.0484   -0.0199    0.0108   -0.0283
           7   -0.0029   -0.0075   -0.0123    0.0167    0.0124   -0.0047    0.0147    0.0146
           8    0.0015    0.0097    0.0312   -0.0394   -0.0427    0.0039   -0.0233   -0.0252
           9    0.0086    0.0066   -0.0118    0.0066    0.0080    0.0092   -0.0057   -0.0013
          10    0.0029    0.0075   -0.0123   -0.0167   -0.0124   -0.0046    0.0147    0.0146
          11   -0.0071   -0.0018   -0.0239   -0.0228   -0.0254    0.0067    0.0048    0.0095
          12   -0.0051   -0.0116    0.0231    0.0329    0.0352    0.0074   -0.0235   -0.0234
          13   -0.0029    0.0075   -0.0123    0.0167   -0.0124    0.0046    0.0147   -0.0146
          14    0.0015   -0.0097    0.0312   -0.0395    0.0427   -0.0038   -0.0233    0.0252
          15    0.0086   -0.0066   -0.0118    0.0066   -0.0080   -0.0092   -0.0057    0.0013
          16    0.0029   -0.0076   -0.0123   -0.0167    0.0124    0.0046    0.0147   -0.0146
          17   -0.0071    0.0018   -0.0239   -0.0228    0.0254   -0.0068    0.0048   -0.0095
          18   -0.0051    0.0116    0.0231    0.0329   -0.0352   -0.0073   -0.0235    0.0234
          19   -0.0041   -0.0040   -0.0120    0.0014   -0.0013    0.0075   -0.0013    0.0033
          20   -0.0062   -0.0084    0.0334    0.0127    0.0119   -0.0527    0.0494    0.0258
          21    0.0078    0.0103   -0.0027   -0.0119   -0.0059    0.0217   -0.0297   -0.0220
          22    0.0041    0.0040   -0.0119   -0.0014    0.0013    0.0076   -0.0013    0.0033
          23   -0.0097   -0.0129   -0.0167    0.0161    0.0105    0.0420   -0.0479   -0.0309
          24    0.0023    0.0032    0.0291   -0.0063   -0.0083   -0.0385    0.0321    0.0140
          25   -0.0041    0.0040   -0.0120    0.0014    0.0013   -0.0075   -0.0013   -0.0033
          26   -0.0062    0.0084    0.0334    0.0127   -0.0119    0.0527    0.0494   -0.0258
          27    0.0078   -0.0103   -0.0027   -0.0119    0.0059   -0.0217   -0.0297    0.0220
          28    0.0041   -0.0040   -0.0119   -0.0014   -0.0013   -0.0076   -0.0013   -0.0033
          29   -0.0097    0.0129   -0.0167    0.0162   -0.0105   -0.0420   -0.0479    0.0309
          30    0.0023   -0.0032    0.0291   -0.0063    0.0083    0.0384    0.0321   -0.0140
          31   -0.0002   -0.0001   -0.0893   -0.0003    0.0000    0.0700    0.0041    0.0635
          32   -0.0566   -0.0458    0.0048   -0.0451   -0.0857   -0.0111    0.0034   -0.0059
          33    0.0361    0.0291    0.0079    0.0287    0.0544   -0.0177    0.0053   -0.0095
          34   -0.0002    0.0001   -0.0894   -0.0003    0.0000   -0.0701    0.0040   -0.0636
          35   -0.0566    0.0458    0.0048   -0.0451    0.0856    0.0111    0.0034    0.0059
          36    0.0361   -0.0291    0.0079    0.0287   -0.0544    0.0177    0.0053    0.0095
          37    0.0674    0.0550    0.0461   -0.0274   -0.0042    0.0204   -0.0486   -0.0506
          38   -0.0810   -0.0630   -0.0137   -0.0005   -0.0251   -0.0351    0.0467    0.0371
          39   -0.0488   -0.0437   -0.0416    0.0303    0.0198   -0.0165    0.0405    0.0393
          40   -0.0675   -0.0550    0.0459    0.0275    0.0040    0.0204   -0.0485   -0.0506
          41    0.0099    0.0128   -0.0317   -0.0278   -0.0286    0.0001    0.0169    0.0199
          42    0.0941    0.0756   -0.0300   -0.0126    0.0141   -0.0387    0.0594    0.0503
          43    0.0674   -0.0550    0.0461   -0.0275    0.0042   -0.0204   -0.0486    0.0507
          44   -0.0810    0.0630   -0.0138   -0.0005    0.0250    0.0351    0.0467   -0.0372
          45   -0.0488    0.0437   -0.0416    0.0304   -0.0198    0.0164    0.0405   -0.0394
          46   -0.0676    0.0551    0.0459    0.0275   -0.0041   -0.0203   -0.0485    0.0507
          47    0.0098   -0.0128   -0.0317   -0.0278    0.0286   -0.0001    0.0169   -0.0199
          48    0.0941   -0.0756   -0.0299   -0.0125   -0.0141    0.0387    0.0594   -0.0504
          49    0.0241    0.0338   -0.0154   -0.0356   -0.0265    0.0402   -0.0414   -0.0237
          50    0.0307    0.0422    0.0340   -0.0386   -0.0225   -0.0134   -0.0015   -0.0101
          51   -0.0530   -0.0741    0.0041    0.0756    0.0530   -0.0547    0.0601    0.0365
          52   -0.0239   -0.0335   -0.0156    0.0352    0.0263    0.0401   -0.0413   -0.0236
          53    0.0608    0.0848   -0.0103   -0.0846   -0.0575   -0.0435    0.0550    0.0373
          54   -0.0052   -0.0065    0.0324    0.0027   -0.0023   -0.0355    0.0243    0.0064
          55    0.0241   -0.0338   -0.0154   -0.0356    0.0264   -0.0402   -0.0415    0.0237
          56    0.0306   -0.0422    0.0340   -0.0386    0.0225    0.0134   -0.0015    0.0101
          57   -0.0529    0.0741    0.0041    0.0756   -0.0529    0.0546    0.0601   -0.0365
          58   -0.0239    0.0336   -0.0156    0.0353   -0.0263   -0.0400   -0.0413    0.0236
          59    0.0608   -0.0847   -0.0103   -0.0847    0.0575    0.0435    0.0550   -0.0373
          60   -0.0052    0.0066    0.0325    0.0027    0.0023    0.0354    0.0243   -0.0065


   Root No.      41        42        43        44        45        46        47        48

                41 A      42 A      43 A      44 A      45 A      46 A      47 A      48 A   

                1731.8    1732.8    1789.1    1790.1    2891.3    2900.0    3129.6    3130.3
  
           1    0.0070    0.0046    0.0000    0.0000    0.0116   -0.0125    0.0000    0.0000
           2   -0.0036   -0.0028    0.0024    0.0016    0.0185   -0.0188    0.0001    0.0001
           3   -0.0056   -0.0045   -0.0015   -0.0010    0.0292   -0.0296   -0.0001    0.0000
           4    0.0071   -0.0045    0.0000    0.0000   -0.0116   -0.0125    0.0000    0.0000
           5   -0.0037    0.0028   -0.0024    0.0016   -0.0186   -0.0187    0.0001   -0.0001
           6   -0.0057    0.0043    0.0015   -0.0010   -0.0293   -0.0295   -0.0001    0.0000
           7   -0.0434   -0.0444   -0.0392    0.0403   -0.0003    0.0001    0.0020    0.0021
           8    0.0100    0.0100    0.0132   -0.0145    0.0006   -0.0005    0.0063    0.0068
           9    0.0550    0.0568    0.0474   -0.0485    0.0001   -0.0001   -0.0068   -0.0071
          10   -0.0434   -0.0444    0.0392   -0.0404   -0.0003    0.0001   -0.0019   -0.0015
          11    0.0456    0.0471   -0.0374    0.0377   -0.0001    0.0001    0.0084    0.0070
          12    0.0324    0.0331   -0.0321    0.0337    0.0006   -0.0005   -0.0027   -0.0023
          13   -0.0443    0.0435    0.0397    0.0397    0.0003    0.0001    0.0021   -0.0021
          14    0.0102   -0.0098   -0.0134   -0.0143   -0.0006   -0.0005    0.0066   -0.0067
          15    0.0563   -0.0556   -0.0481   -0.0477   -0.0001   -0.0001   -0.0070    0.0071
          16   -0.0443    0.0435   -0.0398   -0.0398    0.0003    0.0001   -0.0020    0.0015
          17    0.0466   -0.0461    0.0379    0.0372    0.0001    0.0001    0.0085   -0.0067
          18    0.0331   -0.0324    0.0326    0.0332   -0.0006   -0.0005   -0.0027    0.0022
          19    0.0378    0.0390    0.0401   -0.0409    0.0003   -0.0003    0.0055    0.0065
          20   -0.0008   -0.0009   -0.0058    0.0061    0.0000    0.0000   -0.0084   -0.0098
          21   -0.0539   -0.0555   -0.0536    0.0547   -0.0002    0.0002   -0.0025   -0.0030
          22    0.0378    0.0390   -0.0401    0.0409    0.0003   -0.0003   -0.0053   -0.0053
          23   -0.0484   -0.0498    0.0461   -0.0470   -0.0002    0.0002   -0.0012   -0.0011
          24   -0.0236   -0.0243    0.0281   -0.0288   -0.0001    0.0001    0.0083    0.0084
          25    0.0387   -0.0382   -0.0406   -0.0403   -0.0003   -0.0003    0.0056   -0.0064
          26   -0.0008    0.0009    0.0059    0.0060    0.0000    0.0000   -0.0086    0.0097
          27   -0.0550    0.0543    0.0544    0.0539    0.0002    0.0002   -0.0026    0.0030
          28    0.0386   -0.0381    0.0407    0.0403   -0.0003   -0.0003   -0.0053    0.0051
          29   -0.0494    0.0487   -0.0468   -0.0463    0.0002    0.0002   -0.0012    0.0011
          30   -0.0241    0.0238   -0.0285   -0.0284    0.0001    0.0001    0.0084   -0.0080
          31   -0.0036   -0.0018    0.0000    0.0000   -0.1511    0.1564    0.0000    0.0000
          32    0.0003    0.0005   -0.0147    0.0141   -0.2272    0.2273    0.0004    0.0004
          33    0.0004    0.0008    0.0094   -0.0090   -0.3579    0.3580   -0.0003   -0.0002
          34   -0.0036    0.0017    0.0000    0.0000    0.1518    0.1557    0.0000    0.0000
          35    0.0002   -0.0005    0.0149    0.0139    0.2282    0.2263    0.0004   -0.0004
          36    0.0004   -0.0008   -0.0095   -0.0088    0.3595    0.3564   -0.0003    0.0002
          37    0.0007    0.0000    0.0006    0.0001   -0.0006    0.0005   -0.0230   -0.0246
          38   -0.0484   -0.0500   -0.0401    0.0402   -0.0010    0.0010   -0.0754   -0.0802
          39    0.0304    0.0316    0.0246   -0.0251    0.0023   -0.0023    0.0795    0.0846
          40    0.0009    0.0001   -0.0007    0.0000   -0.0006    0.0004    0.0219    0.0184
          41    0.0482    0.0498   -0.0395    0.0399    0.0025   -0.0025   -0.0992   -0.0832
          42   -0.0309   -0.0318    0.0258   -0.0256    0.0000   -0.0001    0.0328    0.0276
          43    0.0007    0.0000   -0.0006    0.0001    0.0006    0.0005   -0.0239    0.0245
          44   -0.0495    0.0489    0.0407    0.0396    0.0010    0.0010   -0.0782    0.0799
          45    0.0311   -0.0309   -0.0250   -0.0247   -0.0023   -0.0023    0.0825   -0.0842
          46    0.0008    0.0000    0.0007   -0.0001    0.0006    0.0004    0.0221   -0.0176
          47    0.0492   -0.0488    0.0400    0.0393   -0.0025   -0.0025   -0.1002    0.0795
          48   -0.0316    0.0311   -0.0262   -0.0253    0.0000   -0.0001    0.0332   -0.0264
          49    0.0258    0.0265    0.0139   -0.0144    0.0018   -0.0017   -0.0642   -0.0751
          50   -0.0369   -0.0382   -0.0571    0.0582   -0.0018    0.0018    0.0975    0.1142
          51   -0.0134   -0.0139    0.0155   -0.0152   -0.0005    0.0005    0.0300    0.0351
          52    0.0258    0.0265   -0.0140    0.0145    0.0018   -0.0017    0.0617    0.0618
          53    0.0035    0.0035   -0.0383    0.0385    0.0003   -0.0003    0.0137    0.0137
          54   -0.0390   -0.0404    0.0451   -0.0461   -0.0018    0.0019   -0.0970   -0.0971
          55    0.0263   -0.0259   -0.0141   -0.0141   -0.0018   -0.0017   -0.0662    0.0743
          56   -0.0377    0.0374    0.0579    0.0573    0.0018    0.0018    0.1007   -0.1129
          57   -0.0137    0.0136   -0.0157   -0.0150    0.0005    0.0005    0.0309   -0.0347
          58    0.0263   -0.0259    0.0142    0.0142   -0.0018   -0.0017    0.0622   -0.0591
          59    0.0035   -0.0034    0.0388    0.0379   -0.0003   -0.0003    0.0138   -0.0130
          60   -0.0399    0.0396   -0.0458   -0.0455    0.0018    0.0018   -0.0979    0.0930


   Root No.      49        50        51        52        53        54

                49 A      50 A      51 A      52 A      53 A      54 A   

                3130.9    3132.0    3142.4    3143.4    3153.1    3153.6
  
           1    0.0001   -0.0001    0.0000    0.0000    0.0003    0.0002
           2    0.0000    0.0001    0.0000    0.0000   -0.0003   -0.0003
           3   -0.0001    0.0001    0.0000    0.0000   -0.0005   -0.0004
           4   -0.0001   -0.0001    0.0000    0.0000   -0.0003    0.0002
           5    0.0000    0.0000    0.0000    0.0000    0.0003   -0.0003
           6    0.0001    0.0001    0.0000    0.0000    0.0005   -0.0004
           7   -0.0020    0.0020   -0.0030   -0.0032    0.0029    0.0030
           8   -0.0063    0.0067   -0.0064   -0.0069    0.0061    0.0064
           9    0.0067   -0.0070    0.0082    0.0088   -0.0079   -0.0082
          10   -0.0024    0.0021    0.0030    0.0032    0.0029    0.0030
          11    0.0106   -0.0095   -0.0101   -0.0109   -0.0099   -0.0103
          12   -0.0035    0.0031    0.0023    0.0025    0.0022    0.0023
          13    0.0020    0.0020   -0.0031    0.0031   -0.0029    0.0030
          14    0.0064    0.0065   -0.0065    0.0068   -0.0061    0.0064
          15   -0.0068   -0.0068    0.0084   -0.0087    0.0079   -0.0082
          16    0.0025    0.0021    0.0030   -0.0031   -0.0029    0.0030
          17   -0.0109   -0.0095   -0.0103    0.0107    0.0099   -0.0103
          18    0.0035    0.0031    0.0023   -0.0025   -0.0022    0.0023
          19   -0.0040    0.0049    0.0059    0.0057   -0.0066   -0.0063
          20    0.0062   -0.0076   -0.0077   -0.0073    0.0091    0.0088
          21    0.0018   -0.0022   -0.0036   -0.0035    0.0036    0.0035
          22   -0.0054    0.0052   -0.0058   -0.0055   -0.0066   -0.0064
          23   -0.0014    0.0013    0.0000    0.0001   -0.0006   -0.0005
          24    0.0087   -0.0083    0.0083    0.0079    0.0099    0.0095
          25    0.0040    0.0048    0.0060   -0.0056    0.0066   -0.0063
          26   -0.0062   -0.0074   -0.0078    0.0072   -0.0091    0.0087
          27   -0.0018   -0.0022   -0.0036    0.0034   -0.0036    0.0035
          28    0.0056    0.0052   -0.0059    0.0054    0.0067   -0.0064
          29    0.0014    0.0013    0.0000   -0.0001    0.0006   -0.0005
          30   -0.0088   -0.0083    0.0084   -0.0077   -0.0099    0.0095
          31   -0.0001    0.0001    0.0000    0.0000    0.0007    0.0007
          32   -0.0002    0.0001   -0.0004   -0.0004    0.0010    0.0010
          33   -0.0003    0.0002    0.0003    0.0002    0.0016    0.0016
          34    0.0001    0.0001    0.0000    0.0000   -0.0007    0.0007
          35    0.0002    0.0001   -0.0004    0.0004   -0.0010    0.0010
          36    0.0004    0.0002    0.0002   -0.0002   -0.0016    0.0016
          37    0.0229   -0.0243    0.0247    0.0268   -0.0218   -0.0232
          38    0.0744   -0.0785    0.0790    0.0855   -0.0696   -0.0736
          39   -0.0787    0.0831   -0.0840   -0.0909    0.0741    0.0784
          40    0.0277   -0.0249   -0.0245   -0.0267   -0.0221   -0.0234
          41   -0.1248    0.1121    0.1095    0.1185    0.0984    0.1036
          42    0.0411   -0.0369   -0.0357   -0.0386   -0.0320   -0.0337
          43   -0.0230   -0.0236    0.0251   -0.0263    0.0218   -0.0231
          44   -0.0748   -0.0763    0.0804   -0.0840    0.0694   -0.0732
          45    0.0791    0.0807   -0.0855    0.0894   -0.0740    0.0780
          46   -0.0283   -0.0249   -0.0249    0.0261    0.0222   -0.0234
          47    0.1277    0.1118    0.1109   -0.1160   -0.0985    0.1035
          48   -0.0421   -0.0368   -0.0362    0.0378    0.0321   -0.0337
          49    0.0478   -0.0585   -0.0586   -0.0558    0.0642    0.0613
          50   -0.0734    0.0897    0.0885    0.0842   -0.0978   -0.0934
          51   -0.0219    0.0268    0.0277    0.0264   -0.0298   -0.0285
          52    0.0647   -0.0617    0.0576    0.0543    0.0648    0.0619
          53    0.0152   -0.0145    0.0123    0.0115    0.0147    0.0140
          54   -0.1024    0.0976   -0.0901   -0.0850   -0.1021   -0.0974
          55   -0.0479   -0.0566   -0.0599    0.0550   -0.0642    0.0613
          56    0.0735    0.0869    0.0905   -0.0830    0.0978   -0.0933
          57    0.0219    0.0260    0.0284   -0.0260    0.0298   -0.0285
          58   -0.0661   -0.0615    0.0586   -0.0534   -0.0651    0.0620
          59   -0.0155   -0.0145    0.0125   -0.0113   -0.0148    0.0140
          60    0.1045    0.0973   -0.0918    0.0837    0.1026   -0.0977


           MASS-WEIGHTED COORDINATE ANALYSIS (NORMAL COORDINATES)


   Root No.       1         2         3         4         5         6         7         8

                 1 A       2 A       3 A       4 A       5 A       6 A       7 A       8 A   

                  69.5     129.4     192.0     194.0     367.4     412.9     503.5     519.9
  
           1   -0.0012    0.2736    0.0019   -0.0060   -0.0002    0.0820   -0.0033   -0.0063
           2   -0.1919    0.1208    0.1537   -0.1424    0.2587   -0.0090   -0.0283   -0.0911
           3    0.1207    0.1950   -0.1106   -0.2067   -0.1632   -0.0175    0.0142    0.0505
           4   -0.0012    0.2735    0.0026    0.0065    0.0006   -0.0818   -0.0031   -0.0056
           5   -0.1917    0.1206    0.1677    0.1264   -0.2585    0.0091   -0.0265    0.0857
           6    0.1209    0.1941   -0.0887    0.2174    0.1635    0.0178    0.0134   -0.0595
           7   -0.0425    0.1254   -0.3115    0.0020   -0.1467    0.3619    0.1887    0.2265
           8   -0.2109    0.0528    0.0125   -0.1453    0.2529    0.0624    0.0589   -0.0489
           9   -0.2285    0.0863   -0.0799   -0.2415   -0.0140    0.0059    0.1223    0.1194
          10    0.0406    0.1216    0.3109   -0.0295    0.1420    0.3631   -0.1860   -0.2222
          11    0.1158    0.0555    0.0612   -0.1633    0.1202   -0.0205   -0.0836   -0.1257
          12    0.2867    0.0876   -0.0009   -0.2359   -0.2235    0.0561   -0.1041   -0.0041
          13   -0.0424    0.1253   -0.3101    0.0307    0.1472   -0.3623    0.1854   -0.2220
          14   -0.2107    0.0525    0.0274    0.1437   -0.2527   -0.0626    0.0601    0.0511
          15   -0.2281    0.0856   -0.0546    0.2491    0.0143   -0.0063    0.1205   -0.1164
          16    0.0408    0.1214    0.3125   -0.0025   -0.1421   -0.3630   -0.1826    0.2311
          17    0.1160    0.0550    0.0778    0.1561   -0.1203    0.0205   -0.0818    0.1296
          18    0.2869    0.0865    0.0235    0.2345    0.2235   -0.0560   -0.1043    0.0099
          19   -0.0266   -0.2545   -0.2151    0.3107   -0.2283    0.0964   -0.2141   -0.1537
          20    0.0423   -0.1109   -0.1483   -0.0098   -0.0006   -0.1119   -0.0869   -0.1216
          21   -0.2530   -0.1775    0.0228   -0.0320   -0.0287   -0.1877   -0.1686   -0.1685
          22    0.0303   -0.2565    0.2432    0.2861    0.2270    0.1010    0.2139    0.1519
          23    0.2485   -0.1094   -0.0871   -0.0169    0.0274   -0.1210    0.1159    0.1007
          24    0.0714   -0.1766    0.1197   -0.0357    0.0152   -0.1801    0.1505    0.1812
          25   -0.0269   -0.2539   -0.2458   -0.2877    0.2277   -0.0963   -0.2122    0.1546
          26    0.0423   -0.1110   -0.1464    0.0246    0.0004    0.1119   -0.0852    0.1217
          27   -0.2530   -0.1777    0.0261    0.0292    0.0283    0.1876   -0.1664    0.1692
          28    0.0299   -0.2554    0.2123   -0.3106   -0.2272   -0.1007    0.2127   -0.1577
          29    0.2484   -0.1093   -0.0850    0.0251   -0.0274    0.1212    0.1147   -0.1035
          30    0.0713   -0.1766    0.1226    0.0225   -0.0153    0.1803    0.1482   -0.1854
          31   -0.0003    0.0991    0.0048    0.0767   -0.0001   -0.0122   -0.0022   -0.0037
          32   -0.1215    0.0296    0.0251   -0.0545    0.1391    0.0046    0.0632    0.0166
          33    0.0768    0.0483   -0.0214   -0.0824   -0.0880    0.0050   -0.0406   -0.0117
          34   -0.0004    0.0994   -0.0031   -0.0764    0.0003    0.0123   -0.0023   -0.0043
          35   -0.1215    0.0296    0.0305    0.0519   -0.1390   -0.0047    0.0632   -0.0181
          36    0.0769    0.0479   -0.0127    0.0841    0.0880   -0.0049   -0.0405    0.0113
          37   -0.0265    0.0789   -0.1717   -0.0422   -0.1031    0.2008    0.1363    0.1812
          38   -0.1169    0.0334    0.0068   -0.0652    0.1004    0.0511    0.0481    0.0092
          39   -0.1227    0.0546   -0.0439   -0.1043    0.0040    0.0609    0.0884    0.0903
          40    0.0244    0.0768    0.1660   -0.0588    0.0993    0.2009   -0.1324   -0.1733
          41    0.0603    0.0351    0.0351   -0.0703    0.0379    0.0331   -0.0576   -0.0738
          42    0.1567    0.0551    0.0015   -0.1041   -0.0945    0.0704   -0.0786   -0.0415
          43   -0.0263    0.0787   -0.1664    0.0601    0.1034   -0.2011    0.1334   -0.1741
          44   -0.1168    0.0334    0.0135    0.0645   -0.1003   -0.0512    0.0481   -0.0062
          45   -0.1226    0.0544   -0.0330    0.1087   -0.0038   -0.0611    0.0870   -0.0854
          46    0.0248    0.0768    0.1715    0.0418   -0.0996   -0.2012   -0.1305    0.1842
          47    0.0605    0.0351    0.0423    0.0664   -0.0380   -0.0333   -0.0569    0.0786
          48    0.1570    0.0548    0.0124    0.1035    0.0943   -0.0707   -0.0787    0.0487
          49   -0.0144   -0.1451   -0.1237    0.1452   -0.1654   -0.0060   -0.2217   -0.1756
          50    0.0276   -0.0634   -0.0853    0.0217   -0.0629   -0.0505   -0.0932   -0.0828
          51   -0.1372   -0.1028    0.0131    0.0286   -0.0155   -0.0705   -0.1697   -0.1757
          52    0.0157   -0.1459    0.1359    0.1311    0.1646   -0.0024    0.2224    0.1768
          53    0.1365   -0.0634   -0.0473    0.0209   -0.0129   -0.0416    0.1136    0.1239
          54    0.0341   -0.1012    0.0731    0.0238    0.0639   -0.0740    0.1570    0.1507
          55   -0.0145   -0.1449   -0.1379   -0.1321    0.1650    0.0059   -0.2200    0.1794
          56    0.0276   -0.0634   -0.0870   -0.0130    0.0628    0.0505   -0.0923    0.0844
          57   -0.1372   -0.1027    0.0101   -0.0300    0.0152    0.0704   -0.1676    0.1785
          58    0.0153   -0.1448    0.1212   -0.1446   -0.1642    0.0022    0.2194   -0.1789
          59    0.1363   -0.0631   -0.0494   -0.0162    0.0130    0.0415    0.1116   -0.1250
          60    0.0339   -0.1006    0.0699   -0.0314   -0.0636    0.0739    0.1543   -0.1522


   Root No.       9        10        11        12        13        14        15        16

                 9 A      10 A      11 A      12 A      13 A      14 A      15 A      16 A   

                 525.8     723.6     786.5     804.6     809.5     813.5     824.3     826.6
  
           1    0.3165   -0.0924    0.2024    0.0964    0.0000    0.0034   -0.0008   -0.0002
           2    0.1456   -0.1514   -0.0570   -0.1600   -0.0814   -0.0391   -0.1579   -0.1398
           3    0.2337   -0.2387   -0.0893   -0.2508    0.0646    0.0308    0.0967    0.0852
           4    0.3167    0.0923    0.2021    0.0967   -0.0026    0.0035   -0.0008    0.0006
           5    0.1494    0.1518   -0.0583   -0.1565    0.0853   -0.0428   -0.1554    0.1408
           6    0.2319    0.2389   -0.0906   -0.2504   -0.0560    0.0313    0.0974   -0.0870
           7   -0.1666   -0.0629   -0.0995    0.0689   -0.1907    0.1105   -0.1454    0.0101
           8   -0.0778   -0.1086   -0.2162   -0.1950   -0.0376    0.0393   -0.0552   -0.0356
           9   -0.1118    0.0653    0.0644    0.2109    0.0198    0.1374    0.1684    0.2325
          10   -0.1813   -0.0558   -0.0874    0.0644    0.1873   -0.1195    0.1489   -0.0094
          11   -0.0751    0.1070    0.1547    0.2706   -0.0490   -0.1140   -0.1717   -0.2219
          12   -0.1214   -0.0698   -0.1614   -0.0912    0.0303   -0.0980   -0.0209   -0.0675
          13   -0.1750    0.0624   -0.0995    0.0745    0.1910    0.1060   -0.1460   -0.0081
          14   -0.0755    0.1087   -0.2173   -0.1925    0.0443    0.0369   -0.0536    0.0356
          15   -0.1165   -0.0660    0.0656    0.2096   -0.0227    0.1397    0.1648   -0.2332
          16   -0.1718    0.0567   -0.0880    0.0586   -0.1934   -0.1149    0.1489    0.0080
          17   -0.0701   -0.1068    0.1551    0.2700    0.0375   -0.1146   -0.1706    0.2245
          18   -0.1208    0.0707   -0.1625   -0.0913   -0.0309   -0.0985   -0.0193    0.0674
          19    0.0489   -0.1248   -0.1414   -0.0213   -0.1992    0.0610   -0.2144   -0.0849
          20    0.0242   -0.0038   -0.0048    0.0552    0.1590    0.1143    0.3216    0.2990
          21    0.0394    0.0226    0.0370    0.1468   -0.0206    0.0797    0.0459    0.0857
          22    0.0564   -0.1195   -0.1319   -0.0248    0.2040   -0.0709    0.2180    0.0833
          23    0.0304    0.0240    0.0399    0.1076    0.0814   -0.0286    0.0975    0.0503
          24    0.0481    0.0042    0.0144    0.1077   -0.1394   -0.1447   -0.3070   -0.3063
          25    0.0549    0.1249   -0.1423   -0.0149    0.2011    0.0557   -0.2135    0.0872
          26    0.0288    0.0037   -0.0044    0.0510   -0.1578    0.1195    0.3181   -0.3018
          27    0.0457   -0.0227    0.0373    0.1471    0.0181    0.0802    0.0442   -0.0855
          28    0.0505    0.1180   -0.1306   -0.0313   -0.2040   -0.0641    0.2164   -0.0865
          29    0.0262   -0.0248    0.0409    0.1044   -0.0849   -0.0253    0.0961   -0.0513
          30    0.0407   -0.0050    0.0151    0.1102    0.1328   -0.1478   -0.3047    0.3092
          31    0.2151    0.0896    0.2026   -0.0082   -0.0015    0.0062   -0.0018    0.0009
          32    0.0175   -0.0658   -0.0497   -0.0380   -0.0890    0.0929   -0.0388    0.0162
          33    0.0249   -0.1003   -0.0692   -0.0637    0.0609   -0.0594    0.0243   -0.0117
          34    0.2149   -0.0894    0.2030   -0.0089    0.0025    0.0068   -0.0026   -0.0008
          35    0.0169    0.0654   -0.0500   -0.0348    0.0926    0.0902   -0.0385   -0.0158
          36    0.0256    0.1005   -0.0698   -0.0646   -0.0606   -0.0585    0.0251    0.0111
          37   -0.2210    0.2183    0.1370   -0.1333    0.2550   -0.2732    0.0812   -0.1281
          38   -0.0943    0.0986    0.0300   -0.0883    0.0676   -0.1558   -0.0515   -0.1560
          39   -0.1507    0.2112    0.1555   -0.0126    0.1721   -0.2069    0.0540   -0.1066
          40   -0.2294    0.2104    0.1158   -0.1220   -0.2553    0.2892   -0.0885    0.1279
          41   -0.0995    0.1451    0.1178    0.0317   -0.1318    0.1270   -0.0729    0.0311
          42   -0.1520    0.1732    0.0778   -0.0760   -0.1357    0.2404    0.0188    0.1869
          43   -0.2277   -0.2175    0.1377   -0.1420   -0.2574   -0.2671    0.0825    0.1262
          44   -0.0945   -0.0983    0.0298   -0.0907   -0.0687   -0.1550   -0.0494    0.1558
          45   -0.1541   -0.2107    0.1563   -0.0190   -0.1766   -0.2025    0.0548    0.1055
[...]
 RED. MASS   1.2243        C  1 --  C  3           +9.6% ( 50.6%)    81.0%
 EFF. MASS   9.8406

 VIBRATION   37   37A       ATOM PAIR        ENERGY CONTRIBUTION    RADIAL
 FREQ.      1343.06        C  1 --  C  2          +14.5% ( 62.7%)     0.0%
 T-DIPOLE    0.0002        C  1 --  C  3          +10.9% ( 54.4%)    75.0%
 TRAVEL      0.0684        C  1 --  C  4          +10.9% ( 54.4%)    74.8%
 RED. MASS   2.2012        C  2 --  C  5          +10.9% ( 54.4%)    75.0%
 EFF. MASS  10.7447        C  2 --  C  6          +10.9% ( 54.3%)    74.8%

 VIBRATION   38   38A       ATOM PAIR        ENERGY CONTRIBUTION    RADIAL
 FREQ.      1390.01        C  1 --  C  2          +10.6% ( 55.3%)    86.5%
 T-DIPOLE    0.0003        C  7 --  C  8          +10.2% ( 54.2%)   100.0%
 TRAVEL      0.0662        C  9 --  C 10          +10.1% ( 54.1%)   100.0%
 RED. MASS   1.4851        C  2 --  H 12           +4.8% ( 37.3%)     0.0%
 EFF. MASS  11.0595

 VIBRATION   39   39A       ATOM PAIR        ENERGY CONTRIBUTION    RADIAL
 FREQ.      1411.30        C  9 --  C 10          +12.6% ( 58.0%)   100.0%
 T-DIPOLE    0.5800        C  7 --  C  8          +12.6% ( 58.0%)   100.0%
 TRAVEL      0.0690        C  5 --  C 10           +5.3% ( 37.8%)    99.8%
 RED. MASS   1.2856        C  6 --  C  9           +5.3% ( 37.8%)    99.8%
 EFF. MASS  10.0428

 VIBRATION   40   40A       ATOM PAIR        ENERGY CONTRIBUTION    RADIAL
 FREQ.      1431.57        C  1 --  C  2          +15.4% ( 64.3%)    77.9%
 T-DIPOLE    0.0004        C  2 --  C  6           +7.9% ( 46.1%)    55.8%
 TRAVEL      0.0682        C  1 --  C  4           +7.9% ( 46.1%)    55.8%
 RED. MASS   1.5722        C  2 --  C  5           +7.9% ( 46.1%)    55.7%
 EFF. MASS  10.1414

 VIBRATION   41   41A       ATOM PAIR        ENERGY CONTRIBUTION    RADIAL
 FREQ.      1731.83        C  5 --  C  9           +9.3% ( 52.0%)    99.9%
 T-DIPOLE    0.5569        C  6 --  C 10           +9.3% ( 51.9%)    99.9%
 TRAVEL      0.0569        C  3 --  C  7           +8.9% ( 50.8%)    99.9%
 RED. MASS   1.3593        C  4 --  C  8           +8.9% ( 50.8%)    99.9%
 EFF. MASS  12.0243

 VIBRATION   42   42A       ATOM PAIR        ENERGY CONTRIBUTION    RADIAL
 FREQ.      1732.81        C  3 --  C  7           +9.3% ( 52.0%)    99.9%
 T-DIPOLE    0.0061        C  4 --  C  8           +9.3% ( 51.9%)    99.9%
 TRAVEL      0.0569        C  5 --  C  9           +8.9% ( 50.9%)    99.9%
 RED. MASS   1.3641        C  6 --  C 10           +8.9% ( 50.8%)    99.9%
 EFF. MASS  12.0273

 VIBRATION   43   43A       ATOM PAIR        ENERGY CONTRIBUTION    RADIAL
 FREQ.      1789.13        C  6 --  C 10           +9.1% ( 50.0%)    99.9%
 T-DIPOLE    0.0031        C  5 --  C  9           +9.1% ( 49.9%)    99.9%
 TRAVEL      0.0565        C  4 --  C  8           +8.8% ( 49.3%)    99.9%
 RED. MASS   1.3414        C  3 --  C  7           +8.8% ( 49.2%)    99.9%
 EFF. MASS  11.7933

 VIBRATION   44   44A       ATOM PAIR        ENERGY CONTRIBUTION    RADIAL
 FREQ.      1790.07        C  4 --  C  8           +9.1% ( 49.9%)    99.8%
 T-DIPOLE    0.4089        C  3 --  C  7           +9.1% ( 49.9%)    99.8%
 TRAVEL      0.0565        C  6 --  C 10           +8.8% ( 49.2%)    99.8%
 RED. MASS   1.3447        C  5 --  C  9           +8.8% ( 49.2%)    99.8%
 EFF. MASS  11.8054

 VIBRATION   45   45A       ATOM PAIR        ENERGY CONTRIBUTION    RADIAL
 FREQ.      2891.28        C  2 --  H 12          +48.6% ( 71.0%)   100.0%
 T-DIPOLE    0.0009        C  1 --  H 11          +48.2% ( 70.7%)   100.0%
 TRAVEL      0.1274        C  1 --  C  2           +1.1% ( 10.8%)    10.0%
 RED. MASS   0.4649        C  2 --  C  6           +0.5% (  7.1%)    10.9%
 EFF. MASS   1.4378

 VIBRATION   46   46A       ATOM PAIR        ENERGY CONTRIBUTION    RADIAL
 FREQ.      2899.95        C  1 --  H 11          +48.8% ( 70.7%)   100.0%
 T-DIPOLE    0.3343        C  2 --  H 12          +48.3% ( 70.4%)   100.0%
 TRAVEL      0.1274        C  1 --  C  2           +0.9% (  9.4%)     9.6%
 RED. MASS   0.4648        C  1 --  C  4           +0.5% (  7.2%)    10.5%
 EFF. MASS   1.4320

 VIBRATION   47   47A       ATOM PAIR        ENERGY CONTRIBUTION    RADIAL
 FREQ.      3129.60        C  9 --  H 19          +14.0% ( 38.3%)   100.0%
 T-DIPOLE    0.2756        C  7 --  H 17          +13.1% ( 37.1%)   100.0%
 TRAVEL      0.1207        C 10 --  H 20          +12.3% ( 36.0%)   100.0%
 RED. MASS   0.1174        C  5 --  H 15          +12.2% ( 35.7%)   100.0%
 EFF. MASS   1.4778        C  8 --  H 18          +12.1% ( 35.7%)   100.0%
                           C  3 --  H 13          +11.3% ( 34.5%)   100.0%
                           C  6 --  H 16          +10.5% ( 33.2%)   100.0%
                           C  4 --  H 14          +10.3% ( 32.8%)   100.0%

 VIBRATION   48   48A       ATOM PAIR        ENERGY CONTRIBUTION    RADIAL
 FREQ.      3130.28        C  7 --  H 17          +17.6% ( 42.9%)   100.0%
 T-DIPOLE    0.0056        C  9 --  H 19          +17.2% ( 42.4%)   100.0%
 TRAVEL      0.1207        C  3 --  H 13          +12.5% ( 36.2%)   100.0%
 RED. MASS   0.1279        C  5 --  H 15          +12.4% ( 36.0%)   100.0%
 EFF. MASS   1.4797        C  8 --  H 18          +11.8% ( 35.3%)   100.0%
                           C 10 --  H 20          +10.9% ( 33.8%)   100.0%

 VIBRATION   49   49A       ATOM PAIR        ENERGY CONTRIBUTION    RADIAL
 FREQ.      3130.90        C  6 --  H 16          +16.7% ( 41.9%)   100.0%
 T-DIPOLE    0.0049        C  4 --  H 14          +16.0% ( 40.9%)   100.0%
 TRAVEL      0.1210        C 10 --  H 20          +13.7% ( 37.9%)   100.0%
 RED. MASS   0.1254        C  8 --  H 18          +13.2% ( 37.2%)   100.0%
 EFF. MASS   1.4712        C  5 --  H 15          +11.0% ( 33.9%)   100.0%
                           C  3 --  H 13          +10.9% ( 33.7%)   100.0%

 VIBRATION   50   50A       ATOM PAIR        ENERGY CONTRIBUTION    RADIAL
 FREQ.      3131.99        C  4 --  H 14          +13.1% ( 37.1%)   100.0%
 T-DIPOLE    0.7151        C  6 --  H 16          +13.1% ( 37.0%)   100.0%
 TRAVEL      0.1210        C  3 --  H 13          +12.3% ( 35.9%)   100.0%
 RED. MASS   0.1169        C  8 --  H 18          +12.2% ( 35.8%)   100.0%
 EFF. MASS   1.4703        C 10 --  H 20          +12.2% ( 35.7%)   100.0%
                           C  5 --  H 15          +11.6% ( 34.9%)   100.0%
                           C  7 --  H 17          +11.0% ( 33.9%)   100.0%
                           C  9 --  H 19          +10.3% ( 32.9%)   100.0%

 VIBRATION   51   51A       ATOM PAIR        ENERGY CONTRIBUTION    RADIAL
 FREQ.      3142.40        C  5 --  H 15          +13.0% ( 37.0%)    99.9%
 T-DIPOLE    0.7503        C  6 --  H 16          +12.8% ( 36.8%)    99.9%
 TRAVEL      0.1157        C  3 --  H 13          +12.5% ( 36.4%)    99.9%
 RED. MASS   0.1174        C  4 --  H 14          +12.5% ( 36.3%)    99.9%
 EFF. MASS   1.6038        C  9 --  H 19          +11.4% ( 34.7%)    99.9%
                           C  7 --  H 17          +10.9% ( 33.9%)    99.9%
                           C 10 --  H 20          +10.8% ( 33.9%)    99.9%
                           C  8 --  H 18          +10.5% ( 33.3%)    99.9%

 VIBRATION   52   52A       ATOM PAIR        ENERGY CONTRIBUTION    RADIAL
 FREQ.      3143.39        C  3 --  H 13          +14.5% ( 39.2%)    99.9%
 T-DIPOLE    0.0068        C  4 --  H 14          +14.5% ( 39.1%)    99.9%
 TRAVEL      0.1157        C  5 --  H 15          +14.0% ( 38.5%)    99.9%
 RED. MASS   0.1216        C  6 --  H 16          +13.9% ( 38.3%)    99.9%
 EFF. MASS   1.6012

 VIBRATION   53   53A       ATOM PAIR        ENERGY CONTRIBUTION    RADIAL
 FREQ.      3153.06        C 10 --  H 20          +13.6% ( 37.9%)   100.0%
 T-DIPOLE    0.0012        C  8 --  H 18          +13.4% ( 37.8%)   100.0%
 TRAVEL      0.1121        C  7 --  H 17          +13.2% ( 37.4%)   100.0%
 RED. MASS   0.1198        C  9 --  H 19          +13.2% ( 37.4%)   100.0%
 EFF. MASS   1.7022        C  6 --  H 16          +10.2% ( 32.9%)    99.9%
                           C  4 --  H 14          +10.2% ( 32.8%)    99.9%

 VIBRATION   54   54A       ATOM PAIR        ENERGY CONTRIBUTION    RADIAL
 FREQ.      3153.65        C 10 --  H 20          +12.4% ( 36.2%)   100.0%
 T-DIPOLE    0.3471        C  8 --  H 18          +12.3% ( 36.1%)   100.0%
 TRAVEL      0.1121        C  7 --  H 17          +12.1% ( 35.8%)   100.0%
 RED. MASS   0.1176        C  9 --  H 19          +12.1% ( 35.8%)   100.0%
 EFF. MASS   1.7015        C  4 --  H 14          +11.3% ( 34.6%)    99.9%
                           C  6 --  H 16          +11.3% ( 34.6%)    99.9%
                           C  3 --  H 13          +11.0% ( 34.2%)    99.9%
                           C  5 --  H 15          +10.9% ( 34.0%)    99.9%

 SYMMETRY NUMBER FOR POINT-GROUP C1  =  1


          SYSTEM IS A GROUND STATE


    NULL



          MOLECULE IS NOT LINEAR

          THERE ARE 54 GENUINE VIBRATIONS IN THIS SYSTEM
          THIS THERMODYNAMICS CALCULATION IS LIMITED TO
          MOLECULES WHICH HAVE NO INTERNAL ROTATIONS




                    CALCULATED THERMODYNAMIC PROPERTIES
                                          *
   TEMP. (K)   PARTITION FUNCTION   H.O.F.    ENTHALPY  HEAT CAPACITY ENTROPY
                                   KCAL/MOL   CAL/MOLE    CAL/K/MOL  CAL/K/MOL


 298.00  VIB.     0.4954D+02                  3194.0103    25.7225    18.4738
         ROT.     0.5364D+06                   888.2813     2.9808    29.1973
         INT.     0.2657D+08                  4082.2916    28.7033    47.6711
         TRA.     0.1436D+28                  1480.4688     4.9680    40.5022
         TOT.                       73.241    5562.7604    33.6713    88.1732

 200.00  VIB.     0.9435D+01                  1256.3931    14.2116    10.7420
         ROT.     0.2949D+06                   596.1620     2.9808    28.0086
         INT.     0.2782D+07                  1852.5550    17.1924    38.7506
         TRA.     0.7896D+27                   993.6033     4.9680    38.5210
         TOT.                       70.524    2846.1583    22.1605    77.2717

 210.00  VIB.     0.1106D+02                  1403.6755    15.2522    11.4604
         ROT.     0.3173D+06                   625.9700     2.9808    28.1540
         INT.     0.3510D+07                  2029.6455    18.2330    39.6145
         TRA.     0.8496D+27                  1043.2834     4.9680    38.7634
         TOT.                       70.751    3072.9290    23.2010    78.3779

 220.00  VIB.     0.1300D+02                  1561.5766    16.3348    12.1948
         ROT.     0.3402D+06                   655.7781     2.9808    28.2927
         INT.     0.4422D+07                  2217.3548    19.3156    40.4875
         TRA.     0.9110D+27                  1092.9636     4.9680    38.9945
         TOT.                       70.988    3310.3184    24.2836    79.4820

 230.00  VIB.     0.1531D+02                  1730.4982    17.4555    12.9455
         ROT.     0.3637D+06                   685.5862     2.9808    28.4252
         INT.     0.5567D+07                  2416.0845    20.4363    41.3707
         TRA.     0.9738D+27                  1142.6437     4.9680    39.2154
         TOT.                       71.237    3558.7282    25.4044    80.5861

 240.00  VIB.     0.1807D+02                  1910.7996    18.6100    13.7127
         ROT.     0.3877D+06                   715.3943     2.9808    28.5521
         INT.     0.7004D+07                  2626.1939    21.5908    42.2647
         TRA.     0.1038D+28                  1192.3239     4.9680    39.4268
         TOT.                       71.496    3818.5178    26.5588    81.6915

 250.00  VIB.     0.2137D+02                  2102.7935    19.7932    14.4963
         ROT.     0.4122D+06                   745.2024     2.9808    28.6737
         INT.     0.8809D+07                  2847.9960    22.7741    43.1700
         TRA.     0.1103D+28                  1242.0041     4.9680    39.6296
         TOT.                       71.768    4090.0000    27.7421    82.7996

 260.00  VIB.     0.2535D+02                  2306.7444    21.0005    15.2960
         ROT.     0.4371D+06                   775.0105     2.9808    28.7906
         INT.     0.1108D+08                  3081.7550    23.9813    44.0867
         TRA.     0.1170D+28                  1291.6842     4.9680    39.8245
         TOT.                       72.051    4373.4392    28.9493    83.9111

 270.00  VIB.     0.3013D+02                  2522.8674    22.2269    16.1115
         ROT.     0.4626D+06                   804.8186     2.9808    28.9031
         INT.     0.1394D+08                  3327.6860    25.2077    45.0147
         TRA.     0.1239D+28                  1341.3644     4.9680    40.0120
         TOT.                       72.347    4669.0504    30.1757    85.0266

 280.00  VIB.     0.3591D+02                  2751.3292    23.4675    16.9423
         ROT.     0.4885D+06                   834.6267     2.9808    29.0116
         INT.     0.1754D+08                  3585.9559    26.4483    45.9538
         TRA.     0.1308D+28                  1391.0445     4.9680    40.1926
         TOT.                       72.655    4977.0005    31.4163    86.1464

 290.00  VIB.     0.4290D+02                  2992.2502    24.7180    17.7875
         ROT.     0.5149D+06                   864.4348     2.9808    29.1162
         INT.     0.2209D+08                  3856.6850    27.6988    46.9037
         TRA.     0.1379D+28                  1440.7247     4.9680    40.3670
         TOT.                       72.975    5297.4097    32.6668    87.2707

 300.00  VIB.     0.5137D+02                  3245.7067    25.9739    18.6467
         ROT.     0.5418D+06                   894.2429     2.9808    29.2172
         INT.     0.2783D+08                  4139.9496    28.9547    47.8639
         TRA.     0.1451D+28                  1490.4049     4.9680    40.5354
         TOT.                       73.308    5630.3545    33.9228    88.3993

 310.00  VIB.     0.6166D+02                  3511.7342    27.2315    19.5189
         ROT.     0.5691D+06                   924.0510     2.9808    29.3149
         INT.     0.3509D+08                  4435.7852    30.2123    48.8338
         TRA.     0.1524D+28                  1540.0850     4.9680    40.6983
         TOT.                       73.654    5975.8703    35.1804    89.5321

 320.00  VIB.     0.7420D+02                  3790.3306    28.4871    20.4033
         ROT.     0.5969D+06                   953.8591     2.9808    29.4096
         INT.     0.4429D+08                  4744.1897    31.4680    49.8129
         TRA.     0.1598D+28                  1589.7652     4.9680    40.8560
         TOT.                       74.012    6333.9549    36.4360    90.6689

 330.00  VIB.     0.8950D+02                  4081.4598    29.7376    21.2990
         ROT.     0.6251D+06                   983.6672     2.9808    29.5013
         INT.     0.5594D+08                  5065.1270    32.7184    50.8003
         TRA.     0.1674D+28                  1639.4454     4.9680    41.0089
         TOT.                       74.382    6704.5724    37.6864    91.8092

 340.00  VIB.     0.1082D+03                  4385.0553    30.9800    22.2053
         ROT.     0.6537D+06                  1013.4753     2.9808    29.5903
         INT.     0.7073D+08                  5398.5306    33.9608    51.7956
         TRA.     0.1750D+28                  1689.1255     4.9680    41.1572
         TOT.                       74.765    7087.6561    38.9288    92.9528

 350.00  VIB.     0.1311D+03                  4701.0236    32.2117    23.1211
         ROT.     0.6827D+06                  1043.2834     2.9808    29.6767
         INT.     0.8951D+08                  5744.3070    35.1926    52.7978
         TRA.     0.1828D+28                  1738.8057     4.9680    41.3012
         TOT.                       75.161    7483.1127    40.1606    94.0990

 360.00  VIB.     0.1592D+03                  5029.2477    33.4308    24.0456
         ROT.     0.7122D+06                  1073.0915     2.9808    29.7607
         INT.     0.1134D+09                  6102.3392    36.4116    53.8063
         TRA.     0.1907D+28                  1788.4859     4.9680    41.4412
         TOT.                       75.569    7890.8251    41.3796    95.2475

 370.00  VIB.     0.1937D+03                  5369.5903    34.6352    24.9781
         ROT.     0.7421D+06                  1102.8996     2.9808    29.8423
         INT.     0.1438D+09                  6472.4899    37.6160    54.8204
         TRA.     0.1987D+28                  1838.1660     4.9680    41.5773
         TOT.                       75.988    8310.6559    42.5840    96.3977

 380.00  VIB.     0.2363D+03                  5721.8968    35.8233    25.9175
         ROT.     0.7724D+06                  1132.7077     2.9808    29.9218
         INT.     0.1825D+09                  6854.6045    38.8041    55.8394
         TRA.     0.2068D+28                  1887.8462     4.9680    41.7098
         TOT.                       76.420    8742.4507    43.7721    97.5492

 390.00  VIB.     0.2887D+03                  6085.9981    36.9939    26.8632
         ROT.     0.8031D+06                  1162.5158     2.9808    29.9993
         INT.     0.2318D+09                  7248.5139    39.9747    56.8625
         TRA.     0.2150D+28                  1937.5263     4.9680    41.8388
         TOT.                       76.864    9186.0402    44.9427    98.7013

 400.00  VIB.     0.3534D+03                  6461.7130    38.1459    27.8144
         ROT.     0.8342D+06                  1192.3239     2.9808    30.0747
         INT.     0.2948D+09                  7654.0369    41.1267    57.8891
         TRA.     0.2233D+28                  1987.2065     4.9680    41.9646
         TOT.                       77.319    9641.2434    46.0947    99.8538

   *: NOTE: HEATS OF FORMATION ARE RELATIVE TO THE
            ELEMENTS IN THEIR STANDARD STATE AT 298K
              (=  Standard Enthalpy of Formation).

            Hvib:  Zero-point energy is not included.
                   frequencies of less than zero cm-1 are not included.
            Hrot = (3/2)RT
            Htra = (3/2)RT + pV = (5/2)RT

            Heat capacity is Cp, not Cv

           For more information, see: HTTP://OpenMOPAC.net/Manual/thermochemistry.html


           FORCE CONSTANT IN CARTESIAN COORDINATES (Millidynes/A)

    ATOM   CHEMICAL       X               Y               Z
   NUMBER   SYMBOL  FORCE CONSTANT  FORCE CONSTANT  FORCE CONSTANT

      1       C        8.758058        8.109190        8.629090
      2       C        8.758308        8.108037        8.628679
      3       C        6.726260        8.570824       11.425439
      4       C        6.732046       12.722919        7.284449
      5       C        6.726076        8.570422       11.425281
      6       C        6.731774       12.723326        7.284885
      7       C        7.449520       10.307996        9.699144
      8       C        7.454100        9.780577       10.214867
      9       C        7.449700       10.308938        9.697634
     10       C        7.453473        9.781248       10.215028
     11       H        1.122171        1.621411        3.143588
     12       H        1.122515        1.621370        3.143507
     13       H        0.694487        2.780206        2.977666
     14       H        0.694443        4.724684        1.036483
     15       H        0.694514        2.779996        2.977741
     16       H        0.694565        4.723488        1.036622
     17       H        1.828466        3.743659        0.888528
     18       H        1.830250        0.726808        3.903891
     19       H        1.828365        3.743693        0.888487
     20       H        1.830167        0.726779        3.905610



 TOTAL CPU TIME:             2.18 SECONDS

 == MOPAC DONE ==
