 *******************************************************************************
 ** Site#: 14399           For non-commercial use only        Version 13.159M **
 *******************************************************************************
 ** Cite this work as: MOPAC2012, James J. P. Stewart, Stewart Computational  **
 ** Chemistry, Version 13.159M web: HTTP://OpenMOPAC.net  Days remaining:   6 **
 *******************************************************************************
 **                                                                           **
 **                                MOPAC2012                                  **
 **                                                                           **
 *******************************************************************************

                            PM3 CALCULATION RESULTS


 *******************************************************************************
 *  CALCULATION DONE:                                Mon Jun  2 14:11:01 2014  *
 *  PM3      - The PM3 Hamiltonian to be used
 *  PRECISE  - CRITERIA TO BE INCREASED BY 100 TIMES
 *  NOSYM    - POINT-GROUP SYMMETRY SET TO C1
 *  T=       - A TIME OF 172800.0 SECONDS REQUESTED
 *  DUMP=N   - RESTART FILE WRITTEN EVERY  7200.000 SECONDS
 *******************************************************************************
pm3  precise nosym
 InChI=1S/C6H10O/c1-2-3-4-6-5-7-6/h3-4,6H,2,5H2,1H3

   ATOM   CHEMICAL          X               Y               Z
  NUMBER   SYMBOL      (ANGSTROMS)     (ANGSTROMS)     (ANGSTROMS)
 
     1       C          2.07280000  *  -0.79160000  *  -0.20600000  *
     2       C         -1.75530000  *  -0.26010000  *  -0.05650000  *
     3       C          2.80080000  *   0.53300000  *   0.35470000  *
     4       C         -2.61240000  *   0.85280000  *  -0.64780000  *
     5       C          0.61570000  *  -0.95610000  *   0.09130000  *
     6       C         -0.29280000  *  -0.07810000  *  -0.34970000  *
     7       O          2.80350000  *  -0.71420000  *   0.98420000  *
     8       H          2.58690000  *  -1.46080000  *  -0.93130000  *
     9       H         -1.91060000  *  -0.28230000  *   1.04710000  *
    10       H         -2.09750000  *  -1.23530000  *  -0.47430000  *
    11       H          2.17380000  *   1.26930000  *   0.90610000  *
    12       H          3.79140000  *   0.76940000  *  -0.09330000  *
    13       H         -2.32190000  *   1.84240000  *  -0.22660000  *
    14       H         -3.68430000  *   0.67410000  *  -0.40420000  *
    15       H         -2.51010000  *   0.88450000  *  -1.75680000  *
    16       H          0.03580000  *   0.78420000  *  -0.93130000  *
    17       H          0.30420000  *  -1.83120000  *   0.66090000  *
 


          CARTESIAN COORDINATES 

    NO.       ATOM         X         Y         Z

     1         C        2.0728   -0.7916   -0.2060
     2         C       -1.7553   -0.2601   -0.0565
     3         C        2.8008    0.5330    0.3547
     4         C       -2.6124    0.8528   -0.6478
     5         C        0.6157   -0.9561    0.0913
     6         C       -0.2928   -0.0781   -0.3497
     7         O        2.8035   -0.7142    0.9842
     8         H        2.5869   -1.4608   -0.9313
     9         H       -1.9106   -0.2823    1.0471
    10         H       -2.0975   -1.2353   -0.4743
    11         H        2.1738    1.2693    0.9061
    12         H        3.7914    0.7694   -0.0933
    13         H       -2.3219    1.8424   -0.2266
    14         H       -3.6843    0.6741   -0.4042
    15         H       -2.5101    0.8845   -1.7568
    16         H        0.0358    0.7842   -0.9313
    17         H        0.3042   -1.8312    0.6609

  H: (PM3): J. J. P. STEWART, J. COMP. CHEM. 10, 209 (1989).
  C: (PM3): J. J. P. STEWART, J. COMP. CHEM. 10, 209 (1989).
  O: (PM3): J. J. P. STEWART, J. COMP. CHEM. 10, 209 (1989).

           Empirical Formula: C6 H10 O  =    17 atoms



      MOLECULAR POINT GROUP   :   C1  


      RHF CALCULATION, NO. OF DOUBLY OCCUPIED LEVELS =   20

      Geometry optimization using EF

          DIAGONAL MATRIX USED AS START HESSIAN

 CYCLE:     1 TIME:   0.005 TIME LEFT:  2.00D  GRAD.:   104.254 HEAT: 6.386801
 CYCLE:     2 TIME:   0.004 TIME LEFT:  2.00D  GRAD.:   165.914 HEAT: 5.029158
 CYCLE:     3 TIME:   0.008 TIME LEFT:  2.00D  GRAD.:   135.725 HEAT:0.6658645
 CYCLE:     4 TIME:   0.005 TIME LEFT:  2.00D  GRAD.:    84.491 HEAT:-1.487874
 CYCLE:     5 TIME:   0.007 TIME LEFT:  2.00D  GRAD.:    81.818 HEAT:-2.137716
 CYCLE:     6 TIME:   0.008 TIME LEFT:  2.00D  GRAD.:    48.139 HEAT:-3.537956
 CYCLE:     7 TIME:   0.007 TIME LEFT:  2.00D  GRAD.:    32.168 HEAT:-4.066007
 CYCLE:     8 TIME:   0.004 TIME LEFT:  2.00D  GRAD.:    28.035 HEAT:-4.236796
 CYCLE:     9 TIME:   0.007 TIME LEFT:  2.00D  GRAD.:    15.427 HEAT:-4.457251
 CYCLE:    10 TIME:   0.004 TIME LEFT:  2.00D  GRAD.:    21.058 HEAT:-4.479752
 CYCLE:    11 TIME:   0.004 TIME LEFT:  2.00D  GRAD.:    13.983 HEAT:-4.630994
 CYCLE:    12 TIME:   0.007 TIME LEFT:  2.00D  GRAD.:    13.085 HEAT:-4.684381
 CYCLE:    13 TIME:   0.004 TIME LEFT:  2.00D  GRAD.:     9.997 HEAT:-4.745789
 CYCLE:    14 TIME:   0.004 TIME LEFT:  2.00D  GRAD.:    15.641 HEAT:-4.767580
 CYCLE:    15 TIME:   0.004 TIME LEFT:  2.00D  GRAD.:     9.379 HEAT:-4.827814
 CYCLE:    16 TIME:   0.004 TIME LEFT:  2.00D  GRAD.:     9.283 HEAT:-4.859410
 CYCLE:    17 TIME:   0.004 TIME LEFT:  2.00D  GRAD.:     4.775 HEAT:-4.894541
 CYCLE:    18 TIME:   0.006 TIME LEFT:  2.00D  GRAD.:     7.608 HEAT:-4.912014
 CYCLE:    19 TIME:   0.006 TIME LEFT:  2.00D  GRAD.:     6.758 HEAT:-4.941962
 CYCLE:    20 TIME:   0.004 TIME LEFT:  2.00D  GRAD.:     5.400 HEAT:-4.985038
 CYCLE:    21 TIME:   0.004 TIME LEFT:  2.00D  GRAD.:     4.897 HEAT:-5.028992
 CYCLE:    22 TIME:   0.004 TIME LEFT:  2.00D  GRAD.:     5.717 HEAT:-5.058879
 CYCLE:    23 TIME:   0.004 TIME LEFT:  2.00D  GRAD.:     7.657 HEAT:-5.061760
 CYCLE:    24 TIME:   0.005 TIME LEFT:  2.00D  GRAD.:     3.227 HEAT:-5.087920
 CYCLE:    25 TIME:   0.005 TIME LEFT:  2.00D  GRAD.:     2.954 HEAT:-5.099215
 CYCLE:    26 TIME:   0.004 TIME LEFT:  2.00D  GRAD.:     3.561 HEAT:-5.111088
 CYCLE:    27 TIME:   0.004 TIME LEFT:  2.00D  GRAD.:     2.694 HEAT:-5.120925
 CYCLE:    28 TIME:   0.004 TIME LEFT:  2.00D  GRAD.:     2.080 HEAT:-5.129937
 CYCLE:    29 TIME:   0.004 TIME LEFT:  2.00D  GRAD.:     1.978 HEAT:-5.137259
 CYCLE:    30 TIME:   0.004 TIME LEFT:  2.00D  GRAD.:     1.671 HEAT:-5.142010
 CYCLE:    31 TIME:   0.004 TIME LEFT:  2.00D  GRAD.:     1.427 HEAT:-5.146423
 CYCLE:    32 TIME:   0.004 TIME LEFT:  2.00D  GRAD.:     1.730 HEAT:-5.151790
 CYCLE:    33 TIME:   0.004 TIME LEFT:  2.00D  GRAD.:     1.498 HEAT:-5.156229
 CYCLE:    34 TIME:   0.004 TIME LEFT:  2.00D  GRAD.:     1.315 HEAT:-5.160048
 CYCLE:    35 TIME:   0.004 TIME LEFT:  2.00D  GRAD.:     1.513 HEAT:-5.164637
 CYCLE:    36 TIME:   0.004 TIME LEFT:  2.00D  GRAD.:     1.933 HEAT:-5.171167
 CYCLE:    37 TIME:   0.004 TIME LEFT:  2.00D  GRAD.:     2.158 HEAT:-5.179677
 CYCLE:    38 TIME:   0.004 TIME LEFT:  2.00D  GRAD.:     2.284 HEAT:-5.192047
 CYCLE:    39 TIME:   0.004 TIME LEFT:  2.00D  GRAD.:     1.985 HEAT:-5.199992
 CYCLE:    40 TIME:   0.004 TIME LEFT:  2.00D  GRAD.:     2.098 HEAT:-5.213335
 CYCLE:    41 TIME:   0.004 TIME LEFT:  2.00D  GRAD.:     2.040 HEAT:-5.220405
 CYCLE:    42 TIME:   0.004 TIME LEFT:  2.00D  GRAD.:     2.746 HEAT:-5.236030
 CYCLE:    43 TIME:   0.004 TIME LEFT:  2.00D  GRAD.:     4.088 HEAT:-5.263493
 CYCLE:    44 TIME:   0.004 TIME LEFT:  2.00D  GRAD.:     6.829 HEAT:-5.295119
 CYCLE:    45 TIME:   0.004 TIME LEFT:  2.00D  GRAD.:     7.056 HEAT:-5.342681
 CYCLE:    46 TIME:   0.004 TIME LEFT:  2.00D  GRAD.:     4.851 HEAT:-5.386072
 CYCLE:    47 TIME:   0.007 TIME LEFT:  2.00D  GRAD.:     9.510 HEAT:-5.427034
 CYCLE:    48 TIME:   0.007 TIME LEFT:  2.00D  GRAD.:     7.970 HEAT:-5.439717
 CYCLE:    49 TIME:   0.004 TIME LEFT:  2.00D  GRAD.:     2.212 HEAT:-5.493955
 CYCLE:    50 TIME:   0.004 TIME LEFT:  2.00D  GRAD.:     3.962 HEAT:-5.523784
 CYCLE:    51 TIME:   0.004 TIME LEFT:  2.00D  GRAD.:     7.169 HEAT:-5.543677
 CYCLE:    52 TIME:   0.004 TIME LEFT:  2.00D  GRAD.:     3.953 HEAT:-5.574242
 CYCLE:    53 TIME:   0.004 TIME LEFT:  2.00D  GRAD.:     2.831 HEAT:-5.597670
 CYCLE:    54 TIME:   0.004 TIME LEFT:  2.00D  GRAD.:     5.171 HEAT:-5.630640
 CYCLE:    55 TIME:   0.004 TIME LEFT:  2.00D  GRAD.:     4.849 HEAT:-5.681919
 CYCLE:    56 TIME:   0.004 TIME LEFT:  2.00D  GRAD.:     5.630 HEAT:-5.717872
 CYCLE:    57 TIME:   0.007 TIME LEFT:  2.00D  GRAD.:     6.318 HEAT:-5.749054
 CYCLE:    58 TIME:   0.004 TIME LEFT:  2.00D  GRAD.:     8.689 HEAT:-5.788401
 CYCLE:    59 TIME:   0.007 TIME LEFT:  2.00D  GRAD.:     9.295 HEAT:-5.820774
 CYCLE:    60 TIME:   0.004 TIME LEFT:  2.00D  GRAD.:     4.875 HEAT:-5.868386
 CYCLE:    61 TIME:   0.004 TIME LEFT:  2.00D  GRAD.:     7.681 HEAT:-5.917098
 CYCLE:    62 TIME:   0.004 TIME LEFT:  2.00D  GRAD.:     6.739 HEAT:-5.951429
 CYCLE:    63 TIME:   0.004 TIME LEFT:  2.00D  GRAD.:     5.041 HEAT:-5.969246
 CYCLE:    64 TIME:   0.004 TIME LEFT:  2.00D  GRAD.:     9.409 HEAT:-5.991189
 CYCLE:    65 TIME:   0.004 TIME LEFT:  2.00D  GRAD.:     3.819 HEAT:-6.014134
 CYCLE:    66 TIME:   0.004 TIME LEFT:  2.00D  GRAD.:     1.913 HEAT:-6.025885
 CYCLE:    67 TIME:   0.004 TIME LEFT:  2.00D  GRAD.:     2.324 HEAT:-6.039012
 CYCLE:    68 TIME:   0.004 TIME LEFT:  2.00D  GRAD.:     2.189 HEAT:-6.046997
 CYCLE:    69 TIME:   0.004 TIME LEFT:  2.00D  GRAD.:     1.835 HEAT:-6.053179
 CYCLE:    70 TIME:   0.004 TIME LEFT:  2.00D  GRAD.:     1.937 HEAT:-6.058780
 CYCLE:    71 TIME:   0.004 TIME LEFT:  2.00D  GRAD.:     1.856 HEAT:-6.060920
 CYCLE:    72 TIME:   0.004 TIME LEFT:  2.00D  GRAD.:     1.155 HEAT:-6.063310
 CYCLE:    73 TIME:   0.004 TIME LEFT:  2.00D  GRAD.:     1.282 HEAT:-6.067194
 CYCLE:    74 TIME:   0.004 TIME LEFT:  2.00D  GRAD.:     1.776 HEAT:-6.071015
 CYCLE:    75 TIME:   0.004 TIME LEFT:  2.00D  GRAD.:     2.812 HEAT:-6.080345
 CYCLE:    76 TIME:   0.004 TIME LEFT:  2.00D  GRAD.:     3.989 HEAT:-6.094758
 CYCLE:    77 TIME:   0.005 TIME LEFT:  2.00D  GRAD.:     3.146 HEAT:-6.106679
 CYCLE:    78 TIME:   0.007 TIME LEFT:  2.00D  GRAD.:     2.631 HEAT:-6.119979
 CYCLE:    79 TIME:   0.005 TIME LEFT:  2.00D  GRAD.:     1.840 HEAT:-6.124438
 CYCLE:    80 TIME:   0.004 TIME LEFT:  2.00D  GRAD.:     0.885 HEAT:-6.128239
 CYCLE:    81 TIME:   0.005 TIME LEFT:  2.00D  GRAD.:     1.020 HEAT:-6.131658
 CYCLE:    82 TIME:   0.006 TIME LEFT:  2.00D  GRAD.:     1.198 HEAT:-6.133491
 CYCLE:    83 TIME:   0.004 TIME LEFT:  2.00D  GRAD.:     0.990 HEAT:-6.135345
 CYCLE:    84 TIME:   0.004 TIME LEFT:  2.00D  GRAD.:     0.811 HEAT:-6.136953
 CYCLE:    85 TIME:   0.004 TIME LEFT:  2.00D  GRAD.:     0.382 HEAT:-6.137366
 CYCLE:    86 TIME:   0.004 TIME LEFT:  2.00D  GRAD.:     0.277 HEAT:-6.137686
 CYCLE:    87 TIME:   0.004 TIME LEFT:  2.00D  GRAD.:     0.194 HEAT:-6.137767
 CYCLE:    88 TIME:   0.004 TIME LEFT:  2.00D  GRAD.:     0.119 HEAT:-6.137841
 CYCLE:    89 TIME:   0.004 TIME LEFT:  2.00D  GRAD.:     0.100 HEAT:-6.137858
 CYCLE:    90 TIME:   0.004 TIME LEFT:  2.00D  GRAD.:     0.086 HEAT:-6.137872
 CYCLE:    91 TIME:   0.004 TIME LEFT:  2.00D  GRAD.:     0.072 HEAT:-6.137880
 CYCLE:    92 TIME:   0.004 TIME LEFT:  2.00D  GRAD.:     0.056 HEAT:-6.137885
 CYCLE:    93 TIME:   0.004 TIME LEFT:  2.00D  GRAD.:     0.067 HEAT:-6.137892
 CYCLE:    94 TIME:   0.004 TIME LEFT:  2.00D  GRAD.:     0.080 HEAT:-6.137894
 CYCLE:    95 TIME:   0.004 TIME LEFT:  2.00D  GRAD.:     0.063 HEAT:-6.137900
 CYCLE:    96 TIME:   0.004 TIME LEFT:  2.00D  GRAD.:     0.068 HEAT:-6.137908
 CYCLE:    97 TIME:   0.004 TIME LEFT:  2.00D  GRAD.:     0.088 HEAT:-6.137922
 CYCLE:    98 TIME:   0.004 TIME LEFT:  2.00D  GRAD.:     0.312 HEAT:-6.137857
 CYCLE:    99 TIME:   0.004 TIME LEFT:  2.00D  GRAD.:     0.124 HEAT:-6.137957
 CYCLE:   100 TIME:   0.004 TIME LEFT:  2.00D  GRAD.:     0.074 HEAT:-6.137968
 CYCLE:   101 TIME:   0.004 TIME LEFT:  2.00D  GRAD.:     0.091 HEAT:-6.137989
 CYCLE:   102 TIME:   0.004 TIME LEFT:  2.00D  GRAD.:     0.048 HEAT:-6.137995

     RMS GRADIENT =  0.04776  IS LESS THAN CUTOFF =  0.05000



 -------------------------------------------------------------------------------
pm3  precise nosym
 InChI=1S/C6H10O/c1-2-3-4-6-5-7-6/h3-4,6H,2,5H2,1H3



     GEOMETRY OPTIMISED USING EIGENVECTOR FOLLOWING (EF).     
     SCF FIELD WAS ACHIEVED                                   


                              PM3 CALCULATION
                                                       MOPAC2012 (Version: 13.159M)
                                                       Mon Jun  2 14:11:02 2014
                                                       No. of days left =   6




          FINAL HEAT OF FORMATION =         -6.13800 KCAL/MOL =     -25.68137 KJ/MOL


          TOTAL ENERGY            =      -1157.36038 EV
          ELECTRONIC ENERGY       =      -4817.65291 EV  POINT GROUP:     C1  
          CORE-CORE REPULSION     =       3660.29253 EV
          COSMO AREA              =        153.54 SQUARE ANGSTROMS
          COSMO VOLUME            =        140.62 CUBIC ANGSTROMS

          GRADIENT NORM           =          0.04776
          IONIZATION POTENTIAL    =          9.943814 EV
          HOMO LUMO ENERGIES (EV) =         -9.944  0.673
          NO. OF FILLED LEVELS    =         20
          MOLECULAR WEIGHT        =         98.144

          MOLECULAR DIMENSIONS (Angstroms)

            Atom       Atom       Distance
            H    14    H    12     7.50004
            H    15    H    17     3.40778
            H    11    H     8     2.84929


          SCF CALCULATIONS        =        112
          COMPUTATION TIME        =          0.451 SECONDS




   ATOM   CHEMICAL          X               Y               Z
  NUMBER   SYMBOL      (ANGSTROMS)     (ANGSTROMS)     (ANGSTROMS)
 
     1       C          1.99819128  *  -0.49313771  *  -0.14598157  *
     2       C         -1.84391820  *  -0.37519150  *  -0.14686901  *
     3       C          2.95816814  *   0.40491847  *   0.55910848  *
     4       C         -2.60650818  *   0.83305808  *  -0.64654657  *
     5       C          0.58822654  *  -0.55570559  *   0.29561039  *
     6       C         -0.41390588  *  -0.31908825  *  -0.55287989  *
     7       O          2.98508220  *  -1.00868307  *   0.76745454  *
     8       H          2.16297472  *  -0.75685538  *  -1.20887142  *
     9       H         -1.94515502  *  -0.46012208  *   0.95376285  *
    10       H         -2.28476788  *  -1.30467616  *  -0.56080113  *
    11       H          2.64888487  *   1.01478863  *   1.41644571  *
    12       H          3.82155654  *   0.83876486  *   0.04104799  *
    13       H         -2.20840106  *   1.76478073  *  -0.22435662  *
    14       H         -3.66692111  *   0.77369873  *  -0.37018480  *
    15       H         -2.55624890  *   0.92272348  *  -1.73989592  *
    16       H         -0.22166925  *  -0.07529065  *  -1.60591345  *
    17       H          0.40677769  *  -0.80322240  *   1.34953670  *

           Empirical Formula: C6 H10 O  =    17 atoms



      MOLECULAR POINT GROUP   :   C1  


                  EIGENVALUES  
 -40.57409 -36.83394 -30.69040 -25.95220 -23.81708 -21.20647 -20.10611 -17.61333
 -17.30418 -15.85219 -15.39665 -14.63672 -14.03744 -13.63624 -12.98844 -12.79350
 -12.28140 -12.08273 -11.35699  -9.94381   0.67296   2.51916   2.92338   3.17977
   3.43627   3.53206   3.73250   3.76560   3.86907   4.01215   4.14487   4.38781
   4.49056   4.61272   4.69866   4.71484   5.47902   5.71856


              NET ATOMIC CHARGES AND DIPOLE CONTRIBUTIONS

  ATOM NO.   TYPE          CHARGE      No. of ELECS.   s-Pop       p-Pop       
    1          C           0.039260        3.9607     1.16427     2.79647
    2          C          -0.065357        4.0654     1.14622     2.91914
    3          C          -0.003386        4.0034     1.16225     2.84114
    4          C          -0.105960        4.1060     1.13755     2.96840
    5          C          -0.159918        4.1599     1.19303     2.96689
    6          C          -0.124192        4.1242     1.19632     2.92787
    7          O          -0.263355        6.2634     1.89605     4.36731
    8          H           0.094764        0.9052     0.90524
    9          H           0.054510        0.9455     0.94549
   10          H           0.056792        0.9432     0.94321
   11          H           0.072355        0.9276     0.92764
   12          H           0.068594        0.9314     0.93141
   13          H           0.040123        0.9599     0.95988
   14          H           0.038961        0.9610     0.96104
   15          H           0.038317        0.9617     0.96168
   16          H           0.100851        0.8991     0.89915
   17          H           0.117642        0.8824     0.88236
 DIPOLE           X         Y         Z       TOTAL
 POINT-CHG.    -1.175     1.460    -0.925     2.090
 HYBRID         0.083    -0.044     0.049     0.106
 SUM           -1.092     1.416    -0.876     1.991


          ATOMIC ORBITAL ELECTRON POPULATIONS

    Atom      s        px        py        pz   
    1  C   1.16427   0.87233   0.99067   0.93347
    2  C   1.14622   0.93381   0.97994   1.00539
    3  C   1.16225   0.98885   0.84987   1.00241
    4  C   1.13755   0.99152   0.97343   1.00346
    5  C   1.19303   0.93835   1.02855   0.99998
    6  C   1.19632   0.95297   0.98738   0.98752
    7  O   1.89605   1.53283   1.18792   1.64656
    8  H   0.90524
    9  H   0.94549
   10  H   0.94321
   11  H   0.92764
   12  H   0.93141
   13  H   0.95988
   14  H   0.96104
   15  H   0.96168
   16  H   0.89915
   17  H   0.88236
 *******************************************************************************
 ** Site#: 14399           For non-commercial use only        Version 13.159M **
 *******************************************************************************
 ** Cite this work as: MOPAC2012, James J. P. Stewart, Stewart Computational  **
 ** Chemistry, Version 13.159M web: HTTP://OpenMOPAC.net  Days remaining:   6 **
 *******************************************************************************
 **                                                                           **
 **                                MOPAC2012                                  **
 **                                                                           **
 *******************************************************************************

                            PM3 CALCULATION RESULTS


 *******************************************************************************
 *  CALCULATION DONE:                                Mon Jun  2 14:11:02 2014  *
 *  PM3      - The PM3 Hamiltonian to be used
 *  OLDGEO   - PREVIOUS GEOMETRY TO BE USED
 *  PRECISE  - CRITERIA TO BE INCREASED BY 100 TIMES
 *  NOSYM    - POINT-GROUP SYMMETRY SET TO C1
 *  T=       - A TIME OF 172800.0 SECONDS REQUESTED
 *  DUMP=N   - RESTART FILE WRITTEN EVERY  7200.000 SECONDS
 *  THERMO   - THERMODYNAMIC QUANTITIES TO BE CALCULATED
 *******************************************************************************
oldgeo thermo nosym precise  pm3

   ATOM   CHEMICAL          X               Y               Z
  NUMBER   SYMBOL      (ANGSTROMS)     (ANGSTROMS)     (ANGSTROMS)
 
     1       C          1.99819128  *  -0.49313771  *  -0.14598157  *
     2       C         -1.84391820  *  -0.37519150  *  -0.14686901  *
     3       C          2.95816814  *   0.40491847  *   0.55910848  *
     4       C         -2.60650818  *   0.83305808  *  -0.64654657  *
     5       C          0.58822654  *  -0.55570559  *   0.29561039  *
     6       C         -0.41390588  *  -0.31908825  *  -0.55287989  *
     7       O          2.98508220  *  -1.00868307  *   0.76745454  *
     8       H          2.16297472  *  -0.75685538  *  -1.20887142  *
     9       H         -1.94515502  *  -0.46012208  *   0.95376285  *
    10       H         -2.28476788  *  -1.30467616  *  -0.56080113  *
    11       H          2.64888487  *   1.01478863  *   1.41644571  *
    12       H          3.82155654  *   0.83876486  *   0.04104799  *
    13       H         -2.20840106  *   1.76478073  *  -0.22435662  *
    14       H         -3.66692111  *   0.77369873  *  -0.37018480  *
    15       H         -2.55624890  *   0.92272348  *  -1.73989592  *
    16       H         -0.22166925  *  -0.07529065  *  -1.60591345  *
    17       H          0.40677769  *  -0.80322240  *   1.34953670  *
 


          CARTESIAN COORDINATES 

    NO.       ATOM         X         Y         Z

     1         C        1.9982   -0.4931   -0.1460
     2         C       -1.8439   -0.3752   -0.1469
     3         C        2.9582    0.4049    0.5591
     4         C       -2.6065    0.8331   -0.6465
     5         C        0.5882   -0.5557    0.2956
     6         C       -0.4139   -0.3191   -0.5529
     7         O        2.9851   -1.0087    0.7675
     8         H        2.1630   -0.7569   -1.2089
     9         H       -1.9452   -0.4601    0.9538
    10         H       -2.2848   -1.3047   -0.5608
    11         H        2.6489    1.0148    1.4164
    12         H        3.8216    0.8388    0.0410
    13         H       -2.2084    1.7648   -0.2244
    14         H       -3.6669    0.7737   -0.3702
    15         H       -2.5562    0.9227   -1.7399
    16         H       -0.2217   -0.0753   -1.6059
    17         H        0.4068   -0.8032    1.3495

  H: (PM3): J. J. P. STEWART, J. COMP. CHEM. 10, 209 (1989).
  C: (PM3): J. J. P. STEWART, J. COMP. CHEM. 10, 209 (1989).
  O: (PM3): J. J. P. STEWART, J. COMP. CHEM. 10, 209 (1989).

           Empirical Formula: C6 H10 O  =    17 atoms



      MOLECULAR POINT GROUP   :   C1  


      RHF CALCULATION, NO. OF DOUBLY OCCUPIED LEVELS =   20



          HEAT OF FORMATION =      -6.137995 KCALS/MOLE


          INTERNAL COORDINATE DERIVATIVES

   NUMBER  ATOM       BOND         ANGLE      DIHEDRAL

     1       C     -0.016159    -0.002842    -0.005256
     2       C     -0.001175     0.005185     0.001336
     3       C      0.004990     0.005346    -0.001053
     4       C     -0.004095     0.004006     0.001148
     5       C      0.017366    -0.010320     0.002863
     6       C     -0.006832     0.007120    -0.005948
     7       O     -0.007825     0.000427     0.011914
     8       H     -0.008293     0.005211    -0.006685
     9       H      0.002516    -0.001300    -0.000222
    10       H     -0.003089     0.000871    -0.007993
    11       H     -0.013417    -0.007157    -0.000808
    12       H      0.004029    -0.000478    -0.004407
    13       H     -0.003542    -0.000597    -0.000158
    14       H      0.004972    -0.007182     0.000833
    15       H      0.003618    -0.003257     0.004153
    16       H      0.014924     0.006565    -0.000024
    17       H      0.012012    -0.001597     0.010307


          GRADIENT NORM =   0.04805


          TIME FOR SCF CALCULATION =    0.00

          TIME FOR DERIVATIVES     =    0.00

          MOLECULAR WEIGHT =   98.14



          ROTATIONAL CONSTANTS IN CM(-1)

          A =    0.32421850   B =    0.03369439   C =    0.03259567



           PRINCIPAL MOMENTS OF INERTIA IN UNITS OF 10**(-40)*GRAM-CM**2

          A =       86.3392   B =      830.7845   C =      858.7881


          ORIENTATION OF MOLECULE IN FORCE CALCULATION

    NO.       ATOM         X         Y         Z

     1          C      -1.4758   -0.2971   -0.0081
     2          C       2.3681   -0.2971   -0.0081
     3          C      -2.4080    0.8675   -0.0081
     4          C       3.1675    0.3433    1.1063
     5          C      -0.0686   -0.1138   -0.4239
     6          C       0.9406   -0.4635    0.3759
     7          O      -2.4783   -0.1305   -1.0286
     8          H      -1.6484   -1.1462    0.6816
     9          H       2.4664    0.2990   -0.9375
    10          H       2.7803   -1.2979   -0.2491
    11          H      -2.0803    1.8642   -0.3274
    12          H      -3.2575    0.9202    0.6830
    13          H       2.7981    1.3499    1.3414
    14          H       4.2255    0.4376    0.8305
    15          H       3.1203   -0.2458    2.0319
    16          H       0.7561   -0.9021    1.3652
    17          H       0.1050    0.3227   -1.4160


    FIRST DERIVATIVES WILL BE USED IN THE CALCULATION OF SECOND DERIVATIVES

          ESTIMATED TIME TO COMPLETE CALCULATION =        1.13 SECONDS

    FOR POINT-GROUP C1   THERE ARE   1 UNIQUE SYMMETRY FUNCTIONS.

 STEP:   1 TIME =     0.02 SECS, INTEGRAL =      0.02 TIME LEFT: 172799.98
 STEP:   2 TIME =     0.02 SECS, INTEGRAL =      0.03 TIME LEFT: 172799.96
 STEP:   3 TIME =     0.02 SECS, INTEGRAL =      0.05 TIME LEFT: 172799.94
 STEP:   4 TIME =     0.02 SECS, INTEGRAL =      0.07 TIME LEFT: 172799.92
 STEP:   5 TIME =     0.02 SECS, INTEGRAL =      0.09 TIME LEFT: 172799.91
 STEP:   6 TIME =     0.02 SECS, INTEGRAL =      0.10 TIME LEFT: 172799.89
 STEP:   7 TIME =     0.02 SECS, INTEGRAL =      0.12 TIME LEFT: 172799.87
 STEP:   8 TIME =     0.02 SECS, INTEGRAL =      0.14 TIME LEFT: 172799.86
 STEP:   9 TIME =     0.02 SECS, INTEGRAL =      0.16 TIME LEFT: 172799.84
 STEP:  10 TIME =     0.02 SECS, INTEGRAL =      0.18 TIME LEFT: 172799.82
 STEP:  11 TIME =     0.02 SECS, INTEGRAL =      0.19 TIME LEFT: 172799.80
 STEP:  12 TIME =     0.02 SECS, INTEGRAL =      0.21 TIME LEFT: 172799.78
 STEP:  13 TIME =     0.02 SECS, INTEGRAL =      0.23 TIME LEFT: 172799.77
 STEP:  14 TIME =     0.02 SECS, INTEGRAL =      0.24 TIME LEFT: 172799.75
 STEP:  15 TIME =     0.02 SECS, INTEGRAL =      0.26 TIME LEFT: 172799.73
 STEP:  16 TIME =     0.02 SECS, INTEGRAL =      0.28 TIME LEFT: 172799.72
 STEP:  17 TIME =     0.02 SECS, INTEGRAL =      0.30 TIME LEFT: 172799.70
 STEP:  18 TIME =     0.02 SECS, INTEGRAL =      0.31 TIME LEFT: 172799.68
 STEP:  19 TIME =     0.02 SECS, INTEGRAL =      0.33 TIME LEFT: 172799.66
 STEP:  20 TIME =     0.02 SECS, INTEGRAL =      0.35 TIME LEFT: 172799.65
 STEP:  21 TIME =     0.02 SECS, INTEGRAL =      0.36 TIME LEFT: 172799.63
 STEP:  22 TIME =     0.02 SECS, INTEGRAL =      0.38 TIME LEFT: 172799.61
 STEP:  23 TIME =     0.02 SECS, INTEGRAL =      0.40 TIME LEFT: 172799.60
 STEP:  24 TIME =     0.02 SECS, INTEGRAL =      0.42 TIME LEFT: 172799.58
 STEP:  25 TIME =     0.02 SECS, INTEGRAL =      0.43 TIME LEFT: 172799.56
 STEP:  26 TIME =     0.02 SECS, INTEGRAL =      0.45 TIME LEFT: 172799.54
 STEP:  27 TIME =     0.02 SECS, INTEGRAL =      0.47 TIME LEFT: 172799.53
 STEP:  28 TIME =     0.02 SECS, INTEGRAL =      0.49 TIME LEFT: 172799.51
 STEP:  29 TIME =     0.02 SECS, INTEGRAL =      0.50 TIME LEFT: 172799.49
 STEP:  30 TIME =     0.02 SECS, INTEGRAL =      0.52 TIME LEFT: 172799.47
 STEP:  31 TIME =     0.02 SECS, INTEGRAL =      0.54 TIME LEFT: 172799.45
 STEP:  32 TIME =     0.02 SECS, INTEGRAL =      0.56 TIME LEFT: 172799.44
 STEP:  33 TIME =     0.02 SECS, INTEGRAL =      0.58 TIME LEFT: 172799.42
 STEP:  34 TIME =     0.02 SECS, INTEGRAL =      0.60 TIME LEFT: 172799.40
 STEP:  35 TIME =     0.02 SECS, INTEGRAL =      0.61 TIME LEFT: 172799.38
 STEP:  36 TIME =     0.02 SECS, INTEGRAL =      0.63 TIME LEFT: 172799.36
 STEP:  37 TIME =     0.02 SECS, INTEGRAL =      0.65 TIME LEFT: 172799.35
 STEP:  38 TIME =     0.02 SECS, INTEGRAL =      0.67 TIME LEFT: 172799.33
 STEP:  39 TIME =     0.02 SECS, INTEGRAL =      0.68 TIME LEFT: 172799.31
 STEP:  40 TIME =     0.02 SECS, INTEGRAL =      0.70 TIME LEFT: 172799.30
 STEP:  41 TIME =     0.02 SECS, INTEGRAL =      0.72 TIME LEFT: 172799.28
 STEP:  42 TIME =     0.02 SECS, INTEGRAL =      0.73 TIME LEFT: 172799.26
 STEP:  43 TIME =     0.02 SECS, INTEGRAL =      0.75 TIME LEFT: 172799.24
 STEP:  44 TIME =     0.02 SECS, INTEGRAL =      0.77 TIME LEFT: 172799.23
 STEP:  45 TIME =     0.02 SECS, INTEGRAL =      0.78 TIME LEFT: 172799.21
 STEP:  46 TIME =     0.02 SECS, INTEGRAL =      0.80 TIME LEFT: 172799.19
 STEP:  47 TIME =     0.02 SECS, INTEGRAL =      0.82 TIME LEFT: 172799.18
 STEP:  48 TIME =     0.02 SECS, INTEGRAL =      0.84 TIME LEFT: 172799.16
 STEP:  49 TIME =     0.02 SECS, INTEGRAL =      0.86 TIME LEFT: 172799.14
 STEP:  50 TIME =     0.02 SECS, INTEGRAL =      0.87 TIME LEFT: 172799.12
 STEP:  51 TIME =     0.02 SECS, INTEGRAL =      0.89 TIME LEFT: 172799.10

(To convert to Hartree/Bohr^2, multiply by (10^(-21) x N x a0^2)/(4.184 x 627.51) = 0.0642)


           FORCE MATRIX IN MILLIDYNES/ANGSTROM


                  C  1       C  2       C  3       C  4       C  5       C  6
 ------------------------------------------------------------------------------
     C    1  15.666901
     C    2   0.140043  14.691488
     C    3   5.491120   0.023091  15.303575
     C    4   0.018813   4.409359   0.003384  14.352498
     C    5   5.079908   0.825830   0.587758   0.042258  18.401706
     C    6   0.900251   4.969600   0.030845   0.717144  10.651377  18.198361
     O    7   5.055688   0.019407   5.540356   0.001690   0.760485   0.061325
     H    8   4.464384   0.006474   0.425999   0.001010   0.422601   0.038032
     H    9   0.003268   4.444707   0.000666   0.434072   0.048797   0.459536
     H   10   0.019126   4.420856   0.003705   0.445462   0.034456   0.405439
     H   11   0.444715   0.001115   4.759631   0.000509   0.021553   0.002474
     H   12   0.440522   0.002414   4.765257   0.001028   0.038950   0.001661
     H   13   0.000846   0.460804   0.000905   4.746087   0.002236   0.016347
     H   14   0.003204   0.449228   0.001395   4.753902   0.007418   0.052177
     H   15   0.001219   0.464443   0.000944   4.725135   0.002322   0.028155
     H   16   0.089532   0.431353   0.010883   0.027090   0.469483   4.761523
     H   17   0.459738   0.084162   0.020151   0.008746   4.784857   0.466579


                  O  7       H  8       H  9       H 10       H 11       H 12
 ------------------------------------------------------------------------------
     O    7   8.887919
     H    8   0.388646   4.885620
     H    9   0.001655   0.000643   5.054452
     H   10   0.003980   0.001018   0.566023   5.016785
     H   11   0.418352   0.037603   0.000202   0.000315   5.207181
     H   12   0.416934   0.015760   0.000182   0.000262   0.426031   5.211902
     H   13   0.000838   0.000158   0.024531   0.049161   0.000148   0.000160
     H   14   0.000722   0.000253   0.030412   0.028696   0.000197   0.000266
     H   15   0.000753   0.000241   0.047523   0.023833   0.000121   0.000142
     H   16   0.008988   0.023856   0.039056   0.016820   0.000865   0.002486
     H   17   0.038940   0.029615   0.029887   0.010440   0.003823   0.002146


                  H 13       H 14       H 15       H 16       H 17
 ------------------------------------------------------------------
     H   13   5.483788
     H   14   0.574350   5.489178
     H   15   0.577914   0.573893   5.469513
     H   16   0.002563   0.002068   0.020720   5.140882
     H   17   0.000555   0.001761   0.000654   0.104745   5.163000


          HEAT OF FORMATION =      -6.137995 KCALS/MOLE

          ZERO POINT ENERGY      90.798 KCAL/MOL


           NORMAL COORDINATE ANALYSIS (Total motion = 1 Angstrom)


   Root No.       1         2         3         4         5         6         7         8

                 1 A       2 A       3 A       4 A       5 A       6 A       7 A       8 A   

                  32.2      94.2     130.0     162.3     214.6     355.6     390.0     470.1
  
           1    0.0010   -0.0077    0.0071   -0.0124   -0.0158    0.0086    0.0145   -0.0427
           2   -0.0217   -0.0261    0.0011   -0.0062   -0.0169    0.0135   -0.0389   -0.0393
           3   -0.0182   -0.0183    0.0063    0.0056    0.0140    0.0387   -0.0034    0.0227
           4    0.0007   -0.0089    0.0054   -0.0113   -0.0133   -0.0016   -0.0404    0.0466
           5   -0.0282    0.0275    0.0186    0.0002    0.0369   -0.0081   -0.0050   -0.0125
           6    0.0122    0.0079   -0.0104   -0.0002   -0.0157   -0.0399   -0.0032   -0.0121
           7    0.0232    0.0198    0.0392   -0.0017    0.0175   -0.0143    0.0663    0.0053
           8   -0.0040   -0.0043    0.0274    0.0027    0.0107   -0.0049   -0.0082    0.0013
           9    0.0363    0.0139   -0.0096   -0.0092   -0.0133    0.0091    0.0008   -0.0100
          10   -0.0281    0.0272   -0.0365    0.0123    0.0023   -0.0531   -0.0287    0.0106
          11    0.0510   -0.0180    0.0066    0.0071    0.0040   -0.0147   -0.0123    0.0009
          12   -0.0125    0.0078    0.0278   -0.0222   -0.0088   -0.0017   -0.0158    0.0152
          13    0.0042   -0.0079    0.0014   -0.0052   -0.0109   -0.0026   -0.0051   -0.0341
          14   -0.0290   -0.0487   -0.0296   -0.0133   -0.0255   -0.0139    0.0553    0.0084
          15   -0.0103   -0.0287   -0.0268    0.0311    0.0330    0.0030    0.0024    0.0296
          16   -0.0029   -0.0091    0.0055   -0.0032    0.0011    0.0086   -0.0297    0.0260
          17   -0.0248    0.0546   -0.0237   -0.0111   -0.0315    0.0272    0.0344    0.0333
          18    0.0003    0.0182   -0.0297    0.0295    0.0140   -0.0014    0.0163   -0.0352
          19    0.0031   -0.0162   -0.0180    0.0171    0.0139    0.0592    0.0177   -0.0146
          20    0.0439    0.0150   -0.0097    0.0148    0.0105    0.0050   -0.0190    0.0079
          21   -0.0093   -0.0028    0.0304   -0.0217   -0.0124   -0.0068    0.0059   -0.0105
          22   -0.0135   -0.0171    0.0060   -0.0351   -0.0453    0.0030    0.0309   -0.0668
          23   -0.0504   -0.0350    0.0292   -0.0115   -0.0133    0.0181   -0.0551   -0.0523
          24   -0.0572   -0.0319    0.0404   -0.0072    0.0096    0.0433   -0.0218   -0.0033
          25    0.0075   -0.0057    0.0020   -0.0410   -0.0584    0.0073   -0.0331    0.1051
          26   -0.0825    0.0428    0.0526    0.0052    0.0910   -0.0057   -0.0239   -0.0617
          27   -0.0219    0.0180    0.0113   -0.0008    0.0136   -0.0366   -0.0147   -0.0348
          28    0.0194   -0.0396    0.0388   -0.0058    0.0121   -0.0071   -0.0760    0.0268
          29   -0.0366    0.0206    0.0391    0.0063    0.0637   -0.0097   -0.0227   -0.0380
          30    0.0792   -0.0174   -0.0367   -0.0155   -0.0831   -0.0395    0.0082    0.0575
          31    0.0419    0.0398    0.0594    0.0174    0.0593   -0.0281    0.1304    0.0939
          32    0.0045   -0.0065    0.0053    0.0031   -0.0007    0.0101   -0.0312   -0.0218
          33    0.0819    0.0273   -0.0583    0.0114   -0.0068    0.0438   -0.0096    0.0042
          34    0.0249    0.0294    0.0613   -0.0214    0.0000   -0.0529    0.0723   -0.0253
          35   -0.0195    0.0041    0.0794    0.0036    0.0403   -0.0432    0.0494    0.0648
          36    0.0396    0.0250    0.0134   -0.0334   -0.0374   -0.0347    0.0014   -0.0542
          37   -0.0466    0.0605   -0.1072   -0.1058    0.0820   -0.0803   -0.0263   -0.0218
          38    0.0601   -0.0121   -0.0338   -0.0674    0.0438   -0.0224   -0.0129   -0.0099
          39   -0.0807    0.0345    0.0902    0.1119   -0.0541   -0.0095   -0.0087    0.0102
          40   -0.0245    0.0254   -0.0433   -0.0294    0.0199   -0.0400   -0.0321    0.0178
          41    0.0491   -0.0431    0.0977    0.1830   -0.0966    0.0006   -0.0130    0.0281
          42    0.0007   -0.0080    0.0333   -0.1227    0.0243    0.0584   -0.0278    0.0535
          43   -0.0367    0.0262    0.0052    0.1903   -0.0798   -0.0976   -0.0203   -0.0063
          44    0.1068   -0.0354   -0.0537   -0.0882    0.0384   -0.0261   -0.0160   -0.0056
          45    0.0225   -0.0032   -0.0083   -0.0742    0.0090   -0.0103   -0.0176    0.0107
          46   -0.0116   -0.0126    0.0079    0.0114    0.0288    0.0243   -0.0445    0.0511
          47   -0.0160    0.1598   -0.0307   -0.0085   -0.0705    0.1111    0.0072    0.0239
          48    0.0026    0.0641   -0.0321    0.0323    0.0011    0.0392    0.0014   -0.0330
          49    0.0124   -0.0071   -0.0081    0.0035   -0.0111   -0.0214   -0.0075   -0.0834
          50   -0.0370   -0.1536   -0.0357   -0.0151    0.0030   -0.1003    0.1179    0.0411
          51   -0.0124   -0.0744   -0.0308    0.0309    0.0442   -0.0386    0.0300    0.0345


   Root No.       9        10        11        12        13        14        15        16

                 9 A      10 A      11 A      12 A      13 A      14 A      15 A      16 A   

                 515.0     806.0     854.3     894.8     911.7     921.2     945.6     972.4
  
           1   -0.0072    0.0032   -0.0082    0.0038    0.0129    0.0035    0.0330    0.0051
           2   -0.0034    0.0029    0.0055    0.0237   -0.0087   -0.0031   -0.0285   -0.0128
           3    0.0416   -0.0046    0.0039    0.0168    0.0119    0.0051    0.0446    0.0143
           4   -0.0193   -0.0109    0.0051   -0.0031   -0.0007   -0.0017   -0.0102    0.0077
           5    0.0089    0.0307   -0.0126    0.0037    0.0002    0.0002    0.0006   -0.0081
           6    0.0374   -0.0106    0.0034   -0.0015    0.0040   -0.0019    0.0091   -0.0037
           7   -0.0007    0.0046    0.0269    0.0224    0.0022    0.0010   -0.0027    0.0006
           8    0.0030    0.0026   -0.0039   -0.0270   -0.0120   -0.0042   -0.0396   -0.0116
           9    0.0073   -0.0006    0.0032    0.0039   -0.0139   -0.0042   -0.0353   -0.0088
          10    0.0300   -0.0057    0.0050   -0.0027   -0.0009   -0.0043   -0.0225    0.0357
          11    0.0100    0.0037   -0.0033    0.0064   -0.0094    0.0091   -0.0027    0.0128
          12    0.0083   -0.0039    0.0049    0.0007   -0.0033    0.0015    0.0032   -0.0135
          13   -0.0337   -0.0018   -0.0241    0.0023    0.0126    0.0016    0.0122   -0.0026
          14   -0.0054   -0.0209   -0.0035    0.0294   -0.0327   -0.0117    0.0194    0.0100
          15   -0.0463    0.0058    0.0134    0.0107   -0.0211   -0.0082    0.0068   -0.0133
          16   -0.0345    0.0033   -0.0038   -0.0003    0.0053   -0.0004    0.0146   -0.0233
          17   -0.0116    0.0063    0.0076   -0.0180    0.0253   -0.0357   -0.0017   -0.0043
          18   -0.0514    0.0041   -0.0096   -0.0044    0.0137   -0.0140   -0.0113    0.0175
          19    0.0514    0.0038    0.0029   -0.0325   -0.0179   -0.0036   -0.0193   -0.0018
          20   -0.0008    0.0008   -0.0040   -0.0063    0.0175    0.0057    0.0548    0.0165
          21    0.0024   -0.0030   -0.0279   -0.0352   -0.0001   -0.0004    0.0064    0.0020
          22   -0.0048   -0.0119   -0.0354    0.0574    0.0303    0.0063    0.0532    0.0138
          23    0.0120    0.0298    0.0800    0.1075    0.0853    0.0128   -0.0575   -0.0003
          24    0.0608    0.0264    0.0932    0.1366    0.1347    0.0255    0.0138    0.0331
          25    0.0040    0.0502    0.0011   -0.0176    0.0213   -0.0366   -0.0059   -0.0868
          26   -0.0058   -0.1171    0.0445   -0.0246    0.0221   -0.0220    0.0088   -0.0281
          27    0.0305   -0.0940    0.0382   -0.0203    0.0195   -0.0196    0.0142   -0.0254
          28   -0.0224   -0.0529   -0.0005    0.0429   -0.0747    0.0769    0.0079    0.0529
          29    0.0003   -0.0317    0.0021    0.0123   -0.0208    0.0237    0.0059    0.0137
          30    0.0633    0.1582   -0.0597    0.0373   -0.0321    0.0310    0.0150   -0.0130
          31    0.0224   -0.0647   -0.1220    0.1351    0.0196   -0.0059   -0.0907   -0.0312
          32    0.0047    0.0164    0.0266   -0.0134    0.0079   -0.0015   -0.0667   -0.0193
          33    0.0369   -0.0231   -0.0422    0.1544    0.0674   -0.0022   -0.2014   -0.0613
          34   -0.0461    0.0452    0.1612   -0.0042   -0.0594   -0.0036    0.0236    0.0091
          35   -0.0028   -0.0365   -0.0849   -0.0325   -0.0584   -0.0121   -0.0186   -0.0099
          36   -0.0482    0.0548    0.1814   -0.0283   -0.0860   -0.0091   -0.0058    0.0015
          37    0.0700    0.0559   -0.0322    0.0445   -0.0526    0.0600    0.0497   -0.0490
          38    0.0205    0.0016   -0.0028    0.0105   -0.0136    0.0158    0.0192   -0.0265
          39    0.0226    0.0899   -0.0489    0.0503   -0.0588    0.0650    0.0167    0.0241
          40    0.0157    0.0011    0.0010   -0.0022   -0.0029   -0.0039   -0.0454    0.0816
          41   -0.0143   -0.0431    0.0258   -0.0277    0.0260   -0.0364   -0.0582    0.0769
          42   -0.0613    0.0065   -0.0005   -0.0119    0.0050   -0.0168   -0.1120    0.1988
          43    0.0784   -0.0400    0.0260   -0.0076    0.0060   -0.0066    0.0476   -0.1172
          44    0.0186   -0.0821    0.0464   -0.0322    0.0330   -0.0378    0.0123   -0.0713
          45    0.0151   -0.0570    0.0357   -0.0228    0.0225   -0.0266    0.0149   -0.0704
          46   -0.0722    0.0359    0.0015    0.0020    0.0085   -0.0181    0.0187   -0.0977
          47   -0.0479   -0.0802    0.0214    0.0136   -0.0655    0.2940   -0.0024   -0.0206
          48   -0.0738   -0.0276   -0.0023    0.0104   -0.0256    0.1288   -0.0104   -0.0039
          49   -0.0805    0.0081   -0.0577   -0.0005    0.0139   -0.0081   -0.0434   -0.0228
          50    0.0090    0.0288    0.0256   -0.1300    0.1500    0.2140   -0.0857   -0.0098
          51   -0.0479    0.0294    0.0199   -0.0595    0.0598    0.0893   -0.0487   -0.0256


   Root No.      17        18        19        20        21        22        23        24

                17 A      18 A      19 A      20 A      21 A      22 A      23 A      24 A   

                1009.3    1032.3    1082.5    1115.3    1126.8    1157.0    1168.3    1169.8
  
           1    0.0008   -0.0096   -0.0209   -0.0030   -0.0071    0.0024   -0.0066    0.0027
           2    0.0271   -0.0053   -0.0577   -0.0020   -0.0075    0.0364    0.0101    0.0016
           3    0.0138   -0.0056   -0.0551    0.0049    0.0052   -0.0123    0.0247   -0.0126
           4   -0.0040    0.0170    0.0006    0.0068    0.0163    0.0007    0.0128   -0.0031
           5    0.0095   -0.0248    0.0041    0.0573    0.0015   -0.0015   -0.0046   -0.0110
           6   -0.0006    0.0107   -0.0117    0.0275    0.0425    0.0139   -0.0358    0.0204
           7   -0.0346   -0.0100   -0.0119    0.0002   -0.0023    0.0604    0.0148   -0.0073
           8   -0.0330    0.0023    0.0094    0.0004    0.0022   -0.0111   -0.0072    0.0097
           9    0.0349    0.0103    0.0242   -0.0022   -0.0024    0.0682    0.0012   -0.0085
          10    0.0047   -0.0234    0.0019   -0.0050   -0.0167   -0.0015   -0.0008    0.0001
          11   -0.0044    0.0064   -0.0007   -0.0607    0.0103   -0.0004    0.0053    0.0027
          12   -0.0005   -0.0100    0.0074   -0.0331   -0.0450   -0.0100    0.0094   -0.0186
          13    0.0094    0.0051   -0.0016    0.0026    0.0120   -0.0128   -0.0150   -0.0348
          14   -0.0157   -0.0106    0.0286    0.0054    0.0064   -0.0111   -0.0022   -0.0123
          15   -0.0127   -0.0120    0.0057   -0.0006    0.0048    0.0120   -0.0117    0.0095
          16    0.0014    0.0057   -0.0079   -0.0040    0.0113    0.0031   -0.0420   -0.0144
          17   -0.0022    0.0348   -0.0158   -0.0075   -0.0092    0.0048   -0.0014    0.0059
          18    0.0027    0.0145   -0.0015    0.0029   -0.0096   -0.0059    0.0225   -0.0047
          19    0.0050    0.0058    0.0211   -0.0005   -0.0005   -0.0135   -0.0040    0.0050
          20    0.0020   -0.0025    0.0122   -0.0002   -0.0013   -0.0113    0.0009    0.0033
          21   -0.0300   -0.0038    0.0159   -0.0004    0.0000   -0.0215   -0.0053    0.0007
          22    0.0294   -0.0309    0.0238   -0.0224   -0.0775   -0.0017    0.0229    0.3225
          23    0.0245    0.0377    0.1657   -0.0027    0.0104    0.0177   -0.0425   -0.0517
          24    0.0182    0.0432    0.2391   -0.0005    0.0102   -0.0367   -0.0315    0.0034
          25    0.0314   -0.0801    0.0499    0.0463    0.1675   -0.0041    0.2179    0.0550
          26    0.0001    0.0110   -0.0036   -0.0105    0.1142    0.0194    0.0200    0.0509
          27   -0.0024    0.0212   -0.0117   -0.0115    0.1318    0.0279   -0.0010    0.0686
          28   -0.0759    0.2037   -0.0049    0.2228   -0.1061    0.0039    0.0844    0.0575
          29   -0.0210    0.0576   -0.0021    0.1012   -0.0333    0.0012    0.0210    0.0154
          30    0.0045   -0.0178    0.0035    0.2100   -0.0167    0.0101   -0.0280    0.0158
          31    0.1404    0.0146   -0.0442   -0.0025   -0.0033   -0.1364   -0.0217    0.0105
          32   -0.1398   -0.0122   -0.0211    0.0038    0.0078   -0.0361   -0.0062    0.0131
          33   -0.1336   -0.0113   -0.0964    0.0062    0.0153   -0.2030   -0.0295    0.0146
          34    0.0481    0.0053   -0.0592    0.0075    0.0122   -0.1728   -0.0023    0.0159
          35    0.2469    0.0477    0.0582   -0.0062   -0.0032   -0.0073   -0.0326    0.0107
          36    0.1125    0.0262   -0.0396    0.0079    0.0174   -0.2255   -0.0185    0.0191
          37   -0.0313    0.0712    0.0053   -0.1580   -0.0031   -0.0107    0.0460   -0.0067
          38   -0.0097    0.0207    0.0036   -0.0763   -0.0030   -0.0055    0.0192   -0.0063
          39   -0.0295    0.0641   -0.0043   -0.2020    0.0274   -0.0038    0.0258    0.0076
          40    0.0069   -0.0322   -0.0011   -0.0118   -0.0043    0.0020   -0.0026    0.0125
          41    0.0209   -0.0679    0.0027    0.0281   -0.0295   -0.0021   -0.0029    0.0001
          42    0.0198   -0.0763   -0.0064   -0.0250   -0.0058    0.0057   -0.0152    0.0286
          43   -0.0015   -0.0093    0.0239   -0.0041   -0.1007   -0.0241    0.0458   -0.0399
          44    0.0145   -0.0488    0.0200    0.0361   -0.1001   -0.0202    0.0246   -0.0370
          45    0.0107   -0.0434    0.0211    0.0257   -0.1190   -0.0234    0.0233   -0.0442
          46    0.0110   -0.0428    0.0322   -0.0539   -0.0839    0.0234   -0.0721    0.1875
          47    0.0000   -0.0802    0.0354    0.0259    0.0355   -0.0038   -0.0228   -0.0141
          48    0.0056   -0.0462    0.0287    0.0084   -0.0070   -0.0052    0.0069    0.0267
          49    0.0295   -0.0119    0.1136    0.0122    0.0452   -0.0879    0.1836   -0.0173
          50    0.0544    0.0394   -0.0707   -0.0102   -0.0209    0.0122    0.0072    0.0043
          51    0.0216    0.0064   -0.0175   -0.0054    0.0000    0.0088    0.0298    0.0206


   Root No.      25        26        27        28        29        30        31        32

                25 A      26 A      27 A      28 A      29 A      30 A      31 A      32 A   

                1211.0    1230.8    1258.2    1338.6    1366.1    1402.9    1407.1    1410.9
  
           1   -0.0145   -0.0222    0.0282    0.0233    0.0276    0.0085    0.0022   -0.0005
           2   -0.0022   -0.0103    0.0289   -0.0067    0.0018    0.0046    0.0013   -0.0004
           3    0.0272    0.0179   -0.0326   -0.0024   -0.0064   -0.0029   -0.0008    0.0001
           4   -0.0193    0.0082   -0.0084   -0.0419    0.0146    0.0565    0.0151   -0.0078
           5   -0.0100    0.0077   -0.0062   -0.0154    0.0072   -0.0020    0.0016    0.0005
           6    0.0188    0.0068    0.0065   -0.0136    0.0146   -0.0325   -0.0004    0.0052
           7    0.0089    0.0059   -0.0042    0.0017    0.0057    0.0049    0.0013   -0.0004
           8   -0.0031    0.0165   -0.0253   -0.0099   -0.0222   -0.0146   -0.0038    0.0011
           9    0.0021    0.0080   -0.0129   -0.0037   -0.0093   -0.0064   -0.0017    0.0005
          10    0.0058   -0.0020    0.0046    0.0024    0.0069   -0.0006   -0.0009    0.0341
          11    0.0006   -0.0026    0.0003   -0.0045    0.0091    0.0046   -0.0344   -0.0053
          12   -0.0058    0.0043   -0.0006   -0.0102    0.0145    0.0020    0.0130   -0.0172
          13    0.0039    0.0047   -0.0428    0.0042   -0.0218   -0.0210   -0.0057    0.0017
          14    0.0109   -0.0065   -0.0214   -0.0071   -0.0017    0.0031    0.0011   -0.0001
          15   -0.0222    0.0093    0.0443    0.0172    0.0071   -0.0071   -0.0020    0.0005
          16    0.0007    0.0228    0.0022    0.0125   -0.0173   -0.0248   -0.0064    0.0020
          17    0.0094    0.0060    0.0190    0.0100   -0.0002   -0.0059   -0.0019    0.0001
          18   -0.0184   -0.0178   -0.0384   -0.0154   -0.0037    0.0133    0.0028   -0.0012
          19   -0.0037   -0.0049    0.0085   -0.0041   -0.0002    0.0021    0.0006   -0.0002
          20   -0.0022   -0.0060    0.0124   -0.0009    0.0029    0.0029    0.0008   -0.0002
          21   -0.0055   -0.0164    0.0276   -0.0032    0.0043    0.0052    0.0014   -0.0004
          22   -0.1274    0.1607   -0.0400   -0.0259   -0.0401   -0.0165   -0.0048    0.0009
          23   -0.0134   -0.0578    0.0554    0.0072    0.0160    0.0077    0.0022   -0.0004
          24   -0.0155    0.0100   -0.0195    0.0033   -0.0066   -0.0061   -0.0018    0.0005
          25   -0.0965   -0.1219   -0.0581    0.0395    0.0153   -0.1511   -0.0272    0.0369
          26    0.0027   -0.0321    0.0067    0.0724   -0.0872    0.1771    0.0145   -0.0381
          27    0.0200   -0.0343    0.0095    0.0568   -0.0548    0.0827    0.0066   -0.0200
          28    0.0239   -0.0582    0.0207    0.0546    0.0012   -0.0795   -0.0208    0.0195
          29    0.0093   -0.0151    0.0062    0.0071    0.0219   -0.0943   -0.0165    0.0190
          30    0.0160   -0.0095    0.0099    0.0787   -0.1044    0.2082    0.0206   -0.0465
          31   -0.0250   -0.0734    0.1427   -0.1010   -0.0930   -0.0340   -0.0084    0.0023
          32    0.0033    0.0446   -0.0913    0.0592    0.0472    0.0129    0.0031   -0.0008
          33   -0.0091    0.0083   -0.0529    0.0857    0.0866    0.0329    0.0082   -0.0023
          34    0.0040   -0.0028    0.0041   -0.0040    0.0018    0.0048    0.0013   -0.0005
          35   -0.0173    0.0368   -0.1151    0.1563    0.1520    0.0545    0.0136   -0.0035
          36   -0.0012    0.0002   -0.0071   -0.0143   -0.0195   -0.0094   -0.0024    0.0006
          37   -0.0151   -0.0147   -0.0052    0.0500   -0.0580   -0.0515    0.2272   -0.1257
          38   -0.0086   -0.0034   -0.0030    0.0037   -0.0033   -0.0240    0.0868   -0.1131
          39    0.0007   -0.0154   -0.0014    0.0577   -0.0685    0.0328   -0.0549    0.2592
          40    0.0152   -0.0120    0.0063    0.0291   -0.0169   -0.0135   -0.0667   -0.0269
          41    0.0097   -0.0082    0.0090    0.0538   -0.0463   -0.0736    0.3312   -0.0241
          42    0.0382   -0.0284    0.0109    0.0927   -0.0751   -0.0566   -0.1267   -0.1595
          43   -0.0235   -0.0062   -0.0099    0.0323   -0.0372   -0.0077   -0.1961   -0.2492
          44   -0.0136   -0.0013   -0.0020    0.0555   -0.0679    0.0222   -0.0145    0.2115
          45   -0.0143    0.0032   -0.0030    0.0356   -0.0440    0.0156   -0.0088    0.1175
          46    0.2421   -0.1560   -0.0978   -0.0432    0.0233    0.0160    0.0163    0.0028
          47   -0.0042    0.0181    0.0199    0.0067    0.0022   -0.0093   -0.0013    0.0016
          48    0.0195   -0.0480   -0.0600   -0.0288    0.0050    0.0204    0.0080   -0.0001
          49    0.2337    0.1567    0.1454    0.0069    0.0198    0.0173    0.0038   -0.0033
          50   -0.0018   -0.0146   -0.0278   -0.0080   -0.0082    0.0020    0.0001    0.0000
          51    0.0113    0.0350    0.0777    0.0190    0.0121   -0.0020   -0.0010   -0.0002


   Root No.      33        34        35        36        37        38        39        40

                33 A      34 A      35 A      36 A      37 A      38 A      39 A      40 A   

                1422.9    1595.7    1888.0    2945.2    2949.3    3024.6    3035.9    3043.0
  
           1   -0.0050    0.1641   -0.0401    0.0001   -0.0096    0.0001   -0.0005   -0.0005
           2   -0.0047   -0.0742    0.0024    0.0001   -0.0532    0.0000    0.0000   -0.0002
           3    0.0033    0.0323    0.0002   -0.0001    0.0423   -0.0001   -0.0001    0.0002
           4   -0.0468    0.0223    0.0371    0.0105    0.0001    0.0133    0.0017   -0.0007
           5   -0.0218    0.0022    0.0021   -0.0515   -0.0002   -0.0088    0.0008   -0.0001
           6   -0.0307    0.0004   -0.0008    0.0206    0.0000   -0.0318   -0.0067    0.0016
           7   -0.0037   -0.0582    0.0012    0.0000    0.0026   -0.0001    0.0006   -0.0174
           8    0.0109    0.1214   -0.0049    0.0000    0.0035   -0.0001    0.0008   -0.0150
           9    0.0046    0.0520   -0.0032    0.0000   -0.0016    0.0001   -0.0006    0.0150
          10    0.0393   -0.0021    0.0022   -0.0005    0.0000   -0.0031   -0.0007    0.0003
          11    0.0258   -0.0010    0.0005    0.0024    0.0000   -0.0003    0.0004    0.0001
          12    0.0475   -0.0017    0.0002   -0.0011    0.0000    0.0016    0.0002   -0.0002
          13    0.0175   -0.0295    0.2140   -0.0006    0.0007   -0.0003    0.0048    0.0034
          14   -0.0023   -0.0043   -0.0496   -0.0003    0.0009    0.0009    0.0020    0.0152
          15    0.0029    0.0209    0.1120    0.0004   -0.0025   -0.0021   -0.0044   -0.0347
          16    0.0142   -0.0428   -0.2123    0.0007   -0.0004   -0.0002    0.0064    0.0021
          17    0.0052    0.0043    0.0476    0.0008   -0.0003   -0.0029    0.0232   -0.0025
          18   -0.0031   -0.0137   -0.1135   -0.0020    0.0005    0.0065   -0.0523    0.0056
          19   -0.0020   -0.0374   -0.0014    0.0000   -0.0005    0.0000    0.0000    0.0004
          20   -0.0023   -0.0294    0.0020    0.0000   -0.0002    0.0000    0.0000    0.0001
          21   -0.0045   -0.0682    0.0042    0.0000   -0.0014    0.0000    0.0000   -0.0001
          22    0.0085   -0.0987    0.0317   -0.0002    0.1314   -0.0002   -0.0017   -0.0030
          23   -0.0063   -0.0336   -0.0052   -0.0009    0.6269   -0.0010    0.0007    0.0016
          24    0.0056    0.0308    0.0125    0.0007   -0.4967    0.0009   -0.0011    0.0005
          25    0.0459   -0.0220   -0.0458    0.0399    0.0001   -0.0254   -0.0102    0.0007
          26    0.0826    0.0016    0.0018    0.2144    0.0008   -0.2400   -0.0513    0.0131
          27    0.0531   -0.0039   -0.0112   -0.3464   -0.0013    0.3297    0.0726   -0.0186
          28    0.0502   -0.0039    0.0071   -0.1672   -0.0005   -0.1343   -0.0144    0.0041
          29   -0.0034   -0.0069   -0.0005    0.4060    0.0014    0.3487    0.0427   -0.0115
          30    0.0854   -0.0019   -0.0100    0.1025    0.0004    0.0575    0.0039   -0.0013
          31    0.0198    0.1026   -0.0048    0.0000   -0.0134    0.0005   -0.0030    0.0589
          32   -0.0060    0.0286   -0.0028    0.0001   -0.0278    0.0014   -0.0097    0.1906
          33   -0.0201   -0.0843    0.0023    0.0000    0.0085   -0.0005    0.0032   -0.0614
          34   -0.0037   -0.0820    0.0048    0.0001   -0.0287    0.0004   -0.0042    0.1494
          35   -0.0328   -0.0831   -0.0043    0.0000    0.0005    0.0000    0.0004   -0.0121
          36    0.0068    0.0404    0.0028   -0.0001    0.0259   -0.0003    0.0035   -0.1184
          37   -0.1035    0.0033    0.0013    0.0101    0.0000    0.0033    0.0015   -0.0002
          38    0.0001   -0.0001   -0.0008   -0.0190   -0.0001   -0.0108   -0.0045    0.0008
          39   -0.1264    0.0036    0.0010   -0.0019    0.0000   -0.0014   -0.0011    0.0001
          40   -0.0172   -0.0020    0.0031    0.0007    0.0000    0.0297    0.0095   -0.0034
          41   -0.0332   -0.0026   -0.0016    0.0005    0.0000    0.0010    0.0009   -0.0002
          42   -0.1390   -0.0046   -0.0053   -0.0004    0.0000   -0.0111   -0.0031    0.0011
          43   -0.1153    0.0024    0.0017   -0.0035    0.0000    0.0001    0.0010   -0.0002
          44   -0.1244    0.0032    0.0023   -0.0138    0.0000    0.0098    0.0002   -0.0015
          45   -0.0746    0.0016    0.0005    0.0158    0.0001   -0.0131    0.0014    0.0021
          46   -0.0225    0.0165    0.0986   -0.0016   -0.0011    0.0127   -0.1141    0.0103
          47    0.0005    0.0076    0.0470   -0.0116    0.0022    0.0319   -0.2660    0.0185
          48   -0.0126   -0.0027   -0.1016    0.0234   -0.0056   -0.0731    0.5993   -0.0422
          49   -0.0133    0.0350   -0.0992   -0.0001   -0.0009   -0.0028   -0.0113   -0.0706
          50    0.0039   -0.0238   -0.0450    0.0027   -0.0134   -0.0080   -0.0363   -0.1717
          51    0.0007    0.0283    0.1036   -0.0055    0.0278    0.0190    0.0827    0.3908


   Root No.      41        42        43        44        45

                41 A      42 A      43 A      44 A      45 A   

                3043.7    3058.3    3081.2    3086.2    3183.1
  
           1   -0.0007   -0.0013    0.0000    0.0000    0.0000
           2   -0.0025    0.0011    0.0000    0.0000    0.0000
           3    0.0020   -0.0012    0.0000    0.0000    0.0000
           4    0.0004    0.0000    0.0000   -0.0011   -0.0004
           5    0.0001    0.0000    0.0019    0.0013   -0.0002
           6   -0.0010    0.0000   -0.0018    0.0019   -0.0002
           7   -0.0247    0.0212    0.0000    0.0000    0.0000
           8   -0.0214   -0.0360    0.0000    0.0000    0.0000
           9    0.0213   -0.0147    0.0000    0.0000    0.0000
          10   -0.0002    0.0000    0.0036   -0.0427   -0.0137
          11    0.0000    0.0000    0.0423    0.0176   -0.0113
          12    0.0002    0.0000   -0.0280    0.0211   -0.0172
          13   -0.0017   -0.0001    0.0000    0.0000    0.0000
          14   -0.0094    0.0002   -0.0001    0.0001    0.0000
          15    0.0209   -0.0002    0.0002   -0.0003    0.0000
          16   -0.0012    0.0001   -0.0002    0.0003    0.0001
          17    0.0018    0.0001   -0.0001    0.0000   -0.0001
          18   -0.0042   -0.0002    0.0002    0.0005    0.0002
          19    0.0000    0.0005    0.0000    0.0000    0.0000
          20    0.0001    0.0007    0.0000    0.0000    0.0000
          21   -0.0001    0.0013    0.0000    0.0000    0.0000
          22    0.0053   -0.0013    0.0000    0.0000    0.0000
          23    0.0282   -0.0026    0.0000   -0.0001    0.0000
          24   -0.0197    0.0027    0.0000    0.0001    0.0000
          25   -0.0005    0.0000   -0.0003   -0.0002   -0.0004
          26   -0.0081    0.0002   -0.0134    0.0128    0.0011
          27    0.0115   -0.0003    0.0257   -0.0173   -0.0030
          28   -0.0024    0.0001    0.0022    0.0087    0.0003
          29    0.0066   -0.0004   -0.0078   -0.0295   -0.0022
          30    0.0007   -0.0001   -0.0050   -0.0069   -0.0009
          31    0.0841    0.1428    0.0000   -0.0001    0.0000
          32    0.2734    0.3993    0.0001   -0.0002    0.0000
          33   -0.0878   -0.1431    0.0000    0.0001    0.0000
          34    0.2098   -0.3850    0.0000    0.0001    0.0000
          35   -0.0173    0.0070    0.0000    0.0000    0.0000
          36   -0.1662    0.3079    0.0000   -0.0001    0.0000
          37    0.0001    0.0001    0.1155    0.1068   -0.1230
          38   -0.0006   -0.0002   -0.2709   -0.3226    0.2969
          39   -0.0001    0.0000   -0.0774   -0.0600    0.0568
          40    0.0023    0.0002   -0.1321    0.4183    0.3135
          41    0.0001    0.0000    0.0115    0.0436    0.0199
          42   -0.0007   -0.0001    0.0237   -0.1147   -0.0989
          43    0.0001    0.0000   -0.0256   -0.0159   -0.0238
          44    0.0009    0.0001   -0.2468    0.0681   -0.1787
          45   -0.0012   -0.0001    0.3892   -0.0776    0.2530
          46   -0.0081   -0.0004   -0.0005    0.0012    0.0000
          47   -0.0153   -0.0010    0.0015    0.0019    0.0008
          48    0.0345    0.0024   -0.0039   -0.0036   -0.0022
          49    0.0434   -0.0005    0.0005   -0.0005    0.0000
          50    0.1037   -0.0013    0.0009   -0.0009    0.0001
          51   -0.2366    0.0027   -0.0022    0.0022   -0.0002


           MASS-WEIGHTED COORDINATE ANALYSIS (NORMAL COORDINATES)


   Root No.       1         2         3         4         5         6         7         8

                 1 A       2 A       3 A       4 A       5 A       6 A       7 A       8 A   

                  32.2      94.2     130.0     162.3     214.6     355.6     390.0     470.1
  
           1    0.0075   -0.0582    0.0568   -0.0984   -0.1399    0.0644    0.1017   -0.3191
           2   -0.1678   -0.1960    0.0088   -0.0490   -0.1500    0.1014   -0.2719   -0.2939
           3   -0.1406   -0.1376    0.0500    0.0440    0.1240    0.2900   -0.0241    0.1697
           4    0.0055   -0.0671    0.0432   -0.0891   -0.1182   -0.0120   -0.2826    0.3484
           5   -0.2182    0.2066    0.1486    0.0015    0.3272   -0.0608   -0.0352   -0.0931
           6    0.0943    0.0593   -0.0830   -0.0018   -0.1396   -0.2986   -0.0223   -0.0904
           7    0.1793    0.1489    0.3138   -0.0137    0.1555   -0.1072    0.4639    0.0394
           8   -0.0307   -0.0320    0.2189    0.0217    0.0945   -0.0366   -0.0572    0.0100
           9    0.2807    0.1044   -0.0764   -0.0728   -0.1176    0.0678    0.0059   -0.0744
          10   -0.2171    0.2047   -0.2920    0.0976    0.0200   -0.3974   -0.2007    0.0795
          11    0.3941   -0.1357    0.0527    0.0566    0.0357   -0.1102   -0.0859    0.0066
          12   -0.0969    0.0587    0.2227   -0.1757   -0.0781   -0.0130   -0.1103    0.1137
          13    0.0327   -0.0593    0.0110   -0.0408   -0.0968   -0.0196   -0.0360   -0.2545
          14   -0.2238   -0.3666   -0.2369   -0.1056   -0.2260   -0.1044    0.3867    0.0626
          15   -0.0797   -0.2156   -0.2141    0.2462    0.2928    0.0222    0.0168    0.2208
          16   -0.0222   -0.0688    0.0443   -0.0254    0.0099    0.0647   -0.2080    0.1946
          17   -0.1919    0.4104   -0.1893   -0.0880   -0.2796    0.2036    0.2410    0.2487
          18    0.0025    0.1370   -0.2376    0.2336    0.1246   -0.0106    0.1139   -0.2629
          19    0.0273   -0.1409   -0.1663    0.1562    0.1420    0.5121    0.1433   -0.1259
          20    0.3919    0.1301   -0.0893    0.1350    0.1079    0.0428   -0.1535    0.0682
          21   -0.0827   -0.0240    0.2802   -0.1983   -0.1273   -0.0585    0.0476   -0.0908
          22   -0.0303   -0.0372    0.0140   -0.0805   -0.1163    0.0065    0.0626   -0.1447
          23   -0.1128   -0.0763    0.0678   -0.0263   -0.0341    0.0393   -0.1117   -0.1131
          24   -0.1280   -0.0696    0.0936   -0.0166    0.0246    0.0940   -0.0441   -0.0071
          25    0.0169   -0.0125    0.0047   -0.0940   -0.1501    0.0158   -0.0671    0.2275
          26   -0.1847    0.0932    0.1220    0.0119    0.2338   -0.0124   -0.0484   -0.1334
          27   -0.0490    0.0393    0.0261   -0.0018    0.0351   -0.0794   -0.0299   -0.0752
          28    0.0435   -0.0864    0.0900   -0.0132    0.0311   -0.0155   -0.1541    0.0580
          29   -0.0819    0.0449    0.0906    0.0144    0.1636   -0.0210   -0.0461   -0.0823
          30    0.1773   -0.0380   -0.0851   -0.0356   -0.2134   -0.0856    0.0166    0.1245
          31    0.0938    0.0867    0.1376    0.0400    0.1525   -0.0610    0.2643    0.2033
          32    0.0100   -0.0142    0.0122    0.0071   -0.0019    0.0220   -0.0633   -0.0471
          33    0.1832    0.0595   -0.1352    0.0261   -0.0175    0.0949   -0.0195    0.0091
          34    0.0558    0.0641    0.1421   -0.0490    0.0000   -0.1147    0.1465   -0.0548
          35   -0.0437    0.0090    0.1840    0.0083    0.1035   -0.0937    0.1002    0.1402
          36    0.0888    0.0545    0.0310   -0.0766   -0.0962   -0.0752    0.0028   -0.1172
          37   -0.1043    0.1318   -0.2484   -0.2427    0.2108   -0.1742   -0.0533   -0.0473
          38    0.1346   -0.0264   -0.0783   -0.1546    0.1126   -0.0486   -0.0262   -0.0213
          39   -0.1806    0.0753    0.2090    0.2566   -0.1390   -0.0206   -0.0177    0.0220
          40   -0.0548    0.0553   -0.1004   -0.0674    0.0512   -0.0867   -0.0651    0.0385
          41    0.1099   -0.0939    0.2264    0.4195   -0.2482    0.0013   -0.0264    0.0609
          42    0.0016   -0.0174    0.0771   -0.2814    0.0623    0.1267   -0.0563    0.1157
          43   -0.0821    0.0571    0.0120    0.4363   -0.2050   -0.2118   -0.0412   -0.0137
          44    0.2390   -0.0771   -0.1243   -0.2023    0.0986   -0.0567   -0.0325   -0.0122
          45    0.0503   -0.0070   -0.0192   -0.1701    0.0231   -0.0224   -0.0357    0.0232
          46   -0.0259   -0.0274    0.0184    0.0261    0.0739    0.0527   -0.0902    0.1105
          47   -0.0358    0.3483   -0.0711   -0.0195   -0.1811    0.2409    0.0146    0.0516
          48    0.0057    0.1397   -0.0744    0.0742    0.0027    0.0849    0.0028   -0.0715
          49    0.0277   -0.0154   -0.0188    0.0080   -0.0284   -0.0465   -0.0151   -0.1805
          50   -0.0829   -0.3347   -0.0827   -0.0346    0.0076   -0.2176    0.2391    0.0890
          51   -0.0278   -0.1621   -0.0713    0.0709    0.1137   -0.0838    0.0608    0.0746


   Root No.       9        10        11        12        13        14        15        16

                 9 A      10 A      11 A      12 A      13 A      14 A      15 A      16 A   

                 515.0     806.0     854.3     894.8     911.7     921.2     945.6     972.4
  
           1   -0.0508    0.0314   -0.0716    0.0299    0.1171    0.0268    0.2274    0.0442
           2   -0.0240    0.0285    0.0477    0.1880   -0.0787   -0.0236   -0.1966   -0.1118
           3    0.2932   -0.0452    0.0337    0.1336    0.1084    0.0392    0.3075    0.1247
           4   -0.1361   -0.1068    0.0447   -0.0242   -0.0062   -0.0129   -0.0705    0.0673
           5    0.0629    0.3002   -0.1096    0.0296    0.0017    0.0013    0.0038   -0.0709
           6    0.2637   -0.1037    0.0296   -0.0117    0.0365   -0.0149    0.0626   -0.0322
           7   -0.0051    0.0455    0.2344    0.1777    0.0196    0.0080   -0.0187    0.0048
           8    0.0211    0.0258   -0.0341   -0.2139   -0.1091   -0.0321   -0.2734   -0.1018
           9    0.0517   -0.0061    0.0283    0.0313   -0.1265   -0.0319   -0.2432   -0.0765
          10    0.2112   -0.0559    0.0437   -0.0214   -0.0079   -0.0328   -0.1549    0.3122
          11    0.0703    0.0367   -0.0285    0.0508   -0.0852    0.0695   -0.0188    0.1121
          12    0.0585   -0.0379    0.0424    0.0055   -0.0302    0.0116    0.0218   -0.1184
          13   -0.2376   -0.0177   -0.2099    0.0180    0.1145    0.0121    0.0842   -0.0225
          14   -0.0379   -0.2049   -0.0303    0.2330   -0.2973   -0.0894    0.1338    0.0873
          15   -0.3263    0.0571    0.1165    0.0847   -0.1922   -0.0629    0.0468   -0.1164
          16   -0.2433    0.0321   -0.0335   -0.0024    0.0483   -0.0033    0.1005   -0.2037
          17   -0.0814    0.0614    0.0658   -0.1431    0.2297   -0.2736   -0.0119   -0.0374
          18   -0.3623    0.0400   -0.0839   -0.0347    0.1241   -0.1077   -0.0783    0.1530
          19    0.4181    0.0426    0.0292   -0.2981   -0.1877   -0.0319   -0.1532   -0.0180
          20   -0.0066    0.0090   -0.0398   -0.0577    0.1838    0.0504    0.4365    0.1668
          21    0.0197   -0.0334   -0.2803   -0.3228   -0.0012   -0.0036    0.0507    0.0204
          22   -0.0098   -0.0338   -0.0892    0.1320    0.0798    0.0140    0.1063    0.0350
          23    0.0245    0.0845    0.2018    0.2471    0.2248    0.0284   -0.1150   -0.0009
          24    0.1240    0.0748    0.2351    0.3142    0.3549    0.0567    0.0277    0.0837
          25    0.0081    0.1424    0.0028   -0.0404    0.0561   -0.0812   -0.0118   -0.2197
          26   -0.0118   -0.3322    0.1122   -0.0566    0.0581   -0.0489    0.0175   -0.0712
          27    0.0623   -0.2667    0.0964   -0.0467    0.0514   -0.0435    0.0283   -0.0644
          28   -0.0456   -0.1499   -0.0013    0.0987   -0.1967    0.1707    0.0159    0.1340
          29    0.0007   -0.0901    0.0053    0.0283   -0.0548    0.0527    0.0117    0.0347
          30    0.1292    0.4488   -0.1508    0.0857   -0.0845    0.0689    0.0300   -0.0328
          31    0.0457   -0.1834   -0.3078    0.3107    0.0516   -0.0130   -0.1813   -0.0791
          32    0.0096    0.0466    0.0671   -0.0309    0.0207   -0.0034   -0.1333   -0.0489
          33    0.0753   -0.0656   -0.1066    0.3550    0.1776   -0.0049   -0.4023   -0.1554
          34   -0.0941    0.1283    0.4067   -0.0096   -0.1564   -0.0080    0.0471    0.0231
          35   -0.0058   -0.1035   -0.2143   -0.0748   -0.1537   -0.0269   -0.0372   -0.0251
          36   -0.0985    0.1553    0.4577   -0.0651   -0.2265   -0.0203   -0.0115    0.0038
          37    0.1429    0.1584   -0.0812    0.1024   -0.1386    0.1332    0.0992   -0.1242
          38    0.0418    0.0044   -0.0070    0.0241   -0.0358    0.0350    0.0384   -0.0671
          39    0.0462    0.2551   -0.1233    0.1157   -0.1548    0.1443    0.0333    0.0610
          40    0.0321    0.0031    0.0026   -0.0051   -0.0076   -0.0087   -0.0908    0.2067
          41   -0.0291   -0.1222    0.0652   -0.0637    0.0685   -0.0809   -0.1163    0.1948
          42   -0.1250    0.0186   -0.0013   -0.0273    0.0131   -0.0372   -0.2237    0.5036
          43    0.1601   -0.1134    0.0657   -0.0174    0.0157   -0.0147    0.0951   -0.2969
          44    0.0379   -0.2328    0.1170   -0.0741    0.0868   -0.0840    0.0245   -0.1805
          45    0.0308   -0.1617    0.0902   -0.0525    0.0592   -0.0590    0.0297   -0.1784
          46   -0.1474    0.1019    0.0039    0.0045    0.0223   -0.0402    0.0373   -0.2474
          47   -0.0978   -0.2275    0.0541    0.0312   -0.1724    0.6528   -0.0049   -0.0522
          48   -0.1506   -0.0783   -0.0057    0.0238   -0.0674    0.2859   -0.0209   -0.0098
          49   -0.1643    0.0231   -0.1456   -0.0011    0.0365   -0.0179   -0.0867   -0.0578
          50    0.0184    0.0817    0.0646   -0.2990    0.3950    0.4751   -0.1711   -0.0249
          51   -0.0977    0.0834    0.0502   -0.1369    0.1574    0.1983   -0.0973   -0.0649


   Root No.      17        18        19        20        21        22        23        24

                17 A      18 A      19 A      20 A      21 A      22 A      23 A      24 A   

                1009.3    1032.3    1082.5    1115.3    1126.8    1157.0    1168.3    1169.8
  
           1    0.0056   -0.0874   -0.1441   -0.0194   -0.0566    0.0151   -0.0544    0.0211
           2    0.1975   -0.0483   -0.3970   -0.0130   -0.0604    0.2312    0.0840    0.0123
           3    0.1006   -0.0507   -0.3794    0.0310    0.0420   -0.0781    0.2051   -0.0968
           4   -0.0293    0.1550    0.0040    0.0432    0.1302    0.0044    0.1066   -0.0240
           5    0.0692   -0.2259    0.0285    0.3645    0.0117   -0.0093   -0.0381   -0.0844
           6   -0.0041    0.0976   -0.0805    0.1748    0.3396    0.0882   -0.2975    0.1570
           7   -0.2519   -0.0907   -0.0817    0.0016   -0.0184    0.3837    0.1226   -0.0560
           8   -0.2402    0.0214    0.0647    0.0025    0.0172   -0.0705   -0.0601    0.0748
           9    0.2537    0.0936    0.1663   -0.0138   -0.0188    0.4338    0.0098   -0.0654
          10    0.0339   -0.2129    0.0133   -0.0320   -0.1334   -0.0098   -0.0068    0.0006
          11   -0.0322    0.0583   -0.0047   -0.3867    0.0827   -0.0027    0.0441    0.0211
          12   -0.0034   -0.0910    0.0506   -0.2108   -0.3599   -0.0635    0.0779   -0.1428
          13    0.0685    0.0465   -0.0109    0.0167    0.0957   -0.0813   -0.1245   -0.2678
          14   -0.1140   -0.0961    0.1970    0.0347    0.0511   -0.0707   -0.0183   -0.0943
          15   -0.0926   -0.1095    0.0396   -0.0040    0.0381    0.0766   -0.0969    0.0729
          16    0.0104    0.0516   -0.0545   -0.0255    0.0908    0.0195   -0.3492   -0.1111
          17   -0.0157    0.3174   -0.1089   -0.0479   -0.0740    0.0305   -0.0116    0.0456
          18    0.0199    0.1319   -0.0100    0.0183   -0.0769   -0.0374    0.1869   -0.0361
          19    0.0417    0.0615    0.1676   -0.0034   -0.0042   -0.0987   -0.0382    0.0445
          20    0.0165   -0.0265    0.0969   -0.0015   -0.0116   -0.0827    0.0090    0.0297
          21   -0.2520   -0.0399    0.1266   -0.0026    0.0000   -0.1579   -0.0510    0.0064
          22    0.0620   -0.0815    0.0474   -0.0413   -0.1795   -0.0031    0.0552    0.7189
          23    0.0516    0.0995    0.3302   -0.0049    0.0240    0.0326   -0.1022   -0.1153
          24    0.0383    0.1141    0.4767   -0.0010    0.0236   -0.0676   -0.0758    0.0075
          25    0.0663   -0.2113    0.0995    0.0853    0.3881   -0.0075    0.5244    0.1227
          26    0.0002    0.0291   -0.0072   -0.0193    0.2646    0.0357    0.0482    0.1135
          27   -0.0051    0.0558   -0.0233   -0.0212    0.3054    0.0514   -0.0025    0.1529
          28   -0.1601    0.5375   -0.0099    0.4110   -0.2459    0.0072    0.2030    0.1283
          29   -0.0442    0.1520   -0.0041    0.1866   -0.0772    0.0023    0.0505    0.0343
          30    0.0094   -0.0470    0.0069    0.3872   -0.0388    0.0186   -0.0674    0.0353
          31    0.2959    0.0386   -0.0882   -0.0046   -0.0076   -0.2512   -0.0521    0.0235
          32   -0.2947   -0.0321   -0.0421    0.0070    0.0181   -0.0665   -0.0149    0.0292
          33   -0.2816   -0.0298   -0.1922    0.0115    0.0355   -0.3738   -0.0711    0.0325
          34    0.1013    0.0141   -0.1180    0.0138    0.0282   -0.3182   -0.0056    0.0354
          35    0.5205    0.1260    0.1160   -0.0114   -0.0074   -0.0135   -0.0785    0.0238
          36    0.2372    0.0692   -0.0789    0.0145    0.0403   -0.4154   -0.0444    0.0426
          37   -0.0660    0.1878    0.0105   -0.2914   -0.0071   -0.0197    0.1107   -0.0149
          38   -0.0205    0.0546    0.0072   -0.1407   -0.0069   -0.0102    0.0462   -0.0139
          39   -0.0622    0.1691   -0.0085   -0.3726    0.0635   -0.0070    0.0622    0.0169
          40    0.0145   -0.0849   -0.0022   -0.0218   -0.0100    0.0038   -0.0063    0.0279
          41    0.0440   -0.1791    0.0054    0.0518   -0.0684   -0.0038   -0.0070    0.0002
          42    0.0417   -0.2013   -0.0127   -0.0461   -0.0134    0.0105   -0.0366    0.0638
          43   -0.0031   -0.0246    0.0477   -0.0075   -0.2333   -0.0443    0.1102   -0.0888
          44    0.0305   -0.1287    0.0398    0.0666   -0.2320   -0.0372    0.0593   -0.0825
          45    0.0226   -0.1145    0.0421    0.0474   -0.2758   -0.0430    0.0561   -0.0985
          46    0.0232   -0.1130    0.0642   -0.0994   -0.1943    0.0432   -0.1734    0.4180
          47   -0.0001   -0.2118    0.0705    0.0479    0.0823   -0.0070   -0.0549   -0.0315
          48    0.0119   -0.1219    0.0572    0.0155   -0.0161   -0.0095    0.0165    0.0594
          49    0.0622   -0.0314    0.2265    0.0225    0.1047   -0.1618    0.4417   -0.0386
          50    0.1147    0.1041   -0.1409   -0.0188   -0.0485    0.0225    0.0172    0.0096
          51    0.0456    0.0168   -0.0348   -0.0099    0.0000    0.0161    0.0717    0.0459


   Root No.      25        26        27        28        29        30        31        32

                25 A      26 A      27 A      28 A      29 A      30 A      31 A      32 A   

                1211.0    1230.8    1258.2    1338.6    1366.1    1402.9    1407.1    1410.9
  
           1   -0.1176   -0.1992    0.2037    0.2159    0.2662    0.0639    0.0149   -0.0032
           2   -0.0175   -0.0918    0.2089   -0.0620    0.0170    0.0343    0.0087   -0.0026
           3    0.2206    0.1606   -0.2355   -0.0224   -0.0618   -0.0218   -0.0057    0.0009
           4   -0.1563    0.0733   -0.0607   -0.3878    0.1411    0.4234    0.1034   -0.0523
           5   -0.0807    0.0689   -0.0449   -0.1426    0.0694   -0.0153    0.0106    0.0035
           6    0.1523    0.0606    0.0467   -0.1260    0.1410   -0.2434   -0.0031    0.0346
           7    0.0721    0.0528   -0.0305    0.0159    0.0549    0.0370    0.0088   -0.0025
           8   -0.0249    0.1475   -0.1828   -0.0913   -0.2143   -0.1096   -0.0262    0.0074
           9    0.0174    0.0717   -0.0933   -0.0338   -0.0894   -0.0476   -0.0113    0.0035
          10    0.0469   -0.0183    0.0336    0.0219    0.0665   -0.0045   -0.0064    0.2275
          11    0.0050   -0.0229    0.0022   -0.0416    0.0876    0.0348   -0.2356   -0.0352
          12   -0.0470    0.0384   -0.0042   -0.0948    0.1394    0.0146    0.0892   -0.1144
          13    0.0318    0.0417   -0.3096    0.0389   -0.2101   -0.1571   -0.0392    0.0111
          14    0.0887   -0.0584   -0.1546   -0.0660   -0.0163    0.0233    0.0072   -0.0009
          15   -0.1798    0.0836    0.3200    0.1592    0.0680   -0.0534   -0.0137    0.0036
          16    0.0058    0.2045    0.0162    0.1156   -0.1669   -0.1857   -0.0436    0.0132
          17    0.0761    0.0535    0.1375    0.0929   -0.0018   -0.0441   -0.0127    0.0010
          18   -0.1492   -0.1598   -0.2775   -0.1423   -0.0352    0.0993    0.0190   -0.0078
          19   -0.0347   -0.0509    0.0708   -0.0433   -0.0026    0.0186    0.0047   -0.0015
          20   -0.0205   -0.0624    0.1038   -0.0095    0.0323    0.0255    0.0061   -0.0019
          21   -0.0510   -0.1697    0.2301   -0.0347    0.0481    0.0451    0.0113   -0.0033
          22   -0.2990    0.4169   -0.0837   -0.0695   -0.1118   -0.0359   -0.0095    0.0017
          23   -0.0315   -0.1500    0.1159    0.0193    0.0445    0.0168    0.0043   -0.0007
          24   -0.0365    0.0259   -0.0409    0.0089   -0.0183   -0.0133   -0.0036    0.0010
          25   -0.2265   -0.3161   -0.1217    0.1058    0.0427   -0.3278   -0.0539    0.0712
          26    0.0064   -0.0833    0.0141    0.1942   -0.2433    0.3843    0.0287   -0.0736
          27    0.0469   -0.0889    0.0199    0.1523   -0.1529    0.1794    0.0131   -0.0387
          28    0.0561   -0.1509    0.0434    0.1464    0.0032   -0.1724   -0.0412    0.0376
          29    0.0219   -0.0391    0.0131    0.0190    0.0612   -0.2047   -0.0327    0.0367
          30    0.0375   -0.0245    0.0207    0.2110   -0.2913    0.4517    0.0409   -0.0898
          31   -0.0586   -0.1905    0.2988   -0.2707   -0.2596   -0.0738   -0.0167    0.0044
          32    0.0077    0.1156   -0.1913    0.1587    0.1319    0.0279    0.0061   -0.0015
          33   -0.0213    0.0216   -0.1108    0.2299    0.2416    0.0713    0.0163   -0.0044
          34    0.0093   -0.0074    0.0087   -0.0109    0.0051    0.0104    0.0025   -0.0010
          35   -0.0406    0.0954   -0.2411    0.4191    0.4240    0.1183    0.0270   -0.0068
          36   -0.0028    0.0004   -0.0149   -0.0382   -0.0543   -0.0203   -0.0048    0.0011
          37   -0.0355   -0.0382   -0.0110    0.1340   -0.1620   -0.1117    0.4506   -0.2428
          38   -0.0203   -0.0087   -0.0063    0.0100   -0.0092   -0.0521    0.1722   -0.2184
          39    0.0016   -0.0399   -0.0030    0.1547   -0.1911    0.0712   -0.1089    0.5005
          40    0.0357   -0.0311    0.0133    0.0780   -0.0473   -0.0293   -0.1322   -0.0520
          41    0.0228   -0.0214    0.0189    0.1444   -0.1293   -0.1597    0.6569   -0.0466
          42    0.0896   -0.0737    0.0227    0.2486   -0.2097   -0.1227   -0.2512   -0.3080
          43   -0.0552   -0.0162   -0.0207    0.0865   -0.1039   -0.0167   -0.3889   -0.4811
          44   -0.0320   -0.0034   -0.0042    0.1489   -0.1894    0.0481   -0.0287    0.4083
          45   -0.0335    0.0084   -0.0062    0.0954   -0.1228    0.0338   -0.0174    0.2268
          46    0.5680   -0.4048   -0.2047   -0.1158    0.0651    0.0348    0.0323    0.0053
          47   -0.0099    0.0469    0.0416    0.0179    0.0060   -0.0202   -0.0026    0.0030
          48    0.0457   -0.1245   -0.1256   -0.0773    0.0140    0.0442    0.0159   -0.0001
          49    0.5485    0.4064    0.3044    0.0185    0.0553    0.0376    0.0076   -0.0064
          50   -0.0042   -0.0378   -0.0582   -0.0216   -0.0230    0.0043    0.0003    0.0000
[...]
 RED. MASS   0.5877        C  5 --  C  6           +8.9% ( 39.3%)     0.0%
 EFF. MASS   5.2877

 VIBRATION   24   24A       ATOM PAIR        ENERGY CONTRIBUTION    RADIAL
 FREQ.      1169.83        C  1 --  H  8          +37.7% ( 71.5%)     0.6%
 T-DIPOLE    0.1005        C  6 --  H 16          +16.1% ( 46.7%)     0.3%
 TRAVEL      0.1398        C  1 --  C  5           +8.7% ( 34.4%)    91.2%
 RED. MASS   0.4321        C  5 --  H 17           +6.2% ( 29.1%)    16.1%
 EFF. MASS   2.9494

 VIBRATION   25   25A       ATOM PAIR        ENERGY CONTRIBUTION    RADIAL
 FREQ.      1210.99        C  6 --  H 16          +24.5% ( 56.2%)     3.7%
 T-DIPOLE    0.0784        C  5 --  H 17          +23.1% ( 54.6%)     6.4%
 TRAVEL      0.1321        C  1 --  C  5           +8.9% ( 33.8%)    37.0%
 RED. MASS   0.3229        C  1 --  H  8           +8.1% ( 32.3%)    14.8%
 EFF. MASS   3.1932

 VIBRATION   26   26A       ATOM PAIR        ENERGY CONTRIBUTION    RADIAL
 FREQ.      1230.80        C  1 --  H  8          +18.5% ( 50.0%)     4.6%
 T-DIPOLE    0.0931        C  6 --  H 16          +17.1% ( 48.1%)     5.0%
 TRAVEL      0.1244        C  5 --  H 17          +11.5% ( 39.5%)     2.6%
 RED. MASS   0.2791        C  2 --  H  9           +9.0% ( 34.9%)     0.0%
 EFF. MASS   3.5408

 VIBRATION   27   27A       ATOM PAIR        ENERGY CONTRIBUTION    RADIAL
 FREQ.      1258.19        C  1 --  C  5          +21.5% ( 65.1%)    67.5%
 T-DIPOLE    0.1412        C  5 --  C  6          +16.2% ( 56.4%)     6.5%
 TRAVEL      0.0795        C  5 --  H 17          +12.7% ( 49.9%)    18.7%
 RED. MASS   1.0819        C  1 --  O  7           +8.3% ( 40.3%)    25.4%
 EFF. MASS   8.4698

 VIBRATION   28   28A       ATOM PAIR        ENERGY CONTRIBUTION    RADIAL
 FREQ.      1338.63        C  2 --  H  9          +13.8% ( 45.6%)     0.0%
 T-DIPOLE    0.0641        C  2 --  H 10          +13.3% ( 44.7%)     0.1%
 TRAVEL      0.1071        C  2 --  C  6          +13.2% ( 44.6%)    85.3%
 RED. MASS   0.5616        C  3 --  H 12           +9.3% ( 37.5%)     0.7%
 EFF. MASS   4.3894

 VIBRATION   29   29A       ATOM PAIR        ENERGY CONTRIBUTION    RADIAL
 FREQ.      1366.08        C  3 --  H 12          +13.7% ( 43.7%)     2.0%
 T-DIPOLE    0.1721        C  3 --  H 11          +11.0% ( 39.2%)     4.7%
 TRAVEL      0.1133        C  1 --  C  5          +10.3% ( 38.0%)    99.6%
 RED. MASS   0.2630        C  2 --  H 10           +6.8% ( 30.8%)     1.2%
 EFF. MASS   3.8421

 VIBRATION   30   30A       ATOM PAIR        ENERGY CONTRIBUTION    RADIAL
 FREQ.      1402.85        C  2 --  H  9          +26.1% ( 60.9%)     4.7%
 T-DIPOLE    0.0482        C  2 --  H 10          +25.1% ( 59.7%)     4.6%
 TRAVEL      0.1030        C  2 --  C  6          +17.9% ( 50.4%)    93.4%
 RED. MASS   0.8855        C  2 --  C  4          +10.9% ( 39.2%)     0.1%
 EFF. MASS   4.5288

 VIBRATION   31   31A       ATOM PAIR        ENERGY CONTRIBUTION    RADIAL
 FREQ.      1407.08        C  4 --  H 14          +48.8% ( 61.8%)     0.2%
 T-DIPOLE    0.0443        C  4 --  H 13          +24.0% ( 43.4%)     7.6%
 TRAVEL      0.1666        C  4 --  H 15          +15.2% ( 34.5%)    17.0%
 RED. MASS   0.3979        C  2 --  C  4           +5.8% ( 21.4%)    10.9%
 EFF. MASS   1.7266

 VIBRATION   32   32A       ATOM PAIR        ENERGY CONTRIBUTION    RADIAL
 FREQ.      1410.94        C  4 --  H 15          +44.5% ( 58.3%)     0.8%
 T-DIPOLE    0.0640        C  4 --  H 13          +35.7% ( 52.2%)     2.4%
 TRAVEL      0.1712        C  4 --  H 14          +10.7% ( 28.5%)    42.5%
 RED. MASS   0.3952        C  2 --  C  4           +5.8% ( 21.1%)     0.5%
 EFF. MASS   1.6309

 VIBRATION   33   33A       ATOM PAIR        ENERGY CONTRIBUTION    RADIAL
 FREQ.      1422.91        C  2 --  C  4          +21.5% ( 62.3%)    96.1%
 T-DIPOLE    0.0629        C  4 --  H 15          +16.2% ( 54.1%)     3.5%
 TRAVEL      0.0875        C  4 --  H 13          +14.7% ( 51.4%)     2.7%
 RED. MASS   1.3140        C  4 --  H 14          +13.0% ( 48.3%)     5.1%
 EFF. MASS   6.1881        C  2 --  H  9          +10.1% ( 42.6%)     1.0%

 VIBRATION   34   34A       ATOM PAIR        ENERGY CONTRIBUTION    RADIAL
 FREQ.      1595.71        C  1 --  C  3          +26.7% ( 83.4%)    96.6%
 T-DIPOLE    0.7518        C  1 --  O  7          +17.0% ( 66.5%)    91.0%
 TRAVEL      0.0590        C  1 --  C  5          +13.4% ( 59.2%)    69.9%
 RED. MASS   3.9334        C  1 --  H  8          +12.3% ( 56.5%)     2.8%
 EFF. MASS  12.1347        C  3 --  O  7          +12.2% ( 56.4%)    97.6%

 VIBRATION   35   35A       ATOM PAIR        ENERGY CONTRIBUTION    RADIAL
 FREQ.      1888.02        C  5 --  C  6          +43.6% ( 97.6%)    96.4%
 T-DIPOLE    0.4609        C  1 --  C  5          +14.4% ( 56.0%)    52.1%
 TRAVEL      0.0550        C  2 --  C  6          +14.1% ( 55.4%)    54.7%
 RED. MASS   5.3591        C  5 --  H 17          +13.4% ( 54.0%)     3.8%
 EFF. MASS  11.8045        C  6 --  H 16          +13.1% ( 53.6%)     3.6%

 VIBRATION   36   36A       ATOM PAIR        ENERGY CONTRIBUTION    RADIAL
 FREQ.      2945.21        C  2 --  H 10          +52.9% ( 75.6%)    96.9%
 T-DIPOLE    0.0380        C  2 --  H  9          +44.3% ( 69.2%)    96.0%
 TRAVEL      0.1218        C  2 --  C  4           +1.2% ( 11.2%)     0.0%
 RED. MASS   0.5176        C  2 --  C  6           +1.1% ( 11.1%)     0.2%
 EFF. MASS   1.5434

 VIBRATION   37   37A       ATOM PAIR        ENERGY CONTRIBUTION    RADIAL
 FREQ.      2949.30        C  1 --  H  8          +95.8% ( 99.7%)   100.0%
 T-DIPOLE    0.1747        C  1 --  C  3           +1.2% ( 11.3%)    25.4%
 TRAVEL      0.1244        C  1 --  C  5           +1.2% ( 11.3%)    16.9%
 RED. MASS   0.9198        C  1 --  O  7           +1.2% ( 11.2%)    19.8%
 EFF. MASS   1.4779

 VIBRATION   38   38A       ATOM PAIR        ENERGY CONTRIBUTION    RADIAL
 FREQ.      3024.64        C  2 --  H  9          +51.8% ( 71.0%)    98.1%
 T-DIPOLE    0.0679        C  2 --  H 10          +43.9% ( 65.4%)    97.2%
 TRAVEL      0.1317        C  6 --  H 16           +2.2% ( 14.7%)    99.8%
 RED. MASS   0.4609        C  2 --  C  6           +0.7% (  8.2%)    29.2%
 EFF. MASS   1.2859

 VIBRATION   39   39A       ATOM PAIR        ENERGY CONTRIBUTION    RADIAL
 FREQ.      3035.89        C  6 --  H 16          +93.7% ( 98.0%)   100.0%
 T-DIPOLE    0.2985        C  5 --  H 17           +1.7% ( 13.1%)    99.1%
 TRAVEL      0.1223        C  2 --  H  9           +1.6% ( 12.8%)    99.4%
 RED. MASS   0.8589        C  5 --  C  6           +1.3% ( 11.5%)    39.8%
 EFF. MASS   1.4855

 VIBRATION   40   40A       ATOM PAIR        ENERGY CONTRIBUTION    RADIAL
 FREQ.      3043.01        C  5 --  H 17          +66.1% ( 83.0%)   100.0%
 T-DIPOLE    0.2216        C  3 --  H 11          +16.2% ( 41.1%)    97.3%
 TRAVEL      0.1195        C  3 --  H 12          +13.7% ( 37.8%)    96.3%
 RED. MASS   0.4891        C  5 --  C  6           +1.2% ( 11.1%)    39.9%
 EFF. MASS   1.5512

 VIBRATION   41   41A       ATOM PAIR        ENERGY CONTRIBUTION    RADIAL
 FREQ.      3043.74        C  3 --  H 11          +37.8% ( 63.1%)    97.4%
 T-DIPOLE    0.2521        C  3 --  H 12          +30.9% ( 57.1%)    96.2%
 TRAVEL      0.1188        C  5 --  H 17          +27.5% ( 53.9%)   100.0%
 RED. MASS   0.3376        C  3 --  O  7           +0.9% (  9.5%)     0.1%
 EFF. MASS   1.5697

 VIBRATION   42   42A       ATOM PAIR        ENERGY CONTRIBUTION    RADIAL
 FREQ.      3058.34        C  3 --  H 12          +54.0% ( 73.3%)    97.0%
 T-DIPOLE    0.1831        C  3 --  H 11          +44.1% ( 66.3%)    95.3%
 TRAVEL      0.1295        C  1 --  C  3           +0.9% (  9.7%)    89.6%
 RED. MASS   0.4888        C  3 --  O  7           +0.9% (  9.6%)    64.4%
 EFF. MASS   1.3148

 VIBRATION   43   43A       ATOM PAIR        ENERGY CONTRIBUTION    RADIAL
 FREQ.      3081.23        C  4 --  H 15          +64.0% ( 82.5%)    98.7%
 T-DIPOLE    0.0061        C  4 --  H 13          +28.5% ( 55.1%)    92.2%
 TRAVEL      0.1207        C  4 --  H 14           +6.2% ( 25.7%)    61.4%
 RED. MASS   0.5228        C  2 --  C  4           +1.0% ( 10.2%)     0.0%
 EFF. MASS   1.5013

 VIBRATION   44   44A       ATOM PAIR        ENERGY CONTRIBUTION    RADIAL
 FREQ.      3086.15        C  4 --  H 14          +58.0% ( 78.6%)    98.3%
 T-DIPOLE    0.0126        C  4 --  H 13          +36.5% ( 62.4%)    94.6%
 TRAVEL      0.1205        C  4 --  H 15           +4.0% ( 20.7%)    46.6%
 RED. MASS   0.5005        C  2 --  C  4           +1.0% ( 10.3%)     0.0%
 EFF. MASS   1.5044

 VIBRATION   45   45A       ATOM PAIR        ENERGY CONTRIBUTION    RADIAL
 FREQ.      3183.07        C  4 --  H 14          +34.9% ( 56.8%)    97.4%
 T-DIPOLE    0.0301        C  4 --  H 13          +34.2% ( 56.2%)    97.3%
 TRAVEL      0.1365        C  4 --  H 15          +30.7% ( 53.3%)    96.7%
 RED. MASS   0.3278        C  2 --  C  4           +0.3% (  5.1%)    99.7%
 EFF. MASS   1.1362

 SYMMETRY NUMBER FOR POINT-GROUP C1  =  1


          SYSTEM IS A GROUND STATE


    NULL



          MOLECULE IS NOT LINEAR

          THERE ARE 45 GENUINE VIBRATIONS IN THIS SYSTEM
          THIS THERMODYNAMICS CALCULATION IS LIMITED TO
          MOLECULES WHICH HAVE NO INTERNAL ROTATIONS




                    CALCULATED THERMODYNAMIC PROPERTIES
                                          *
   TEMP. (K)   PARTITION FUNCTION   H.O.F.    ENTHALPY  HEAT CAPACITY ENTROPY
                                   KCAL/MOL   CAL/MOLE    CAL/K/MOL  CAL/K/MOL


 298.00  VIB.     0.2360D+03                  3303.4387    22.1619    21.9434
         ROT.     0.2800D+06                   888.2813     2.9808    27.9053
         INT.     0.6609D+08                  4191.7200    25.1427    49.8487
         TRA.     0.9400D+27                  1480.4688     4.9680    39.6599
         TOT.                       -6.138    5672.1888    30.1107    89.5087

 200.00  VIB.     0.3708D+02                  1530.0716    14.3564    14.8306
         ROT.     0.1539D+06                   596.1620     2.9808    26.7166
         INT.     0.5709D+07                  2126.2336    17.3372    41.5472
         TRA.     0.5168D+27                   993.6033     4.9680    37.6788
         TOT.                       -8.690    3119.8368    22.3053    79.2260

 210.00  VIB.     0.4493D+02                  1677.0986    15.0532    15.5478
         ROT.     0.1656D+06                   625.9700     2.9808    26.8621
         INT.     0.7442D+07                  2303.0687    18.0340    42.4098
         TRA.     0.5561D+27                  1043.2834     4.9680    37.9212
         TOT.                       -8.464    3346.3521    23.0020    80.3310

 220.00  VIB.     0.5438D+02                  1831.2218    15.7757    16.2646
         ROT.     0.1776D+06                   655.7781     2.9808    27.0007
         INT.     0.9658D+07                  2486.9999    18.7565    43.2654
         TRA.     0.5963D+27                  1092.9636     4.9680    38.1523
         TOT.                       -8.230    3579.9635    23.7245    81.4177

 230.00  VIB.     0.6576D+02                  1992.6985    16.5238    16.9823
         ROT.     0.1898D+06                   685.5862     2.9808    27.1332
         INT.     0.1248D+08                  2678.2848    19.5046    44.1155
         TRA.     0.6374D+27                  1142.6437     4.9680    38.3731
         TOT.                       -7.989    3820.9285    24.4727    82.4887

 240.00  VIB.     0.7945D+02                  2161.7809    17.2966    17.7018
         ROT.     0.2024D+06                   715.3943     2.9808    27.2601
         INT.     0.1608D+08                  2877.1753    20.2775    44.9619
         TRA.     0.6794D+27                  1192.3239     4.9680    38.5846
         TOT.                       -7.741    4069.4992    25.2455    83.5465

 250.00  VIB.     0.9594D+02                  2338.7085    18.0926    18.4239
         ROT.     0.2151D+06                   745.2024     2.9808    27.3818
         INT.     0.2064D+08                  3083.9109    21.0734    45.8057
         TRA.     0.7223D+27                  1242.0041     4.9680    38.7874
         TOT.                       -7.484    4325.9150    26.0414    84.5931

 260.00  VIB.     0.1158D+03                  2523.7026    18.9096    19.1494
         ROT.     0.2282D+06                   775.0105     2.9808    27.4987
         INT.     0.2642D+08                  3298.7132    21.8904    46.6481
         TRA.     0.7661D+27                  1291.6842     4.9680    38.9822
         TOT.                       -7.220    4590.3974    26.8584    85.6303

 270.00  VIB.     0.1397D+03                  2716.9623    19.7453    19.8786
         ROT.     0.2415D+06                   804.8186     2.9808    27.6112
         INT.     0.3373D+08                  3521.7810    22.7261    47.4898
         TRA.     0.8107D+27                  1341.3644     4.9680    39.1697
         TOT.                       -6.947    4863.1454    27.6941    86.6596

 280.00  VIB.     0.1685D+03                  2918.6614    20.5970    20.6121
         ROT.     0.2550D+06                   834.6267     2.9808    27.7196
         INT.     0.4297D+08                  3753.2881    23.5778    48.3317
         TRA.     0.8561D+27                  1391.0445     4.9680    39.3504
         TOT.                       -6.666    5144.3327    28.5458    87.6821

 290.00  VIB.     0.2032D+03                  3128.9469    21.4621    21.3499
         ROT.     0.2688D+06                   864.4348     2.9808    27.8242
         INT.     0.5462D+08                  3993.3817    24.4429    49.1741
         TRA.     0.9024D+27                  1440.7247     4.9680    39.5247
         TOT.                       -6.376    5434.1064    29.4109    88.6989

 300.00  VIB.     0.2450D+03                  3347.9382    22.3377    22.0922
         ROT.     0.2828D+06                   894.2429     2.9808    27.9253
         INT.     0.6930D+08                  4242.1811    25.3185    50.0175
         TRA.     0.9495D+27                  1490.4049     4.9680    39.6932
         TOT.                       -6.078    5732.5860    30.2865    89.7107

 310.00  VIB.     0.2955D+03                  3575.7275    23.2212    22.8391
         ROT.     0.2971D+06                   924.0510     2.9808    28.0230
         INT.     0.8778D+08                  4499.7785    26.2020    50.8621
         TRA.     0.9973D+27                  1540.0850     4.9680    39.8561
         TOT.                       -5.770    6039.8636    31.1700    90.7181

 320.00  VIB.     0.3564D+03                  3812.3802    24.1100    23.5903
         ROT.     0.3116D+06                   953.8591     2.9808    28.1176
         INT.     0.1110D+09                  4766.2393    27.0908    51.7080
         TRA.     0.1046D+28                  1589.7652     4.9680    40.0138
         TOT.                       -5.454    6356.0045    32.0588    91.7218

 330.00  VIB.     0.4298D+03                  4057.9362    25.0015    24.3459
         ROT.     0.3263D+06                   983.6672     2.9808    28.2094
         INT.     0.1402D+09                  5041.6034    27.9823    52.5552
         TRA.     0.1095D+28                  1639.4454     4.9680    40.1667
         TOT.                       -5.129    6681.0487    32.9503    92.7219

 340.00  VIB.     0.5185D+03                  4312.4116    25.8935    25.1055
         ROT.     0.3412D+06                  1013.4753     2.9808    28.2983
         INT.     0.1769D+09                  5325.8869    28.8743    53.4038
         TRA.     0.1146D+28                  1689.1255     4.9680    40.3150
         TOT.                       -4.795    7015.0124    33.8423    93.7188

 350.00  VIB.     0.6257D+03                  4575.8004    26.7838    25.8689
         ROT.     0.3564D+06                  1043.2834     2.9808    28.3847
         INT.     0.2230D+09                  5619.0838    29.7647    54.2537
         TRA.     0.1196D+28                  1738.8057     4.9680    40.4590
         TOT.                       -4.452    7357.8895    34.7327    94.7127

 360.00  VIB.     0.7551D+03                  4848.0765    27.6706    26.6359
         ROT.     0.3718D+06                  1073.0915     2.9808    28.4687
         INT.     0.2807D+09                  5921.1680    30.6514    55.1046
         TRA.     0.1248D+28                  1788.4859     4.9680    40.5990
         TOT.                       -4.101    7709.6539    35.6195    95.7036

 370.00  VIB.     0.9117D+03                  5129.1955    28.5522    27.4061
         ROT.     0.3874D+06                  1102.8996     2.9808    28.5504
         INT.     0.3531D+09                  6232.0951    31.5330    55.9565
         TRA.     0.1300D+28                  1838.1660     4.9680    40.7351
         TOT.                       -3.740    8070.2612    36.5010    96.6916

 380.00  VIB.     0.1101D+04                  5419.0969    29.4269    28.1792
         ROT.     0.4032D+06                  1132.7077     2.9808    28.6299
         INT.     0.4439D+09                  6551.8047    32.4077    56.8090
         TRA.     0.1354D+28                  1887.8462     4.9680    40.8676
         TOT.                       -3.371    8439.6508    37.3757    97.6766

 390.00  VIB.     0.1330D+04                  5717.7060    30.2935    28.9548
         ROT.     0.4192D+06                  1162.5158     2.9808    28.7073
         INT.     0.5576D+09                  6880.2218    33.2743    57.6621
         TRA.     0.1407D+28                  1937.5263     4.9680    40.9966
         TOT.                       -2.992    8817.7482    38.2423    98.6587

 400.00  VIB.     0.1607D+04                  6024.9358    31.1508    29.7326
         ROT.     0.4354D+06                  1192.3239     2.9808    28.7828
         INT.     0.6998D+09                  7217.2597    34.1316    58.5153
         TRA.     0.1462D+28                  1987.2065     4.9680    41.1224
         TOT.                       -2.606    9204.4662    39.0997    99.6377

   *: NOTE: HEATS OF FORMATION ARE RELATIVE TO THE
            ELEMENTS IN THEIR STANDARD STATE AT 298K
              (=  Standard Enthalpy of Formation).

            Hvib:  Zero-point energy is not included.
                   frequencies of less than zero cm-1 are not included.
            Hrot = (3/2)RT
            Htra = (3/2)RT + pV = (5/2)RT

            Heat capacity is Cp, not Cv

           For more information, see: HTTP://OpenMOPAC.net/Manual/thermochemistry.html


           FORCE CONSTANT IN CARTESIAN COORDINATES (Millidynes/A)

    ATOM   CHEMICAL       X               Y               Z
   NUMBER   SYMBOL  FORCE CONSTANT  FORCE CONSTANT  FORCE CONSTANT

      1       C       10.794128        8.012910        6.636526
      2       C        8.902965        8.036593        8.477880
      3       C        7.315021       10.996063        6.479722
      4       C        8.431694        8.217903        8.207363
      5       C       13.237961        3.940035       10.287465
      6       C       13.088679        3.931485       10.211225
      7       O        3.337205        3.098243        6.026792
      8       H        0.887562        3.076397        2.111954
      9       H        0.785256        2.009076        3.603909
     10       H        1.224375        4.199743        0.844786
     11       H        1.006847        4.340480        1.007498
     12       H        3.328964        0.729189        2.305341
     13       H        1.272887        4.625113        0.882420
     14       H        5.030233        0.704237        1.057258
     15       H        0.709628        2.121812        3.950888
     16       H        0.915212        1.110743        4.189266
     17       H        0.906468        1.097915        4.227521



 TOTAL CPU TIME:             1.36 SECONDS

 == MOPAC DONE ==
