 *******************************************************************************
 ** Site#: 14399           For non-commercial use only        Version 13.159M **
 *******************************************************************************
 ** Cite this work as: MOPAC2012, James J. P. Stewart, Stewart Computational  **
 ** Chemistry, Version 13.159M web: HTTP://OpenMOPAC.net  Days remaining:   6 **
 *******************************************************************************
 **                                                                           **
 **                                MOPAC2012                                  **
 **                                                                           **
 *******************************************************************************

                            PM3 CALCULATION RESULTS


 *******************************************************************************
 *  CALCULATION DONE:                                Mon Jun  2 11:05:21 2014  *
 *  PM3      - The PM3 Hamiltonian to be used
 *  PRECISE  - CRITERIA TO BE INCREASED BY 100 TIMES
 *  NOSYM    - POINT-GROUP SYMMETRY SET TO C1
 *  T=       - A TIME OF 172800.0 SECONDS REQUESTED
 *  DUMP=N   - RESTART FILE WRITTEN EVERY  7200.000 SECONDS
 *******************************************************************************
pm3  precise nosym
 InChI=1S/C11H18/c1-3-6-11-8-5-7-10(4-2)9-11/h3,5-7,10-11H,4,8-9H2,1-2H3

   ATOM   CHEMICAL          X               Y               Z
  NUMBER   SYMBOL      (ANGSTROMS)     (ANGSTROMS)     (ANGSTROMS)
 
     1       C         -1.69820000  *  -0.48250000  *  -0.25720000  *
     2       C          0.84510000  *  -0.48770000  *  -0.04670000  *
     3       C         -0.43050000  *   0.36450000  *  -0.00870000  *
     4       C         -2.99000000  *   0.26870000  *   0.11490000  *
     5       C          0.77000000  *  -1.60340000  *   1.00790000  *
     6       C         -3.24150000  *   1.53770000  *  -0.69640000  *
     7       C          4.24260000  *   1.34580000  *  -0.48530000  *
     8       C         -1.65780000  *  -1.82220000  *   0.44920000  *
     9       C          2.06750000  *   0.36720000  *   0.17450000  *
    10       C         -0.55000000  *  -2.32670000  *   1.01320000  *
    11       C          3.04260000  *   0.48720000  *  -0.73610000  *
    12       H          0.88830000  *  -0.97600000  *  -1.05110000  *
    13       H         -1.74690000  *  -0.72430000  *  -1.34530000  *
    14       H         -0.35960000  *   1.16370000  *  -0.78350000  *
    15       H         -0.50140000  *   0.87210000  *   0.98340000  *
    16       H         -2.98930000  *   0.52620000  *   1.20000000  *
    17       H         -3.86930000  *  -0.39690000  *  -0.05430000  *
    18       H          1.57850000  *  -2.34400000  *   0.80710000  *
    19       H          0.93220000  *  -1.20640000  *   2.03720000  *
    20       H         -2.48220000  *   2.32000000  *  -0.47170000  *
    21       H         -3.23310000  *   1.32000000  *  -1.78870000  *
    22       H         -4.23830000  *   1.96060000  *  -0.43570000  *
    23       H          4.92900000  *   1.30850000  *  -1.36110000  *
    24       H          3.93430000  *   2.40390000  *  -0.32600000  *
    25       H          4.79670000  *   0.98360000  *   0.41030000  *
    26       H          2.14910000  *   0.90720000  *   1.11850000  *
    27       H         -0.60630000  *  -3.29120000  *   1.51580000  *
    28       H         -2.56070000  *  -2.43210000  *   0.46510000  *
    29       H          2.97910000  *  -0.04350000  *  -1.68560000  *
 


          CARTESIAN COORDINATES 

    NO.       ATOM         X         Y         Z

     1         C       -1.6982   -0.4825   -0.2572
     2         C        0.8451   -0.4877   -0.0467
     3         C       -0.4305    0.3645   -0.0087
     4         C       -2.9900    0.2687    0.1149
     5         C        0.7700   -1.6034    1.0079
     6         C       -3.2415    1.5377   -0.6964
     7         C        4.2426    1.3458   -0.4853
     8         C       -1.6578   -1.8222    0.4492
     9         C        2.0675    0.3672    0.1745
    10         C       -0.5500   -2.3267    1.0132
    11         C        3.0426    0.4872   -0.7361
    12         H        0.8883   -0.9760   -1.0511
    13         H       -1.7469   -0.7243   -1.3453
    14         H       -0.3596    1.1637   -0.7835
    15         H       -0.5014    0.8721    0.9834
    16         H       -2.9893    0.5262    1.2000
    17         H       -3.8693   -0.3969   -0.0543
    18         H        1.5785   -2.3440    0.8071
    19         H        0.9322   -1.2064    2.0372
    20         H       -2.4822    2.3200   -0.4717
    21         H       -3.2331    1.3200   -1.7887
    22         H       -4.2383    1.9606   -0.4357
    23         H        4.9290    1.3085   -1.3611
    24         H        3.9343    2.4039   -0.3260
    25         H        4.7967    0.9836    0.4103
    26         H        2.1491    0.9072    1.1185
    27         H       -0.6063   -3.2912    1.5158
    28         H       -2.5607   -2.4321    0.4651
    29         H        2.9791   -0.0435   -1.6856

  H: (PM3): J. J. P. STEWART, J. COMP. CHEM. 10, 209 (1989).
  C: (PM3): J. J. P. STEWART, J. COMP. CHEM. 10, 209 (1989).

           Empirical Formula: C11 H18  =    29 atoms



      MOLECULAR POINT GROUP   :   C1  


      RHF CALCULATION, NO. OF DOUBLY OCCUPIED LEVELS =   31

      Geometry optimization using EF

          DIAGONAL MATRIX USED AS START HESSIAN

 CYCLE:     1 TIME:   0.015 TIME LEFT:  2.00D  GRAD.:    60.064 HEAT:-1.544290
 CYCLE:     2 TIME:   0.030 TIME LEFT:  2.00D  GRAD.:    55.125 HEAT:-2.669169
 CYCLE:     3 TIME:   0.011 TIME LEFT:  2.00D  GRAD.:    59.845 HEAT:-3.025872
 CYCLE:     4 TIME:   0.011 TIME LEFT:  2.00D  GRAD.:    61.111 HEAT:-3.133171
 CYCLE:     5 TIME:   0.021 TIME LEFT:  2.00D  GRAD.:    31.146 HEAT:-3.787946
 CYCLE:     6 TIME:   0.021 TIME LEFT:  2.00D  GRAD.:    13.179 HEAT:-4.005956
 CYCLE:     7 TIME:   0.012 TIME LEFT:  2.00D  GRAD.:    15.112 HEAT:-4.137552
 CYCLE:     8 TIME:   0.011 TIME LEFT:  2.00D  GRAD.:    18.843 HEAT:-4.246558
 CYCLE:     9 TIME:   0.011 TIME LEFT:  2.00D  GRAD.:    23.782 HEAT:-4.304034
 CYCLE:    10 TIME:   0.021 TIME LEFT:  2.00D  GRAD.:    13.674 HEAT:-4.430404
 CYCLE:    11 TIME:   0.020 TIME LEFT:  2.00D  GRAD.:     9.904 HEAT:-4.486563
 CYCLE:    12 TIME:   0.011 TIME LEFT:  2.00D  GRAD.:     9.166 HEAT:-4.529333
 CYCLE:    13 TIME:   0.012 TIME LEFT:  2.00D  GRAD.:    14.865 HEAT:-4.538766
 CYCLE:    14 TIME:   0.011 TIME LEFT:  2.00D  GRAD.:    16.108 HEAT:-4.542576
 CYCLE:    15 TIME:   0.020 TIME LEFT:  2.00D  GRAD.:     6.837 HEAT:-4.612954
 CYCLE:    16 TIME:   0.020 TIME LEFT:  2.00D  GRAD.:     5.629 HEAT:-4.625955
 CYCLE:    17 TIME:   0.011 TIME LEFT:  2.00D  GRAD.:     6.133 HEAT:-4.633333
 CYCLE:    18 TIME:   0.011 TIME LEFT:  2.00D  GRAD.:     5.782 HEAT:-4.645131
 CYCLE:    19 TIME:   0.011 TIME LEFT:  2.00D  GRAD.:     6.024 HEAT:-4.654374
 CYCLE:    20 TIME:   0.011 TIME LEFT:  2.00D  GRAD.:     6.189 HEAT:-4.667074
 CYCLE:    21 TIME:   0.011 TIME LEFT:  2.00D  GRAD.:     9.367 HEAT:-4.667115
 CYCLE:    22 TIME:   0.011 TIME LEFT:  2.00D  GRAD.:     7.858 HEAT:-4.686044
 CYCLE:    23 TIME:   0.020 TIME LEFT:  2.00D  GRAD.:     7.868 HEAT:-4.688942
 CYCLE:    24 TIME:   0.011 TIME LEFT:  2.00D  GRAD.:     6.149 HEAT:-4.701674
 CYCLE:    25 TIME:   0.020 TIME LEFT:  2.00D  GRAD.:     5.468 HEAT:-4.707785
 CYCLE:    26 TIME:   0.011 TIME LEFT:  2.00D  GRAD.:     2.553 HEAT:-4.718232
 CYCLE:    27 TIME:   0.011 TIME LEFT:  2.00D  GRAD.:     4.469 HEAT:-4.722223
 CYCLE:    28 TIME:   0.011 TIME LEFT:  2.00D  GRAD.:     2.150 HEAT:-4.731478
 CYCLE:    29 TIME:   0.011 TIME LEFT:  2.00D  GRAD.:     3.203 HEAT:-4.738877
 CYCLE:    30 TIME:   0.011 TIME LEFT:  2.00D  GRAD.:     5.574 HEAT:-4.740582
 CYCLE:    31 TIME:   0.011 TIME LEFT:  2.00D  GRAD.:     3.241 HEAT:-4.750649
 CYCLE:    32 TIME:   0.011 TIME LEFT:  2.00D  GRAD.:     5.559 HEAT:-4.751175
 CYCLE:    33 TIME:   0.011 TIME LEFT:  2.00D  GRAD.:     2.086 HEAT:-4.761587
 CYCLE:    34 TIME:   0.011 TIME LEFT:  2.00D  GRAD.:     1.851 HEAT:-4.765633
 CYCLE:    35 TIME:   0.011 TIME LEFT:  2.00D  GRAD.:     1.774 HEAT:-4.769179
 CYCLE:    36 TIME:   0.011 TIME LEFT:  2.00D  GRAD.:     2.017 HEAT:-4.773126
 CYCLE:    37 TIME:   0.011 TIME LEFT:  2.00D  GRAD.:     1.661 HEAT:-4.776709
 CYCLE:    38 TIME:   0.011 TIME LEFT:  2.00D  GRAD.:     1.921 HEAT:-4.781741
 CYCLE:    39 TIME:   0.015 TIME LEFT:  2.00D  GRAD.:     2.834 HEAT:-4.785813
 CYCLE:    40 TIME:   0.013 TIME LEFT:  2.00D  GRAD.:     2.180 HEAT:-4.789263
 CYCLE:    41 TIME:   0.012 TIME LEFT:  2.00D  GRAD.:     1.601 HEAT:-4.792585
 CYCLE:    42 TIME:   0.013 TIME LEFT:  2.00D  GRAD.:     1.265 HEAT:-4.796123
 CYCLE:    43 TIME:   0.011 TIME LEFT:  2.00D  GRAD.:     1.203 HEAT:-4.799180
 CYCLE:    44 TIME:   0.011 TIME LEFT:  2.00D  GRAD.:     1.087 HEAT:-4.801476
 CYCLE:    45 TIME:   0.012 TIME LEFT:  2.00D  GRAD.:     1.236 HEAT:-4.804629
 CYCLE:    46 TIME:   0.013 TIME LEFT:  2.00D  GRAD.:     1.511 HEAT:-4.808309
 CYCLE:    47 TIME:   0.017 TIME LEFT:  2.00D  GRAD.:     1.388 HEAT:-4.812287
 CYCLE:    48 TIME:   0.014 TIME LEFT:  2.00D  GRAD.:     1.280 HEAT:-4.816242
 CYCLE:    49 TIME:   0.014 TIME LEFT:  2.00D  GRAD.:     1.415 HEAT:-4.820392
 CYCLE:    50 TIME:   0.011 TIME LEFT:  2.00D  GRAD.:     1.586 HEAT:-4.825187
 CYCLE:    51 TIME:   0.011 TIME LEFT:  2.00D  GRAD.:     1.536 HEAT:-4.830352
 CYCLE:    52 TIME:   0.011 TIME LEFT:  2.00D  GRAD.:     1.365 HEAT:-4.834988
 CYCLE:    53 TIME:   0.011 TIME LEFT:  2.00D  GRAD.:     1.247 HEAT:-4.838680
 CYCLE:    54 TIME:   0.011 TIME LEFT:  2.00D  GRAD.:     1.124 HEAT:-4.841667
 CYCLE:    55 TIME:   0.011 TIME LEFT:  2.00D  GRAD.:     0.932 HEAT:-4.843986
 CYCLE:    56 TIME:   0.012 TIME LEFT:  2.00D  GRAD.:     0.787 HEAT:-4.845672
 CYCLE:    57 TIME:   0.011 TIME LEFT:  2.00D  GRAD.:     0.749 HEAT:-4.846959
 CYCLE:    58 TIME:   0.011 TIME LEFT:  2.00D  GRAD.:     0.717 HEAT:-4.848147
 CYCLE:    59 TIME:   0.012 TIME LEFT:  2.00D  GRAD.:     0.668 HEAT:-4.849230
 CYCLE:    60 TIME:   0.011 TIME LEFT:  2.00D  GRAD.:     0.677 HEAT:-4.850264
 CYCLE:    61 TIME:   0.011 TIME LEFT:  2.00D  GRAD.:     0.689 HEAT:-4.851297
 CYCLE:    62 TIME:   0.011 TIME LEFT:  2.00D  GRAD.:     0.763 HEAT:-4.852621
 CYCLE:    63 TIME:   0.012 TIME LEFT:  2.00D  GRAD.:     0.820 HEAT:-4.854255
 CYCLE:    64 TIME:   0.012 TIME LEFT:  2.00D  GRAD.:     0.953 HEAT:-4.856235
 CYCLE:    65 TIME:   0.012 TIME LEFT:  2.00D  GRAD.:     1.105 HEAT:-4.858424
 CYCLE:    66 TIME:   0.012 TIME LEFT:  2.00D  GRAD.:     1.138 HEAT:-4.860696
 CYCLE:    67 TIME:   0.012 TIME LEFT:  2.00D  GRAD.:     1.104 HEAT:-4.863036
 CYCLE:    68 TIME:   0.012 TIME LEFT:  2.00D  GRAD.:     1.043 HEAT:-4.865231
 CYCLE:    69 TIME:   0.011 TIME LEFT:  2.00D  GRAD.:     0.839 HEAT:-4.867124
 CYCLE:    70 TIME:   0.011 TIME LEFT:  2.00D  GRAD.:     0.613 HEAT:-4.868237
 CYCLE:    71 TIME:   0.011 TIME LEFT:  2.00D  GRAD.:     0.484 HEAT:-4.868911
 CYCLE:    72 TIME:   0.011 TIME LEFT:  2.00D  GRAD.:     0.431 HEAT:-4.869592
 CYCLE:    73 TIME:   0.011 TIME LEFT:  2.00D  GRAD.:     0.426 HEAT:-4.870177
 CYCLE:    74 TIME:   0.011 TIME LEFT:  2.00D  GRAD.:     0.447 HEAT:-4.870663
 CYCLE:    75 TIME:   0.011 TIME LEFT:  2.00D  GRAD.:     0.437 HEAT:-4.871137
 CYCLE:    76 TIME:   0.012 TIME LEFT:  2.00D  GRAD.:     0.530 HEAT:-4.871793
 CYCLE:    77 TIME:   0.011 TIME LEFT:  2.00D  GRAD.:     0.639 HEAT:-4.872672
 CYCLE:    78 TIME:   0.012 TIME LEFT:  2.00D  GRAD.:     0.749 HEAT:-4.873816
 CYCLE:    79 TIME:   0.011 TIME LEFT:  2.00D  GRAD.:     0.727 HEAT:-4.875073
 CYCLE:    80 TIME:   0.012 TIME LEFT:  2.00D  GRAD.:     0.784 HEAT:-4.876391
 CYCLE:    81 TIME:   0.012 TIME LEFT:  2.00D  GRAD.:     0.980 HEAT:-4.878344
 CYCLE:    82 TIME:   0.012 TIME LEFT:  2.00D  GRAD.:     1.384 HEAT:-4.881631
 CYCLE:    83 TIME:   0.012 TIME LEFT:  2.00D  GRAD.:     2.178 HEAT:-4.887854
 CYCLE:    84 TIME:   0.012 TIME LEFT:  2.00D  GRAD.:     3.647 HEAT:-4.896551
 CYCLE:    85 TIME:   0.011 TIME LEFT:  2.00D  GRAD.:     4.128 HEAT:-4.900584
 CYCLE:    86 TIME:   0.011 TIME LEFT:  2.00D  GRAD.:     4.221 HEAT:-4.920166
 CYCLE:    87 TIME:   0.011 TIME LEFT:  2.00D  GRAD.:     3.168 HEAT:-4.924888
 CYCLE:    88 TIME:   0.012 TIME LEFT:  2.00D  GRAD.:     2.507 HEAT:-4.944246
 CYCLE:    89 TIME:   0.012 TIME LEFT:  2.00D  GRAD.:     6.857 HEAT:-4.950519
 CYCLE:    90 TIME:   0.011 TIME LEFT:  2.00D  GRAD.:     2.374 HEAT:-4.968916
 CYCLE:    91 TIME:   0.012 TIME LEFT:  2.00D  GRAD.:     1.858 HEAT:-4.981767
 CYCLE:    92 TIME:   0.021 TIME LEFT:  2.00D  GRAD.:     2.958 HEAT:-5.004150
 CYCLE:    93 TIME:   0.011 TIME LEFT:  2.00D  GRAD.:     4.289 HEAT:-5.015754
 CYCLE:    94 TIME:   0.012 TIME LEFT:  2.00D  GRAD.:     3.729 HEAT:-5.040498
 CYCLE:    95 TIME:   0.012 TIME LEFT:  2.00D  GRAD.:     5.143 HEAT:-5.056198
 CYCLE:    96 TIME:   0.011 TIME LEFT:  2.00D  GRAD.:     3.528 HEAT:-5.080112
 CYCLE:    97 TIME:   0.011 TIME LEFT:  2.00D  GRAD.:     3.315 HEAT:-5.110873
 CYCLE:    98 TIME:   0.012 TIME LEFT:  2.00D  GRAD.:     5.369 HEAT:-5.133971
 CYCLE:    99 TIME:   0.011 TIME LEFT:  2.00D  GRAD.:     3.102 HEAT:-5.157550
 CYCLE:   100 TIME:   0.014 TIME LEFT:  2.00D  GRAD.:     3.316 HEAT:-5.180987
 CYCLE:   101 TIME:   0.013 TIME LEFT:  2.00D  GRAD.:     3.263 HEAT:-5.204428
 CYCLE:   102 TIME:   0.011 TIME LEFT:  2.00D  GRAD.:     5.455 HEAT:-5.214371
 CYCLE:   103 TIME:   0.011 TIME LEFT:  2.00D  GRAD.:     3.763 HEAT:-5.232242
 CYCLE:   104 TIME:   0.012 TIME LEFT:  2.00D  GRAD.:     4.196 HEAT:-5.252805
 CYCLE:   105 TIME:   0.011 TIME LEFT:  2.00D  GRAD.:     4.181 HEAT:-5.276313
 CYCLE:   106 TIME:   0.011 TIME LEFT:  2.00D  GRAD.:     3.696 HEAT:-5.306331
 CYCLE:   107 TIME:   0.012 TIME LEFT:  2.00D  GRAD.:     4.701 HEAT:-5.321933
 CYCLE:   108 TIME:   0.011 TIME LEFT:  2.00D  GRAD.:     4.036 HEAT:-5.348430
 CYCLE:   109 TIME:   0.011 TIME LEFT:  2.00D  GRAD.:     3.635 HEAT:-5.367029
 CYCLE:   110 TIME:   0.011 TIME LEFT:  2.00D  GRAD.:     2.210 HEAT:-5.379443
 CYCLE:   111 TIME:   0.011 TIME LEFT:  2.00D  GRAD.:     2.584 HEAT:-5.393728
 CYCLE:   112 TIME:   0.011 TIME LEFT:  2.00D  GRAD.:     2.667 HEAT:-5.405466
 CYCLE:   113 TIME:   0.011 TIME LEFT:  2.00D  GRAD.:     2.596 HEAT:-5.418287
 CYCLE:   114 TIME:   0.011 TIME LEFT:  2.00D  GRAD.:     3.025 HEAT:-5.424611
 CYCLE:   115 TIME:   0.011 TIME LEFT:  2.00D  GRAD.:     2.101 HEAT:-5.433301
 CYCLE:   116 TIME:   0.011 TIME LEFT:  2.00D  GRAD.:     1.154 HEAT:-5.438280
 CYCLE:   117 TIME:   0.012 TIME LEFT:  2.00D  GRAD.:     1.016 HEAT:-5.442428
 CYCLE:   118 TIME:   0.011 TIME LEFT:  2.00D  GRAD.:     1.110 HEAT:-5.444745
 CYCLE:   119 TIME:   0.011 TIME LEFT:  2.00D  GRAD.:     1.155 HEAT:-5.448088
 CYCLE:   120 TIME:   0.012 TIME LEFT:  2.00D  GRAD.:     0.948 HEAT:-5.450358
 CYCLE:   121 TIME:   0.011 TIME LEFT:  2.00D  GRAD.:     0.907 HEAT:-5.452090
 CYCLE:   122 TIME:   0.011 TIME LEFT:  2.00D  GRAD.:     0.797 HEAT:-5.453325
 CYCLE:   123 TIME:   0.011 TIME LEFT:  2.00D  GRAD.:     0.989 HEAT:-5.454815
 CYCLE:   124 TIME:   0.011 TIME LEFT:  2.00D  GRAD.:     1.105 HEAT:-5.457459
 CYCLE:   125 TIME:   0.011 TIME LEFT:  2.00D  GRAD.:     1.163 HEAT:-5.459772
 CYCLE:   126 TIME:   0.012 TIME LEFT:  2.00D  GRAD.:     1.358 HEAT:-5.463843
 CYCLE:   127 TIME:   0.011 TIME LEFT:  2.00D  GRAD.:     0.981 HEAT:-5.465577
 CYCLE:   128 TIME:   0.011 TIME LEFT:  2.00D  GRAD.:     0.842 HEAT:-5.469119
 CYCLE:   129 TIME:   0.012 TIME LEFT:  2.00D  GRAD.:     1.067 HEAT:-5.473421
 CYCLE:   130 TIME:   0.012 TIME LEFT:  2.00D  GRAD.:     1.373 HEAT:-5.478921
 CYCLE:   131 TIME:   0.012 TIME LEFT:  2.00D  GRAD.:     1.428 HEAT:-5.483113
 CYCLE:   132 TIME:   0.012 TIME LEFT:  2.00D  GRAD.:     0.929 HEAT:-5.487198
 CYCLE:   133 TIME:   0.011 TIME LEFT:  2.00D  GRAD.:     0.724 HEAT:-5.488301
 CYCLE:   134 TIME:   0.011 TIME LEFT:  2.00D  GRAD.:     0.730 HEAT:-5.489232
 CYCLE:   135 TIME:   0.011 TIME LEFT:  2.00D  GRAD.:     0.470 HEAT:-5.489776
 CYCLE:   136 TIME:   0.011 TIME LEFT:  2.00D  GRAD.:     0.571 HEAT:-5.490473
 CYCLE:   137 TIME:   0.011 TIME LEFT:  2.00D  GRAD.:     0.347 HEAT:-5.490647
 CYCLE:   138 TIME:   0.011 TIME LEFT:  2.00D  GRAD.:     0.276 HEAT:-5.490883
 CYCLE:   139 TIME:   0.011 TIME LEFT:  2.00D  GRAD.:     0.286 HEAT:-5.491042
 CYCLE:   140 TIME:   0.011 TIME LEFT:  2.00D  GRAD.:     0.381 HEAT:-5.491486
 CYCLE:   141 TIME:   0.011 TIME LEFT:  2.00D  GRAD.:     0.358 HEAT:-5.491689
 CYCLE:   142 TIME:   0.012 TIME LEFT:  2.00D  GRAD.:     0.643 HEAT:-5.492399
 CYCLE:   143 TIME:   0.011 TIME LEFT:  2.00D  GRAD.:     0.551 HEAT:-5.492721
 CYCLE:   144 TIME:   0.012 TIME LEFT:  2.00D  GRAD.:     0.559 HEAT:-5.493766
 CYCLE:   145 TIME:   0.011 TIME LEFT:  2.00D  GRAD.:     0.450 HEAT:-5.494132
 CYCLE:   146 TIME:   0.017 TIME LEFT:  2.00D  GRAD.:     0.658 HEAT:-5.495310
 CYCLE:   147 TIME:   0.019 TIME LEFT:  2.00D  GRAD.:     0.897 HEAT:-5.496306
 CYCLE:   148 TIME:   0.012 TIME LEFT:  2.00D  GRAD.:     0.822 HEAT:-5.497537
 CYCLE:   149 TIME:   0.017 TIME LEFT:  2.00D  GRAD.:     0.599 HEAT:-5.498728
 CYCLE:   150 TIME:   0.016 TIME LEFT:  2.00D  GRAD.:     0.502 HEAT:-5.499223
 CYCLE:   151 TIME:   0.016 TIME LEFT:  2.00D  GRAD.:     0.551 HEAT:-5.500171
 CYCLE:   152 TIME:   0.011 TIME LEFT:  2.00D  GRAD.:     0.444 HEAT:-5.500483
 CYCLE:   153 TIME:   0.014 TIME LEFT:  2.00D  GRAD.:     0.310 HEAT:-5.501111
 CYCLE:   154 TIME:   0.014 TIME LEFT:  2.00D  GRAD.:     0.315 HEAT:-5.501324
 CYCLE:   155 TIME:   0.012 TIME LEFT:  2.00D  GRAD.:     0.372 HEAT:-5.501703
 CYCLE:   156 TIME:   0.011 TIME LEFT:  2.00D  GRAD.:     0.343 HEAT:-5.501883
 CYCLE:   157 TIME:   0.011 TIME LEFT:  2.00D  GRAD.:     0.440 HEAT:-5.502874
 CYCLE:   158 TIME:   0.011 TIME LEFT:  2.00D  GRAD.:     0.471 HEAT:-5.503395
 CYCLE:   159 TIME:   0.012 TIME LEFT:  2.00D  GRAD.:     0.904 HEAT:-5.505355
 CYCLE:   160 TIME:   0.011 TIME LEFT:  2.00D  GRAD.:     0.776 HEAT:-5.506349
 CYCLE:   161 TIME:   0.012 TIME LEFT:  2.00D  GRAD.:     1.625 HEAT:-5.510711
 CYCLE:   162 TIME:   0.012 TIME LEFT:  2.00D  GRAD.:     1.265 HEAT:-5.513555
 CYCLE:   163 TIME:   0.012 TIME LEFT:  2.00D  GRAD.:     0.638 HEAT:-5.515330
 CYCLE:   164 TIME:   0.012 TIME LEFT:  2.00D  GRAD.:     0.851 HEAT:-5.516638
 CYCLE:   165 TIME:   0.012 TIME LEFT:  2.00D  GRAD.:     0.853 HEAT:-5.517876
 CYCLE:   166 TIME:   0.012 TIME LEFT:  2.00D  GRAD.:     0.812 HEAT:-5.518940
 CYCLE:   167 TIME:   0.012 TIME LEFT:  2.00D  GRAD.:     0.750 HEAT:-5.519611
 CYCLE:   168 TIME:   0.013 TIME LEFT:  2.00D  GRAD.:     0.574 HEAT:-5.520085
 CYCLE:   169 TIME:   0.014 TIME LEFT:  2.00D  GRAD.:     0.252 HEAT:-5.520493
 CYCLE:   170 TIME:   0.012 TIME LEFT:  2.00D  GRAD.:     0.287 HEAT:-5.520709
 CYCLE:   171 TIME:   0.012 TIME LEFT:  2.00D  GRAD.:     0.176 HEAT:-5.520892
 CYCLE:   172 TIME:   0.011 TIME LEFT:  2.00D  GRAD.:     0.104 HEAT:-5.520958
 CYCLE:   173 TIME:   0.011 TIME LEFT:  2.00D  GRAD.:     0.088 HEAT:-5.520974
 CYCLE:   174 TIME:   0.011 TIME LEFT:  2.00D  GRAD.:     0.131 HEAT:-5.520983
 CYCLE:   175 TIME:   0.011 TIME LEFT:  2.00D  GRAD.:     0.087 HEAT:-5.520999
 CYCLE:   176 TIME:   0.011 TIME LEFT:  2.00D  GRAD.:     0.100 HEAT:-5.521015
 CYCLE:   177 TIME:   0.011 TIME LEFT:  2.00D  GRAD.:     0.072 HEAT:-5.521028
 CYCLE:   178 TIME:   0.010 TIME LEFT:  2.00D  GRAD.:     0.088 HEAT:-5.521038
 CYCLE:   179 TIME:   0.011 TIME LEFT:  2.00D  GRAD.:     0.104 HEAT:-5.521048
 CYCLE:   180 TIME:   0.011 TIME LEFT:  2.00D  GRAD.:     0.091 HEAT:-5.521060
 CYCLE:   181 TIME:   0.011 TIME LEFT:  2.00D  GRAD.:     0.137 HEAT:-5.521075
 CYCLE:   182 TIME:   0.011 TIME LEFT:  2.00D  GRAD.:     0.100 HEAT:-5.521096
 CYCLE:   183 TIME:   0.011 TIME LEFT:  2.00D  GRAD.:     0.095 HEAT:-5.521108
 CYCLE:   184 TIME:   0.011 TIME LEFT:  2.00D  GRAD.:     0.109 HEAT:-5.521134
 CYCLE:   185 TIME:   0.011 TIME LEFT:  2.00D  GRAD.:     0.121 HEAT:-5.521171
 CYCLE:   186 TIME:   0.011 TIME LEFT:  2.00D  GRAD.:     0.159 HEAT:-5.521236
 CYCLE:   187 TIME:   0.011 TIME LEFT:  2.00D  GRAD.:     0.151 HEAT:-5.521268
 CYCLE:   188 TIME:   0.011 TIME LEFT:  2.00D  GRAD.:     0.146 HEAT:-5.521328
 CYCLE:   189 TIME:   0.011 TIME LEFT:  2.00D  GRAD.:     0.102 HEAT:-5.521344
 CYCLE:   190 TIME:   0.011 TIME LEFT:  2.00D  GRAD.:     0.135 HEAT:-5.521356
 CYCLE:   191 TIME:   0.011 TIME LEFT:  2.00D  GRAD.:     0.043 HEAT:-5.521374

     RMS GRADIENT =  0.04330  IS LESS THAN CUTOFF =  0.05000



 -------------------------------------------------------------------------------
pm3  precise nosym
 InChI=1S/C11H18/c1-3-6-11-8-5-7-10(4-2)9-11/h3,5-7,10-11H,4,8-9H2,1-2H3



     GEOMETRY OPTIMISED USING EIGENVECTOR FOLLOWING (EF).     
     SCF FIELD WAS ACHIEVED                                   


                              PM3 CALCULATION
                                                       MOPAC2012 (Version: 13.159M)
                                                       Mon Jun  2 11:05:23 2014
                                                       No. of days left =   6




          FINAL HEAT OF FORMATION =         -5.52137 KCAL/MOL =     -23.10143 KJ/MOL


          TOTAL ENERGY            =      -1581.27222 EV
          ELECTRONIC ENERGY       =      -9512.86249 EV  POINT GROUP:     C1  
          CORE-CORE REPULSION     =       7931.59027 EV
          COSMO AREA              =        216.52 SQUARE ANGSTROMS
          COSMO VOLUME            =        222.76 CUBIC ANGSTROMS

          GRADIENT NORM           =          0.04330
          IONIZATION POTENTIAL    =          9.630361 EV
          HOMO LUMO ENERGIES (EV) =         -9.630  1.053
          NO. OF FILLED LEVELS    =         31
          MOLECULAR WEIGHT        =        150.263

          MOLECULAR DIMENSIONS (Angstroms)

            Atom       Atom       Distance
            H    25    H    22     7.96995
            H    25    H    22     7.72177
            H    13    H    26     3.09628


          SCF CALCULATIONS        =        203
          COMPUTATION TIME        =          2.343 SECONDS




   ATOM   CHEMICAL          X               Y               Z
  NUMBER   SYMBOL      (ANGSTROMS)     (ANGSTROMS)     (ANGSTROMS)
 
     1       C         -1.68339434  *  -0.45607821  *  -0.22224628  *
     2       C          0.82330856  *  -0.47952086  *  -0.04455560  *
     3       C         -0.43704975  *   0.37492596  *   0.08467906  *
     4       C         -2.96187829  *   0.31435453  *   0.11885806  *
     5       C          0.78447009  *  -1.62863069  *   0.96516774  *
     6       C         -3.23372643  *   1.44091487  *  -0.85327367  *
     7       C          4.21801373  *   1.31738307  *  -0.47624695  *
     8       C         -1.65438409  *  -1.76435281  *   0.50148784  *
     9       C          2.03606125  *   0.36289120  *   0.19218506  *
    10       C         -0.54385054  *  -2.29255687  *   1.01733007  *
    11       C          3.01522002  *   0.48649267  *  -0.70472865  *
    12       H          0.85267725  *  -0.91140189  *  -1.07605953  *
    13       H         -1.69377009  *  -0.69914262  *  -1.31535082  *
    14       H         -0.37949622  *   1.24154936  *  -0.60304419  *
    15       H         -0.50039703  *   0.80273000  *   1.10566568  *
    16       H         -2.89959933  *   0.71003531  *   1.15211285  *
    17       H         -3.82451380  *  -0.38256315  *   0.11986825  *
    18       H          1.56544164  *  -2.37355207  *   0.71623358  *
    19       H          1.02957064  *  -1.26075440  *   1.98297176  *
    20       H         -2.43017817  *   2.19013680  *  -0.84701490  *
    21       H         -3.32813658  *   1.07403418  *  -1.88417078  *
    22       H         -4.16707417  *   1.96180716  *  -0.60378381  *
    23       H          4.30038716  *   2.09539853  *  -1.24717578  *
    24       H          4.21404673  *   1.81832619  *   0.50104313  *
    25       H          5.12636695  *   0.70214879  *  -0.52964392  *
    26       H          2.07857053  *   0.88237301  *   1.15852387  *
    27       H         -0.57394970  *  -3.26200658  *   1.52776557  *
    28       H         -2.60998717  *  -2.29736649  *   0.57569088  *
    29       H          2.96790215  *  -0.03432762  *  -1.66961512  *

           Empirical Formula: C11 H18  =    29 atoms



      MOLECULAR POINT GROUP   :   C1  


                  EIGENVALUES  
 -41.70337 -36.38622 -33.96707 -30.48504 -28.57813 -25.47721 -23.36743 -21.09017
 -20.64526 -19.56171 -17.80810 -17.12349 -16.01309 -15.74701 -15.35985 -14.73230
 -14.51988 -14.30604 -14.03530 -14.02180 -13.38785 -13.03766 -12.97488 -12.53316
 -12.45225 -11.94319 -11.79109 -11.62523 -11.27104  -9.80495  -9.63036   1.05336
   1.17105   3.21709   3.40905   3.57300   3.62709   3.71712   3.77862   3.83137
   3.89924   3.92757   4.04000   4.06682   4.14654   4.30975   4.32853   4.36347
   4.40748   4.49618   4.50601   4.62971   4.71434   4.87474   4.91043   5.00374
   5.08647   5.20404   5.63867   5.83788   5.96995   6.00913


              NET ATOMIC CHARGES AND DIPOLE CONTRIBUTIONS

  ATOM NO.   TYPE          CHARGE      No. of ELECS.   s-Pop       p-Pop       
    1          C          -0.040443        4.0404     1.16556     2.87488
    2          C          -0.042777        4.0428     1.16582     2.87695
    3          C          -0.097406        4.0974     1.16525     2.93215
    4          C          -0.093864        4.0939     1.16125     2.93261
    5          C          -0.057013        4.0570     1.14882     2.90819
    6          C          -0.113173        4.1132     1.13913     2.97405
    7          C          -0.074829        4.0748     1.12529     2.94954
    8          C          -0.150046        4.1500     1.19785     2.95220
    9          C          -0.154160        4.1542     1.19928     2.95488
   10          C          -0.146265        4.1463     1.19392     2.95234
   11          C          -0.142958        4.1430     1.19380     2.94916
   12          H           0.068263        0.9317     0.93174
   13          H           0.069412        0.9306     0.93059
   14          H           0.056615        0.9434     0.94339
   15          H           0.057138        0.9429     0.94286
   16          H           0.052829        0.9472     0.94717
   17          H           0.049434        0.9506     0.95057
   18          H           0.055782        0.9442     0.94422
   19          H           0.058959        0.9410     0.94104
   20          H           0.040488        0.9595     0.95951
   21          H           0.038243        0.9618     0.96176
   22          H           0.037515        0.9625     0.96248
   23          H           0.044071        0.9559     0.95593
   24          H           0.041073        0.9589     0.95893
   25          H           0.044063        0.9559     0.95594
   26          H           0.103916        0.8961     0.89608
   27          H           0.096321        0.9037     0.90368
   28          H           0.099738        0.9003     0.90026
   29          H           0.099072        0.9009     0.90093
 DIPOLE           X         Y         Z       TOTAL
 POINT-CHG.     0.188     0.203    -0.113     0.299
 HYBRID         0.005    -0.023     0.035     0.042
 SUM            0.194     0.180    -0.078     0.276


          ATOMIC ORBITAL ELECTRON POPULATIONS

    Atom      s        px        py        pz   
    1  C   1.16556   0.94733   0.93393   0.99361
    2  C   1.16582   0.93398   0.94905   0.99392
    3  C   1.16525   0.93781   0.97317   1.02117
    4  C   1.16125   0.96688   0.97538   0.99036
    5  C   1.14882   0.95243   0.96785   0.98792
    6  C   1.13913   1.00700   0.98004   0.98701
    7  C   1.12529   0.96015   0.98230   1.00710
    8  C   1.19785   0.97711   0.97317   1.00191
    9  C   1.19928   0.96217   1.00147   0.99124
   10  C   1.19392   0.95477   0.99080   1.00677
   11  C   1.19380   0.96379   0.99691   0.98846
   12  H   0.93174
   13  H   0.93059
   14  H   0.94339
   15  H   0.94286
   16  H   0.94717
   17  H   0.95057
   18  H   0.94422
   19  H   0.94104
   20  H   0.95951
   21  H   0.96176
   22  H   0.96248
   23  H   0.95593
   24  H   0.95893
   25  H   0.95594
   26  H   0.89608
   27  H   0.90368
   28  H   0.90026
   29  H   0.90093
 *******************************************************************************
 ** Site#: 14399           For non-commercial use only        Version 13.159M **
 *******************************************************************************
 ** Cite this work as: MOPAC2012, James J. P. Stewart, Stewart Computational  **
 ** Chemistry, Version 13.159M web: HTTP://OpenMOPAC.net  Days remaining:   6 **
 *******************************************************************************
 **                                                                           **
 **                                MOPAC2012                                  **
 **                                                                           **
 *******************************************************************************

                            PM3 CALCULATION RESULTS


 *******************************************************************************
 *  CALCULATION DONE:                                Mon Jun  2 11:05:23 2014  *
 *  PM3      - The PM3 Hamiltonian to be used
 *  OLDGEO   - PREVIOUS GEOMETRY TO BE USED
 *  PRECISE  - CRITERIA TO BE INCREASED BY 100 TIMES
 *  NOSYM    - POINT-GROUP SYMMETRY SET TO C1
 *  T=       - A TIME OF 172800.0 SECONDS REQUESTED
 *  DUMP=N   - RESTART FILE WRITTEN EVERY  7200.000 SECONDS
 *  THERMO   - THERMODYNAMIC QUANTITIES TO BE CALCULATED
 *******************************************************************************
oldgeo thermo nosym precise  pm3

   ATOM   CHEMICAL          X               Y               Z
  NUMBER   SYMBOL      (ANGSTROMS)     (ANGSTROMS)     (ANGSTROMS)
 
     1       C         -1.68339434  *  -0.45607821  *  -0.22224628  *
     2       C          0.82330856  *  -0.47952086  *  -0.04455560  *
     3       C         -0.43704975  *   0.37492596  *   0.08467906  *
     4       C         -2.96187829  *   0.31435453  *   0.11885806  *
     5       C          0.78447009  *  -1.62863069  *   0.96516774  *
     6       C         -3.23372643  *   1.44091487  *  -0.85327367  *
     7       C          4.21801373  *   1.31738307  *  -0.47624695  *
     8       C         -1.65438409  *  -1.76435281  *   0.50148784  *
     9       C          2.03606125  *   0.36289120  *   0.19218506  *
    10       C         -0.54385054  *  -2.29255687  *   1.01733007  *
    11       C          3.01522002  *   0.48649267  *  -0.70472865  *
    12       H          0.85267725  *  -0.91140189  *  -1.07605953  *
    13       H         -1.69377009  *  -0.69914262  *  -1.31535082  *
    14       H         -0.37949622  *   1.24154936  *  -0.60304419  *
    15       H         -0.50039703  *   0.80273000  *   1.10566568  *
    16       H         -2.89959933  *   0.71003531  *   1.15211285  *
    17       H         -3.82451380  *  -0.38256315  *   0.11986825  *
    18       H          1.56544164  *  -2.37355207  *   0.71623358  *
    19       H          1.02957064  *  -1.26075440  *   1.98297176  *
    20       H         -2.43017817  *   2.19013680  *  -0.84701490  *
    21       H         -3.32813658  *   1.07403418  *  -1.88417078  *
    22       H         -4.16707417  *   1.96180716  *  -0.60378381  *
    23       H          4.30038716  *   2.09539853  *  -1.24717578  *
    24       H          4.21404673  *   1.81832619  *   0.50104313  *
    25       H          5.12636695  *   0.70214879  *  -0.52964392  *
    26       H          2.07857053  *   0.88237301  *   1.15852387  *
    27       H         -0.57394970  *  -3.26200658  *   1.52776557  *
    28       H         -2.60998717  *  -2.29736649  *   0.57569088  *
    29       H          2.96790215  *  -0.03432762  *  -1.66961512  *
 


          CARTESIAN COORDINATES 

    NO.       ATOM         X         Y         Z

     1         C       -1.6834   -0.4561   -0.2222
     2         C        0.8233   -0.4795   -0.0446
     3         C       -0.4370    0.3749    0.0847
     4         C       -2.9619    0.3144    0.1189
     5         C        0.7845   -1.6286    0.9652
     6         C       -3.2337    1.4409   -0.8533
     7         C        4.2180    1.3174   -0.4762
     8         C       -1.6544   -1.7644    0.5015
     9         C        2.0361    0.3629    0.1922
    10         C       -0.5439   -2.2926    1.0173
    11         C        3.0152    0.4865   -0.7047
    12         H        0.8527   -0.9114   -1.0761
    13         H       -1.6938   -0.6991   -1.3154
    14         H       -0.3795    1.2415   -0.6030
    15         H       -0.5004    0.8027    1.1057
    16         H       -2.8996    0.7100    1.1521
    17         H       -3.8245   -0.3826    0.1199
    18         H        1.5654   -2.3736    0.7162
    19         H        1.0296   -1.2608    1.9830
    20         H       -2.4302    2.1901   -0.8470
    21         H       -3.3281    1.0740   -1.8842
    22         H       -4.1671    1.9618   -0.6038
    23         H        4.3004    2.0954   -1.2472
    24         H        4.2140    1.8183    0.5010
    25         H        5.1264    0.7021   -0.5296
    26         H        2.0786    0.8824    1.1585
    27         H       -0.5739   -3.2620    1.5278
    28         H       -2.6100   -2.2974    0.5757
    29         H        2.9679   -0.0343   -1.6696

  H: (PM3): J. J. P. STEWART, J. COMP. CHEM. 10, 209 (1989).
  C: (PM3): J. J. P. STEWART, J. COMP. CHEM. 10, 209 (1989).

           Empirical Formula: C11 H18  =    29 atoms



      MOLECULAR POINT GROUP   :   C1  


      RHF CALCULATION, NO. OF DOUBLY OCCUPIED LEVELS =   31



          HEAT OF FORMATION =      -5.521374 KCALS/MOLE


          INTERNAL COORDINATE DERIVATIVES

   NUMBER  ATOM       BOND         ANGLE      DIHEDRAL

     1       C      0.000279    -0.000094    -0.001190
     2       C      0.000991    -0.000152     0.002306
     3       C     -0.002501    -0.001040     0.001205
     4       C     -0.000611     0.002257    -0.001291
     5       C     -0.001434    -0.001421    -0.001031
     6       C      0.002600     0.000645    -0.004164
     7       C     -0.009943     0.000297     0.000854
     8       C     -0.002127    -0.002693    -0.001115
     9       C     -0.004153     0.003497     0.004314
    10       C      0.001278    -0.000639     0.000950
    11       C      0.006536    -0.000630    -0.003285
    12       H     -0.011251    -0.002422     0.001593
    13       H      0.002217     0.001688    -0.001402
    14       H      0.009959    -0.002066    -0.000171
    15       H     -0.009441     0.003471     0.000395
    16       H     -0.000375    -0.001777    -0.001836
    17       H      0.004312     0.001563    -0.000174
    18       H     -0.000674    -0.003066     0.000367
    19       H     -0.003028    -0.001460     0.002503
    20       H     -0.008706    -0.003988     0.002889
    21       H     -0.001506     0.007079     0.009017
    22       H      0.004742    -0.000792    -0.004099
    23       H      0.004543     0.002261    -0.015277
    24       H     -0.002460     0.006072     0.009132
    25       H      0.018031    -0.009239     0.002057
    26       H     -0.005890     0.000526    -0.001895
    27       H      0.009183     0.001363     0.000135
    28       H     -0.001195    -0.002260     0.002485
    29       H      0.000624     0.003019    -0.003272


          GRADIENT NORM =   0.04367


          TIME FOR SCF CALCULATION =    0.01

          TIME FOR DERIVATIVES     =    0.01

          MOLECULAR WEIGHT =  150.26



          ROTATIONAL CONSTANTS IN CM(-1)

          A =    0.05762139   B =    0.01923410   C =    0.01510350



           PRINCIPAL MOMENTS OF INERTIA IN UNITS OF 10**(-40)*GRAM-CM**2

          A =      485.8053   B =     1455.3722   C =     1853.3965


          ORIENTATION OF MOLECULE IN FORCE CALCULATION

    NO.       ATOM         X         Y         Z

     1          C      -1.7221   -0.3271   -0.0606
     2          C       0.7910   -0.3271   -0.0606
     3          C      -0.4650    0.5434   -0.0606
     4          C      -2.9804    0.5153    0.1663
     5          C       0.8344   -1.1863    1.2049
     6          C      -3.3308    1.3648   -1.0353
     7          C       4.1298    1.2748   -1.1678
     8          C      -1.6298   -1.4126    0.9638
     9          C       2.0096    0.5371   -0.1289
    10          C      -0.4807   -1.8044    1.5155
    11          C       2.9217    0.4236   -1.0951
    12          H       0.7514   -1.0038   -0.9505
    13          H      -1.8075   -0.8361   -1.0544
    14          H      -0.4643    1.2096   -0.9458
    15          H      -0.4600    1.2138    0.8225
    16          H      -2.8489    1.1566    1.0604
    17          H      -3.8343   -0.1516    0.4029
    18          H       1.6027   -1.9766    1.0958
    19          H       1.1474   -0.5774    2.0781
    20          H      -2.5358    2.0846   -1.2737
    21          H      -3.4944    0.7522   -1.9321
    22          H      -4.2490    1.9396   -0.8588
    23          H       4.1502    1.8341   -2.1128
    24          H       4.1903    2.0045   -0.3493
    25          H       5.0378    0.6579   -1.1295
    26          H       2.1154    1.2817    0.6711
    27          H      -0.4656   -2.6148    2.2533
    28          H      -2.5727   -1.9017    1.2366
    29          H       2.8111   -0.3218   -1.8930


    FIRST DERIVATIVES WILL BE USED IN THE CALCULATION OF SECOND DERIVATIVES

          ESTIMATED TIME TO COMPLETE CALCULATION =        5.52 SECONDS

    FOR POINT-GROUP C1   THERE ARE   1 UNIQUE SYMMETRY FUNCTIONS.

 STEP:   1 TIME =     0.05 SECS, INTEGRAL =      0.05 TIME LEFT: 172799.94
 STEP:   2 TIME =     0.05 SECS, INTEGRAL =      0.10 TIME LEFT: 172799.89
 STEP:   3 TIME =     0.05 SECS, INTEGRAL =      0.15 TIME LEFT: 172799.84
 STEP:   4 TIME =     0.05 SECS, INTEGRAL =      0.20 TIME LEFT: 172799.79
 STEP:   5 TIME =     0.05 SECS, INTEGRAL =      0.25 TIME LEFT: 172799.74
 STEP:   6 TIME =     0.05 SECS, INTEGRAL =      0.29 TIME LEFT: 172799.69
 STEP:   7 TIME =     0.05 SECS, INTEGRAL =      0.34 TIME LEFT: 172799.64
 STEP:   8 TIME =     0.05 SECS, INTEGRAL =      0.39 TIME LEFT: 172799.59
 STEP:   9 TIME =     0.05 SECS, INTEGRAL =      0.44 TIME LEFT: 172799.55
 STEP:  10 TIME =     0.05 SECS, INTEGRAL =      0.49 TIME LEFT: 172799.49
 STEP:  11 TIME =     0.05 SECS, INTEGRAL =      0.54 TIME LEFT: 172799.45
 STEP:  12 TIME =     0.05 SECS, INTEGRAL =      0.59 TIME LEFT: 172799.39
 STEP:  13 TIME =     0.05 SECS, INTEGRAL =      0.65 TIME LEFT: 172799.34
 STEP:  14 TIME =     0.05 SECS, INTEGRAL =      0.70 TIME LEFT: 172799.29
 STEP:  15 TIME =     0.05 SECS, INTEGRAL =      0.74 TIME LEFT: 172799.24
 STEP:  16 TIME =     0.05 SECS, INTEGRAL =      0.79 TIME LEFT: 172799.19
 STEP:  17 TIME =     0.05 SECS, INTEGRAL =      0.84 TIME LEFT: 172799.15
 STEP:  18 TIME =     0.05 SECS, INTEGRAL =      0.89 TIME LEFT: 172799.10
 STEP:  19 TIME =     0.05 SECS, INTEGRAL =      0.94 TIME LEFT: 172799.05
 STEP:  20 TIME =     0.05 SECS, INTEGRAL =      0.98 TIME LEFT: 172799.00
 STEP:  21 TIME =     0.05 SECS, INTEGRAL =      1.03 TIME LEFT: 172798.95
 STEP:  22 TIME =     0.05 SECS, INTEGRAL =      1.08 TIME LEFT: 172798.90
 STEP:  23 TIME =     0.05 SECS, INTEGRAL =      1.13 TIME LEFT: 172798.85
 STEP:  24 TIME =     0.05 SECS, INTEGRAL =      1.18 TIME LEFT: 172798.81
 STEP:  25 TIME =     0.05 SECS, INTEGRAL =      1.23 TIME LEFT: 172798.76
 STEP:  26 TIME =     0.05 SECS, INTEGRAL =      1.28 TIME LEFT: 172798.71
 STEP:  27 TIME =     0.05 SECS, INTEGRAL =      1.33 TIME LEFT: 172798.66
 STEP:  28 TIME =     0.05 SECS, INTEGRAL =      1.38 TIME LEFT: 172798.61
 STEP:  29 TIME =     0.05 SECS, INTEGRAL =      1.42 TIME LEFT: 172798.56
 STEP:  30 TIME =     0.05 SECS, INTEGRAL =      1.47 TIME LEFT: 172798.51
 STEP:  31 TIME =     0.05 SECS, INTEGRAL =      1.52 TIME LEFT: 172798.46
 STEP:  32 TIME =     0.05 SECS, INTEGRAL =      1.57 TIME LEFT: 172798.41
 STEP:  33 TIME =     0.05 SECS, INTEGRAL =      1.62 TIME LEFT: 172798.36
 STEP:  34 TIME =     0.05 SECS, INTEGRAL =      1.67 TIME LEFT: 172798.31
 STEP:  35 TIME =     0.05 SECS, INTEGRAL =      1.72 TIME LEFT: 172798.26
 STEP:  36 TIME =     0.05 SECS, INTEGRAL =      1.77 TIME LEFT: 172798.22
 STEP:  37 TIME =     0.05 SECS, INTEGRAL =      1.82 TIME LEFT: 172798.17
 STEP:  38 TIME =     0.05 SECS, INTEGRAL =      1.87 TIME LEFT: 172798.12
 STEP:  39 TIME =     0.05 SECS, INTEGRAL =      1.92 TIME LEFT: 172798.07
 STEP:  40 TIME =     0.05 SECS, INTEGRAL =      1.97 TIME LEFT: 172798.02
 STEP:  41 TIME =     0.05 SECS, INTEGRAL =      2.02 TIME LEFT: 172797.97
 STEP:  42 TIME =     0.05 SECS, INTEGRAL =      2.06 TIME LEFT: 172797.92
 STEP:  43 TIME =     0.05 SECS, INTEGRAL =      2.11 TIME LEFT: 172797.87
 STEP:  44 TIME =     0.05 SECS, INTEGRAL =      2.16 TIME LEFT: 172797.82
 STEP:  45 TIME =     0.05 SECS, INTEGRAL =      2.21 TIME LEFT: 172797.77
 STEP:  46 TIME =     0.05 SECS, INTEGRAL =      2.26 TIME LEFT: 172797.72
 STEP:  47 TIME =     0.05 SECS, INTEGRAL =      2.31 TIME LEFT: 172797.67
 STEP:  48 TIME =     0.05 SECS, INTEGRAL =      2.36 TIME LEFT: 172797.63
 STEP:  49 TIME =     0.05 SECS, INTEGRAL =      2.41 TIME LEFT: 172797.58
 STEP:  50 TIME =     0.05 SECS, INTEGRAL =      2.46 TIME LEFT: 172797.53
 STEP:  51 TIME =     0.05 SECS, INTEGRAL =      2.50 TIME LEFT: 172797.48
 STEP:  52 TIME =     0.05 SECS, INTEGRAL =      2.55 TIME LEFT: 172797.43
 STEP:  53 TIME =     0.05 SECS, INTEGRAL =      2.60 TIME LEFT: 172797.38
 STEP:  54 TIME =     0.05 SECS, INTEGRAL =      2.66 TIME LEFT: 172797.33
 STEP:  55 TIME =     0.05 SECS, INTEGRAL =      2.71 TIME LEFT: 172797.28
 STEP:  56 TIME =     0.05 SECS, INTEGRAL =      2.76 TIME LEFT: 172797.23
 STEP:  57 TIME =     0.05 SECS, INTEGRAL =      2.81 TIME LEFT: 172797.18
 STEP:  58 TIME =     0.05 SECS, INTEGRAL =      2.85 TIME LEFT: 172797.13
 STEP:  59 TIME =     0.05 SECS, INTEGRAL =      2.90 TIME LEFT: 172797.08
 STEP:  60 TIME =     0.05 SECS, INTEGRAL =      2.95 TIME LEFT: 172797.03
 STEP:  61 TIME =     0.05 SECS, INTEGRAL =      3.00 TIME LEFT: 172796.98
 STEP:  62 TIME =     0.05 SECS, INTEGRAL =      3.05 TIME LEFT: 172796.93
 STEP:  63 TIME =     0.05 SECS, INTEGRAL =      3.10 TIME LEFT: 172796.88
 STEP:  64 TIME =     0.05 SECS, INTEGRAL =      3.15 TIME LEFT: 172796.84
 STEP:  65 TIME =     0.05 SECS, INTEGRAL =      3.20 TIME LEFT: 172796.79
 STEP:  66 TIME =     0.05 SECS, INTEGRAL =      3.25 TIME LEFT: 172796.74
 STEP:  67 TIME =     0.05 SECS, INTEGRAL =      3.30 TIME LEFT: 172796.68
 STEP:  68 TIME =     0.05 SECS, INTEGRAL =      3.35 TIME LEFT: 172796.64
 STEP:  69 TIME =     0.05 SECS, INTEGRAL =      3.40 TIME LEFT: 172796.59
 STEP:  70 TIME =     0.05 SECS, INTEGRAL =      3.45 TIME LEFT: 172796.54
 STEP:  71 TIME =     0.05 SECS, INTEGRAL =      3.50 TIME LEFT: 172796.49
 STEP:  72 TIME =     0.05 SECS, INTEGRAL =      3.55 TIME LEFT: 172796.44
 STEP:  73 TIME =     0.05 SECS, INTEGRAL =      3.59 TIME LEFT: 172796.39
 STEP:  74 TIME =     0.05 SECS, INTEGRAL =      3.64 TIME LEFT: 172796.34
 STEP:  75 TIME =     0.05 SECS, INTEGRAL =      3.69 TIME LEFT: 172796.29
 STEP:  76 TIME =     0.05 SECS, INTEGRAL =      3.75 TIME LEFT: 172796.24
 STEP:  77 TIME =     0.05 SECS, INTEGRAL =      3.79 TIME LEFT: 172796.19
 STEP:  78 TIME =     0.05 SECS, INTEGRAL =      3.84 TIME LEFT: 172796.14
 STEP:  79 TIME =     0.05 SECS, INTEGRAL =      3.89 TIME LEFT: 172796.09
 STEP:  80 TIME =     0.05 SECS, INTEGRAL =      3.94 TIME LEFT: 172796.04
 STEP:  81 TIME =     0.05 SECS, INTEGRAL =      3.99 TIME LEFT: 172795.99
 STEP:  82 TIME =     0.05 SECS, INTEGRAL =      4.04 TIME LEFT: 172795.94
 STEP:  83 TIME =     0.05 SECS, INTEGRAL =      4.09 TIME LEFT: 172795.89
 STEP:  84 TIME =     0.05 SECS, INTEGRAL =      4.15 TIME LEFT: 172795.84
 STEP:  85 TIME =     0.05 SECS, INTEGRAL =      4.20 TIME LEFT: 172795.78
 STEP:  86 TIME =     0.05 SECS, INTEGRAL =      4.25 TIME LEFT: 172795.73
 STEP:  87 TIME =     0.05 SECS, INTEGRAL =      4.30 TIME LEFT: 172795.69

(To convert to Hartree/Bohr^2, multiply by (10^(-21) x N x a0^2)/(4.184 x 627.51) = 0.0642)


           FORCE MATRIX IN MILLIDYNES/ANGSTROM


                  C  1       C  2       C  3       C  4       C  5       C  6
 ------------------------------------------------------------------------------
     C    1  14.603078
     C    2   0.646424  14.730582
     C    3   3.886859   3.897632  14.336019
     C    4   3.815238   0.050874   0.612187  14.291487
     C    5   0.098930   3.846201   0.663579   0.008025  14.686765
     C    6   0.621442   0.003018   0.050400   4.448493   0.001557  14.340171
     C    7   0.004093   0.140382   0.019858   0.001045   0.020186   0.000646
     C    8   4.687870   0.066584   0.682099   0.692427   0.830985   0.052720
     C    9   0.053335   4.714195   0.692582   0.011841   0.689034   0.000971
     C   10   0.803606   0.674444   0.070316   0.043660   5.013203   0.010015
     C   11   0.006354   0.804073   0.037330   0.002334   0.034131   0.000704
     H   12   0.033259   4.183558   0.425007   0.001387   0.421999   0.000393
     H   13   4.130034   0.020358   0.428605   0.432910   0.013206   0.037378
     H   14   0.437154   0.441416   4.464200   0.016799   0.049760   0.018188
     H   15   0.449564   0.449541   4.434411   0.037428   0.022809   0.003308
     H   16   0.447635   0.002345   0.034967   4.454073   0.000785   0.437443
     H   17   0.440747   0.008179   0.045474   4.428353   0.000963   0.435037
     H   18   0.009265   0.433859   0.048200   0.000639   4.466419   0.000338
     H   19   0.014067   0.453217   0.011740   0.000806   4.391247   0.000351
     H   20   0.016729   0.000786   0.020067   0.463978   0.000479   4.702746
     H   21   0.024245   0.000287   0.002418   0.462936   0.000153   4.719608
     H   22   0.050503   0.000339   0.002334   0.449357   0.000151   4.746867
     H   23   0.000858   0.018846   0.003448   0.000328   0.002245   0.000235
     H   24   0.000307   0.002249   0.000741   0.000230   0.000604   0.000130
     H   25   0.000358   0.018256   0.002148   0.000213   0.003330   0.000230
     H   26   0.001711   0.432735   0.022080   0.000785   0.020326   0.000297
     H   27   0.119212   0.041930   0.004722   0.013806   0.425212   0.002018
     H   28   0.430965   0.003554   0.040448   0.046003   0.121241   0.002603
     H   29   0.001725   0.081637   0.008719   0.000733   0.009199   0.000248


                  C  7       C  8       C  9       C 10       C 11       H 12
 ------------------------------------------------------------------------------
     C    7  14.716695
     C    8   0.001159  18.233147
     C    9   0.847766   0.005233  18.213049
     C   10   0.003984  10.705457   0.050417  18.219746
     C   11   5.265664   0.002109  10.705293   0.005577  18.201828
     H   12   0.002043   0.007009   0.441545   0.011955   0.058010   4.661329
     H   13   0.000314   0.384942   0.001407   0.029729   0.000632   0.018078
     H   14   0.000805   0.049420   0.027834   0.004279   0.002709   0.026714
     H   15   0.000761   0.010172   0.028552   0.007256   0.001632   0.042586
     H   16   0.000179   0.010769   0.001110   0.001631   0.000355   0.000547
     H   17   0.000318   0.065303   0.002127   0.002799   0.000734   0.000430
     H   18   0.000638   0.042562   0.013726   0.430809   0.002383   0.036184
     H   19   0.000796   0.030624   0.048763   0.411674   0.002631   0.040831
     H   20   0.000245   0.000856   0.000835   0.000702   0.000396   0.000176
     H   21   0.000194   0.001823   0.000293   0.000768   0.000483   0.000151
     H   22   0.000201   0.009245   0.000340   0.001914   0.000305   0.000134
     H   23   4.706449   0.000420   0.035679   0.000368   0.438239   0.000420
     H   24   4.724186   0.000445   0.041510   0.000373   0.479607   0.000534
     H   25   4.704966   0.000463   0.035092   0.000766   0.438207   0.000509
     H   26   0.081279   0.001190   4.755078   0.001962   0.467810   0.036366
     H   27   0.000918   0.442973   0.008234   4.814865   0.001185   0.001040
     H   28   0.000556   4.788751   0.001311   0.441684   0.000518   0.000465
     H   29   0.423433   0.000863   0.470287   0.001715   4.771010   0.029438


                  H 13       H 14       H 15       H 16       H 17       H 18
 ------------------------------------------------------------------------------
     H   13   4.598522
     H   14   0.033927   5.075336
     H   15   0.042229   0.562593   5.056495
     H   16   0.042387   0.001597   0.029863   5.072795
     H   17   0.020137   0.001121   0.002140   0.572339   5.045869
     H   18   0.001048   0.008121   0.002418   0.000269   0.000368   5.062491
     H   19   0.001915   0.001353   0.008066   0.000280   0.000237   0.566421
     H   20   0.002066   0.022594   0.001333   0.024384   0.048247   0.000213
     H   21   0.025959   0.000716   0.000524   0.047096   0.025340   0.000092
     H   22   0.002390   0.000615   0.000300   0.029880   0.032435   0.000068
     H   23   0.000075   0.000268   0.000192   0.000072   0.000098   0.000213
     H   24   0.000067   0.000152   0.000203   0.000104   0.000054   0.000209
     H   25   0.000095   0.000226   0.000112   0.000060   0.000067   0.000240
     H   26   0.000679   0.002740   0.017064   0.000355   0.000202   0.002043
     H   27   0.015616   0.001004   0.000607   0.000362   0.000719   0.035227
     H   28   0.016934   0.006763   0.001451   0.002295   0.025890   0.013706
     H   29   0.000315   0.000551   0.000644   0.000144   0.000210   0.000591


                  H 19       H 20       H 21       H 22       H 23       H 24
 ------------------------------------------------------------------------------
     H   19   4.998619
     H   20   0.000120   5.441975
     H   21   0.000080   0.577144   5.464001
     H   22   0.000126   0.574332   0.573692   5.486071
     H   23   0.000189   0.000071   0.000074   0.000065   5.425970
     H   24   0.000214   0.000055   0.000078   0.000098   0.563354   5.450724
     H   25   0.000195   0.000091   0.000085   0.000086   0.575945   0.565005
     H   26   0.022584   0.000253   0.000134   0.000156   0.009205   0.029571
     H   27   0.020271   0.000149   0.000180   0.000505   0.000178   0.000213
     H   28   0.016775   0.000701   0.000663   0.000555   0.000154   0.000080
     H   29   0.000756   0.000155   0.000078   0.000123   0.024207   0.041590


                  H 25       H 26       H 27       H 28       H 29
 ------------------------------------------------------------------
     H   25   5.425070
     H   26   0.008838   5.140349
     H   27   0.000218   0.000576   5.189011
     H   28   0.000057   0.000542   0.069026   5.167580
     H   29   0.023942   0.101634   0.000447   0.000218   5.148277


          HEAT OF FORMATION =      -5.521374 KCALS/MOLE

          ZERO POINT ENERGY     163.103 KCAL/MOL


           NORMAL COORDINATE ANALYSIS (Total motion = 1 Angstrom)


   Root No.       1         2         3         4         5         6         7         8

                 1 A       2 A       3 A       4 A       5 A       6 A       7 A       8 A   

                  56.7      75.5      97.2     104.3     139.0     179.6     185.7     226.8
  
           1    0.0047   -0.0044   -0.0063    0.0063    0.0036    0.0027   -0.0041   -0.0082
           2   -0.0100   -0.0132   -0.0075    0.0074    0.0045   -0.0003   -0.0103   -0.0012
           3   -0.0048   -0.0128    0.0126    0.0023    0.0006   -0.0025    0.0022    0.0208
           4    0.0048   -0.0025   -0.0090   -0.0036    0.0024    0.0029   -0.0054   -0.0095
           5   -0.0161    0.0058    0.0031    0.0246   -0.0031   -0.0023    0.0069    0.0023
           6    0.0158   -0.0029   -0.0155    0.0180    0.0086   -0.0001   -0.0011   -0.0052
           7    0.0066   -0.0097   -0.0115   -0.0043    0.0053    0.0038   -0.0094   -0.0093
           8   -0.0134   -0.0050   -0.0008    0.0235    0.0012   -0.0009   -0.0018   -0.0019
           9   -0.0005   -0.0237    0.0087    0.0437    0.0130   -0.0091    0.0017   -0.0017
          10    0.0063   -0.0078   -0.0132   -0.0122    0.0065   -0.0006   -0.0014    0.0111
          11   -0.0050   -0.0219   -0.0126   -0.0172    0.0084   -0.0053   -0.0063    0.0255
          12   -0.0155    0.0018   -0.0112   -0.0138    0.0016   -0.0013   -0.0010    0.0208
          13   -0.0069   -0.0021    0.0096    0.0021   -0.0022   -0.0007    0.0007   -0.0045
          14   -0.0044    0.0296   -0.0160    0.0079   -0.0061    0.0017    0.0093    0.0175
          15    0.0238    0.0131   -0.0286    0.0063    0.0063    0.0037    0.0007    0.0047
          16    0.0426    0.0043    0.0262    0.0034    0.0051   -0.0108    0.0226    0.0329
          17    0.0272    0.0229    0.0105   -0.0048    0.0015   -0.0047    0.0018   -0.0116
          18   -0.0033    0.0302   -0.0066   -0.0098   -0.0031    0.0026   -0.0026   -0.0137
          19   -0.0288    0.0095    0.0017    0.0050   -0.0133    0.0171    0.0065   -0.0031
          20    0.0250   -0.0140    0.0007   -0.0276    0.0114   -0.0190   -0.0133   -0.0051
          21   -0.0253    0.0049    0.0123   -0.0235   -0.0142    0.0165    0.0086    0.0111
          22   -0.0049    0.0056   -0.0003    0.0054   -0.0014    0.0006    0.0020    0.0004
          23   -0.0058   -0.0126    0.0101   -0.0085   -0.0052    0.0048   -0.0093   -0.0160
          24    0.0006   -0.0128    0.0306   -0.0139   -0.0092    0.0033    0.0023    0.0027
          25    0.0029   -0.0065   -0.0121    0.0025    0.0002    0.0101   -0.0071   -0.0160
          26   -0.0138    0.0109    0.0078    0.0143   -0.0010   -0.0117    0.0091    0.0089
          27    0.0120   -0.0101   -0.0126    0.0080    0.0030    0.0072   -0.0020   -0.0146
          28   -0.0101    0.0057    0.0083    0.0048   -0.0039   -0.0013    0.0056    0.0084
          29   -0.0034    0.0071    0.0062   -0.0081   -0.0103    0.0066   -0.0015   -0.0228
          30    0.0134    0.0007    0.0101   -0.0116   -0.0070    0.0078    0.0008   -0.0176
          31   -0.0189    0.0076    0.0015   -0.0094   -0.0015   -0.0273   -0.0165   -0.0088
          32    0.0123   -0.0113    0.0000   -0.0045   -0.0039    0.0395    0.0179    0.0017
          33   -0.0116    0.0059    0.0012   -0.0014    0.0018   -0.0342   -0.0119   -0.0065
          34    0.0098    0.0069   -0.0151   -0.0175   -0.0007    0.0048   -0.0039   -0.0099
          35   -0.0247   -0.0105    0.0169    0.0343   -0.0018   -0.0051    0.0056   -0.0063
          36    0.0222    0.0091   -0.0257    0.0107    0.0076    0.0019   -0.0002    0.0016
          37    0.0090   -0.0103    0.0033    0.0354    0.0058    0.0021   -0.0041   -0.0235
          38   -0.0132   -0.0122   -0.0232    0.0225    0.0131   -0.0050   -0.0100   -0.0026
          39   -0.0035   -0.0126    0.0197   -0.0082   -0.0040   -0.0001    0.0023    0.0220
          40    0.0156   -0.0111   -0.0235   -0.0038    0.0098    0.0056   -0.0155   -0.0209
          41   -0.0196   -0.0210    0.0090    0.0564    0.0101   -0.0099    0.0006   -0.0116
          42   -0.0052   -0.0358    0.0160    0.0687    0.0197   -0.0157    0.0030   -0.0094
          43    0.0009   -0.0182   -0.0065   -0.0148    0.0050    0.0039   -0.0123    0.0003
          44   -0.0072    0.0114   -0.0110   -0.0103   -0.0076    0.0076   -0.0034    0.0088
          45   -0.0052   -0.0360    0.0163    0.0691    0.0198   -0.0158    0.0031   -0.0095
          46   -0.0096   -0.0184   -0.0413   -0.0436    0.0117   -0.0036   -0.0010    0.0316
          47   -0.0275   -0.0548   -0.0295   -0.0287    0.0138   -0.0067   -0.0109    0.0541
          48    0.0030    0.0269    0.0049   -0.0011   -0.0030    0.0002    0.0023   -0.0029
          49   -0.0043   -0.0094   -0.0197   -0.0068    0.0054    0.0039   -0.0099   -0.0001
          50   -0.0042   -0.0320   -0.0183   -0.0349    0.0126   -0.0115    0.0021    0.0518
          51   -0.0519   -0.0324   -0.0512   -0.0446    0.0092   -0.0019   -0.0097    0.0511
          52   -0.0045    0.0171   -0.0111    0.0099    0.0009   -0.0032    0.0079    0.0288
          53   -0.0042    0.0447   -0.0314    0.0167   -0.0035   -0.0011    0.0161    0.0466
          54    0.0394    0.0392   -0.0638   -0.0015    0.0095    0.0064    0.0031    0.0321
          55   -0.0178   -0.0296    0.0512   -0.0074   -0.0102    0.0011   -0.0060   -0.0492
          56    0.0037    0.0522   -0.0348   -0.0007   -0.0073    0.0031    0.0137    0.0406
          57    0.0220    0.0072   -0.0303    0.0155    0.0099    0.0023    0.0001    0.0049
          58    0.0501    0.0013    0.0292   -0.0026    0.0122   -0.0457    0.1103    0.0163
          59    0.0333    0.0404    0.0230    0.0122   -0.0113    0.0465   -0.1251    0.0149
          60    0.0396    0.0727    0.0405    0.0211   -0.0183    0.0415   -0.0958    0.0100
          61    0.0692    0.0256    0.0674    0.0364   -0.0122    0.0539   -0.1417    0.1015
          62    0.0510    0.0573    0.0284    0.0061   -0.0050    0.0022   -0.0081   -0.0367
          63   -0.0244    0.0029   -0.0264   -0.0233    0.0046   -0.0140    0.0343   -0.0094
          64    0.0377   -0.0041    0.0142   -0.0107    0.0145   -0.0501    0.1222    0.0017
          65    0.0230    0.0070   -0.0016   -0.0230    0.0152   -0.0616    0.1438   -0.0442
          66   -0.0154    0.0380   -0.0304   -0.0242    0.0007   -0.0166    0.0523   -0.0720
          67   -0.0607    0.0262    0.0238   -0.0047    0.0783    0.1094    0.0383    0.0073
          68    0.0466   -0.0373   -0.0183   -0.0239   -0.1467   -0.0393   -0.0082    0.0084
          69   -0.0132   -0.0084    0.0016   -0.0215   -0.1054    0.0070    0.0125    0.0194
          70   -0.0132   -0.0036   -0.0189    0.0366   -0.1168    0.0062    0.0156   -0.0023
          71    0.0071    0.0061    0.0173   -0.0326    0.1500   -0.0065   -0.0205   -0.0174
          72   -0.0105   -0.0120   -0.0009   -0.0214   -0.1301    0.0062    0.0143    0.0221
          73   -0.0217    0.0082    0.0016   -0.0061   -0.0050   -0.0198   -0.0125   -0.0080
          74    0.0330   -0.0140    0.0026   -0.0454    0.0357   -0.0698   -0.0410   -0.0127
          75   -0.0646    0.0356    0.0468   -0.0460    0.1884    0.0874    0.0193    0.0082
          76    0.0169   -0.0196   -0.0244    0.0180   -0.0050    0.0571    0.0059   -0.0222
          77   -0.0303    0.0307    0.0169    0.0155    0.0092   -0.0734   -0.0068    0.0176
          78    0.0255   -0.0268   -0.0193    0.0043   -0.0059    0.0585    0.0110   -0.0216
          79   -0.0173    0.0113    0.0160    0.0063   -0.0077   -0.0035    0.0127    0.0240
          80   -0.0005    0.0086    0.0177   -0.0192   -0.0174    0.0118   -0.0019   -0.0488
          81    0.0168    0.0021    0.0226   -0.0239   -0.0148    0.0136    0.0002   -0.0468
          82   -0.0075    0.0109    0.0000    0.0070   -0.0028   -0.0003    0.0052    0.0047
          83   -0.0047   -0.0287    0.0267   -0.0197   -0.0080    0.0074   -0.0150   -0.0288
          84   -0.0066   -0.0229    0.0607   -0.0286   -0.0190    0.0049    0.0025   -0.0062
          85   -0.0325    0.0199    0.0146   -0.0315    0.0073   -0.0801   -0.0354   -0.0017
          86    0.0275   -0.0301   -0.0080   -0.0076   -0.0192    0.1104    0.0388   -0.0015
          87   -0.0241    0.0218    0.0070    0.0042    0.0149   -0.0931   -0.0289   -0.0044


   Root No.       9        10        11        12        13        14        15        16

                 9 A      10 A      11 A      12 A      13 A      14 A      15 A      16 A   

                 259.3     323.0     340.2     370.3     429.8     460.6     494.1     543.7
  
           1   -0.0048    0.0106   -0.0122    0.0088    0.0252    0.0230    0.0040    0.0183
           2   -0.0094   -0.0093   -0.0171    0.0127    0.0173   -0.0211   -0.0173    0.0149
           3   -0.0023   -0.0251   -0.0028   -0.0019    0.0008   -0.0108    0.0062    0.0292
           4    0.0054   -0.0053    0.0064   -0.0121    0.0073   -0.0081   -0.0039   -0.0233
           5    0.0128   -0.0031    0.0031    0.0176   -0.0075    0.0076    0.0369   -0.0160
           6    0.0082    0.0018   -0.0074   -0.0092    0.0121   -0.0243    0.0298   -0.0201
           7   -0.0058    0.0012   -0.0075   -0.0013    0.0233    0.0012   -0.0144    0.0063
           8   -0.0082   -0.0032   -0.0161    0.0315    0.0125    0.0070    0.0164    0.0243
           9   -0.0307    0.0100    0.0185   -0.0168   -0.0080    0.0062   -0.0068   -0.0059
          10    0.0065    0.0288    0.0024   -0.0011    0.0093    0.0407    0.0156    0.0045
          11    0.0063    0.0086   -0.0003   -0.0184   -0.0182   -0.0088    0.0038    0.0051
          12    0.0054    0.0029    0.0159    0.0261    0.0035   -0.0162   -0.0124   -0.0101
          13    0.0020    0.0117   -0.0257   -0.0146   -0.0161   -0.0242   -0.0085   -0.0148
          14   -0.0164   -0.0073    0.0005    0.0082   -0.0187    0.0183   -0.0078   -0.0028
          15   -0.0132   -0.0018   -0.0035   -0.0169    0.0108   -0.0177    0.0036   -0.0034
          16    0.0057    0.0056    0.0134    0.0298    0.0076   -0.0021   -0.0064   -0.0084
          17   -0.0012   -0.0004   -0.0114   -0.0312   -0.0159    0.0016    0.0108    0.0107
          18    0.0004    0.0039    0.0066    0.0133    0.0118    0.0074   -0.0043   -0.0094
          19    0.0057   -0.0193    0.0403   -0.0146    0.0034   -0.0067   -0.0009    0.0149
          20   -0.0175   -0.0121    0.0126    0.0017   -0.0027   -0.0027    0.0048    0.0039
          21   -0.0275    0.0129   -0.0196    0.0034    0.0037   -0.0003    0.0060   -0.0091
          22   -0.0018    0.0116   -0.0332   -0.0013   -0.0114   -0.0108   -0.0046    0.0175
          23   -0.0002   -0.0114   -0.0204    0.0044    0.0222    0.0057   -0.0219   -0.0282
          24    0.0058   -0.0267   -0.0082   -0.0160    0.0051    0.0256    0.0085   -0.0045
          25   -0.0030   -0.0255    0.0129    0.0131   -0.0195   -0.0009    0.0179   -0.0206
          26    0.0330    0.0159    0.0103   -0.0217    0.0272   -0.0031    0.0040   -0.0140
          27    0.0407   -0.0067   -0.0142    0.0160   -0.0252    0.0107   -0.0124   -0.0032
          28    0.0006    0.0016   -0.0333   -0.0095   -0.0234   -0.0053   -0.0050    0.0023
          29   -0.0075    0.0263    0.0158    0.0162   -0.0174   -0.0128   -0.0172   -0.0160
          30   -0.0054    0.0218    0.0156    0.0032   -0.0031   -0.0026    0.0129    0.0373
          31   -0.0123   -0.0235    0.0292    0.0000   -0.0070   -0.0036    0.0077    0.0039
          32    0.0177   -0.0032    0.0226   -0.0172    0.0099   -0.0025   -0.0156    0.0178
          33    0.0336   -0.0006   -0.0039    0.0039   -0.0118    0.0097   -0.0237    0.0175
          34    0.0356   -0.0076    0.0103   -0.0210    0.0114   -0.0071   -0.0120   -0.0398
          35    0.0231   -0.0013    0.0093    0.0274   -0.0172    0.0198    0.0393   -0.0147
          36   -0.0023    0.0001   -0.0113   -0.0169    0.0189   -0.0330    0.0260   -0.0193
          37   -0.0212    0.0097   -0.0134    0.0088    0.0382    0.0437    0.0107    0.0285
          38   -0.0215    0.0107   -0.0014    0.0228    0.0124   -0.0392   -0.0287    0.0203
          39    0.0054   -0.0343   -0.0100   -0.0080    0.0014   -0.0021    0.0117    0.0239
          40   -0.0061    0.0100   -0.0199   -0.0055    0.0368   -0.0185   -0.0242   -0.0076
          41   -0.0461    0.0243    0.0159    0.0139   -0.0109    0.0452   -0.0306   -0.0009
          42   -0.0599    0.0309    0.0431   -0.0306   -0.0265    0.0356   -0.0433   -0.0259
          43   -0.0155   -0.0080   -0.0091    0.0001    0.0269    0.0017   -0.0397    0.0379
          44    0.0306   -0.0302   -0.0477    0.0495    0.0369   -0.0304    0.0645    0.0518
          45   -0.0602    0.0315    0.0433   -0.0315   -0.0270    0.0359   -0.0445   -0.0277
          46    0.0234    0.0668    0.0250   -0.0144   -0.0180    0.0700    0.0345   -0.0296
          47    0.0134    0.0188    0.0066   -0.0249   -0.0338   -0.0085    0.0125    0.0062
          48   -0.0020   -0.0093    0.0078    0.0322    0.0183   -0.0192   -0.0205   -0.0065
          49    0.0013    0.0260   -0.0065    0.0037    0.0217    0.0392    0.0092    0.0127
          50    0.0188    0.0259    0.0180   -0.0291   -0.0447    0.0012    0.0191   -0.0137
          51    0.0214    0.0402    0.0344    0.0134   -0.0221    0.0083    0.0060   -0.0336
          52   -0.0116   -0.0207   -0.0474   -0.0285   -0.0193    0.0111   -0.0301   -0.0150
          53   -0.0260   -0.0351   -0.0210   -0.0028   -0.0222    0.0492   -0.0218   -0.0021
          54   -0.0438   -0.0330    0.0001   -0.0395    0.0159    0.0192   -0.0576   -0.0089
          55    0.0241    0.0638   -0.0083    0.0110   -0.0258   -0.0743    0.0323    0.0042
          56   -0.0443   -0.0247   -0.0019   -0.0050   -0.0259    0.0527   -0.0578    0.0152
          57   -0.0019   -0.0090   -0.0083   -0.0169    0.0183   -0.0220    0.0221   -0.0230
          58    0.0001   -0.0123    0.0141    0.0477    0.0105   -0.0271   -0.0213   -0.0178
          59    0.0059    0.0175   -0.0098   -0.0473   -0.0197    0.0241    0.0239    0.0175
          60    0.0029   -0.0014    0.0130    0.0218    0.0103   -0.0070   -0.0131   -0.0188
          61    0.0176    0.0143    0.0308    0.0448    0.0011   -0.0220   -0.0187   -0.0211
          62   -0.0060   -0.0051   -0.0200   -0.0441   -0.0140    0.0152    0.0191    0.0160
          63    0.0015    0.0055    0.0091    0.0188    0.0115    0.0024   -0.0073   -0.0105
          64   -0.0010   -0.0065    0.0079    0.0339    0.0110   -0.0083   -0.0097   -0.0090
          65   -0.0094   -0.0211   -0.0145   -0.0160   -0.0127   -0.0213   -0.0014    0.0050
          66   -0.0078    0.0085   -0.0131   -0.0197    0.0177    0.0535    0.0219    0.0095
          67   -0.0098   -0.0084    0.0389   -0.0283    0.0253   -0.0170    0.0084    0.0049
          68   -0.0486   -0.0013    0.0047   -0.0018    0.0097   -0.0097    0.0234   -0.0151
          69   -0.0464    0.0198   -0.0247    0.0009    0.0119   -0.0048    0.0174   -0.0211
          70    0.0520   -0.0179    0.0584   -0.0322    0.0096   -0.0042   -0.0329    0.0468
          71    0.0052   -0.0225    0.0177    0.0078   -0.0159    0.0034   -0.0066    0.0164
          72   -0.0521    0.0223   -0.0262   -0.0004    0.0150   -0.0061    0.0197   -0.0240
          73   -0.0109   -0.0256    0.0335   -0.0003   -0.0090   -0.0044    0.0121    0.0042
          74   -0.0431   -0.0213    0.0017    0.0235   -0.0214    0.0008    0.0252   -0.0135
          75   -0.0393    0.0123   -0.0256    0.0068    0.0056   -0.0032    0.0170   -0.0212
          76   -0.0096   -0.0393    0.0029    0.0398   -0.0507    0.0023    0.0527   -0.0475
          77    0.0308    0.0350    0.0141   -0.0482    0.0721   -0.0195    0.0125   -0.0224
          78    0.0417   -0.0228   -0.0165    0.0373   -0.0628    0.0253   -0.0245    0.0085
          79    0.0014   -0.0118   -0.0317   -0.0107   -0.0406    0.0154    0.0040    0.0116
          80   -0.0069    0.0629    0.0425    0.0300   -0.0318   -0.0109   -0.0185   -0.0093
          81   -0.0045    0.0625    0.0453    0.0180   -0.0190   -0.0016    0.0117    0.0441
          82   -0.0029    0.0137   -0.0329   -0.0036   -0.0289   -0.0231   -0.0057    0.0194
          83    0.0092   -0.0256   -0.0290   -0.0015    0.0548    0.0506   -0.0269   -0.0723
          84    0.0194   -0.0453   -0.0229   -0.0339    0.0047    0.0621   -0.0045   -0.0780
          85   -0.0427   -0.0172    0.0356   -0.0125    0.0171   -0.0141    0.0132    0.0113
          86    0.0044   -0.0165    0.0190    0.0006   -0.0194    0.0038   -0.0116    0.0181
          87    0.0485    0.0112   -0.0022   -0.0106    0.0124    0.0050   -0.0268    0.0151


   Root No.      17        18        19        20        21        22        23        24

                17 A      18 A      19 A      20 A      21 A      22 A      23 A      24 A   

                 598.4     720.0     777.0     825.0     867.1     887.9     926.8     935.6
  
           1    0.0079    0.0036    0.0022    0.0001   -0.0026    0.0067    0.0007   -0.0024
           2    0.0062   -0.0033   -0.0014   -0.0019   -0.0040   -0.0014   -0.0078   -0.0017
           3    0.0361    0.0149    0.0136    0.0024   -0.0043   -0.0015   -0.0121    0.0102
           4    0.0364   -0.0103   -0.0038    0.0047    0.0006    0.0006    0.0020    0.0048
           5    0.0030   -0.0075   -0.0040   -0.0054   -0.0017   -0.0001   -0.0034    0.0003
           6   -0.0201    0.0071    0.0119   -0.0022    0.0042   -0.0001    0.0064   -0.0067
           7    0.0294   -0.0021    0.0020    0.0112   -0.0020    0.0202    0.0051   -0.0050
           8   -0.0173   -0.0021    0.0074    0.0143    0.0062    0.0041    0.0071    0.0420
           9    0.0026    0.0091    0.0181    0.0060   -0.0025   -0.0170    0.0058   -0.0485
          10   -0.0049    0.0215    0.0063   -0.0242    0.0010   -0.0092   -0.0048    0.0010
          11    0.0026   -0.0081    0.0007   -0.0241    0.0035    0.0021    0.0029   -0.0011
          12   -0.0034   -0.0103   -0.0013   -0.0115    0.0024    0.0048    0.0035   -0.0011
          13   -0.0081    0.0175    0.0158    0.0015   -0.0056   -0.0114   -0.0041    0.0323
          14    0.0129    0.0154   -0.0068   -0.0024    0.0058    0.0344    0.0021   -0.0266
          15   -0.0201    0.0087   -0.0086   -0.0034   -0.0068    0.0162   -0.0108    0.0200
          16   -0.0073    0.0049    0.0008   -0.0078    0.0005   -0.0072   -0.0047    0.0026
          17    0.0051   -0.0049    0.0008   -0.0046    0.0023    0.0041    0.0067   -0.0005
          18   -0.0053    0.0039   -0.0013   -0.0023    0.0005   -0.0022    0.0019    0.0001
          19   -0.0237    0.0044    0.0019   -0.0025   -0.0116   -0.0018   -0.0001   -0.0011
          20   -0.0104    0.0020    0.0018    0.0007    0.0154   -0.0005    0.0000   -0.0009
          21    0.0093   -0.0012   -0.0003   -0.0006   -0.0125    0.0029    0.0009   -0.0007
          22   -0.0236   -0.0307   -0.0171   -0.0036    0.0006   -0.0057   -0.0027   -0.0269
          23   -0.0266    0.0041   -0.0262   -0.0007   -0.0022   -0.0278   -0.0036   -0.0142
          24    0.0030    0.0098   -0.0148    0.0032    0.0030   -0.0036    0.0066    0.0164
          25    0.0179   -0.0135   -0.0066    0.0017    0.0191   -0.0059    0.0166    0.0038
          26    0.0271   -0.0165   -0.0092   -0.0025   -0.0286   -0.0051   -0.0255   -0.0013
          27    0.0119   -0.0045   -0.0025    0.0024    0.0217   -0.0043    0.0185    0.0035
          28   -0.0090   -0.0022    0.0039   -0.0003    0.0038    0.0035    0.0022   -0.0022
          29    0.0151    0.0384    0.0087    0.0036    0.0032   -0.0112    0.0038    0.0029
          30    0.0004   -0.0292   -0.0319   -0.0009   -0.0008   -0.0079    0.0042   -0.0162
          31   -0.0119    0.0006   -0.0007   -0.0022   -0.0128   -0.0002    0.0060    0.0010
          32   -0.0136    0.0057    0.0036    0.0030    0.0170    0.0022   -0.0076   -0.0009
          33   -0.0089    0.0088    0.0029   -0.0006   -0.0134    0.0043    0.0074    0.0008
          34    0.0706   -0.0334   -0.0319   -0.0026   -0.0083    0.0088   -0.0139    0.0183
          35    0.0160   -0.0261   -0.0005   -0.0002    0.0089   -0.0500    0.0112   -0.0230
          36   -0.0315    0.0217    0.0100   -0.0056   -0.0037    0.0368   -0.0046    0.0132
          37    0.0126    0.0270    0.0223    0.0396   -0.0088    0.0017    0.0152   -0.0139
          38    0.0107   -0.0253    0.0310   -0.0037   -0.0079    0.0199   -0.0048   -0.0501
          39    0.0323    0.0229   -0.0051    0.0009   -0.0013   -0.0108   -0.0139    0.0375
          40    0.0020   -0.0085    0.0038    0.0178    0.0031    0.0313    0.0354   -0.0438
          41   -0.0289   -0.0395   -0.0707   -0.0083    0.0160    0.0579   -0.0096    0.1782
          42   -0.0064   -0.0199   -0.0432   -0.0119    0.0055    0.0249   -0.0071    0.0567
          43    0.0636    0.0048    0.0048    0.0303   -0.0172    0.0400   -0.0235    0.0108
          44   -0.0058    0.0341    0.0882    0.0399   -0.0032   -0.0493    0.0257   -0.0822
          45   -0.0064   -0.0193   -0.0457   -0.0145    0.0048    0.0250   -0.0088    0.0494
          46   -0.0481    0.0192   -0.0093    0.1019   -0.0077   -0.0106    0.0092    0.0002
          47   -0.0016   -0.0123   -0.0028    0.0801   -0.0138    0.0074   -0.0213    0.0004
          48    0.0047   -0.0062    0.0032   -0.0992    0.0153    0.0006    0.0181   -0.0019
          49    0.0007    0.0218    0.0041   -0.0255   -0.0031   -0.0056   -0.0123   -0.0068
          50   -0.0185   -0.0116   -0.0033    0.0471    0.0006    0.0001    0.0096    0.0076
          51   -0.0394   -0.0158   -0.0186    0.1651   -0.0188    0.0098   -0.0056   -0.0043
          52   -0.0219   -0.0278    0.0541    0.0046   -0.0073   -0.0739    0.0021    0.0569
          53   -0.0036   -0.0253    0.0251   -0.0016    0.0050   -0.0144    0.0073   -0.0108
          54    0.0020   -0.0370    0.0378    0.0142   -0.0168   -0.1019   -0.0051    0.0736
          55   -0.0052    0.0865   -0.0515   -0.0080    0.0024    0.1033   -0.0043   -0.0143
          56    0.0256   -0.0261    0.0155    0.0105    0.0049   -0.0543    0.0215   -0.0220
          57   -0.0296    0.0113    0.0024   -0.0085   -0.0088    0.0337   -0.0239    0.0348
          58   -0.0107   -0.0149   -0.0108    0.0581   -0.0074    0.0142    0.0031   -0.0074
          59    0.0067    0.0122    0.0089   -0.0321    0.0039   -0.0133   -0.0076    0.0078
          60   -0.0101   -0.0081   -0.0131    0.1185   -0.0188    0.0142   -0.0144   -0.0078
          61   -0.0139   -0.0140   -0.0077    0.0090    0.0016    0.0099    0.0149   -0.0047
          62    0.0069    0.0059   -0.0007    0.0964   -0.0181    0.0006   -0.0328    0.0014
          63   -0.0052    0.0003    0.0012   -0.0704    0.0134   -0.0031    0.0240    0.0004
          64   -0.0071    0.0006   -0.0028    0.0255   -0.0046   -0.0012   -0.0074   -0.0001
          65    0.0041   -0.0230   -0.0083    0.0460   -0.0033    0.0237    0.0159   -0.0090
          66    0.0018    0.0440    0.0122    0.0034   -0.0084   -0.0376   -0.0471    0.0159
          67   -0.0147   -0.0048    0.0026    0.0113    0.1372   -0.0164   -0.0096    0.0017
          68    0.0050   -0.0106   -0.0033    0.0030    0.0533   -0.0145   -0.0061    0.0023
          69    0.0193   -0.0093   -0.0034    0.0014    0.0164   -0.0059   -0.0031    0.0014
          70   -0.0486    0.0229    0.0139    0.0042    0.0329    0.0150    0.0026   -0.0068
          71   -0.0219    0.0107    0.0043   -0.0041   -0.0380    0.0088    0.0054   -0.0036
          72    0.0226   -0.0112   -0.0039    0.0030    0.0317   -0.0075   -0.0043    0.0023
          73   -0.0185   -0.0004   -0.0040   -0.0124   -0.0968   -0.0061    0.0022   -0.0003
          74   -0.0012   -0.0061   -0.0075   -0.0143   -0.1127   -0.0074    0.0034    0.0006
          75    0.0202   -0.0096   -0.0036    0.0026    0.0284   -0.0063   -0.0024    0.0019
          76    0.0227   -0.0222   -0.0145   -0.0138   -0.0430   -0.0109   -0.1436   -0.0230
          77    0.0371   -0.0262   -0.0045    0.0117    0.0520   -0.0115    0.1827    0.0239
          78    0.0011    0.0063   -0.0055   -0.0087   -0.0451    0.0025   -0.1542   -0.0166
          79    0.0209    0.0217   -0.0095    0.0042    0.0227    0.0452    0.0337   -0.0312
          80    0.0183   -0.0489    0.1499   -0.0009   -0.0048    0.0014   -0.0193    0.0602
          81    0.0034   -0.1259    0.1235   -0.0059   -0.0100    0.0058   -0.0218    0.0484
          82   -0.0138   -0.0095   -0.0280    0.0011    0.0064   -0.0229    0.0033   -0.0117
          83   -0.0724   -0.0696    0.0694   -0.0171   -0.0105    0.0762   -0.0162   -0.0705
          84   -0.0469   -0.0493    0.1179   -0.0099    0.0070    0.1226    0.0034   -0.0273
          85   -0.0271    0.0064    0.0080    0.0086    0.1052    0.0015   -0.1004   -0.0163
          86   -0.0242    0.0130    0.0017   -0.0128   -0.1345    0.0099    0.1364    0.0145
          87    0.0037    0.0008    0.0034    0.0126    0.1118   -0.0032   -0.1124   -0.0112


   Root No.      25        26        27        28        29        30        31        32

                25 A      26 A      27 A      28 A      29 A      30 A      31 A      32 A   

                 940.8     968.0     979.3     994.7    1015.8    1031.0    1047.3    1062.6
  
           1   -0.0071    0.0011   -0.0027   -0.0144    0.0190   -0.0055    0.0016   -0.0027
           2    0.0149    0.0018   -0.0020    0.0061    0.0036    0.0019   -0.0045   -0.0038
           3    0.0206    0.0007    0.0034   -0.0120    0.0006   -0.0047    0.0082   -0.0066
           4   -0.0025    0.0037    0.0093   -0.0032   -0.0067   -0.0028    0.0039    0.0040
           5    0.0009    0.0099    0.0022   -0.0007    0.0076    0.0027   -0.0028   -0.0055
           6   -0.0017    0.0128   -0.0142    0.0127    0.0020   -0.0046    0.0107   -0.0098
           7   -0.0129    0.0057   -0.0093    0.0125   -0.0091    0.0066    0.0003    0.0008
           8   -0.0143   -0.0104    0.0089    0.0068   -0.0145   -0.0023    0.0088    0.0099
           9   -0.0039   -0.0028    0.0020   -0.0069   -0.0063    0.0021   -0.0024    0.0076
          10    0.0106    0.0007   -0.0009    0.0023    0.0176   -0.0062    0.0048    0.0050
          11   -0.0044    0.0012   -0.0015    0.0027    0.0130   -0.0036    0.0007    0.0069
          12   -0.0060   -0.0001    0.0004    0.0025    0.0049   -0.0015    0.0016    0.0007
          13   -0.0103   -0.0088    0.0113    0.0029    0.0133    0.0083   -0.0270    0.0026
          14    0.0079    0.0037   -0.0090   -0.0073   -0.0052    0.0030   -0.0132    0.0098
          15    0.0055   -0.0093    0.0106   -0.0138   -0.0006    0.0036   -0.0100    0.0127
          16    0.0135   -0.0010    0.0046    0.0115   -0.0211    0.0070   -0.0053   -0.0027
          17   -0.0158   -0.0020   -0.0006   -0.0124   -0.0038   -0.0006    0.0033   -0.0046
          18   -0.0050    0.0000   -0.0015   -0.0062   -0.0016    0.0005   -0.0015    0.0007
          19    0.0013   -0.0148   -0.0142    0.0030   -0.0020   -0.0166   -0.0031   -0.0031
          20    0.0016    0.0048    0.0026   -0.0014    0.0054    0.0211    0.0066   -0.0002
          21   -0.0046    0.0211    0.0136    0.0026   -0.0045   -0.0166   -0.0058    0.0004
          22    0.0148    0.0024    0.0018   -0.0116   -0.0098   -0.0065    0.0188   -0.0016
          23    0.0100    0.0128   -0.0115   -0.0168   -0.0073    0.0015   -0.0043    0.0030
          24   -0.0145    0.0093   -0.0158    0.0092   -0.0007    0.0058   -0.0107    0.0082
          25    0.0077   -0.0006    0.0080   -0.0019   -0.0021   -0.0091   -0.0099    0.0030
          26   -0.0061   -0.0094   -0.0003    0.0021   -0.0020    0.0151    0.0060    0.0056
          27    0.0094   -0.0121   -0.0036   -0.0018   -0.0004   -0.0113   -0.0082   -0.0006
          28    0.0014    0.0031   -0.0062   -0.0001   -0.0055   -0.0037    0.0122    0.0013
          29   -0.0051   -0.0064    0.0071    0.0083    0.0045   -0.0102    0.0289   -0.0222
          30   -0.0077   -0.0096    0.0157    0.0164    0.0073    0.0035   -0.0077   -0.0161
          31    0.0015    0.0023    0.0036   -0.0024    0.0035    0.0224    0.0070    0.0024
          32   -0.0035    0.0029    0.0008    0.0020   -0.0060   -0.0292   -0.0108   -0.0003
          33    0.0002    0.0002   -0.0009   -0.0021    0.0044    0.0245    0.0084    0.0010
          34    0.0161    0.0129    0.0214   -0.0282   -0.0128   -0.0076    0.0212   -0.0368
[...]
 TRAVEL      0.0702        C  2 --  C  9           +7.1% ( 40.9%)    93.3%
 RED. MASS   1.0677        C  1 --  C  8           +6.7% ( 39.5%)    98.6%
 EFF. MASS   9.4640

 VIBRATION   62   62A       ATOM PAIR        ENERGY CONTRIBUTION    RADIAL
 FREQ.      1883.15        C  8 --  C 10          +44.2% ( 98.1%)   100.0%
 T-DIPOLE    0.2108        C  5 --  C 10          +14.2% ( 55.6%)    53.1%
 TRAVEL      0.0549        C  1 --  C  8          +14.1% ( 55.4%)    50.8%
 RED. MASS   5.4088        C  8 --  H 28          +13.1% ( 53.4%)     4.7%
 EFF. MASS  11.8811        C 10 --  H 27          +13.1% ( 53.3%)     4.4%

 VIBRATION   63   63A       ATOM PAIR        ENERGY CONTRIBUTION    RADIAL
 FREQ.      1890.23        C  9 --  C 11          +43.8% ( 97.5%)    96.5%
 T-DIPOLE    0.3023        C  7 --  C 11          +14.3% ( 55.8%)    56.4%
 TRAVEL      0.0550        C  2 --  C  9          +14.0% ( 55.2%)    54.0%
 RED. MASS   5.3545        C 11 --  H 29          +13.3% ( 53.7%)     3.5%
 EFF. MASS  11.7908        C  9 --  H 26          +13.2% ( 53.5%)     3.8%

 VIBRATION   64   64A       ATOM PAIR        ENERGY CONTRIBUTION    RADIAL
 FREQ.      2849.23        C  1 --  H 13          +96.2% ( 99.6%)   100.0%
 T-DIPOLE    0.0534        C  1 --  C  3           +1.0% ( 10.2%)     8.8%
 TRAVEL      0.1283        C  1 --  C  4           +1.0% ( 10.1%)     8.9%
 RED. MASS   0.9166        C  1 --  C  8           +1.0% ( 10.1%)     7.1%
 EFF. MASS   1.4369

 VIBRATION   65   65A       ATOM PAIR        ENERGY CONTRIBUTION    RADIAL
 FREQ.      2865.69        C  2 --  H 12          +95.7% ( 99.5%)   100.0%
 T-DIPOLE    0.0311        C  2 --  C  5           +1.1% ( 10.6%)     8.2%
 TRAVEL      0.1274        C  2 --  C  3           +1.1% ( 10.5%)     8.4%
 RED. MASS   0.9100        C  2 --  C  9           +1.1% ( 10.5%)    12.3%
 EFF. MASS   1.4491

 VIBRATION   66   66A       ATOM PAIR        ENERGY CONTRIBUTION    RADIAL
 FREQ.      2944.68        C  5 --  H 19          +60.1% ( 80.4%)    97.6%
 T-DIPOLE    0.0319        C  5 --  H 18          +36.9% ( 62.9%)    94.9%
 TRAVEL      0.1223        C  5 --  C 10           +1.1% ( 10.9%)     0.1%
 RED. MASS   0.5354        C  2 --  C  5           +1.1% ( 10.8%)     0.1%
 EFF. MASS   1.5321

 VIBRATION   67   67A       ATOM PAIR        ENERGY CONTRIBUTION    RADIAL
 FREQ.      2949.28        C  4 --  H 17          +53.1% ( 75.7%)    97.0%
 T-DIPOLE    0.0106        C  4 --  H 16          +43.4% ( 68.4%)    95.9%
 TRAVEL      0.1217        C  4 --  C  6           +1.2% ( 11.2%)     0.0%
 RED. MASS   0.5106        C  1 --  C  4           +1.1% ( 11.1%)     0.1%
 EFF. MASS   1.5435

 VIBRATION   68   68A       ATOM PAIR        ENERGY CONTRIBUTION    RADIAL
 FREQ.      2954.93        C  3 --  H 15          +53.0% ( 75.5%)    97.0%
 T-DIPOLE    0.0331        C  3 --  H 14          +43.1% ( 68.1%)    95.9%
 TRAVEL      0.1217        C  1 --  C  3           +1.1% ( 11.1%)     0.0%
 RED. MASS   0.5061        C  2 --  C  3           +1.1% ( 11.1%)     0.0%
 EFF. MASS   1.5419

 VIBRATION   69   69A       ATOM PAIR        ENERGY CONTRIBUTION    RADIAL
 FREQ.      3024.65        C  5 --  H 18          +60.3% ( 76.7%)    98.8%
 T-DIPOLE    0.0480        C  5 --  H 19          +35.4% ( 58.8%)    95.6%
 TRAVEL      0.1316        C 10 --  H 27           +2.6% ( 16.0%)   100.0%
 RED. MASS   0.4839        C  5 --  C 10           +0.7% (  8.1%)    15.3%
 EFF. MASS   1.2875

 VIBRATION   70   70A       ATOM PAIR        ENERGY CONTRIBUTION    RADIAL
 FREQ.      3029.54        C  4 --  H 16          +39.1% ( 61.6%)    98.3%
 T-DIPOLE    0.0590        C  4 --  H 17          +30.9% ( 54.8%)    97.0%
 TRAVEL      0.1321        C  3 --  H 14          +15.8% ( 39.2%)    98.4%
 RED. MASS   0.2848        C  3 --  H 15          +11.8% ( 33.9%)    96.7%
 EFF. MASS   1.2754

 VIBRATION   71   71A       ATOM PAIR        ENERGY CONTRIBUTION    RADIAL
 FREQ.      3031.91        C  3 --  H 14          +38.4% ( 61.1%)    98.2%
 T-DIPOLE    0.0460        C  3 --  H 15          +31.6% ( 55.4%)    97.0%
 TRAVEL      0.1320        C  4 --  H 16          +14.9% ( 38.0%)    98.3%
 RED. MASS   0.2823        C  4 --  H 17          +12.0% ( 34.1%)    97.1%
 EFF. MASS   1.2760

 VIBRATION   72   72A       ATOM PAIR        ENERGY CONTRIBUTION    RADIAL
 FREQ.      3035.06        C  9 --  H 26          +92.2% ( 97.2%)   100.0%
 T-DIPOLE    0.2901        C 11 --  H 29           +4.6% ( 21.7%)    99.7%
 TRAVEL      0.1226        C  2 --  C  9           +1.3% ( 11.3%)    15.2%
 RED. MASS   0.8321        C  9 --  C 11           +1.2% ( 11.0%)    40.6%
 EFF. MASS   1.4774

 VIBRATION   73   73A       ATOM PAIR        ENERGY CONTRIBUTION    RADIAL
 FREQ.      3037.67        C 11 --  H 29          +89.7% ( 96.3%)   100.0%
 T-DIPOLE    0.1803        C  9 --  H 26           +4.5% ( 21.5%)    99.5%
 TRAVEL      0.1197        C  9 --  C 11           +1.8% ( 13.5%)    39.3%
 RED. MASS   0.8037        C  7 --  H 24           +1.4% ( 12.1%)    98.1%
 EFF. MASS   1.5495

 VIBRATION   74   74A       ATOM PAIR        ENERGY CONTRIBUTION    RADIAL
 FREQ.      3038.35        C  8 --  H 28          +64.7% ( 81.5%)   100.0%
 T-DIPOLE    0.2835        C 10 --  H 27          +30.2% ( 55.7%)   100.0%
 TRAVEL      0.1235        C  8 --  C 10           +1.1% ( 10.5%)     2.1%
 RED. MASS   0.4961        C  1 --  C  8           +0.9% (  9.5%)    17.7%
 EFF. MASS   1.4556

 VIBRATION   75   75A       ATOM PAIR        ENERGY CONTRIBUTION    RADIAL
 FREQ.      3059.78        C 10 --  H 27          +64.1% ( 81.2%)    99.9%
 T-DIPOLE    0.2722        C  8 --  H 28          +31.1% ( 56.5%)    99.8%
 TRAVEL      0.1181        C  8 --  C 10           +2.0% ( 14.2%)    95.0%
 RED. MASS   0.5069        C  5 --  C 10           +1.0% ( 10.3%)    17.8%
 EFF. MASS   1.5793

 VIBRATION   76   76A       ATOM PAIR        ENERGY CONTRIBUTION    RADIAL
 FREQ.      3069.83        C  7 --  H 25          +50.0% ( 72.9%)    97.2%
 T-DIPOLE    0.0239        C  7 --  H 23          +48.1% ( 71.5%)    96.9%
 TRAVEL      0.1210        C  7 --  C 11           +1.0% ( 10.2%)     0.0%
 RED. MASS   0.5094        C  7 --  H 24           +0.9% ( 10.0%)     0.4%
 EFF. MASS   1.5012

 VIBRATION   77   77A       ATOM PAIR        ENERGY CONTRIBUTION    RADIAL
 FREQ.      3074.13        C  6 --  H 20          +62.0% ( 81.2%)    98.5%
 T-DIPOLE    0.0112        C  6 --  H 21          +32.4% ( 58.7%)    93.6%
 TRAVEL      0.1209        C  6 --  H 22           +4.1% ( 20.8%)    48.1%
 RED. MASS   0.5185        C  4 --  C  6           +1.0% ( 10.2%)     0.0%
 EFF. MASS   1.5003

 VIBRATION   78   78A       ATOM PAIR        ENERGY CONTRIBUTION    RADIAL
 FREQ.      3075.65        C  7 --  H 24          +62.6% ( 81.6%)    98.9%
 T-DIPOLE    0.0578        C  7 --  H 23          +18.1% ( 43.8%)    85.8%
 TRAVEL      0.1206        C  7 --  H 25          +16.3% ( 41.6%)    84.0%
 RED. MASS   0.4792        C 11 --  H 29           +1.9% ( 14.3%)   100.0%
 EFF. MASS   1.5085

 VIBRATION   79   79A       ATOM PAIR        ENERGY CONTRIBUTION    RADIAL
 FREQ.      3082.43        C  6 --  H 22          +57.5% ( 78.2%)    98.4%
 T-DIPOLE    0.0033        C  6 --  H 21          +34.1% ( 60.2%)    93.8%
 TRAVEL      0.1207        C  6 --  H 20           +6.8% ( 26.8%)    62.9%
 RED. MASS   0.4802        C  4 --  C  6           +1.0% ( 10.3%)     0.0%
 EFF. MASS   1.5022

 VIBRATION   80   80A       ATOM PAIR        ENERGY CONTRIBUTION    RADIAL
 FREQ.      3169.52        C  7 --  H 24          +34.5% ( 56.6%)    97.2%
 T-DIPOLE    0.0696        C  7 --  H 23          +32.6% ( 55.0%)    97.1%
 TRAVEL      0.1366        C  7 --  H 25          +32.5% ( 54.9%)    97.0%
 RED. MASS   0.3272        C  7 --  C 11           +0.3% (  5.4%)   100.0%
 EFF. MASS   1.1394

 VIBRATION   81   81A       ATOM PAIR        ENERGY CONTRIBUTION    RADIAL
 FREQ.      3178.91        C  6 --  H 22          +37.8% ( 59.1%)    97.8%
 T-DIPOLE    0.0178        C  6 --  H 21          +32.4% ( 54.8%)    96.9%
 TRAVEL      0.1366        C  6 --  H 20          +29.5% ( 52.3%)    96.4%
 RED. MASS   0.3297        C  4 --  C  6           +0.3% (  5.1%)    99.1%
 EFF. MASS   1.1376

 SYMMETRY NUMBER FOR POINT-GROUP C1  =  1


          SYSTEM IS A GROUND STATE


    NULL



          MOLECULE IS NOT LINEAR

          THERE ARE 81 GENUINE VIBRATIONS IN THIS SYSTEM
          THIS THERMODYNAMICS CALCULATION IS LIMITED TO
          MOLECULES WHICH HAVE NO INTERNAL ROTATIONS




                    CALCULATED THERMODYNAMIC PROPERTIES
                                          *
   TEMP. (K)   PARTITION FUNCTION   H.O.F.    ENTHALPY  HEAT CAPACITY ENTROPY
                                   KCAL/MOL   CAL/MOLE    CAL/K/MOL  CAL/K/MOL


 298.00  VIB.     0.4571D+04                  5829.0105    40.0531    36.3074
         ROT.     0.1291D+07                   888.2813     2.9808    30.9432
         INT.     0.5902D+10                  6717.2918    43.0339    67.2506
         TRA.     0.1781D+28                  1480.4688     4.9680    40.9296
         TOT.                       -5.521    8197.7607    48.0020   108.1802

 200.00  VIB.     0.1814D+03                  2621.4758    25.9213    23.4423
         ROT.     0.7100D+06                   596.1620     2.9808    29.7545
         INT.     0.1288D+09                  3217.6378    28.9021    53.1968
         TRA.     0.9791D+27                   993.6033     4.9680    38.9485
         TOT.                       -9.508    4211.2410    33.8701    92.1452

 210.00  VIB.     0.2522D+03                  2887.0964    27.2091    24.7380
         ROT.     0.7639D+06                   625.9700     2.9808    29.8999
         INT.     0.1927D+09                  3513.0664    30.1899    54.6379
         TRA.     0.1053D+28                  1043.2834     4.9680    39.1909
         TOT.                       -9.163    4556.3498    35.1579    93.8288

 220.00  VIB.     0.3506D+03                  3165.7857    28.5353    26.0342
         ROT.     0.8191D+06                   655.7781     2.9808    30.0386
         INT.     0.2872D+09                  3821.5639    31.5161    56.0728
         TRA.     0.1130D+28                  1092.9636     4.9680    39.4220
         TOT.                       -8.805    4914.5274    36.4841    95.4948

 230.00  VIB.     0.4872D+03                  3457.9315    29.9004    27.3326
         ROT.     0.8756D+06                   685.5862     2.9808    30.1711
         INT.     0.4266D+09                  4143.5177    32.8812    57.5037
         TRA.     0.1207D+28                  1142.6437     4.9680    39.6428
         TOT.                       -8.433    5286.1615    37.8492    97.1465

 240.00  VIB.     0.6769D+03                  3763.9207    31.3037    28.6347
         ROT.     0.9333D+06                   715.3943     2.9808    30.2980
         INT.     0.6318D+09                  4479.3150    34.2845    58.9326
         TRA.     0.1287D+28                  1192.3239     4.9680    39.8543
         TOT.                       -8.047    5671.6389    39.2525    98.7869

 250.00  VIB.     0.9404D+03                  4084.1268    32.7434    29.9416
         ROT.     0.9923D+06                   745.2024     2.9808    30.4197
         INT.     0.9332D+09                  4829.3293    35.7242    60.3613
         TRA.     0.1368D+28                  1242.0041     4.9680    40.0571
         TOT.                       -7.648    6071.3333    40.6922   100.4183

 260.00  VIB.     0.1307D+04                  4418.8997    34.2165    31.2544
         ROT.     0.1052D+07                   775.0105     2.9808    30.5366
         INT.     0.1375D+10                  5193.9102    37.1973    61.7910
         TRA.     0.1451D+28                  1291.6842     4.9680    40.2519
         TOT.                       -7.234    6485.5945    42.1653   102.0429

 270.00  VIB.     0.1816D+04                  4768.5572    35.7197    32.5739
         ROT.     0.1114D+07                   804.8186     2.9808    30.6491
         INT.     0.2022D+10                  5573.3758    38.7005    63.2229
         TRA.     0.1536D+28                  1341.3644     4.9680    40.4394
         TOT.                       -6.804    6914.7402    43.6685   103.6623

 280.00  VIB.     0.2524D+04                  5133.3795    37.2488    33.9005
         ROT.     0.1176D+07                   834.6267     2.9808    30.7575
         INT.     0.2969D+10                  5968.0063    40.2296    64.6579
         TRA.     0.1622D+28                  1391.0445     4.9680    40.6201
         TOT.                       -6.360    7359.0508    45.1976   105.2780

 290.00  VIB.     0.3510D+04                  5513.6058    38.7997    35.2346
         ROT.     0.1240D+07                   864.4348     2.9808    30.8621
         INT.     0.4351D+10                  6378.0406    41.7805    66.0967
         TRA.     0.1710D+28                  1440.7247     4.9680    40.7944
         TOT.                       -5.900    7818.7654    46.7485   106.8911

 300.00  VIB.     0.4883D+04                  5909.4315    40.3680    36.5763
         ROT.     0.1304D+07                   894.2429     2.9808    30.9631
         INT.     0.6369D+10                  6803.6745    43.3488    67.5395
         TRA.     0.1799D+28                  1490.4049     4.9680    40.9628
         TOT.                       -5.425    8294.0793    48.3168   108.5023

 310.00  VIB.     0.6796D+04                  6321.0082    41.9492    37.9258
         ROT.     0.1370D+07                   924.0510     2.9808    31.0609
         INT.     0.9312D+10                  7245.0592    44.9300    68.9866
         TRA.     0.1889D+28                  1540.0850     4.9680    41.1257
         TOT.                       -4.934    8785.1443    49.8980   110.1124

 320.00  VIB.     0.9466D+04                  6748.4438    43.5390    39.2827
         ROT.     0.1437D+07                   953.8591     2.9808    31.1555
         INT.     0.1360D+11                  7702.3029    46.5199    70.4382
         TRA.     0.1982D+28                  1589.7652     4.9680    41.2835
         TOT.                       -4.427    9292.0681    51.4879   111.7217

 330.00  VIB.     0.1319D+05                  7191.8043    45.1335    40.6468
         ROT.     0.1505D+07                   983.6672     2.9808    31.2472
         INT.     0.1985D+11                  8175.4716    48.1143    71.8941
         TRA.     0.2075D+28                  1639.4454     4.9680    41.4364
         TOT.                       -3.904    9814.9169    53.0823   113.3304

 340.00  VIB.     0.1840D+05                  7651.1158    46.7286    42.0179
         ROT.     0.1574D+07                  1013.4753     2.9808    31.3362
         INT.     0.2896D+11                  8664.5911    49.7094    73.3541
         TRA.     0.2170D+28                  1689.1255     4.9680    41.5847
         TOT.                       -3.365   10353.7166    54.6774   114.9388

 350.00  VIB.     0.2568D+05                  8126.3671    48.3209    43.3954
         ROT.     0.1644D+07                  1043.2834     2.9808    31.4226
         INT.     0.4221D+11                  9169.6505    51.3017    74.8180
         TRA.     0.2267D+28                  1738.8057     4.9680    41.7287
         TOT.                       -2.811   10908.4562    56.2697   116.5467

 360.00  VIB.     0.3587D+05                  8617.5126    49.9070    44.7789
         ROT.     0.1715D+07                  1073.0915     2.9808    31.5066
         INT.     0.6151D+11                  9690.6041    52.8878    76.2855
         TRA.     0.2364D+28                  1788.4859     4.9680    41.8686
         TOT.                       -2.240   11479.0900    57.8558   118.1541

 370.00  VIB.     0.5015D+05                  9124.4759    51.4839    46.1679
         ROT.     0.1787D+07                  1102.8996     2.9808    31.5883
         INT.     0.8960D+11                 10227.3755    54.4648    77.7561
         TRA.     0.2464D+28                  1838.1660     4.9680    42.0047
         TOT.                       -1.654   12065.5416    59.4328   119.7609

 380.00  VIB.     0.7016D+05                  9647.1525    53.0492    47.5616
         ROT.     0.1859D+07                  1132.7077     2.9808    31.6677
         INT.     0.1305D+12                 10779.8602    56.0300    79.2294
         TRA.     0.2564D+28                  1887.8462     4.9680    42.1372
         TOT.                       -1.051   12667.7064    60.9980   121.3666

 390.00  VIB.     0.9824D+05                 10185.4130    54.6004    48.9597
         ROT.     0.1933D+07                  1162.5158     2.9808    31.7452
         INT.     0.1899D+12                 11347.9288    57.5812    80.7049
         TRA.     0.2666D+28                  1937.5263     4.9680    42.2663
         TOT.                       -0.434   13285.4552    62.5492   122.9712

 400.00  VIB.     0.1377D+06                 10739.1069    56.1355    50.3615
         ROT.     0.2008D+07                  1192.3239     2.9808    31.8206
         INT.     0.2764D+12                 11931.4308    59.1163    82.1821
         TRA.     0.2769D+28                  1987.2065     4.9680    42.3921
         TOT.                        0.200   13918.6373    64.0844   124.5742

   *: NOTE: HEATS OF FORMATION ARE RELATIVE TO THE
            ELEMENTS IN THEIR STANDARD STATE AT 298K
              (=  Standard Enthalpy of Formation).

            Hvib:  Zero-point energy is not included.
                   frequencies of less than zero cm-1 are not included.
            Hrot = (3/2)RT
            Htra = (3/2)RT + pV = (5/2)RT

            Heat capacity is Cp, not Cv

           For more information, see: HTTP://OpenMOPAC.net/Manual/thermochemistry.html


           FORCE CONSTANT IN CARTESIAN COORDINATES (Millidynes/A)

    ATOM   CHEMICAL       X               Y               Z
   NUMBER   SYMBOL  FORCE CONSTANT  FORCE CONSTANT  FORCE CONSTANT

      1       C        8.349266        8.546062        8.360197
      2       C        8.892666        8.345063        8.196932
      3       C        8.020680        8.432125        8.365131
      4       C        8.095018        8.249365        8.399690
      5       C        9.163168        8.257899        7.963395
      6       C        8.341823        8.277337        8.216672
      7       C        8.751685        8.449942        8.247732
      8       C       13.974717        6.816760        6.479577
      9       C       10.663973        6.294549       10.352871
     10       C       13.596632        6.917979        6.772075
     11       C       10.678884        6.330904       10.219465
     12       H        0.768746        2.123811        3.136822
     13       H        0.744929        1.481864        3.660466
     14       H        0.716256        2.153830        3.523148
     15       H        0.763630        2.159495        3.482948
     16       H        0.813168        2.191303        3.410215
     17       H        3.243140        2.306470        0.850959
     18       H        2.655492        2.922923        0.768748
     19       H        0.932063        2.022485        3.320139
     20       H        3.198243        2.646990        0.888908
     21       H        0.775288        2.266344        3.738443
     22       H        3.990982        1.932858        0.870224
     23       H        0.651040        1.838446        4.177520
     24       H        0.734956        2.701781        3.332722
     25       H        3.759444        2.250447        0.655360
     26       H        0.723721        2.581536        2.918058
     27       H        0.765625        2.970011        2.511323
     28       H        3.934071        1.478364        0.817882
     29       H        0.718200        2.582875        2.918798



 TOTAL CPU TIME:             6.69 SECONDS

 == MOPAC DONE ==
