 *******************************************************************************
 ** Site#: 14399           For non-commercial use only        Version 13.159M **
 *******************************************************************************
 ** Cite this work as: MOPAC2012, James J. P. Stewart, Stewart Computational  **
 ** Chemistry, Version 13.159M web: HTTP://OpenMOPAC.net  Days remaining:   6 **
 *******************************************************************************
 **                                                                           **
 **                                MOPAC2012                                  **
 **                                                                           **
 *******************************************************************************

                            PM3 CALCULATION RESULTS


 *******************************************************************************
 *  CALCULATION DONE:                                Mon Jun  2 11:12:08 2014  *
 *  PM3      - The PM3 Hamiltonian to be used
 *  PRECISE  - CRITERIA TO BE INCREASED BY 100 TIMES
 *  NOSYM    - POINT-GROUP SYMMETRY SET TO C1
 *  T=       - A TIME OF 172800.0 SECONDS REQUESTED
 *  DUMP=N   - RESTART FILE WRITTEN EVERY  7200.000 SECONDS
 *******************************************************************************
pm3  precise nosym
 InChI=1S/C11H16/c1-3-7-10(4-2)11-8-5-6-9-11/h4-6,8-11H,2-3,7H2,1H3

   ATOM   CHEMICAL          X               Y               Z
  NUMBER   SYMBOL      (ANGSTROMS)     (ANGSTROMS)     (ANGSTROMS)
 
     1       C         -0.13780000  *   0.29150000  *  -0.08620000  *
     2       C         -1.55190000  *  -0.22630000  *   0.26540000  *
     3       C          0.96740000  *  -0.42240000  *   0.71940000  *
     4       C          2.39370000  *  -0.03930000  *   0.30240000  *
     5       C          3.45520000  *  -0.81320000  *   1.07710000  *
     6       C         -2.63510000  *   0.41980000  *  -0.55260000  *
     7       C         -1.78620000  *  -1.66310000  *  -0.10810000  *
     8       C         -0.06380000  *   1.78150000  *   0.16370000  *
     9       C         -3.30930000  *  -0.47040000  *  -1.25900000  *
    10       C         -2.77430000  *  -1.78500000  *  -0.97750000  *
    11       C          0.18280000  *   2.66760000  *  -0.80480000  *
    12       H          0.04300000  *   0.06800000  *  -1.16650000  *
    13       H         -1.77100000  *  -0.08430000  *   1.34970000  *
    14       H          2.56880000  *   1.04780000  *   0.47350000  *
    15       H          2.53410000  *  -0.23660000  *  -0.78590000  *
    16       H          0.87590000  *  -1.52390000  *   0.58160000  *
    17       H          0.82970000  *  -0.22580000  *   1.80920000  *
    18       H          4.47050000  *  -0.49880000  *   0.74460000  *
    19       H          3.35830000  *  -1.90850000  *   0.89890000  *
    20       H          3.37180000  *  -0.61420000  *   2.16990000  *
    21       H         -2.85470000  *   1.48280000  *  -0.56610000  *
    22       H         -1.24380000  *  -2.51380000  *   0.29110000  *
    23       H         -0.21940000  *   2.14910000  *   1.17770000  *
    24       H         -4.13910000  *  -0.24680000  *  -1.92130000  *
    25       H         -3.13570000  *  -2.72220000  *  -1.38770000  *
    26       H          0.34550000  *   2.35650000  *  -1.83520000  *
    27       H          0.22540000  *   3.73000000  *  -0.57320000  *
 


          CARTESIAN COORDINATES 

    NO.       ATOM         X         Y         Z

     1         C       -0.1378    0.2915   -0.0862
     2         C       -1.5519   -0.2263    0.2654
     3         C        0.9674   -0.4224    0.7194
     4         C        2.3937   -0.0393    0.3024
     5         C        3.4552   -0.8132    1.0771
     6         C       -2.6351    0.4198   -0.5526
     7         C       -1.7862   -1.6631   -0.1081
     8         C       -0.0638    1.7815    0.1637
     9         C       -3.3093   -0.4704   -1.2590
    10         C       -2.7743   -1.7850   -0.9775
    11         C        0.1828    2.6676   -0.8048
    12         H        0.0430    0.0680   -1.1665
    13         H       -1.7710   -0.0843    1.3497
    14         H        2.5688    1.0478    0.4735
    15         H        2.5341   -0.2366   -0.7859
    16         H        0.8759   -1.5239    0.5816
    17         H        0.8297   -0.2258    1.8092
    18         H        4.4705   -0.4988    0.7446
    19         H        3.3583   -1.9085    0.8989
    20         H        3.3718   -0.6142    2.1699
    21         H       -2.8547    1.4828   -0.5661
    22         H       -1.2438   -2.5138    0.2911
    23         H       -0.2194    2.1491    1.1777
    24         H       -4.1391   -0.2468   -1.9213
    25         H       -3.1357   -2.7222   -1.3877
    26         H        0.3455    2.3565   -1.8352
    27         H        0.2254    3.7300   -0.5732

  H: (PM3): J. J. P. STEWART, J. COMP. CHEM. 10, 209 (1989).
  C: (PM3): J. J. P. STEWART, J. COMP. CHEM. 10, 209 (1989).

           Empirical Formula: C11 H16  =    27 atoms



      MOLECULAR POINT GROUP   :   C1  


      RHF CALCULATION, NO. OF DOUBLY OCCUPIED LEVELS =   30

      Geometry optimization using EF

          DIAGONAL MATRIX USED AS START HESSIAN

 CYCLE:     1 TIME:   0.014 TIME LEFT:  2.00D  GRAD.:   114.523 HEAT: 38.24357
 CYCLE:     2 TIME:   0.031 TIME LEFT:  2.00D  GRAD.:    72.356 HEAT: 36.49903
 CYCLE:     3 TIME:   0.011 TIME LEFT:  2.00D  GRAD.:    28.070 HEAT: 34.88763
 CYCLE:     4 TIME:   0.019 TIME LEFT:  2.00D  GRAD.:    57.337 HEAT: 34.81160
 CYCLE:     5 TIME:   0.011 TIME LEFT:  2.00D  GRAD.:    43.300 HEAT: 34.42530
 CYCLE:     6 TIME:   0.012 TIME LEFT:  2.00D  GRAD.:    38.413 HEAT: 34.15579
 CYCLE:     7 TIME:   0.010 TIME LEFT:  2.00D  GRAD.:    38.132 HEAT: 33.93568
 CYCLE:     8 TIME:   0.010 TIME LEFT:  2.00D  GRAD.:    49.944 HEAT: 33.92176
 CYCLE:     9 TIME:   0.011 TIME LEFT:  2.00D  GRAD.:    43.257 HEAT: 33.87630
 CYCLE:    10 TIME:   0.014 TIME LEFT:  2.00D  GRAD.:    32.846 HEAT: 33.55054
 CYCLE:    11 TIME:   0.019 TIME LEFT:  2.00D  GRAD.:    15.406 HEAT: 33.35536
 CYCLE:    12 TIME:   0.020 TIME LEFT:  2.00D  GRAD.:    12.506 HEAT: 33.28966
 CYCLE:    13 TIME:   0.010 TIME LEFT:  2.00D  GRAD.:     8.003 HEAT: 33.21798
 CYCLE:    14 TIME:   0.011 TIME LEFT:  2.00D  GRAD.:    20.837 HEAT: 33.19730
 CYCLE:    15 TIME:   0.011 TIME LEFT:  2.00D  GRAD.:    13.275 HEAT: 33.06752
 CYCLE:    16 TIME:   0.030 TIME LEFT:  2.00D  GRAD.:    11.933 HEAT: 33.03779
 CYCLE:    17 TIME:   0.010 TIME LEFT:  2.00D  GRAD.:     5.155 HEAT: 32.97640
 CYCLE:    18 TIME:   0.010 TIME LEFT:  2.00D  GRAD.:    14.224 HEAT: 32.96118
 CYCLE:    19 TIME:   0.011 TIME LEFT:  2.00D  GRAD.:     9.971 HEAT: 32.89191
 CYCLE:    20 TIME:   0.027 TIME LEFT:  2.00D  GRAD.:     7.376 HEAT: 32.87000
 CYCLE:    21 TIME:   0.011 TIME LEFT:  2.00D  GRAD.:     3.276 HEAT: 32.84533
 CYCLE:    22 TIME:   0.010 TIME LEFT:  2.00D  GRAD.:     5.947 HEAT: 32.82711
 CYCLE:    23 TIME:   0.010 TIME LEFT:  2.00D  GRAD.:     4.562 HEAT: 32.80364
 CYCLE:    24 TIME:   0.036 TIME LEFT:  2.00D  GRAD.:     3.100 HEAT: 32.79857
 CYCLE:    25 TIME:   0.010 TIME LEFT:  2.00D  GRAD.:     1.703 HEAT: 32.79362
 CYCLE:    26 TIME:   0.011 TIME LEFT:  2.00D  GRAD.:     2.974 HEAT: 32.78924
 CYCLE:    27 TIME:   0.011 TIME LEFT:  2.00D  GRAD.:     2.959 HEAT: 32.78713
 CYCLE:    28 TIME:   0.011 TIME LEFT:  2.00D  GRAD.:     2.298 HEAT: 32.78233
 CYCLE:    29 TIME:   0.010 TIME LEFT:  2.00D  GRAD.:     2.372 HEAT: 32.77905
 CYCLE:    30 TIME:   0.010 TIME LEFT:  2.00D  GRAD.:     2.493 HEAT: 32.77418
 CYCLE:    31 TIME:   0.010 TIME LEFT:  2.00D  GRAD.:     3.369 HEAT: 32.77188
 CYCLE:    32 TIME:   0.010 TIME LEFT:  2.00D  GRAD.:     2.967 HEAT: 32.76909
 CYCLE:    33 TIME:   0.010 TIME LEFT:  2.00D  GRAD.:     1.712 HEAT: 32.76448
 CYCLE:    34 TIME:   0.010 TIME LEFT:  2.00D  GRAD.:     1.598 HEAT: 32.76069
 CYCLE:    35 TIME:   0.010 TIME LEFT:  2.00D  GRAD.:     3.295 HEAT: 32.75413
 CYCLE:    36 TIME:   0.012 TIME LEFT:  2.00D  GRAD.:     3.836 HEAT: 32.74669
 CYCLE:    37 TIME:   0.013 TIME LEFT:  2.00D  GRAD.:     3.148 HEAT: 32.73955
 CYCLE:    38 TIME:   0.011 TIME LEFT:  2.00D  GRAD.:     3.809 HEAT: 32.73394
 CYCLE:    39 TIME:   0.010 TIME LEFT:  2.00D  GRAD.:     2.927 HEAT: 32.72710
 CYCLE:    40 TIME:   0.010 TIME LEFT:  2.00D  GRAD.:     1.752 HEAT: 32.72114
 CYCLE:    41 TIME:   0.010 TIME LEFT:  2.00D  GRAD.:     1.571 HEAT: 32.71624
 CYCLE:    42 TIME:   0.013 TIME LEFT:  2.00D  GRAD.:     1.336 HEAT: 32.71302
 CYCLE:    43 TIME:   0.010 TIME LEFT:  2.00D  GRAD.:     1.327 HEAT: 32.71058
 CYCLE:    44 TIME:   0.011 TIME LEFT:  2.00D  GRAD.:     1.005 HEAT: 32.70858
 CYCLE:    45 TIME:   0.012 TIME LEFT:  2.00D  GRAD.:     0.912 HEAT: 32.70676
 CYCLE:    46 TIME:   0.010 TIME LEFT:  2.00D  GRAD.:     1.013 HEAT: 32.70404
 CYCLE:    47 TIME:   0.012 TIME LEFT:  2.00D  GRAD.:     0.928 HEAT: 32.70260
 CYCLE:    48 TIME:   0.013 TIME LEFT:  2.00D  GRAD.:     0.847 HEAT: 32.70080
 CYCLE:    49 TIME:   0.014 TIME LEFT:  2.00D  GRAD.:     0.911 HEAT: 32.69894
 CYCLE:    50 TIME:   0.010 TIME LEFT:  2.00D  GRAD.:     0.999 HEAT: 32.69713
 CYCLE:    51 TIME:   0.014 TIME LEFT:  2.00D  GRAD.:     1.039 HEAT: 32.69469
 CYCLE:    52 TIME:   0.011 TIME LEFT:  2.00D  GRAD.:     1.031 HEAT: 32.69181
 CYCLE:    53 TIME:   0.011 TIME LEFT:  2.00D  GRAD.:     1.072 HEAT: 32.68918
 CYCLE:    54 TIME:   0.010 TIME LEFT:  2.00D  GRAD.:     0.931 HEAT: 32.68745
 CYCLE:    55 TIME:   0.010 TIME LEFT:  2.00D  GRAD.:     0.803 HEAT: 32.68602
 CYCLE:    56 TIME:   0.010 TIME LEFT:  2.00D  GRAD.:     0.748 HEAT: 32.68420
 CYCLE:    57 TIME:   0.010 TIME LEFT:  2.00D  GRAD.:     0.827 HEAT: 32.68261
 CYCLE:    58 TIME:   0.013 TIME LEFT:  2.00D  GRAD.:     0.764 HEAT: 32.68100
 CYCLE:    59 TIME:   0.013 TIME LEFT:  2.00D  GRAD.:     0.764 HEAT: 32.67956
 CYCLE:    60 TIME:   0.011 TIME LEFT:  2.00D  GRAD.:     0.809 HEAT: 32.67805
 CYCLE:    61 TIME:   0.012 TIME LEFT:  2.00D  GRAD.:     0.832 HEAT: 32.67656
 CYCLE:    62 TIME:   0.010 TIME LEFT:  2.00D  GRAD.:     0.890 HEAT: 32.67478
 CYCLE:    63 TIME:   0.011 TIME LEFT:  2.00D  GRAD.:     0.956 HEAT: 32.67265
 CYCLE:    64 TIME:   0.011 TIME LEFT:  2.00D  GRAD.:     1.048 HEAT: 32.66988
 CYCLE:    65 TIME:   0.013 TIME LEFT:  2.00D  GRAD.:     1.316 HEAT: 32.66682
 CYCLE:    66 TIME:   0.011 TIME LEFT:  2.00D  GRAD.:     1.105 HEAT: 32.66343
 CYCLE:    67 TIME:   0.012 TIME LEFT:  2.00D  GRAD.:     1.211 HEAT: 32.66011
 CYCLE:    68 TIME:   0.011 TIME LEFT:  2.00D  GRAD.:     1.135 HEAT: 32.65635
 CYCLE:    69 TIME:   0.011 TIME LEFT:  2.00D  GRAD.:     1.194 HEAT: 32.65301
 CYCLE:    70 TIME:   0.012 TIME LEFT:  2.00D  GRAD.:     1.560 HEAT: 32.65029
 CYCLE:    71 TIME:   0.010 TIME LEFT:  2.00D  GRAD.:     0.992 HEAT: 32.64873
 CYCLE:    72 TIME:   0.011 TIME LEFT:  2.00D  GRAD.:     0.587 HEAT: 32.64713
 CYCLE:    73 TIME:   0.011 TIME LEFT:  2.00D  GRAD.:     0.528 HEAT: 32.64588
 CYCLE:    74 TIME:   0.010 TIME LEFT:  2.00D  GRAD.:     0.606 HEAT: 32.64443
 CYCLE:    75 TIME:   0.010 TIME LEFT:  2.00D  GRAD.:     0.567 HEAT: 32.64366
 CYCLE:    76 TIME:   0.010 TIME LEFT:  2.00D  GRAD.:     0.577 HEAT: 32.64266
 CYCLE:    77 TIME:   0.011 TIME LEFT:  2.00D  GRAD.:     0.697 HEAT: 32.64158
 CYCLE:    78 TIME:   0.011 TIME LEFT:  2.00D  GRAD.:     0.908 HEAT: 32.63989
 CYCLE:    79 TIME:   0.011 TIME LEFT:  2.00D  GRAD.:     0.916 HEAT: 32.63815
 CYCLE:    80 TIME:   0.011 TIME LEFT:  2.00D  GRAD.:     0.928 HEAT: 32.63557
 CYCLE:    81 TIME:   0.011 TIME LEFT:  2.00D  GRAD.:     0.864 HEAT: 32.63405
 CYCLE:    82 TIME:   0.011 TIME LEFT:  2.00D  GRAD.:     1.100 HEAT: 32.62982
 CYCLE:    83 TIME:   0.010 TIME LEFT:  2.00D  GRAD.:     0.870 HEAT: 32.62838
 CYCLE:    84 TIME:   0.011 TIME LEFT:  2.00D  GRAD.:     1.046 HEAT: 32.62498
 CYCLE:    85 TIME:   0.011 TIME LEFT:  2.00D  GRAD.:     0.726 HEAT: 32.62406
 CYCLE:    86 TIME:   0.012 TIME LEFT:  2.00D  GRAD.:     0.576 HEAT: 32.62290
 CYCLE:    87 TIME:   0.011 TIME LEFT:  2.00D  GRAD.:     0.610 HEAT: 32.62173
 CYCLE:    88 TIME:   0.012 TIME LEFT:  2.00D  GRAD.:     0.605 HEAT: 32.62053
 CYCLE:    89 TIME:   0.011 TIME LEFT:  2.00D  GRAD.:     0.600 HEAT: 32.61962
 CYCLE:    90 TIME:   0.011 TIME LEFT:  2.00D  GRAD.:     0.595 HEAT: 32.61834
 CYCLE:    91 TIME:   0.011 TIME LEFT:  2.00D  GRAD.:     0.674 HEAT: 32.61694
 CYCLE:    92 TIME:   0.011 TIME LEFT:  2.00D  GRAD.:     0.638 HEAT: 32.61593
 CYCLE:    93 TIME:   0.012 TIME LEFT:  2.00D  GRAD.:     0.597 HEAT: 32.61471
 CYCLE:    94 TIME:   0.011 TIME LEFT:  2.00D  GRAD.:     0.596 HEAT: 32.61370
 CYCLE:    95 TIME:   0.011 TIME LEFT:  2.00D  GRAD.:     0.538 HEAT: 32.61266
 CYCLE:    96 TIME:   0.010 TIME LEFT:  2.00D  GRAD.:     0.470 HEAT: 32.61194
 CYCLE:    97 TIME:   0.011 TIME LEFT:  2.00D  GRAD.:     0.411 HEAT: 32.61143
 CYCLE:    98 TIME:   0.011 TIME LEFT:  2.00D  GRAD.:     0.451 HEAT: 32.61090
 CYCLE:    99 TIME:   0.012 TIME LEFT:  2.00D  GRAD.:     0.511 HEAT: 32.61034
 CYCLE:   100 TIME:   0.011 TIME LEFT:  2.00D  GRAD.:     0.614 HEAT: 32.60941
 CYCLE:   101 TIME:   0.010 TIME LEFT:  2.00D  GRAD.:     0.579 HEAT: 32.60865
 CYCLE:   102 TIME:   0.011 TIME LEFT:  2.00D  GRAD.:     0.650 HEAT: 32.60717
 CYCLE:   103 TIME:   0.010 TIME LEFT:  2.00D  GRAD.:     0.606 HEAT: 32.60642
 CYCLE:   104 TIME:   0.012 TIME LEFT:  2.00D  GRAD.:     0.687 HEAT: 32.60465
 CYCLE:   105 TIME:   0.012 TIME LEFT:  2.00D  GRAD.:     0.557 HEAT: 32.60411
 CYCLE:   106 TIME:   0.011 TIME LEFT:  2.00D  GRAD.:     0.624 HEAT: 32.60255
 CYCLE:   107 TIME:   0.013 TIME LEFT:  2.00D  GRAD.:     0.488 HEAT: 32.60184
 CYCLE:   108 TIME:   0.012 TIME LEFT:  2.00D  GRAD.:     0.474 HEAT: 32.60089
 CYCLE:   109 TIME:   0.011 TIME LEFT:  2.00D  GRAD.:     0.267 HEAT: 32.60059
 CYCLE:   110 TIME:   0.010 TIME LEFT:  2.00D  GRAD.:     0.196 HEAT: 32.60047
 CYCLE:   111 TIME:   0.010 TIME LEFT:  2.00D  GRAD.:     0.162 HEAT: 32.60032
 CYCLE:   112 TIME:   0.010 TIME LEFT:  2.00D  GRAD.:     0.160 HEAT: 32.60026
 CYCLE:   113 TIME:   0.010 TIME LEFT:  2.00D  GRAD.:     0.140 HEAT: 32.60017
 CYCLE:   114 TIME:   0.010 TIME LEFT:  2.00D  GRAD.:     0.121 HEAT: 32.60014
 CYCLE:   115 TIME:   0.011 TIME LEFT:  2.00D  GRAD.:     0.292 HEAT: 32.60015
 CYCLE:   116 TIME:   0.013 TIME LEFT:  2.00D  GRAD.:     0.133 HEAT: 32.60005
 CYCLE:   117 TIME:   0.012 TIME LEFT:  2.00D  GRAD.:     0.105 HEAT: 32.60002
 CYCLE:   118 TIME:   0.011 TIME LEFT:  2.00D  GRAD.:     0.170 HEAT: 32.59995
 CYCLE:   119 TIME:   0.010 TIME LEFT:  2.00D  GRAD.:     0.155 HEAT: 32.59991
 CYCLE:   120 TIME:   0.010 TIME LEFT:  2.00D  GRAD.:     0.169 HEAT: 32.59981
 CYCLE:   121 TIME:   0.010 TIME LEFT:  2.00D  GRAD.:     0.218 HEAT: 32.59971
 CYCLE:   122 TIME:   0.011 TIME LEFT:  2.00D  GRAD.:     0.228 HEAT: 32.59958
 CYCLE:   123 TIME:   0.011 TIME LEFT:  2.00D  GRAD.:     0.269 HEAT: 32.59936
 CYCLE:   124 TIME:   0.010 TIME LEFT:  2.00D  GRAD.:     0.227 HEAT: 32.59927
 CYCLE:   125 TIME:   0.011 TIME LEFT:  2.00D  GRAD.:     0.239 HEAT: 32.59902
 CYCLE:   126 TIME:   0.010 TIME LEFT:  2.00D  GRAD.:     0.144 HEAT: 32.59897
 CYCLE:   127 TIME:   0.010 TIME LEFT:  2.00D  GRAD.:     0.133 HEAT: 32.59893
 CYCLE:   128 TIME:   0.011 TIME LEFT:  2.00D  GRAD.:     0.069 HEAT: 32.59891
 CYCLE:   129 TIME:   0.011 TIME LEFT:  2.00D  GRAD.:     0.050 HEAT: 32.59890

     RMS GRADIENT =  0.05000  IS LESS THAN CUTOFF =  0.05000



 -------------------------------------------------------------------------------
pm3  precise nosym
 InChI=1S/C11H16/c1-3-7-10(4-2)11-8-5-6-9-11/h4-6,8-11H,2-3,7H2,1H3



     GEOMETRY OPTIMISED USING EIGENVECTOR FOLLOWING (EF).     
     SCF FIELD WAS ACHIEVED                                   


                              PM3 CALCULATION
                                                       MOPAC2012 (Version: 13.159M)
                                                       Mon Jun  2 11:12:09 2014
                                                       No. of days left =   6




          FINAL HEAT OF FORMATION =         32.59890 KCAL/MOL =     136.39379 KJ/MOL


          TOTAL ENERGY            =      -1548.95381 EV
          ELECTRONIC ENERGY       =      -9123.27280 EV  POINT GROUP:     C1  
          CORE-CORE REPULSION     =       7574.31899 EV
          COSMO AREA              =        210.42 SQUARE ANGSTROMS
          COSMO VOLUME            =        220.39 CUBIC ANGSTROMS

          GRADIENT NORM           =          0.05000
          IONIZATION POTENTIAL    =          9.245099 EV
          HOMO LUMO ENERGIES (EV) =         -9.245  0.288
          NO. OF FILLED LEVELS    =         30
          MOLECULAR WEIGHT        =        148.247

          MOLECULAR DIMENSIONS (Angstroms)

            Atom       Atom       Distance
            H    18    H    24     8.90551
            H    27    H    25     6.69923
            H    26    H    13     3.49743


          SCF CALCULATIONS        =        142
          COMPUTATION TIME        =          1.543 SECONDS




   ATOM   CHEMICAL          X               Y               Z
  NUMBER   SYMBOL      (ANGSTROMS)     (ANGSTROMS)     (ANGSTROMS)
 
     1       C         -0.14121781  *   0.36598434  *  -0.09456091  *
     2       C         -1.53723454  *  -0.17915553  *   0.22865179  *
     3       C          0.91590163  *  -0.38382808  *   0.72478377  *
     4       C          2.31937694  *  -0.14771196  *   0.19256852  *
     5       C          3.35656100  *  -0.84935396  *   1.03969323  *
     6       C         -2.63253353  *   0.42135164  *  -0.62065097  *
     7       C         -1.66539953  *  -1.65345827  *  -0.08025473  *
     8       C         -0.08387416  *   1.82990219  *   0.21957287  *
     9       C         -3.30087174  *  -0.56138379  *  -1.26244446  *
    10       C         -2.69721115  *  -1.85488018  *  -0.92674818  *
    11       C          0.24809969  *   2.75146937  *  -0.67655599  *
    12       H          0.05786655  *   0.19877721  *  -1.18230086  *
    13       H         -1.77486996  *  -0.00728253  *   1.30625139  *
    14       H          2.52621537  *   0.94106860  *   0.15776076  *
    15       H          2.38888027  *  -0.49663996  *  -0.85715004  *
    16       H          0.68034385  *  -1.47259659  *   0.70944562  *
    17       H          0.85578456  *  -0.08144349  *   1.78973174  *
    18       H          4.36837390  *  -0.68252519  *   0.64893179  *
    19       H          3.19002322  *  -1.93450126  *   1.06756520  *
    20       H          3.34256886  *  -0.49108099  *   2.07771864  *
    21       H         -2.80884595  *   1.49415995  *  -0.66387800  *
    22       H         -0.96558832  *  -2.37693518  *   0.34200753  *
    23       H         -0.32797177  *   2.10492133  *   1.25344105  *
    24       H         -4.15183824  *  -0.45565316  *  -1.93228483  *
    25       H         -3.05325620  *  -2.80253589  *  -1.32564218  *
    26       H          0.49694907  *   2.51805769  *  -1.70850621  *
    27       H          0.29348578  *   3.80959969  *  -0.43748004  *

           Empirical Formula: C11 H16  =    27 atoms



      MOLECULAR POINT GROUP   :   C1  


                  EIGENVALUES  
 -41.61757 -37.10766 -33.47369 -29.43634 -27.26970 -25.76015 -22.50319 -21.10128
 -19.92005 -18.96395 -18.38010 -17.91409 -16.44558 -15.98285 -15.32835 -15.08591
 -14.56697 -13.94459 -13.70629 -13.18253 -13.12725 -12.94358 -12.71709 -12.21593
 -12.11571 -11.85798 -11.34425 -11.04008 -10.26271  -9.24510   0.28830   1.10326
   2.01361   3.15150   3.30047   3.37081   3.50650   3.58593   3.78019   3.84682
   3.89514   3.96842   4.00448   4.07448   4.10706   4.22311   4.31043   4.38991
   4.47480   4.54065   4.67916   4.75748   5.00409   5.03716   5.08486   5.54433
   5.71611   5.80739   5.86710   6.15760


              NET ATOMIC CHARGES AND DIPOLE CONTRIBUTIONS

  ATOM NO.   TYPE          CHARGE      No. of ELECS.   s-Pop       p-Pop       
    1          C          -0.023043        4.0230     1.16536     2.85768
    2          C          -0.035326        4.0353     1.16831     2.86702
    3          C          -0.109590        4.1096     1.16810     2.94149
    4          C          -0.100642        4.1006     1.15854     2.94210
    5          C          -0.108511        4.1085     1.13816     2.97035
    6          C          -0.153020        4.1530     1.20939     2.94363
    7          C          -0.166910        4.1669     1.21116     2.95575
    8          C          -0.138348        4.1383     1.19829     2.94006
    9          C          -0.122401        4.1224     1.19277     2.92963
   10          C          -0.113309        4.1133     1.19165     2.92166
   11          C          -0.159731        4.1597     1.18305     2.97668
   12          H           0.077125        0.9229     0.92288
   13          H           0.092513        0.9075     0.90749
   14          H           0.054571        0.9454     0.94543
   15          H           0.049865        0.9501     0.95013
   16          H           0.059264        0.9407     0.94074
   17          H           0.053753        0.9462     0.94625
   18          H           0.037658        0.9623     0.96234
   19          H           0.036856        0.9631     0.96314
   20          H           0.037589        0.9624     0.96241
   21          H           0.119972        0.8800     0.88003
   22          H           0.122430        0.8776     0.87757
   23          H           0.098765        0.9012     0.90123
   24          H           0.113970        0.8860     0.88603
   25          H           0.113708        0.8863     0.88629
   26          H           0.083516        0.9165     0.91648
   27          H           0.079277        0.9207     0.92072
 DIPOLE           X         Y         Z       TOTAL
 POINT-CHG.     0.337     0.080     0.199     0.399
 HYBRID        -0.042     0.028     0.086     0.099
 SUM            0.295     0.108     0.285     0.424


          ATOMIC ORBITAL ELECTRON POPULATIONS

    Atom      s        px        py        pz   
    1  C   1.16536   0.92621   0.92583   1.00563
    2  C   1.16831   0.94196   0.93194   0.99312
    3  C   1.16810   0.94634   1.00378   0.99137
    4  C   1.15854   0.94467   1.00842   0.98902
    5  C   1.13816   0.98084   0.99700   0.99251
    6  C   1.20939   0.97978   0.98301   0.98083
    7  C   1.21116   0.99027   0.96843   0.99706
    8  C   1.19829   0.99670   0.95390   0.98946
    9  C   1.19277   0.99293   0.93955   0.99716
   10  C   1.19165   0.97220   0.96734   0.98213
   11  C   1.18305   1.00530   0.98291   0.98847
   12  H   0.92288
   13  H   0.90749
   14  H   0.94543
   15  H   0.95013
   16  H   0.94074
   17  H   0.94625
   18  H   0.96234
   19  H   0.96314
   20  H   0.96241
   21  H   0.88003
   22  H   0.87757
   23  H   0.90123
   24  H   0.88603
   25  H   0.88629
   26  H   0.91648
   27  H   0.92072
 *******************************************************************************
 ** Site#: 14399           For non-commercial use only        Version 13.159M **
 *******************************************************************************
 ** Cite this work as: MOPAC2012, James J. P. Stewart, Stewart Computational  **
 ** Chemistry, Version 13.159M web: HTTP://OpenMOPAC.net  Days remaining:   6 **
 *******************************************************************************
 **                                                                           **
 **                                MOPAC2012                                  **
 **                                                                           **
 *******************************************************************************

                            PM3 CALCULATION RESULTS


 *******************************************************************************
 *  CALCULATION DONE:                                Mon Jun  2 11:12:09 2014  *
 *  PM3      - The PM3 Hamiltonian to be used
 *  OLDGEO   - PREVIOUS GEOMETRY TO BE USED
 *  PRECISE  - CRITERIA TO BE INCREASED BY 100 TIMES
 *  NOSYM    - POINT-GROUP SYMMETRY SET TO C1
 *  T=       - A TIME OF 172800.0 SECONDS REQUESTED
 *  DUMP=N   - RESTART FILE WRITTEN EVERY  7200.000 SECONDS
 *  THERMO   - THERMODYNAMIC QUANTITIES TO BE CALCULATED
 *******************************************************************************
oldgeo thermo nosym precise  pm3

   ATOM   CHEMICAL          X               Y               Z
  NUMBER   SYMBOL      (ANGSTROMS)     (ANGSTROMS)     (ANGSTROMS)
 
     1       C         -0.14121781  *   0.36598434  *  -0.09456091  *
     2       C         -1.53723454  *  -0.17915553  *   0.22865179  *
     3       C          0.91590163  *  -0.38382808  *   0.72478377  *
     4       C          2.31937694  *  -0.14771196  *   0.19256852  *
     5       C          3.35656100  *  -0.84935396  *   1.03969323  *
     6       C         -2.63253353  *   0.42135164  *  -0.62065097  *
     7       C         -1.66539953  *  -1.65345827  *  -0.08025473  *
     8       C         -0.08387416  *   1.82990219  *   0.21957287  *
     9       C         -3.30087174  *  -0.56138379  *  -1.26244446  *
    10       C         -2.69721115  *  -1.85488018  *  -0.92674818  *
    11       C          0.24809969  *   2.75146937  *  -0.67655599  *
    12       H          0.05786655  *   0.19877721  *  -1.18230086  *
    13       H         -1.77486996  *  -0.00728253  *   1.30625139  *
    14       H          2.52621537  *   0.94106860  *   0.15776076  *
    15       H          2.38888027  *  -0.49663996  *  -0.85715004  *
    16       H          0.68034385  *  -1.47259659  *   0.70944562  *
    17       H          0.85578456  *  -0.08144349  *   1.78973174  *
    18       H          4.36837390  *  -0.68252519  *   0.64893179  *
    19       H          3.19002322  *  -1.93450126  *   1.06756520  *
    20       H          3.34256886  *  -0.49108099  *   2.07771864  *
    21       H         -2.80884595  *   1.49415995  *  -0.66387800  *
    22       H         -0.96558832  *  -2.37693518  *   0.34200753  *
    23       H         -0.32797177  *   2.10492133  *   1.25344105  *
    24       H         -4.15183824  *  -0.45565316  *  -1.93228483  *
    25       H         -3.05325620  *  -2.80253589  *  -1.32564218  *
    26       H          0.49694907  *   2.51805769  *  -1.70850621  *
    27       H          0.29348578  *   3.80959969  *  -0.43748004  *
 


          CARTESIAN COORDINATES 

    NO.       ATOM         X         Y         Z

     1         C       -0.1412    0.3660   -0.0946
     2         C       -1.5372   -0.1792    0.2287
     3         C        0.9159   -0.3838    0.7248
     4         C        2.3194   -0.1477    0.1926
     5         C        3.3566   -0.8494    1.0397
     6         C       -2.6325    0.4214   -0.6207
     7         C       -1.6654   -1.6535   -0.0803
     8         C       -0.0839    1.8299    0.2196
     9         C       -3.3009   -0.5614   -1.2624
    10         C       -2.6972   -1.8549   -0.9267
    11         C        0.2481    2.7515   -0.6766
    12         H        0.0579    0.1988   -1.1823
    13         H       -1.7749   -0.0073    1.3063
    14         H        2.5262    0.9411    0.1578
    15         H        2.3889   -0.4966   -0.8572
    16         H        0.6803   -1.4726    0.7094
    17         H        0.8558   -0.0814    1.7897
    18         H        4.3684   -0.6825    0.6489
    19         H        3.1900   -1.9345    1.0676
    20         H        3.3426   -0.4911    2.0777
    21         H       -2.8088    1.4942   -0.6639
    22         H       -0.9656   -2.3769    0.3420
    23         H       -0.3280    2.1049    1.2534
    24         H       -4.1518   -0.4557   -1.9323
    25         H       -3.0533   -2.8025   -1.3256
    26         H        0.4969    2.5181   -1.7085
    27         H        0.2935    3.8096   -0.4375

  H: (PM3): J. J. P. STEWART, J. COMP. CHEM. 10, 209 (1989).
  C: (PM3): J. J. P. STEWART, J. COMP. CHEM. 10, 209 (1989).

           Empirical Formula: C11 H16  =    27 atoms



      MOLECULAR POINT GROUP   :   C1  


      RHF CALCULATION, NO. OF DOUBLY OCCUPIED LEVELS =   30



          HEAT OF FORMATION =      32.598900 KCALS/MOLE


          INTERNAL COORDINATE DERIVATIVES

   NUMBER  ATOM       BOND         ANGLE      DIHEDRAL

     1       C     -0.003943    -0.001068    -0.000805
     2       C     -0.004648     0.000203    -0.002732
     3       C      0.006207    -0.001734     0.001579
     4       C      0.007789     0.003528     0.000246
     5       C      0.012429    -0.001939    -0.002961
     6       C     -0.006678     0.001392     0.006096
     7       C     -0.001770     0.005951     0.006558
     8       C     -0.005467     0.002882    -0.001802
     9       C     -0.002591     0.007967    -0.009203
    10       C     -0.003641    -0.009789     0.001262
    11       C     -0.001757    -0.008184    -0.002987
    12       H     -0.008435     0.009431    -0.004938
    13       H     -0.002469    -0.000060     0.000344
    14       H     -0.017465     0.015120    -0.003230
    15       H     -0.003662    -0.007549     0.000669
    16       H      0.008207    -0.000567     0.001665
    17       H     -0.002146    -0.003387     0.005022
    18       H      0.011728    -0.010525    -0.000798
    19       H      0.001898     0.006312    -0.006065
    20       H     -0.001741    -0.000885     0.002291
    21       H      0.006287     0.000149     0.002565
    22       H      0.001446     0.003620    -0.000302
    23       H     -0.006828     0.006240    -0.003534
    24       H     -0.006418     0.001912    -0.000896
    25       H      0.000974     0.000356    -0.000213
    26       H      0.008599    -0.006755     0.007535
    27       H      0.014094    -0.012620     0.004632


          GRADIENT NORM =   0.05385


          TIME FOR SCF CALCULATION =    0.01

          TIME FOR DERIVATIVES     =    0.01

          MOLECULAR WEIGHT =  148.25



          ROTATIONAL CONSTANTS IN CM(-1)

          A =    0.05592188   B =    0.02294195   C =    0.01740373



           PRINCIPAL MOMENTS OF INERTIA IN UNITS OF 10**(-40)*GRAM-CM**2

          A =      500.5693   B =     1220.1565   C =     1608.4351


          ORIENTATION OF MOLECULE IN FORCE CALCULATION

    NO.       ATOM         X         Y         Z

     1          C      -0.3620   -0.1516    0.2353
     2          C       1.1711   -0.1516    0.2353
     3          C      -0.8852    1.2897    0.2353
     4          C      -2.3593    1.3585   -0.1267
     5          C      -2.8757    2.7784   -0.0720
     6          C       1.7759   -1.5306    0.1164
     7          C       1.7469    0.5548   -0.9709
     8          C      -0.8685   -0.8764    1.4449
     9          C       2.5986   -1.5758   -0.9538
    10          C       2.5796   -0.2761   -1.6326
    11          C      -1.6874   -1.9191    1.3755
    12          H      -0.7131   -0.6644   -0.6945
    13          H       1.5536    0.3361    1.1643
    14          H      -2.9421    0.7124    0.5606
    15          H      -2.5198    0.9360   -1.1387
    16          H      -0.2868    1.8918   -0.4861
    17          H      -0.7135    1.7560    1.2264
    18          H      -3.9387    2.8257   -0.3404
    19          H      -2.3323    3.4339   -0.7657
    20          H      -2.7715    3.2097    0.9326
    21          H       1.5459   -2.3262    0.8222
    22          H       1.4560    1.5789   -1.2118
    23          H      -0.5261   -0.4865    2.4117
    24          H       3.1947   -2.4193   -1.2961
    25          H       3.1567   -0.0615   -2.5298
    26          H      -2.0485   -2.3329    0.4376
    27          H      -2.0546   -2.4337    2.2583


    FIRST DERIVATIVES WILL BE USED IN THE CALCULATION OF SECOND DERIVATIVES

          ESTIMATED TIME TO COMPLETE CALCULATION =        4.77 SECONDS

    FOR POINT-GROUP C1   THERE ARE   1 UNIQUE SYMMETRY FUNCTIONS.

 STEP:   1 TIME =     0.05 SECS, INTEGRAL =      0.05 TIME LEFT: 172799.94
 STEP:   2 TIME =     0.05 SECS, INTEGRAL =      0.09 TIME LEFT: 172799.89
 STEP:   3 TIME =     0.05 SECS, INTEGRAL =      0.14 TIME LEFT: 172799.84
 STEP:   4 TIME =     0.05 SECS, INTEGRAL =      0.19 TIME LEFT: 172799.80
 STEP:   5 TIME =     0.05 SECS, INTEGRAL =      0.24 TIME LEFT: 172799.75
 STEP:   6 TIME =     0.05 SECS, INTEGRAL =      0.29 TIME LEFT: 172799.70
 STEP:   7 TIME =     0.06 SECS, INTEGRAL =      0.35 TIME LEFT: 172799.64
 STEP:   8 TIME =     0.05 SECS, INTEGRAL =      0.40 TIME LEFT: 172799.59
 STEP:   9 TIME =     0.05 SECS, INTEGRAL =      0.45 TIME LEFT: 172799.54
 STEP:  10 TIME =     0.05 SECS, INTEGRAL =      0.50 TIME LEFT: 172799.48
 STEP:  11 TIME =     0.05 SECS, INTEGRAL =      0.55 TIME LEFT: 172799.44
 STEP:  12 TIME =     0.05 SECS, INTEGRAL =      0.60 TIME LEFT: 172799.39
 STEP:  13 TIME =     0.04 SECS, INTEGRAL =      0.64 TIME LEFT: 172799.34
 STEP:  14 TIME =     0.05 SECS, INTEGRAL =      0.69 TIME LEFT: 172799.30
 STEP:  15 TIME =     0.05 SECS, INTEGRAL =      0.74 TIME LEFT: 172799.25
 STEP:  16 TIME =     0.06 SECS, INTEGRAL =      0.80 TIME LEFT: 172799.19
 STEP:  17 TIME =     0.05 SECS, INTEGRAL =      0.85 TIME LEFT: 172799.14
 STEP:  18 TIME =     0.05 SECS, INTEGRAL =      0.90 TIME LEFT: 172799.09
 STEP:  19 TIME =     0.05 SECS, INTEGRAL =      0.95 TIME LEFT: 172799.04
 STEP:  20 TIME =     0.05 SECS, INTEGRAL =      1.00 TIME LEFT: 172798.99
 STEP:  21 TIME =     0.06 SECS, INTEGRAL =      1.05 TIME LEFT: 172798.93
 STEP:  22 TIME =     0.05 SECS, INTEGRAL =      1.10 TIME LEFT: 172798.88
 STEP:  23 TIME =     0.05 SECS, INTEGRAL =      1.15 TIME LEFT: 172798.84
 STEP:  24 TIME =     0.04 SECS, INTEGRAL =      1.19 TIME LEFT: 172798.79
 STEP:  25 TIME =     0.05 SECS, INTEGRAL =      1.24 TIME LEFT: 172798.74
 STEP:  26 TIME =     0.05 SECS, INTEGRAL =      1.29 TIME LEFT: 172798.70
 STEP:  27 TIME =     0.05 SECS, INTEGRAL =      1.34 TIME LEFT: 172798.65
 STEP:  28 TIME =     0.05 SECS, INTEGRAL =      1.39 TIME LEFT: 172798.60
 STEP:  29 TIME =     0.05 SECS, INTEGRAL =      1.43 TIME LEFT: 172798.55
 STEP:  30 TIME =     0.05 SECS, INTEGRAL =      1.48 TIME LEFT: 172798.50
 STEP:  31 TIME =     0.05 SECS, INTEGRAL =      1.53 TIME LEFT: 172798.45
 STEP:  32 TIME =     0.05 SECS, INTEGRAL =      1.58 TIME LEFT: 172798.40
 STEP:  33 TIME =     0.05 SECS, INTEGRAL =      1.63 TIME LEFT: 172798.35
 STEP:  34 TIME =     0.05 SECS, INTEGRAL =      1.68 TIME LEFT: 172798.31
 STEP:  35 TIME =     0.05 SECS, INTEGRAL =      1.73 TIME LEFT: 172798.26
 STEP:  36 TIME =     0.05 SECS, INTEGRAL =      1.77 TIME LEFT: 172798.21
 STEP:  37 TIME =     0.05 SECS, INTEGRAL =      1.83 TIME LEFT: 172798.16
 STEP:  38 TIME =     0.05 SECS, INTEGRAL =      1.87 TIME LEFT: 172798.11
 STEP:  39 TIME =     0.05 SECS, INTEGRAL =      1.92 TIME LEFT: 172798.06
 STEP:  40 TIME =     0.05 SECS, INTEGRAL =      1.97 TIME LEFT: 172798.01
 STEP:  41 TIME =     0.05 SECS, INTEGRAL =      2.02 TIME LEFT: 172797.97
 STEP:  42 TIME =     0.05 SECS, INTEGRAL =      2.07 TIME LEFT: 172797.92
 STEP:  43 TIME =     0.05 SECS, INTEGRAL =      2.11 TIME LEFT: 172797.87
 STEP:  44 TIME =     0.05 SECS, INTEGRAL =      2.16 TIME LEFT: 172797.82
 STEP:  45 TIME =     0.05 SECS, INTEGRAL =      2.21 TIME LEFT: 172797.77
 STEP:  46 TIME =     0.05 SECS, INTEGRAL =      2.26 TIME LEFT: 172797.72
 STEP:  47 TIME =     0.05 SECS, INTEGRAL =      2.31 TIME LEFT: 172797.67
 STEP:  48 TIME =     0.05 SECS, INTEGRAL =      2.37 TIME LEFT: 172797.62
 STEP:  49 TIME =     0.05 SECS, INTEGRAL =      2.41 TIME LEFT: 172797.57
 STEP:  50 TIME =     0.05 SECS, INTEGRAL =      2.46 TIME LEFT: 172797.52
 STEP:  51 TIME =     0.04 SECS, INTEGRAL =      2.51 TIME LEFT: 172797.48
 STEP:  52 TIME =     0.05 SECS, INTEGRAL =      2.55 TIME LEFT: 172797.43
 STEP:  53 TIME =     0.05 SECS, INTEGRAL =      2.60 TIME LEFT: 172797.38
 STEP:  54 TIME =     0.05 SECS, INTEGRAL =      2.65 TIME LEFT: 172797.34
 STEP:  55 TIME =     0.05 SECS, INTEGRAL =      2.70 TIME LEFT: 172797.29
 STEP:  56 TIME =     0.05 SECS, INTEGRAL =      2.74 TIME LEFT: 172797.24
 STEP:  57 TIME =     0.05 SECS, INTEGRAL =      2.79 TIME LEFT: 172797.19
 STEP:  58 TIME =     0.05 SECS, INTEGRAL =      2.84 TIME LEFT: 172797.14
 STEP:  59 TIME =     0.05 SECS, INTEGRAL =      2.89 TIME LEFT: 172797.10
 STEP:  60 TIME =     0.04 SECS, INTEGRAL =      2.93 TIME LEFT: 172797.05
 STEP:  61 TIME =     0.05 SECS, INTEGRAL =      2.98 TIME LEFT: 172797.00
 STEP:  62 TIME =     0.05 SECS, INTEGRAL =      3.03 TIME LEFT: 172796.96
 STEP:  63 TIME =     0.05 SECS, INTEGRAL =      3.08 TIME LEFT: 172796.91
 STEP:  64 TIME =     0.05 SECS, INTEGRAL =      3.12 TIME LEFT: 172796.86
 STEP:  65 TIME =     0.05 SECS, INTEGRAL =      3.17 TIME LEFT: 172796.81
 STEP:  66 TIME =     0.05 SECS, INTEGRAL =      3.22 TIME LEFT: 172796.76
 STEP:  67 TIME =     0.05 SECS, INTEGRAL =      3.27 TIME LEFT: 172796.71
 STEP:  68 TIME =     0.05 SECS, INTEGRAL =      3.32 TIME LEFT: 172796.66
 STEP:  69 TIME =     0.05 SECS, INTEGRAL =      3.37 TIME LEFT: 172796.61
 STEP:  70 TIME =     0.05 SECS, INTEGRAL =      3.42 TIME LEFT: 172796.57
 STEP:  71 TIME =     0.05 SECS, INTEGRAL =      3.47 TIME LEFT: 172796.52
 STEP:  72 TIME =     0.05 SECS, INTEGRAL =      3.51 TIME LEFT: 172796.47
 STEP:  73 TIME =     0.05 SECS, INTEGRAL =      3.56 TIME LEFT: 172796.42
 STEP:  74 TIME =     0.05 SECS, INTEGRAL =      3.61 TIME LEFT: 172796.37
 STEP:  75 TIME =     0.05 SECS, INTEGRAL =      3.66 TIME LEFT: 172796.32
 STEP:  76 TIME =     0.05 SECS, INTEGRAL =      3.71 TIME LEFT: 172796.27
 STEP:  77 TIME =     0.05 SECS, INTEGRAL =      3.76 TIME LEFT: 172796.23
 STEP:  78 TIME =     0.05 SECS, INTEGRAL =      3.80 TIME LEFT: 172796.18
 STEP:  79 TIME =     0.05 SECS, INTEGRAL =      3.85 TIME LEFT: 172796.13
 STEP:  80 TIME =     0.05 SECS, INTEGRAL =      3.91 TIME LEFT: 172796.08
 STEP:  81 TIME =     0.05 SECS, INTEGRAL =      3.96 TIME LEFT: 172796.03

(To convert to Hartree/Bohr^2, multiply by (10^(-21) x N x a0^2)/(4.184 x 627.51) = 0.0642)


           FORCE MATRIX IN MILLIDYNES/ANGSTROM


                  C  1       C  2       C  3       C  4       C  5       C  6
 ------------------------------------------------------------------------------
     C    1  14.478147
     C    2   3.662562  14.804628
     C    3   3.741243   0.635172  14.180452
     C    4   0.613595   0.050862   4.203629  14.397830
     C    5   0.052041   0.010524   0.665719   4.478799  14.378498
     C    6   0.567801   4.143886   0.048480   0.009592   0.002465  17.906486
     C    7   0.590109   4.098148   0.091741   0.007323   0.001742   1.100431
     C    8   4.627793   0.685640   0.688712   0.045549   0.003112   0.051163
     C    9   0.048514   1.209210   0.010091   0.002104   0.001123   9.778437
     C   10   0.047093   1.202920   0.010196   0.001478   0.000988   1.569556
     C   11   0.800458   0.041218   0.038595   0.014956   0.002925   0.012563
     H   12   4.199562   0.421964   0.426053   0.041808   0.002167   0.016657
     H   13   0.450039   4.209314   0.021383   0.001676   0.000804   0.385944
     H   14   0.029288   0.001722   0.445337   4.437333   0.436698   0.000968
     H   15   0.027483   0.001392   0.444650   4.448403   0.436491   0.000792
     H   16   0.442287   0.060585   4.268729   0.442110   0.024654   0.001897
     H   17   0.449683   0.015987   4.435424   0.444954   0.030549   0.000938
     H   18   0.008722   0.002038   0.051387   0.449531   4.755265   0.000651
     H   19   0.002055   0.000516   0.023648   0.463495   4.721437   0.000419
     H   20   0.001610   0.000721   0.024007   0.463129   4.723839   0.000229
     H   21   0.011092   0.406692   0.002074   0.000505   0.000367   5.071148
     H   22   0.012293   0.408694   0.052538   0.002951   0.000551   0.043162
     H   23   0.436002   0.021457   0.018726   0.002921   0.000765   0.004339
     H   24   0.015409   0.112878   0.002481   0.000689   0.000261   0.446367
     H   25   0.015579   0.112201   0.000763   0.000418   0.000380   0.049558
     H   26   0.096050   0.011116   0.011835   0.001328   0.000670   0.002342
     H   27   0.134980   0.018499   0.019368   0.001101   0.000548   0.001080


                  C  7       C  8       C  9       C 10       C 11       H 12
 ------------------------------------------------------------------------------
     C    7  17.939193
     C    8   0.046693  18.138298
     C    9   1.581065   0.010608  18.313892
     C   10   9.821278   0.009522   5.137025  18.340395
     C   11   0.008613  11.098651   0.001083   0.002557  18.040361
     H   12   0.016844   0.442649   0.005162   0.005271   0.052609   4.674738
     H   13   0.386820   0.028870   0.051435   0.051069   0.002396   0.040533
     H   14   0.001358   0.010178   0.000536   0.000502   0.009846   0.003012
     H   15   0.001121   0.002217   0.000539   0.000481   0.001061   0.027612
     H   16   0.108831   0.047402   0.001059   0.001133   0.006755   0.018964
     H   17   0.004513   0.040471   0.000503   0.001391   0.002640   0.040697
     H   18   0.000446   0.000635   0.000442   0.000391   0.000523   0.000562
     H   19   0.000372   0.001025   0.000427   0.000274   0.000673   0.000400
     H   20   0.000380   0.000753   0.000333   0.000305   0.000801   0.000488
     H   21   0.042161   0.009498   0.441557   0.100344   0.006297   0.002280
     H   22   4.952054   0.003607   0.099820   0.439833   0.000997   0.002430
     H   23   0.002332   4.774085   0.001951   0.001244   0.453713   0.036369
     H   24   0.049017   0.001120   5.071772   0.419276   0.000728   0.000691
     H   25   0.446849   0.002289   0.418766   5.072655   0.000850   0.000666
     H   26   0.002541   0.490154   0.001063   0.000899   5.069507   0.029736
     H   27   0.002699   0.461483   0.000972   0.000680   5.104701   0.001999


                  H 13       H 14       H 15       H 16       H 17       H 18
 ------------------------------------------------------------------------------
     H   13   4.695851
     H   14   0.000446   5.048847
     H   15   0.000426   0.570920   5.066127
     H   16   0.003129   0.045009   0.026208   4.869842
     H   17   0.009689   0.022503   0.045801   0.557160   5.055726
     H   18   0.000180   0.029431   0.030410   0.001678   0.001818   5.491909
     H   19   0.000143   0.047406   0.024255   0.016916   0.001730   0.572086
     H   20   0.000196   0.024444   0.047681   0.001542   0.020761   0.575209
     H   21   0.011167   0.000386   0.000185   0.000820   0.000505   0.000084
     H   22   0.011360   0.000921   0.000685   0.091664   0.000984   0.000262
     H   23   0.018977   0.001204   0.000615   0.001655   0.021025   0.000164
     H   24   0.014393   0.000108   0.000114   0.000365   0.000218   0.000077
     H   25   0.014157   0.000103   0.000144   0.000688   0.000167   0.000103
     H   26   0.000515   0.001303   0.000475   0.002257   0.000695   0.000209
     H   27   0.000723   0.000659   0.000293   0.003146   0.000841   0.000125


                  H 19       H 20       H 21       H 22       H 23       H 24
 ------------------------------------------------------------------------------
     H   19   5.465382
     H   20   0.576039   5.467403
     H   21   0.000107   0.000098   5.468328
     H   22   0.000412   0.000184   0.010066   5.355756
     H   23   0.000248   0.000212   0.001918   0.001026   5.151591
     H   24   0.000070   0.000033   0.041387   0.005064   0.000439   5.462081
     H   25   0.000124   0.000105   0.005336   0.040843   0.000256   0.009480
     H   26   0.000335   0.000244   0.001575   0.000339   0.117026   0.000294
     H   27   0.000191   0.000176   0.001261   0.000434   0.078889   0.000237


                  H 25       H 26       H 27
 ------------------------------------------
     H   25   5.462392
     H   26   0.000242   5.462804
     H   27   0.000211   0.420770   5.491617


          HEAT OF FORMATION =      32.598900 KCALS/MOLE

          ZERO POINT ENERGY     148.747 KCAL/MOL


           NORMAL COORDINATE ANALYSIS (Total motion = 1 Angstrom)


   Root No.       1         2         3         4         5         6         7         8

                 1 A       2 A       3 A       4 A       5 A       6 A       7 A       8 A   

                  56.6      69.9      90.4     101.2     127.0     175.0     208.6     235.9
  
           1    0.0022   -0.0091    0.0010    0.0074   -0.0198   -0.0081   -0.0024    0.0006
           2    0.0085    0.0074   -0.0086    0.0007   -0.0220    0.0114    0.0026   -0.0098
           3   -0.0186   -0.0009   -0.0046    0.0128   -0.0070   -0.0015    0.0020   -0.0158
           4    0.0020   -0.0088    0.0010    0.0072   -0.0193   -0.0091   -0.0028    0.0024
           5    0.0132    0.0092   -0.0012    0.0136   -0.0121   -0.0013    0.0019    0.0224
           6   -0.0111   -0.0007   -0.0045    0.0030   -0.0175   -0.0259   -0.0041    0.0031
           7   -0.0005   -0.0063   -0.0005   -0.0009   -0.0086   -0.0139   -0.0047   -0.0204
           8    0.0073    0.0081   -0.0092   -0.0019   -0.0171    0.0100    0.0019   -0.0206
           9   -0.0199    0.0102   -0.0017    0.0371   -0.0091    0.0337    0.0147   -0.0188
          10   -0.0086   -0.0085   -0.0131    0.0109   -0.0040   -0.0101    0.0044   -0.0219
          11    0.0007    0.0173   -0.0099   -0.0001    0.0146    0.0066    0.0050   -0.0052
          12    0.0116    0.0214    0.0508   -0.0105   -0.0183    0.0117   -0.0227   -0.0085
          13   -0.0214    0.0140    0.0134    0.0073    0.0271   -0.0216   -0.0049    0.0200
          14   -0.0055    0.0274    0.0025   -0.0013    0.0255    0.0033    0.0007    0.0112
          15    0.0490   -0.0209   -0.0216   -0.0119    0.0159   -0.0121    0.0023    0.0060
          16    0.0071   -0.0063    0.0122    0.0186    0.0141   -0.0228   -0.0077   -0.0132
          17    0.0123    0.0090    0.0036    0.0173    0.0022   -0.0083   -0.0003    0.0158
          18    0.0257    0.0167   -0.0006    0.0207   -0.0022   -0.0201   -0.0025    0.0115
          19    0.0057   -0.0113   -0.0024   -0.0165   -0.0278    0.0135    0.0023    0.0225
          20   -0.0142   -0.0050    0.0009   -0.0035   -0.0079   -0.0070    0.0000    0.0174
          21   -0.0253   -0.0101   -0.0051   -0.0188   -0.0192   -0.0175   -0.0024    0.0106
          22   -0.0019   -0.0041   -0.0009    0.0119   -0.0075    0.0195    0.0092    0.0325
          23    0.0071   -0.0076   -0.0102   -0.0223   -0.0106   -0.0059   -0.0075   -0.0235
          24   -0.0212   -0.0080   -0.0065    0.0004    0.0051    0.0006    0.0013   -0.0101
          25    0.0125   -0.0078    0.0168   -0.0009    0.0383    0.0124   -0.0010   -0.0294
          26   -0.0114   -0.0036    0.0088    0.0030    0.0197   -0.0084   -0.0017   -0.0049
          27    0.0309    0.0162    0.0026    0.0064    0.0152    0.0069    0.0028    0.0009
          28    0.0117   -0.0112    0.0074   -0.0238    0.0102    0.0384    0.0066    0.0004
          29   -0.0279   -0.0125    0.0070   -0.0105    0.0128   -0.0060   -0.0010   -0.0015
          30   -0.0008   -0.0007   -0.0004   -0.0190    0.0029    0.0111    0.0039    0.0061
          31   -0.0044    0.0533   -0.0333   -0.0207   -0.0079    0.0053    0.0013    0.0036
          32    0.0094   -0.0519    0.0153    0.0044   -0.0118    0.0050   -0.0014   -0.0019
          33   -0.0255   -0.0205   -0.0082   -0.0178    0.0290    0.0086    0.0029    0.0126
          34    0.0069   -0.0090    0.0025    0.0084   -0.0295   -0.0268   -0.0070    0.0126
          35    0.0085    0.0156   -0.0077    0.0132   -0.0276    0.0252    0.0080   -0.0191
          36   -0.0203   -0.0055   -0.0056    0.0052    0.0005   -0.0019    0.0009   -0.0145
          37   -0.0043   -0.0102   -0.0022    0.0107   -0.0228    0.0034    0.0001   -0.0152
          38    0.0366    0.0213    0.0031    0.0342    0.0009   -0.0060    0.0013    0.0276
          39   -0.0207   -0.0065   -0.0053   -0.0095   -0.0219   -0.0276   -0.0048    0.0073
          40    0.0117   -0.0121    0.0031   -0.0109   -0.0216   -0.0187   -0.0070   -0.0300
          41   -0.0175    0.0487    0.0431   -0.0093    0.0091    0.0098   -0.0152    0.0044
          42    0.0120    0.0473    0.1144   -0.0379   -0.0388    0.0073   -0.0513   -0.0071
          43   -0.0253   -0.0241   -0.0592    0.0451   -0.0043    0.0076    0.0281   -0.0379
          44    0.0172   -0.0127   -0.0720    0.0121    0.0432   -0.0021    0.0298    0.0030
          45    0.0074    0.0363    0.0840   -0.0211   -0.0300    0.0123   -0.0367   -0.0090
          46   -0.0160   -0.0094   -0.0243    0.0174    0.0035   -0.0065    0.0114   -0.0264
          47    0.0020    0.0082   -0.0182    0.0207   -0.0214    0.0310    0.0173   -0.0186
          48   -0.0364    0.0076   -0.0291    0.0710   -0.0041    0.0586    0.0416   -0.0220
          49    0.0191    0.0028    0.0348   -0.0353   -0.0076   -0.0333   -0.0309   -0.0155
          50    0.0147    0.0041    0.0014   -0.0275   -0.0221   -0.0152   -0.0174   -0.0196
          51   -0.0266    0.0105   -0.0128    0.0549   -0.0066    0.0485    0.0285   -0.0196
          52   -0.0263    0.0120    0.0029    0.0156    0.0298   -0.0084   -0.0538    0.0243
          53   -0.0104    0.0350    0.0030    0.0000    0.0572   -0.0039   -0.0270    0.0509
          54    0.0676   -0.0115    0.0203   -0.0446    0.0111   -0.0666    0.1925   -0.0034
          55   -0.0393    0.0170   -0.0049    0.0280    0.0462    0.0091   -0.1391    0.0485
          56    0.0136   -0.0040   -0.0527    0.0066    0.0315    0.0080   -0.0260    0.0036
          57    0.0532   -0.0483   -0.0881    0.0119    0.0364    0.0164   -0.1277    0.0210
          58   -0.0089    0.0312    0.0635   -0.0247    0.0311   -0.0760    0.1707    0.0248
          59   -0.0246    0.0591    0.0671   -0.0116   -0.0032    0.0025    0.0512   -0.0067
          60    0.0559   -0.0362   -0.0545   -0.0042    0.0278   -0.0064   -0.0372    0.0133
          61    0.0055   -0.0045    0.0167    0.0388    0.0225   -0.0553   -0.0161   -0.0229
          62    0.0287    0.0178    0.0028    0.0295   -0.0006   -0.0112   -0.0004    0.0240
          63    0.0437    0.0273    0.0000    0.0410   -0.0027   -0.0338   -0.0053    0.0179
          64    0.0064   -0.0117   -0.0113   -0.0256   -0.0605    0.0238    0.0064    0.0545
          65   -0.0204   -0.0080   -0.0026   -0.0087   -0.0197   -0.0071    0.0007    0.0270
          66   -0.0513   -0.0221   -0.0091   -0.0297   -0.0326   -0.0274   -0.0036    0.0159
          67   -0.0029   -0.0468    0.0232    0.0404    0.0034    0.0542    0.0267    0.0894
          68    0.0042    0.0165   -0.0314   -0.0613    0.0000   -0.0275   -0.0211   -0.0530
          69   -0.0197   -0.0027   -0.0065    0.0059   -0.0028   -0.0028    0.0007   -0.0180
          70    0.0167   -0.0069    0.0255   -0.0002    0.0712    0.0185   -0.0015   -0.0566
          71   -0.0180   -0.0071    0.0133    0.0011    0.0353   -0.0104   -0.0032   -0.0205
          72    0.0545    0.0264    0.0066    0.0122    0.0341    0.0225    0.0057   -0.0078
          73    0.0159   -0.0127    0.0083   -0.0417    0.0186    0.0699    0.0141    0.0060
          74   -0.0480   -0.0232    0.0101   -0.0237    0.0227   -0.0046   -0.0015   -0.0123
          75   -0.0028   -0.0042    0.0009   -0.0336    0.0107    0.0316    0.0086    0.0072
          76   -0.0035    0.0971   -0.0579   -0.0484   -0.0199   -0.0293   -0.0165   -0.0566
          77    0.0125   -0.0775    0.0372    0.0435   -0.0243    0.0255    0.0114    0.0247
          78   -0.0273   -0.0260   -0.0084   -0.0244    0.0392    0.0129    0.0042    0.0242
          79   -0.0076    0.0613   -0.0381   -0.0224    0.0038    0.0269    0.0117    0.0369
          80    0.0082   -0.0666    0.0165   -0.0108   -0.0004   -0.0053   -0.0083   -0.0078
          81   -0.0276   -0.0257   -0.0095   -0.0274    0.0406    0.0116    0.0032    0.0231


   Root No.       9        10        11        12        13        14        15        16

                 9 A      10 A      11 A      12 A      13 A      14 A      15 A      16 A   

                 327.9     346.5     357.5     408.2     505.2     532.0     547.8     666.1
  
           1    0.0007    0.0052    0.0076    0.0011   -0.0012   -0.0144    0.0372    0.0057
           2   -0.0017   -0.0053    0.0080   -0.0116    0.0169    0.0332    0.0176   -0.0172
           3    0.0015   -0.0108    0.0324    0.0386    0.0156    0.0123    0.0105   -0.0081
           4   -0.0026    0.0166    0.0080    0.0082    0.0038   -0.0058    0.0377    0.0162
           5    0.0219   -0.0046   -0.0067    0.0186    0.0087   -0.0062    0.0125    0.0098
           6   -0.0144    0.0034    0.0052   -0.0057    0.0007    0.0011    0.0300    0.0167
           7   -0.0026   -0.0271   -0.0325    0.0095   -0.0024   -0.0064   -0.0078    0.0022
           8   -0.0113   -0.0106   -0.0100   -0.0040    0.0139    0.0352    0.0064   -0.0292
           9    0.0194    0.0187   -0.0070   -0.0152   -0.0047   -0.0023   -0.0028    0.0009
          10    0.0042   -0.0267   -0.0361    0.0068   -0.0042   -0.0092   -0.0136    0.0052
          11   -0.0317    0.0106   -0.0106    0.0198   -0.0072   -0.0169   -0.0012    0.0055
          12    0.0016    0.0006   -0.0122   -0.0026   -0.0040   -0.0059   -0.0043    0.0043
          13    0.0370   -0.0148    0.0111   -0.0194    0.0071    0.0159   -0.0021   -0.0046
          14   -0.0232    0.0188    0.0090    0.0131   -0.0047   -0.0128    0.0066    0.0048
          15    0.0065   -0.0011    0.0047   -0.0029    0.0012    0.0022    0.0006   -0.0002
          16   -0.0186    0.0369    0.0026    0.0040   -0.0226    0.0247   -0.0125   -0.0035
          17    0.0177   -0.0002   -0.0117    0.0187   -0.0010    0.0013   -0.0100    0.0051
          18   -0.0045    0.0035   -0.0100   -0.0030   -0.0209    0.0049   -0.0091   -0.0036
          19    0.0081    0.0315   -0.0042    0.0178    0.0314   -0.0004   -0.0250    0.0019
          20    0.0101   -0.0025   -0.0102    0.0042    0.0104   -0.0109   -0.0102   -0.0026
          21   -0.0207    0.0099   -0.0019   -0.0189    0.0096    0.0005   -0.0123   -0.0046
          22   -0.0268   -0.0196    0.0145   -0.0176   -0.0130   -0.0215    0.0001   -0.0350
          23    0.0171    0.0090    0.0160   -0.0265   -0.0108    0.0014   -0.0150    0.0320
          24    0.0031   -0.0121    0.0388    0.0319    0.0009   -0.0076   -0.0296    0.0035
          25   -0.0126    0.0101    0.0116   -0.0096    0.0321   -0.0030    0.0023    0.0041
          26    0.0018   -0.0105   -0.0040   -0.0036    0.0112   -0.0089    0.0000    0.0034
          27    0.0015   -0.0176   -0.0040   -0.0127    0.0207   -0.0179    0.0021    0.0020
          28    0.0161    0.0038    0.0048    0.0251   -0.0234    0.0133    0.0075    0.0063
          29    0.0011   -0.0108   -0.0028   -0.0007   -0.0162    0.0003    0.0052   -0.0001
          30   -0.0007   -0.0163   -0.0007   -0.0060   -0.0284    0.0025    0.0107   -0.0035
          31   -0.0071   -0.0077    0.0147   -0.0211   -0.0105   -0.0054   -0.0099    0.0046
          32    0.0015   -0.0016    0.0207   -0.0262   -0.0158   -0.0140   -0.0109    0.0025
          33    0.0020    0.0135   -0.0342    0.0044    0.0085    0.0072    0.0111   -0.0014
          34    0.0028    0.0166    0.0068    0.0005    0.0006   -0.0230    0.0795    0.0409
          35   -0.0040   -0.0003   -0.0119   -0.0283    0.0206    0.0505    0.0272   -0.0436
          36    0.0018   -0.0164    0.0420    0.0473    0.0125    0.0056   -0.0111   -0.0061
          37    0.0004    0.0004    0.0314    0.0202    0.0156   -0.0003    0.0750    0.0109
          38    0.0329   -0.0059   -0.0144    0.0359   -0.0271   -0.0006    0.0066    0.0155
          39   -0.0215    0.0102   -0.0005   -0.0199    0.0144   -0.0037    0.0155    0.0144
          40   -0.0057   -0.0450   -0.0491    0.0116    0.0007    0.0010   -0.0155   -0.0030
          41   -0.0315    0.0159   -0.0032    0.0190   -0.0087   -0.0217    0.0014    0.0125
          42   -0.0068   -0.0106   -0.0175    0.0009   -0.0015   -0.0019   -0.0042    0.0045
          43    0.0145   -0.0192   -0.0432    0.0001   -0.0057   -0.0078   -0.0165    0.0008
          44   -0.0281    0.0184    0.0000    0.0202   -0.0089   -0.0219    0.0000    0.0072
          45   -0.0014   -0.0035   -0.0148   -0.0018   -0.0030   -0.0039   -0.0039    0.0043
          46   -0.0019   -0.0191   -0.0384    0.0084   -0.0094   -0.0159   -0.0174    0.0140
          47    0.0101    0.0180   -0.0199   -0.0484    0.0004    0.0257    0.0074   -0.0065
          48    0.0386    0.0516   -0.0203   -0.0541   -0.0213   -0.0180   -0.0112    0.0305
          49   -0.0218   -0.0508   -0.0430    0.0354   -0.0010   -0.0133   -0.0180   -0.0053
          50   -0.0256   -0.0410    0.0170    0.0379    0.0376    0.0610    0.0214   -0.0672
          51    0.0304    0.0379   -0.0178   -0.0403   -0.0165   -0.0139   -0.0085    0.0215
          52    0.0379   -0.0156    0.0113   -0.0208    0.0075    0.0171   -0.0019   -0.0052
          53    0.0087    0.0281    0.0569   -0.0144    0.0111    0.0230    0.0234   -0.0167
          54    0.0111    0.0032    0.0141   -0.0043    0.0040    0.0074    0.0034   -0.0041
          55    0.0541   -0.0122    0.0330   -0.0361    0.0150    0.0352    0.0053   -0.0156
          56   -0.0364    0.0119   -0.0051    0.0261   -0.0086   -0.0239    0.0028    0.0107
          57    0.0068   -0.0055    0.0082   -0.0031    0.0034    0.0061    0.0025   -0.0027
          58    0.0544   -0.0070    0.0371   -0.0324    0.0157    0.0349    0.0059   -0.0167
          59   -0.0297    0.0216   -0.0059    0.0168   -0.0109   -0.0247    0.0015    0.0125
          60    0.0078   -0.0032    0.0088   -0.0034    0.0032    0.0059    0.0021   -0.0027
          61   -0.0410    0.0688   -0.0026   -0.0009   -0.0649    0.0730   -0.0759   -0.0573
          62    0.0228    0.0059   -0.0189    0.0246   -0.0134    0.0095   -0.0341   -0.0155
          63   -0.0059    0.0206   -0.0199    0.0021   -0.0485    0.0297   -0.0568   -0.0444
          64    0.0231    0.0618   -0.0164    0.0323    0.0779    0.0009   -0.1121   -0.0347
          65    0.0110    0.0090   -0.0151    0.0057    0.0268   -0.0106   -0.0456   -0.0192
          66   -0.0314    0.0261   -0.0079   -0.0288    0.0268    0.0003   -0.0624   -0.0320
          67   -0.0843   -0.0596   -0.0012   -0.0382   -0.0054    0.0218   -0.0225    0.0026
          68    0.0607    0.0505   -0.0015   -0.0374   -0.0299   -0.0420   -0.0066    0.0112
          69    0.0059   -0.0139    0.0495    0.0427    0.0062   -0.0050   -0.0236   -0.0015
          70   -0.0275    0.0007    0.0182   -0.0418    0.1041   -0.0264   -0.0222   -0.0240
          71   -0.0108   -0.0135    0.0006   -0.0229    0.0365   -0.0170   -0.0079   -0.0108
          72    0.0068   -0.0270   -0.0040   -0.0213    0.0837   -0.0393   -0.0213   -0.0119
          73    0.0388   -0.0135    0.0033    0.0509   -0.0988    0.0388    0.0026   -0.0193
          74   -0.0075   -0.0128    0.0030   -0.0033   -0.0533    0.0205    0.0066   -0.0134
          75    0.0117   -0.0280   -0.0003    0.0097   -0.0860    0.0235    0.0079   -0.0233
          76    0.0526    0.0269    0.0544   -0.0004   -0.0368   -0.0852   -0.0138   -0.1012
          77   -0.0453   -0.0567    0.0705   -0.0166   -0.0111    0.0210   -0.0735    0.0966
          78   -0.0004    0.0249   -0.0727   -0.0083    0.0169    0.0229    0.0416   -0.0024
          79   -0.0477   -0.0302   -0.0263   -0.0464    0.0191    0.0956   -0.0175    0.1747
          80    0.0329    0.0431   -0.0254   -0.0364   -0.0266   -0.0685    0.0581   -0.1395
          81    0.0035    0.0306   -0.0792   -0.0117    0.0153    0.0182    0.0496   -0.0139


   Root No.      17        18        19        20        21        22        23        24

                17 A      18 A      19 A      20 A      21 A      22 A      23 A      24 A   

                 766.0     787.8     812.4     825.6     827.7     892.1     928.6     935.9
  
           1    0.0270    0.0010    0.0013    0.0058    0.0086   -0.0037    0.0007   -0.0057
           2    0.0015    0.0018   -0.0011    0.0014    0.0012   -0.0004   -0.0045    0.0021
           3    0.0106   -0.0007    0.0011    0.0025    0.0018    0.0144   -0.0184   -0.0087
           4    0.0140    0.0003    0.0003    0.0069    0.0106   -0.0069    0.0078    0.0084
           5   -0.0100    0.0003    0.0065   -0.0483   -0.0052   -0.0019    0.0020    0.0029
           6   -0.0178    0.0015   -0.0071   -0.0179   -0.0540   -0.0036    0.0042    0.0053
           7    0.0014    0.0043    0.0005    0.0022    0.0014   -0.0080    0.0021   -0.0044
           8   -0.0102    0.0093    0.0033    0.0076    0.0043   -0.0168    0.0106   -0.0034
           9   -0.0018   -0.0191   -0.0012    0.0022    0.0005    0.0256    0.0139    0.0074
          10   -0.0027    0.0057   -0.0003   -0.0087   -0.0031    0.0063   -0.0043    0.0014
          11    0.0002    0.0026   -0.0004   -0.0031   -0.0011    0.0028   -0.0012    0.0011
          12   -0.0012   -0.0262    0.0018   -0.0016   -0.0027   -0.0116   -0.0032    0.0006
          13   -0.0032    0.0006    0.0001   -0.0036   -0.0015    0.0057   -0.0045    0.0043
          14    0.0051    0.0004    0.0000    0.0012    0.0011    0.0010    0.0001   -0.0008
          15   -0.0001   -0.0014    0.0002   -0.0004   -0.0007   -0.0102   -0.0089   -0.0052
          16   -0.0138    0.0007    0.0335   -0.0003    0.0166    0.0005    0.0033    0.0034
          17   -0.0241    0.0007    0.0044   -0.0378   -0.0305    0.0036   -0.0038   -0.0088
          18    0.0056    0.0005    0.0087    0.0636    0.0049   -0.0004    0.0035    0.0037
          19   -0.0122   -0.0021   -0.0333    0.0215    0.0074    0.0009    0.0027    0.0027
          20    0.0183   -0.0023    0.0024   -0.0047    0.0703   -0.0019    0.0043    0.0079
          21   -0.0174   -0.0014   -0.0113   -0.0238   -0.0048    0.0026   -0.0014   -0.0048
          22   -0.0083    0.0000   -0.0003   -0.0007   -0.0058    0.0042    0.0060   -0.0271
          23    0.0047   -0.0045    0.0005   -0.0009   -0.0010    0.0048   -0.0105    0.0187
          24   -0.0062    0.0089   -0.0012    0.0009    0.0060   -0.0125    0.0018    0.0008
          25   -0.0197    0.0008    0.0306   -0.0288    0.0132    0.0024   -0.0048   -0.0034
          26    0.0002    0.0007   -0.0128    0.0655   -0.0287    0.0007   -0.0013   -0.0002
          27    0.0041    0.0003    0.0074    0.0375    0.0112    0.0008   -0.0024   -0.0009
          28   -0.0173   -0.0002   -0.0327    0.0260   -0.0148    0.0015   -0.0050   -0.0038
          29    0.0043   -0.0003   -0.0121    0.0303    0.0049   -0.0001   -0.0013   -0.0008
          30    0.0004   -0.0014    0.0102   -0.0480    0.0549    0.0004   -0.0032   -0.0003
          31   -0.0017   -0.0026    0.0001   -0.0009   -0.0049    0.0056   -0.0016   -0.0095
          32   -0.0012   -0.0043   -0.0001   -0.0016   -0.0050    0.0089   -0.0083    0.0034
          33   -0.0013    0.0038   -0.0006    0.0003    0.0026   -0.0163    0.0221    0.0111
          34    0.0453    0.0037   -0.0007   -0.0253   -0.0244   -0.0186    0.0150    0.0159
          35   -0.0067   -0.0090   -0.0011    0.0184    0.0018    0.0084    0.0286    0.0096
          36    0.0074    0.0049    0.0019    0.0045    0.0137    0.0139   -0.0413   -0.0209
          37    0.0797    0.0003    0.0019    0.0241    0.0369   -0.0030   -0.0121    0.0176
          38   -0.0223    0.0035    0.0574   -0.0207   -0.0339    0.0001    0.0010    0.0056
          39   -0.0382   -0.0003   -0.0345   -0.0395   -0.0501   -0.0057    0.0122   -0.0006
          40   -0.0068    0.0751   -0.0027   -0.0079   -0.0001   -0.0385   -0.0291   -0.0300
          41    0.0067    0.0943   -0.0085   -0.0077    0.0033    0.0821    0.0232    0.0250
          42    0.0013    0.1260   -0.0085   -0.0058    0.0039    0.0274   -0.0016   -0.0033
          43   -0.0089   -0.1157    0.0079   -0.0072   -0.0084    0.0150    0.0316    0.0272
          44   -0.0001   -0.1215    0.0087    0.0010   -0.0074   -0.0733   -0.0379   -0.0186
          45    0.0004    0.0500   -0.0037   -0.0034    0.0011    0.0201    0.0069    0.0045
          46   -0.0051    0.0644   -0.0138    0.0044   -0.0041   -0.0275   -0.0289   -0.0297
          47   -0.0004    0.0769    0.0092    0.0012    0.0110   -0.0888   -0.0056   -0.0135
          48    0.0026    0.0926   -0.0056   -0.0015    0.0009   -0.0539   -0.0272   -0.0229
          49   -0.0078   -0.1054    0.0071   -0.0026   -0.0049    0.0474    0.0553    0.0379
          50   -0.0099   -0.0669    0.0074    0.0185    0.0057    0.0589    0.0327    0.0017
          51   -0.0001    0.0394   -0.0042   -0.0028    0.0006   -0.0215   -0.0072   -0.0034
          52   -0.0036   -0.0077    0.0009   -0.0026   -0.0018   -0.0076   -0.0097   -0.0011
          53    0.0044    0.0012    0.0014    0.0266    0.0117   -0.0304    0.0427   -0.0190
          54    0.0006    0.0325   -0.0027    0.0013    0.0032    0.0351    0.0229    0.0121
          55   -0.0056   -0.0264    0.0031    0.0105    0.0015   -0.0512   -0.0042   -0.0212
          56    0.0080    0.0625   -0.0055   -0.0097    0.0026    0.0929    0.0312    0.0374
          57    0.0009    0.0395   -0.0030   -0.0001    0.0032    0.0367    0.0220    0.0128
          58   -0.0044    0.0137   -0.0005    0.0082    0.0046    0.0129    0.0307    0.0054
          59    0.0045   -0.0737    0.0058   -0.0014   -0.0067   -0.0885   -0.0639   -0.0362
          60    0.0003    0.0315   -0.0024   -0.0004    0.0023    0.0299    0.0168    0.0107
          61    0.0793   -0.0078   -0.1725   -0.0732   -0.0081   -0.0007   -0.0173   -0.0010
          62    0.0187   -0.0033   -0.0568   -0.1137    0.0066    0.0044   -0.0133   -0.0233
          63    0.0844   -0.0067   -0.1275   -0.0436    0.0391    0.0001   -0.0137   -0.0141
          64    0.0772    0.0072    0.1829    0.0059   -0.0875    0.0062   -0.0166   -0.0013
          65    0.0599    0.0030    0.0883    0.0114    0.0240    0.0003   -0.0053    0.0019
          66    0.0548    0.0094    0.1020    0.0629   -0.0952    0.0062   -0.0193   -0.0250
          67   -0.0221    0.0043   -0.0028   -0.0038   -0.0229   -0.0224   -0.0472    0.2032
          68    0.0016   -0.0147    0.0024   -0.0025    0.0025    0.0117    0.0834   -0.1302
          69    0.0001    0.0114   -0.0011    0.0025    0.0104   -0.0054   -0.0177   -0.0211
          70    0.1025   -0.0031   -0.0684   -0.1565   -0.0541   -0.0160    0.0293    0.0227
          71    0.0579   -0.0012   -0.0421    0.0202   -0.0297   -0.0087    0.0159    0.0179
          72    0.0750   -0.0019   -0.0940   -0.0701   -0.1058   -0.0080    0.0145   -0.0009
          73    0.1018    0.0063    0.0627   -0.0015   -0.1532   -0.0137    0.0332    0.0228
          74    0.0275    0.0032    0.0450   -0.0517   -0.0942   -0.0013    0.0054   -0.0089
          75    0.0826    0.0036    0.0857   -0.0866   -0.0571   -0.0096    0.0228    0.0147
          76   -0.0388    0.0142   -0.0049   -0.0038   -0.0121   -0.0455    0.0075    0.1592
          77    0.0003    0.0018   -0.0009   -0.0013    0.0084   -0.0377    0.1098   -0.0661
          78    0.0129   -0.0059    0.0017    0.0013   -0.0009    0.0260   -0.0361   -0.0244
          79    0.0522   -0.0263    0.0036   -0.0002    0.0070    0.0600   -0.0649   -0.0252
          80   -0.0172   -0.0084    0.0014   -0.0022   -0.0284    0.0596   -0.0827   -0.0454
          81    0.0125   -0.0084    0.0018    0.0005   -0.0057    0.0366   -0.0494   -0.0248


   Root No.      25        26        27        28        29        30        31        32

                25 A      26 A      27 A      28 A      29 A      30 A      31 A      32 A   

                 959.8     963.6     979.4     991.4    1024.6    1029.3    1035.2    1072.7
  
           1    0.0014   -0.0098   -0.0008    0.0106   -0.0012    0.0008    0.0104    0.0020
           2   -0.0120    0.0031   -0.0038    0.0046   -0.0016   -0.0033   -0.0010    0.0051
           3    0.0032    0.0025    0.0001    0.0005    0.0011    0.0033   -0.0065    0.0027
           4    0.0005    0.0027   -0.0011    0.0048    0.0008   -0.0024   -0.0027   -0.0043
           5   -0.0028    0.0001    0.0080   -0.0120    0.0131   -0.0012   -0.0014   -0.0006
           6   -0.0054   -0.0024    0.0046   -0.0288   -0.0028    0.0045   -0.0051   -0.0067
           7    0.0231   -0.0114    0.0001   -0.0031   -0.0010    0.0001   -0.0023    0.0039
           8    0.0049   -0.0005    0.0046   -0.0036   -0.0013   -0.0045    0.0170   -0.0094
           9    0.0066   -0.0030   -0.0001    0.0012    0.0046    0.0099   -0.0153    0.0027
          10   -0.0107    0.0049    0.0005   -0.0010    0.0023    0.0026   -0.0046    0.0026
          11   -0.0045    0.0028    0.0002   -0.0011    0.0011    0.0002   -0.0024   -0.0004
          12   -0.0035    0.0002    0.0007   -0.0010   -0.0035   -0.0104    0.0143   -0.0049
          13   -0.0284    0.0134   -0.0010    0.0055   -0.0030   -0.0029    0.0081   -0.0035
          14    0.0024   -0.0028   -0.0001    0.0013   -0.0006    0.0004    0.0018    0.0010
          15   -0.0067    0.0058   -0.0011    0.0022    0.0023    0.0065   -0.0083    0.0016
          16    0.0071    0.0218    0.0098    0.0041   -0.0209    0.0037   -0.0008   -0.0005
          17    0.0083   -0.0064   -0.0169    0.0201   -0.0272    0.0048   -0.0011   -0.0091
          18    0.0040    0.0181    0.0115    0.0049   -0.0100    0.0004    0.0016    0.0162
          19    0.0071    0.0204   -0.0161    0.0013    0.0190   -0.0055    0.0017    0.0066
          20    0.0042    0.0164   -0.0174   -0.0130   -0.0048    0.0022   -0.0041   -0.0165
          21    0.0063    0.0059   -0.0051    0.0203    0.0208   -0.0076    0.0048    0.0087
          22   -0.0026    0.0029    0.0004   -0.0032    0.0041    0.0171    0.0130   -0.0014
          23    0.0051   -0.0009   -0.0002    0.0000   -0.0035   -0.0130   -0.0107    0.0009
          24    0.0026    0.0019   -0.0003   -0.0042   -0.0024   -0.0073    0.0123   -0.0021
          25   -0.0057   -0.0168   -0.0287   -0.0015    0.0203   -0.0044   -0.0002   -0.0036
          26   -0.0063   -0.0064   -0.0077   -0.0150    0.0079    0.0003    0.0008    0.0036
          27   -0.0051   -0.0110   -0.0239   -0.0031    0.0138   -0.0031    0.0006    0.0003
          28   -0.0049   -0.0134    0.0315    0.0046   -0.0191    0.0038   -0.0008   -0.0024
          29   -0.0015   -0.0048    0.0143    0.0083   -0.0079    0.0001    0.0007    0.0034
          30   -0.0036   -0.0089    0.0278   -0.0075   -0.0124    0.0053   -0.0034   -0.0030
          31   -0.0003    0.0026    0.0009   -0.0060   -0.0083   -0.0279   -0.0190    0.0006
          32    0.0052    0.0000   -0.0004   -0.0003    0.0059    0.0237    0.0117   -0.0005
          33   -0.0120   -0.0064   -0.0013    0.0089    0.0012    0.0048   -0.0049    0.0018
          34   -0.0258   -0.0410    0.0067    0.0042   -0.0030   -0.0155    0.0159   -0.0068
          35   -0.0266    0.0040   -0.0123    0.0265    0.0039    0.0466   -0.0606    0.0265
          36    0.0218    0.0138    0.0023   -0.0100   -0.0013   -0.0185    0.0252   -0.0064
          37   -0.0173   -0.0365   -0.0190    0.0699   -0.0196   -0.0229   -0.0333    0.0295
          38    0.0080    0.0202    0.2022    0.0199    0.2216   -0.0409    0.0011   -0.0579
          39   -0.0031    0.0027   -0.0903   -0.0705   -0.1039    0.0337    0.0064    0.0096
          40    0.0128    0.0094    0.0008   -0.0077    0.0238    0.0454   -0.0597    0.0179
          41   -0.0202    0.0030   -0.0015    0.0050   -0.0046   -0.0070    0.0027   -0.0012
          42   -0.0001    0.0054   -0.0008   -0.0005    0.0098    0.0201   -0.0289    0.0074
          43    0.0078   -0.0211    0.0101   -0.0143   -0.0139   -0.0529    0.0702   -0.0243
          44   -0.0206    0.0167   -0.0042    0.0055   -0.0011    0.0042   -0.0058    0.0035
          45    0.0016   -0.0021    0.0011   -0.0018    0.0003   -0.0026    0.0030   -0.0021
          46    0.0452    0.0021   -0.0100    0.0044    0.0221    0.0341   -0.0684   -0.0080
          47   -0.0068   -0.0081    0.0123   -0.0144   -0.0283   -0.0555    0.1039   -0.0106
          48    0.0141    0.0008   -0.0004   -0.0052   -0.0008   -0.0052    0.0049   -0.0037
          49    0.0448   -0.0411    0.0049   -0.0165   -0.0147   -0.0357    0.0311    0.0056
          50   -0.0105    0.0119    0.0031    0.0162    0.0228    0.0565   -0.0560   -0.0087
          51    0.0098   -0.0035    0.0001   -0.0062   -0.0043   -0.0132    0.0139    0.0019
          52   -0.0239    0.0133   -0.0011    0.0046   -0.0008    0.0013    0.0015   -0.0018
          53    0.1692   -0.0812    0.0096   -0.0359    0.0138    0.0069   -0.0286    0.0133
          54    0.0157   -0.0127    0.0023   -0.0041   -0.0026   -0.0092    0.0116   -0.0029
          55    0.0564   -0.0188    0.0024   -0.0133    0.0111    0.0144   -0.0290    0.0064
          56   -0.0459    0.0052    0.0007    0.0100   -0.0175   -0.0304    0.0535   -0.0109
          57    0.0115   -0.0111    0.0022   -0.0036   -0.0034   -0.0101    0.0132   -0.0026
          58    0.0572   -0.0307    0.0054   -0.0158    0.0010   -0.0098    0.0056   -0.0011
          59   -0.0423    0.0342   -0.0072    0.0157    0.0101    0.0348   -0.0403    0.0102
          60    0.0053   -0.0067    0.0016   -0.0022   -0.0029   -0.0082    0.0108   -0.0029
          61   -0.0524   -0.0811   -0.0120   -0.1080    0.0752    0.0012   -0.0107   -0.0898
          62    0.0050   -0.0559   -0.0612    0.0818   -0.0147   -0.0100    0.0057    0.0608
          63   -0.0189   -0.0708   -0.0460    0.0389    0.0346   -0.0173    0.0062    0.0683
          64   -0.0509   -0.0871    0.0907   -0.1006   -0.0559    0.0275   -0.0056    0.1233
          65   -0.0125   -0.0297    0.0203   -0.0117   -0.0309    0.0112   -0.0113   -0.0381
          66   -0.0008   -0.0657    0.0322    0.1349   -0.0065   -0.0078   -0.0138   -0.2030
          67    0.0154   -0.0205   -0.0023    0.0125   -0.0093   -0.0337   -0.0615    0.0033
          68   -0.0316    0.0031    0.0074    0.0068    0.0229    0.0547   -0.0108   -0.0016
          69    0.0112    0.0086   -0.0026   -0.0128   -0.0085   -0.0164    0.0386   -0.0027
          70    0.0320    0.0904    0.1407   -0.0007   -0.0351    0.0098   -0.0033    0.0281
          71    0.0037    0.0485    0.0840   -0.0427    0.0135    0.0042   -0.0017    0.0524
          72    0.0362    0.0391    0.0436    0.0684   -0.0980    0.0120    0.0018   -0.0630
          73    0.0227    0.0775   -0.1556   -0.0392    0.0415   -0.0050   -0.0026   -0.0808
          74    0.0134    0.0025   -0.0282    0.0787    0.0608   -0.0325    0.0287    0.2265
          75    0.0179    0.0509   -0.1024   -0.0179    0.0434   -0.0084    0.0023    0.0004
          76   -0.0064   -0.0282   -0.0075    0.0348    0.0289    0.1111    0.0344    0.0032
          77   -0.0518   -0.0096    0.0019    0.0105   -0.0157   -0.0596   -0.0723    0.0063
          78    0.0167    0.0102    0.0009   -0.0125   -0.0037   -0.0121    0.0121   -0.0022
          79    0.0432    0.0070   -0.0003   -0.0053    0.0307    0.1101    0.0813   -0.0051
          80    0.0315    0.0281    0.0048   -0.0443   -0.0307   -0.1007   -0.0413   -0.0021
          81    0.0223    0.0123    0.0013   -0.0169   -0.0041   -0.0111    0.0074   -0.0016


   Root No.      33        34        35        36        37        38        39        40

                33 A      34 A      35 A      36 A      37 A      38 A      39 A      40 A   

                1085.9    1094.7    1107.0    1109.7    1128.0    1140.2    1146.9    1150.5
  
           1    0.0104   -0.0317    0.0238   -0.0119    0.0096    0.0051    0.0081    0.0152
           2    0.0005    0.0126    0.0289   -0.0070    0.0055    0.0153   -0.0117   -0.0261
           3    0.0042   -0.0003    0.0100   -0.0118    0.0026    0.0066   -0.0138    0.0067
           4   -0.0108    0.0075   -0.0127    0.0335   -0.0112   -0.0132   -0.0011   -0.0059
           5   -0.0068    0.0071   -0.0043    0.0089   -0.0032    0.0008   -0.0039   -0.0108
           6   -0.0083    0.0083   -0.0076    0.0168   -0.0078   -0.0094   -0.0040   -0.0032
           7    0.0020    0.0027    0.0299    0.0021    0.0058   -0.0297   -0.0044    0.0198
           8   -0.0023   -0.0100   -0.0295    0.0075    0.0035   -0.0110    0.0130    0.0226
           9    0.0012   -0.0118   -0.0068    0.0048   -0.0018   -0.0053    0.0280    0.0057
          10    0.0014   -0.0039   -0.0142   -0.0083   -0.0007    0.0173   -0.0044   -0.0238
          11   -0.0045    0.0173   -0.0105    0.0134    0.0253    0.0407    0.0064    0.0074
          12   -0.0020    0.0079    0.0028   -0.0029   -0.0235    0.0188   -0.0288    0.0121
          13   -0.0015    0.0013    0.0007    0.0055   -0.0055   -0.0031    0.0050    0.0116
          14    0.0053   -0.0198    0.0038   -0.0169   -0.0299   -0.0302   -0.0050   -0.0153
          15    0.0012   -0.0077   -0.0076   -0.0007    0.0305   -0.0176    0.0053   -0.0124
          16    0.0041    0.0025    0.0001   -0.0049    0.0012    0.0038   -0.0008   -0.0023
          17    0.0039    0.0064    0.0054   -0.0244    0.0039   -0.0054    0.0071    0.0110
          18   -0.0005    0.0018   -0.0015   -0.0018    0.0009    0.0042   -0.0022   -0.0039
          19    0.0031    0.0016   -0.0008   -0.0056    0.0011    0.0020   -0.0011    0.0002
          20    0.0133   -0.0026   -0.0028    0.0119   -0.0022    0.0015   -0.0047   -0.0025
          21    0.0032    0.0070    0.0028   -0.0223    0.0035   -0.0028    0.0084    0.0070
          22   -0.0017    0.0094   -0.0024    0.0003    0.0004    0.0007   -0.0019   -0.0042
          23    0.0009   -0.0073    0.0012    0.0007   -0.0004   -0.0006    0.0018    0.0024
          24   -0.0031   -0.0011   -0.0006    0.0089   -0.0011   -0.0009    0.0135   -0.0068
          25   -0.0029   -0.0024   -0.0008    0.0067   -0.0014    0.0001   -0.0014   -0.0017
          26   -0.0031    0.0056    0.0026   -0.0175    0.0025   -0.0048    0.0063    0.0084
          27    0.0044   -0.0011   -0.0016    0.0056   -0.0009    0.0002   -0.0013   -0.0015
          28   -0.0060   -0.0022   -0.0018    0.0066   -0.0012    0.0021   -0.0019   -0.0040
          29    0.0033   -0.0048   -0.0034    0.0146   -0.0025    0.0015   -0.0025   -0.0038
          30    0.0007    0.0049    0.0036   -0.0108    0.0019   -0.0033    0.0026    0.0052
          31    0.0008   -0.0057    0.0013   -0.0001   -0.0001    0.0008    0.0010    0.0010
          32   -0.0010    0.0045   -0.0005    0.0000    0.0004    0.0013   -0.0007   -0.0022
          33    0.0024   -0.0018    0.0084   -0.0048    0.0029    0.0038   -0.0039   -0.0018
          34    0.0282   -0.0903   -0.0358   -0.1110    0.0746    0.1347    0.0401    0.0234
          35    0.0048    0.0356    0.1620    0.0186   -0.0220   -0.0024   -0.0173   -0.0651
          36   -0.0054    0.0084   -0.0415    0.0130   -0.0067   -0.0323   -0.0216    0.0261
          37    0.0081    0.2141   -0.1109   -0.0785   -0.0293   -0.0620    0.0283   -0.0041
          38    0.0255   -0.0187    0.0310    0.0202   -0.0013   -0.0123    0.0034    0.0097
          39   -0.0332   -0.0637    0.0161    0.0557   -0.0010    0.0173   -0.0198   -0.0141
          40    0.0088   -0.0320   -0.0627   -0.0287   -0.1718    0.0839    0.0927   -0.0771
          41   -0.0079    0.0289    0.0048    0.0355    0.2077   -0.0062   -0.0180    0.0166
          42    0.0011   -0.0055   -0.0246    0.0005    0.0003    0.0302    0.0308   -0.0244
          43   -0.0018   -0.0188   -0.0831   -0.0552    0.0446   -0.0019   -0.1441   -0.1027
          44   -0.0087    0.0555    0.0568    0.0441   -0.0711    0.1070    0.0342    0.1081
          45    0.0004   -0.0061   -0.0150   -0.0085    0.0097   -0.0042   -0.0186   -0.0165
[...]
 TRAVEL      0.0941        C  3 --  H 16          +11.3% ( 42.8%)     4.7%
 RED. MASS   0.4714        C  4 --  H 15           +9.7% ( 39.6%)     3.7%
 EFF. MASS   5.3822

 VIBRATION   56   56A       ATOM PAIR        ENERGY CONTRIBUTION    RADIAL
 FREQ.      1431.63        C  4 --  C  5          +20.9% ( 60.5%)    99.5%
 T-DIPOLE    0.0412        C  5 --  H 20          +13.2% ( 48.0%)     3.6%
 TRAVEL      0.0890        C  5 --  H 19          +13.0% ( 47.7%)     3.5%
 RED. MASS   1.1546        C  4 --  H 15          +11.7% ( 45.3%)     2.3%
 EFF. MASS   5.9473        C  4 --  H 14          +11.5% ( 44.9%)     2.5%
                           C  5 --  H 18          +11.4% ( 44.6%)     4.4%
                           C  3 --  C  4          +10.1% ( 41.9%)    32.5%

 VIBRATION   57   57A       ATOM PAIR        ENERGY CONTRIBUTION    RADIAL
 FREQ.      1733.40        C  6 --  C  9          +19.6% ( 75.5%)    99.9%
 T-DIPOLE    0.3852        C  7 --  C 10          +16.7% ( 69.7%)    99.8%
 TRAVEL      0.0569        C  7 --  C  9          +10.7% ( 55.9%)    24.9%
 RED. MASS   2.7348        C  6 --  C 10          +10.7% ( 55.6%)    27.2%
 EFF. MASS  12.0198

 VIBRATION   58   58A       ATOM PAIR        ENERGY CONTRIBUTION    RADIAL
 FREQ.      1790.77        C  7 --  C 10          +19.4% ( 73.1%)    99.8%
 T-DIPOLE    0.3148        C  6 --  C  9          +16.3% ( 67.1%)    99.8%
 TRAVEL      0.0565        C  9 --  C 10          +12.1% ( 57.6%)     0.0%
 RED. MASS   2.6977        C  7 --  C  9          +10.9% ( 54.8%)    78.3%
 EFF. MASS  11.7975        C  6 --  C 10          +10.8% ( 54.6%)    53.3%

 VIBRATION   59   59A       ATOM PAIR        ENERGY CONTRIBUTION    RADIAL
 FREQ.      1859.96        C  8 --  C 11          +45.5% ( 99.5%)    99.0%
 T-DIPOLE    0.0751        C  1 --  C  8          +16.4% ( 59.8%)    53.3%
 TRAVEL      0.0554        C  8 --  H 23          +15.4% ( 57.8%)     4.2%
 RED. MASS   5.3044        C 11 --  H 26          +11.1% ( 49.1%)    11.0%
 EFF. MASS  11.7950        C 11 --  H 27          +10.9% ( 48.7%)    13.0%

 VIBRATION   60   60A       ATOM PAIR        ENERGY CONTRIBUTION    RADIAL
 FREQ.      2869.47        C  1 --  H 12          +90.2% ( 96.7%)   100.0%
 T-DIPOLE    0.0388        C  2 --  H 13           +5.7% ( 24.3%)    99.9%
 TRAVEL      0.1273        C  1 --  C  2           +1.1% ( 10.7%)     9.1%
 RED. MASS   0.8136        C  1 --  C  3           +1.0% ( 10.2%)     8.3%
 EFF. MASS   1.4495

 VIBRATION   61   61A       ATOM PAIR        ENERGY CONTRIBUTION    RADIAL
 FREQ.      2887.12        C  2 --  H 13          +91.4% ( 97.0%)   100.0%
 T-DIPOLE    0.2086        C  1 --  H 12           +5.6% ( 24.0%)    99.9%
 TRAVEL      0.1277        C  2 --  C  7           +0.9% (  9.8%)    10.7%
 RED. MASS   0.8273        C  2 --  C  6           +0.9% (  9.8%)    10.5%
 EFF. MASS   1.4312

 VIBRATION   62   62A       ATOM PAIR        ENERGY CONTRIBUTION    RADIAL
 FREQ.      2908.26        C  3 --  H 16          +74.7% ( 89.4%)    98.8%
 T-DIPOLE    0.0712        C  3 --  H 17          +19.6% ( 45.8%)    89.5%
 TRAVEL      0.1234        C  4 --  H 14           +1.2% ( 11.2%)    95.7%
 RED. MASS   0.6325        C  3 --  C  4           +1.2% ( 11.2%)     1.3%
 EFF. MASS   1.5220

 VIBRATION   63   63A       ATOM PAIR        ENERGY CONTRIBUTION    RADIAL
 FREQ.      2950.52        C  4 --  H 14          +49.9% ( 73.3%)    96.8%
 T-DIPOLE    0.0399        C  4 --  H 15          +45.4% ( 69.9%)    96.2%
 TRAVEL      0.1219        C  3 --  H 16           +2.0% ( 14.7%)    99.7%
 RED. MASS   0.4930        C  4 --  C  5           +1.1% ( 11.0%)     0.0%
 EFF. MASS   1.5377

 VIBRATION   64   64A       ATOM PAIR        ENERGY CONTRIBUTION    RADIAL
 FREQ.      3006.69        C  3 --  H 17          +80.2% ( 88.8%)    99.7%
 T-DIPOLE    0.0596        C  3 --  H 16          +17.4% ( 41.4%)    87.4%
 TRAVEL      0.1312        C  3 --  C  4           +0.7% (  8.1%)    26.1%
 RED. MASS   0.6448        C  1 --  C  3           +0.6% (  8.0%)    23.7%
 EFF. MASS   1.3019

 VIBRATION   65   65A       ATOM PAIR        ENERGY CONTRIBUTION    RADIAL
 FREQ.      3030.55        C  4 --  H 15          +51.6% ( 70.8%)    98.0%
 T-DIPOLE    0.0378        C  4 --  H 14          +46.2% ( 66.9%)    97.4%
 TRAVEL      0.1321        C  4 --  C  5           +0.6% (  7.8%)    26.2%
 RED. MASS   0.4763        C  3 --  C  4           +0.6% (  7.6%)    29.8%
 EFF. MASS   1.2744

 VIBRATION   66   66A       ATOM PAIR        ENERGY CONTRIBUTION    RADIAL
 FREQ.      3038.75        C  8 --  H 23          +96.3% ( 99.5%)   100.0%
 T-DIPOLE    0.2303        C  8 --  C 11           +1.4% ( 12.1%)    31.2%
 TRAVEL      0.1216        C  1 --  C  8           +1.3% ( 11.7%)    13.8%
 RED. MASS   0.9117        C 11 --  H 27           +0.9% (  9.5%)    95.1%
 EFF. MASS   1.5008

 VIBRATION   67   67A       ATOM PAIR        ENERGY CONTRIBUTION    RADIAL
 FREQ.      3078.27        C  5 --  H 20          +49.0% ( 72.2%)    97.1%
 T-DIPOLE    0.0120        C  5 --  H 19          +48.9% ( 72.1%)    97.0%
 TRAVEL      0.1208        C  4 --  C  5           +1.0% ( 10.2%)     0.0%
 RED. MASS   0.5063        C  5 --  H 18           +0.9% ( 10.0%)     0.1%
 EFF. MASS   1.5011

 VIBRATION   68   68A       ATOM PAIR        ENERGY CONTRIBUTION    RADIAL
 FREQ.      3084.67        C  5 --  H 18          +61.4% ( 80.8%)    98.7%
 T-DIPOLE    0.0055        C  5 --  H 19          +18.8% ( 44.7%)    86.0%
 TRAVEL      0.1206        C  5 --  H 20          +18.3% ( 44.1%)    85.6%
 RED. MASS   0.4746        C  4 --  C  5           +1.0% ( 10.3%)     0.0%
 EFF. MASS   1.5032

 VIBRATION   69   69A       ATOM PAIR        ENERGY CONTRIBUTION    RADIAL
 FREQ.      3108.43        C  7 --  H 22          +88.0% ( 96.1%)   100.0%
 T-DIPOLE    0.4321        C 10 --  H 25           +6.4% ( 25.8%)    99.7%
 TRAVEL      0.1197        C  2 --  C  7           +1.5% ( 12.6%)    22.8%
 RED. MASS   0.7968        C  7 --  C  9           +1.5% ( 12.6%)    95.4%
 EFF. MASS   1.5141

 VIBRATION   70   70A       ATOM PAIR        ENERGY CONTRIBUTION    RADIAL
 FREQ.      3132.07        C  9 --  H 24          +55.4% ( 76.2%)   100.0%
 T-DIPOLE    0.3296        C  6 --  H 21          +38.0% ( 63.1%)   100.0%
 TRAVEL      0.1206        C 10 --  H 25           +2.2% ( 15.3%)    99.9%
 RED. MASS   0.4578        C  6 --  C  9           +1.2% ( 11.0%)     0.6%
 EFF. MASS   1.4794

 VIBRATION   71   71A       ATOM PAIR        ENERGY CONTRIBUTION    RADIAL
 FREQ.      3134.20        C 11 --  H 26          +91.9% ( 97.6%)    99.9%
 T-DIPOLE    0.1975        C 11 --  H 27           +6.7% ( 26.3%)    70.6%
 TRAVEL      0.1182        C  8 --  C 11           +1.3% ( 11.7%)    22.5%
 RED. MASS   0.8555
 EFF. MASS   1.5387

 VIBRATION   72   72A       ATOM PAIR        ENERGY CONTRIBUTION    RADIAL
 FREQ.      3140.30        C 10 --  H 25          +68.1% ( 84.8%)   100.0%
 T-DIPOLE    0.4831        C  6 --  H 21          +19.1% ( 44.9%)   100.0%
 TRAVEL      0.1165        C  7 --  H 22           +3.8% ( 20.1%)    99.6%
 RED. MASS   0.5241        C  9 --  H 24           +3.4% ( 19.1%)    99.5%
 EFF. MASS   1.5815

 VIBRATION   73   73A       ATOM PAIR        ENERGY CONTRIBUTION    RADIAL
 FREQ.      3145.99        C 11 --  H 27          +91.9% ( 96.5%)    99.7%
 T-DIPOLE    0.2557        C 11 --  H 26           +5.7% ( 24.0%)    40.3%
 TRAVEL      0.1209        C  8 --  C 11           +1.6% ( 12.7%)    72.9%
 RED. MASS   0.8210        C  8 --  H 23           +0.8% (  8.8%)    94.6%
 EFF. MASS   1.4667

 VIBRATION   74   74A       ATOM PAIR        ENERGY CONTRIBUTION    RADIAL
 FREQ.      3152.28        C  6 --  H 21          +37.5% ( 63.0%)    99.9%
 T-DIPOLE    0.3333        C  9 --  H 24          +35.9% ( 61.7%)   100.0%
 TRAVEL      0.1127        C 10 --  H 25          +17.8% ( 43.5%)   100.0%
 RED. MASS   0.3233        C  7 --  H 22           +2.2% ( 15.3%)    99.8%
 EFF. MASS   1.6842

 VIBRATION   75   75A       ATOM PAIR        ENERGY CONTRIBUTION    RADIAL
 FREQ.      3181.33        C  5 --  H 18          +37.0% ( 58.5%)    97.7%
 T-DIPOLE    0.0192        C  5 --  H 20          +31.6% ( 54.1%)    96.8%
 TRAVEL      0.1365        C  5 --  H 19          +31.1% ( 53.7%)    96.7%
 RED. MASS   0.3287        C  4 --  C  5           +0.3% (  5.1%)    99.5%
 EFF. MASS   1.1369

 SYMMETRY NUMBER FOR POINT-GROUP C1  =  1


          SYSTEM IS A GROUND STATE


    NULL



          MOLECULE IS NOT LINEAR

          THERE ARE 75 GENUINE VIBRATIONS IN THIS SYSTEM
          THIS THERMODYNAMICS CALCULATION IS LIMITED TO
          MOLECULES WHICH HAVE NO INTERNAL ROTATIONS




                    CALCULATED THERMODYNAMIC PROPERTIES
                                          *
   TEMP. (K)   PARTITION FUNCTION   H.O.F.    ENTHALPY  HEAT CAPACITY ENTROPY
                                   KCAL/MOL   CAL/MOLE    CAL/K/MOL  CAL/K/MOL


 298.00  VIB.     0.3611D+04                  5499.6726    37.9610    34.7338
         ROT.     0.1118D+07                   888.2813     2.9808    30.6569
         INT.     0.4037D+10                  6387.9539    40.9418    65.3907
         TRA.     0.1745D+28                  1480.4688     4.9680    40.8894
         TOT.                       32.599    7868.4227    45.9098   106.2801

 200.00  VIB.     0.1721D+03                  2477.9998    24.1903    22.6204
         ROT.     0.6148D+06                   596.1620     2.9808    29.4682
         INT.     0.1058D+09                  3074.1618    27.1711    52.0887
         TRA.     0.9595D+27                   993.6033     4.9680    38.9082
         TOT.                       28.798    4067.7650    32.1391    90.9969

 210.00  VIB.     0.2350D+03                  2726.1316    25.4431    23.8308
         ROT.     0.6614D+06                   625.9700     2.9808    29.6137
         INT.     0.1554D+09                  3352.1016    28.4239    53.4445
         TRA.     0.1032D+28                  1043.2834     4.9680    39.1506
         TOT.                       29.126    4395.3850    33.3919    92.5951

 220.00  VIB.     0.3206D+03                  2986.9995    26.7374    25.0441
         ROT.     0.7092D+06                   655.7781     2.9808    29.7523
         INT.     0.2274D+09                  3642.7777    29.7182    54.7965
         TRA.     0.1107D+28                  1092.9636     4.9680    39.3817
         TOT.                       29.466    4735.7413    34.6862    94.1782

 230.00  VIB.     0.4373D+03                  3261.0142    28.0721    26.2620
         ROT.     0.7581D+06                   685.5862     2.9808    29.8848
         INT.     0.3316D+09                  3946.6004    31.0529    56.1468
         TRA.     0.1183D+28                  1142.6437     4.9680    39.6026
         TOT.                       29.820    5089.2441    36.0209    95.7494

 240.00  VIB.     0.5963D+03                  3548.5679    29.4448    27.4856
         ROT.     0.8081D+06                   715.3943     2.9808    30.0117
         INT.     0.4819D+09                  4263.9623    32.4256    57.4973
         TRA.     0.1261D+28                  1192.3239     4.9680    39.8140
         TOT.                       30.187    5456.2862    37.3936    97.3113

 250.00  VIB.     0.8131D+03                  3850.0254    30.8522    28.7160
         ROT.     0.8591D+06                   745.2024     2.9808    30.1334
         INT.     0.6985D+09                  4595.2278    33.8330    58.8494
         TRA.     0.1341D+28                  1242.0041     4.9680    40.0168
         TOT.                       30.568    5837.2319    38.8011    98.8662

 260.00  VIB.     0.1109D+04                  4165.7156    32.2906    29.9540
         ROT.     0.9112D+06                   775.0105     2.9808    30.2503
         INT.     0.1010D+10                  4940.7262    35.2714    60.2043
         TRA.     0.1422D+28                  1291.6842     4.9680    40.2117
         TOT.                       30.963    6232.4104    40.2395   100.4159

 270.00  VIB.     0.1512D+04                  4495.9268    33.7557    31.2000
         ROT.     0.9643D+06                   804.8186     2.9808    30.3628
         INT.     0.1458D+10                  5300.7455    36.7365    61.5628
         TRA.     0.1505D+28                  1341.3644     4.9680    40.3992
         TOT.                       31.373    6642.1099    41.7045   101.9620

 280.00  VIB.     0.2062D+04                  4840.9032    35.2429    32.4544
         ROT.     0.1018D+07                   834.6267     2.9808    30.4712
         INT.     0.2100D+10                  5675.5299    38.2237    62.9257
         TRA.     0.1589D+28                  1391.0445     4.9680    40.5798
         TOT.                       31.797    7066.5745    43.1917   103.5055

 290.00  VIB.     0.2814D+04                  5200.8430    36.7476    33.7174
         ROT.     0.1073D+07                   864.4348     2.9808    30.5758
         INT.     0.3021D+10                  6065.2779    39.7284    64.2932
         TRA.     0.1675D+28                  1440.7247     4.9680    40.7542
         TOT.                       32.236    7506.0026    44.6964   105.0473

 300.00  VIB.     0.3843D+04                  5575.8988    38.2653    34.9887
         ROT.     0.1129D+07                   894.2429     2.9808    30.6769
         INT.     0.4340D+10                  6470.1417    41.2461    65.6656
         TRA.     0.1763D+28                  1490.4049     4.9680    40.9226
         TOT.                       32.691    7960.5466    46.2141   106.5882

 310.00  VIB.     0.5250D+04                  5966.1780    39.7916    36.2683
         ROT.     0.1186D+07                   924.0510     2.9808    30.7746
         INT.     0.6229D+10                  6890.2290    42.7724    67.0429
         TRA.     0.1851D+28                  1540.0850     4.9680    41.0855
         TOT.                       33.161    8430.3140    47.7404   108.1284

 320.00  VIB.     0.7178D+04                  6371.7447    41.3222    37.5558
         ROT.     0.1244D+07                   953.8591     2.9808    30.8692
         INT.     0.8931D+10                  7325.6038    44.3030    68.4250
         TRA.     0.1942D+28                  1589.7652     4.9680    41.2432
         TOT.                       33.646    8915.3690    49.2710   109.6683

 330.00  VIB.     0.9822D+04                  6792.6225    42.8531    38.8508
         ROT.     0.1303D+07                   983.6672     2.9808    30.9610
         INT.     0.1280D+11                  7776.2897    45.8340    69.8117
         TRA.     0.2034D+28                  1639.4454     4.9680    41.3961
         TOT.                       34.146    9415.7350    50.8020   111.2078

 340.00  VIB.     0.1345D+05                  7228.7968    44.3809    40.1528
         ROT.     0.1363D+07                  1013.4753     2.9808    31.0499
         INT.     0.1833D+11                  8242.2721    47.3617    71.2027
         TRA.     0.2127D+28                  1689.1255     4.9680    41.5444
         TOT.                       34.662    9931.3976    52.3297   112.7471

 350.00  VIB.     0.1843D+05                  7680.2185    45.9021    41.4612
         ROT.     0.1423D+07                  1043.2834     2.9808    31.1364
         INT.     0.2623D+11                  8723.5019    48.8829    72.5976
         TRA.     0.2221D+28                  1738.8057     4.9680    41.6884
         TOT.                       35.193   10462.3076    53.8509   114.2860

 360.00  VIB.     0.2528D+05                  8146.8071    47.4138    42.7756
         ROT.     0.1485D+07                  1073.0915     2.9808    31.2203
         INT.     0.3753D+11                  9219.8986    50.3946    73.9959
         TRA.     0.2317D+28                  1788.4859     4.9680    41.8284
         TOT.                       35.739   11008.3845    55.3626   115.8243

 370.00  VIB.     0.3470D+05                  8628.4540    48.9133    44.0951
         ROT.     0.1547D+07                  1102.8996     2.9808    31.3020
         INT.     0.5367D+11                  9731.3536    51.8942    75.3971
         TRA.     0.2414D+28                  1838.1660     4.9680    41.9645
         TOT.                       36.300   11569.5196    56.8622   117.3616

 380.00  VIB.     0.4766D+05                  9125.0258    50.3984    45.4193
         ROT.     0.1610D+07                  1132.7077     2.9808    31.3815
         INT.     0.7674D+11                 10257.7335    53.3792    76.8008
         TRA.     0.2513D+28                  1887.8462     4.9680    42.0970
         TOT.                       36.876   12145.5797    58.3473   118.8978

 390.00  VIB.     0.6554D+05                  9636.3678    51.8671    46.7475
         ROT.     0.1674D+07                  1162.5158     2.9808    31.4589
         INT.     0.1097D+12                 10798.8836    54.8479    78.2064
         TRA.     0.2613D+28                  1937.5263     4.9680    42.2260
         TOT.                       37.467   12736.4100    59.8159   120.4324

 400.00  VIB.     0.9018D+05                 10162.3068    53.3176    48.0789
         ROT.     0.1739D+07                  1192.3239     2.9808    31.5344
         INT.     0.1568D+12                 11354.6307    56.2984    79.6133
         TRA.     0.2714D+28                  1987.2065     4.9680    42.3518
         TOT.                       38.072   13341.8372    61.2664   121.9651

   *: NOTE: HEATS OF FORMATION ARE RELATIVE TO THE
            ELEMENTS IN THEIR STANDARD STATE AT 298K
              (=  Standard Enthalpy of Formation).

            Hvib:  Zero-point energy is not included.
                   frequencies of less than zero cm-1 are not included.
            Hrot = (3/2)RT
            Htra = (3/2)RT + pV = (5/2)RT

            Heat capacity is Cp, not Cv

           For more information, see: HTTP://OpenMOPAC.net/Manual/thermochemistry.html


           FORCE CONSTANT IN CARTESIAN COORDINATES (Millidynes/A)

    ATOM   CHEMICAL       X               Y               Z
   NUMBER   SYMBOL  FORCE CONSTANT  FORCE CONSTANT  FORCE CONSTANT

      1       C        8.064252        8.148567        8.822186
      2       C        8.579637        8.148868        8.743026
      3       C        8.353128        8.012253        8.192078
      4       C        8.166518        8.574594        8.190089
      5       C        8.433538        8.263133        8.204932
      6       C        6.851064        9.030766       10.886593
      7       C        7.118353       12.420632        7.222309
      8       C        7.550358       10.669703        8.938491
      9       C        7.646514       10.187642        9.609543
     10       C        7.641015        9.692357       10.138367
     11       C        7.122132       10.362929        9.032107
     12       H        1.105764        1.552868        3.384327
     13       H        1.141257        1.359887        3.378790
     14       H        1.870562        2.070588        2.427947
     15       H        0.802426        1.277063        4.327789
     16       H        1.858215        1.905023        2.500502
     17       H        0.806134        1.437525        4.166314
     18       H        5.112277        0.727138        0.958934
     19       H        1.892588        2.291478        2.591253
     20       H        0.732256        1.374365        4.674399
     21       H        0.680009        3.207496        2.552959
     22       H        0.745085        4.731505        0.834492
     23       H        0.927660        1.147118        4.146618
     24       H        1.908649        3.504707        1.048237
     25       H        1.820130        0.851284        3.790868
     26       H        0.996967        1.243433        4.221507
     27       H        1.008384        1.609941        3.858933



 TOTAL CPU TIME:             5.54 SECONDS

 == MOPAC DONE ==
