 *******************************************************************************
 ** Site#: 14399           For non-commercial use only        Version 13.159M **
 *******************************************************************************
 ** Cite this work as: MOPAC2012, James J. P. Stewart, Stewart Computational  **
 ** Chemistry, Version 13.159M web: HTTP://OpenMOPAC.net  Days remaining:   6 **
 *******************************************************************************
 **                                                                           **
 **                                MOPAC2012                                  **
 **                                                                           **
 *******************************************************************************

                            PM3 CALCULATION RESULTS


 *******************************************************************************
 *  CALCULATION DONE:                                Mon Jun  2 11:05:02 2014  *
 *  PM3      - The PM3 Hamiltonian to be used
 *  PRECISE  - CRITERIA TO BE INCREASED BY 100 TIMES
 *  NOSYM    - POINT-GROUP SYMMETRY SET TO C1
 *  T=       - A TIME OF 172800.0 SECONDS REQUESTED
 *  DUMP=N   - RESTART FILE WRITTEN EVERY  7200.000 SECONDS
 *******************************************************************************
pm3  precise nosym
 InChI=1S/C11H18/c1-3-7-11-9-6-5-8-10(11)4-2/h3,5,8,10-11H,1,4,6-7,9H2,2H3

   ATOM   CHEMICAL          X               Y               Z
  NUMBER   SYMBOL      (ANGSTROMS)     (ANGSTROMS)     (ANGSTROMS)
 
     1       C         -0.24330000  *  -0.37770000  *  -0.60940000  *
     2       C          0.45530000  *   0.19690000  *   0.65550000  *
     3       C         -0.50650000  *  -1.88470000  *  -0.43940000  *
     4       C          0.95820000  *   1.64850000  *   0.51750000  *
     5       C         -1.50380000  *   0.38760000  *  -1.05970000  *
     6       C          0.79440000  *  -2.65300000  *  -0.18130000  *
     7       C          2.02390000  *   1.88450000  *  -0.55130000  *
     8       C          1.54930000  *  -0.70430000  *   1.19230000  *
     9       C          1.69690000  *  -1.98400000  *   0.81920000  *
    10       C         -2.59680000  *   0.45270000  *  -0.02710000  *
    11       C         -3.02140000  *   1.60300000  *   0.50130000  *
    12       H          0.46910000  *  -0.30370000  *  -1.46500000  *
    13       H         -0.29690000  *   0.21980000  *   1.47870000  *
    14       H         -0.99920000  *  -2.31200000  *  -1.34380000  *
    15       H         -1.19620000  *  -2.05590000  *   0.42010000  *
    16       H          1.37180000  *   1.98790000  *   1.49640000  *
    17       H          0.10460000  *   2.33770000  *   0.32680000  *
    18       H          0.54090000  *  -3.67410000  *   0.18560000  *
    19       H          1.36420000  *  -2.77510000  *  -1.13090000  *
    20       H         -1.20950000  *   1.40470000  *  -1.40890000  *
    21       H         -1.93130000  *  -0.09480000  *  -1.96890000  *
    22       H          2.89720000  *   1.20850000  *  -0.40990000  *
    23       H          1.61050000  *   1.74380000  *  -1.57470000  *
    24       H          2.39060000  *   2.93410000  *  -0.48870000  *
    25       H          2.51890000  *  -2.56340000  *   1.23710000  *
    26       H          2.22880000  *  -0.31220000  *   1.94870000  *
    27       H         -3.06440000  *  -0.47450000  *   0.30010000  *
    28       H         -2.58940000  *   2.55930000  *   0.21110000  *
    29       H         -3.81590000  *   1.60040000  *   1.24490000  *
 


          CARTESIAN COORDINATES 

    NO.       ATOM         X         Y         Z

     1         C       -0.2433   -0.3777   -0.6094
     2         C        0.4553    0.1969    0.6555
     3         C       -0.5065   -1.8847   -0.4394
     4         C        0.9582    1.6485    0.5175
     5         C       -1.5038    0.3876   -1.0597
     6         C        0.7944   -2.6530   -0.1813
     7         C        2.0239    1.8845   -0.5513
     8         C        1.5493   -0.7043    1.1923
     9         C        1.6969   -1.9840    0.8192
    10         C       -2.5968    0.4527   -0.0271
    11         C       -3.0214    1.6030    0.5013
    12         H        0.4691   -0.3037   -1.4650
    13         H       -0.2969    0.2198    1.4787
    14         H       -0.9992   -2.3120   -1.3438
    15         H       -1.1962   -2.0559    0.4201
    16         H        1.3718    1.9879    1.4964
    17         H        0.1046    2.3377    0.3268
    18         H        0.5409   -3.6741    0.1856
    19         H        1.3642   -2.7751   -1.1309
    20         H       -1.2095    1.4047   -1.4089
    21         H       -1.9313   -0.0948   -1.9689
    22         H        2.8972    1.2085   -0.4099
    23         H        1.6105    1.7438   -1.5747
    24         H        2.3906    2.9341   -0.4887
    25         H        2.5189   -2.5634    1.2371
    26         H        2.2288   -0.3122    1.9487
    27         H       -3.0644   -0.4745    0.3001
    28         H       -2.5894    2.5593    0.2111
    29         H       -3.8159    1.6004    1.2449

  H: (PM3): J. J. P. STEWART, J. COMP. CHEM. 10, 209 (1989).
  C: (PM3): J. J. P. STEWART, J. COMP. CHEM. 10, 209 (1989).

           Empirical Formula: C11 H18  =    29 atoms



      MOLECULAR POINT GROUP   :   C1  


      RHF CALCULATION, NO. OF DOUBLY OCCUPIED LEVELS =   31

      Geometry optimization using EF

          DIAGONAL MATRIX USED AS START HESSIAN

 CYCLE:     1 TIME:   0.018 TIME LEFT:  2.00D  GRAD.:    59.057 HEAT: 5.559011
 CYCLE:     2 TIME:   0.039 TIME LEFT:  2.00D  GRAD.:    56.752 HEAT: 4.531535
 CYCLE:     3 TIME:   0.016 TIME LEFT:  2.00D  GRAD.:    55.322 HEAT: 3.952470
 CYCLE:     4 TIME:   0.015 TIME LEFT:  2.00D  GRAD.:    36.747 HEAT: 3.380299
 CYCLE:     5 TIME:   0.013 TIME LEFT:  2.00D  GRAD.:    39.764 HEAT: 3.119691
 CYCLE:     6 TIME:   0.013 TIME LEFT:  2.00D  GRAD.:    41.086 HEAT: 2.895949
 CYCLE:     7 TIME:   0.026 TIME LEFT:  2.00D  GRAD.:    28.126 HEAT: 2.561639
 CYCLE:     8 TIME:   0.027 TIME LEFT:  2.00D  GRAD.:    16.754 HEAT: 2.412644
 CYCLE:     9 TIME:   0.013 TIME LEFT:  2.00D  GRAD.:    13.060 HEAT: 2.316723
 CYCLE:    10 TIME:   0.013 TIME LEFT:  2.00D  GRAD.:    15.910 HEAT: 2.220408
 CYCLE:    11 TIME:   0.013 TIME LEFT:  2.00D  GRAD.:    20.739 HEAT: 2.150028
 CYCLE:    12 TIME:   0.015 TIME LEFT:  2.00D  GRAD.:    21.989 HEAT: 2.088863
 CYCLE:    13 TIME:   0.018 TIME LEFT:  2.00D  GRAD.:    25.725 HEAT: 2.073297
 CYCLE:    14 TIME:   0.012 TIME LEFT:  2.00D  GRAD.:    18.135 HEAT: 1.957481
 CYCLE:    15 TIME:   0.025 TIME LEFT:  2.00D  GRAD.:    12.971 HEAT: 1.888337
 CYCLE:    16 TIME:   0.017 TIME LEFT:  2.00D  GRAD.:    13.688 HEAT: 1.867846
 CYCLE:    17 TIME:   0.018 TIME LEFT:  2.00D  GRAD.:    16.304 HEAT: 1.853060
 CYCLE:    18 TIME:   0.017 TIME LEFT:  2.00D  GRAD.:    13.264 HEAT: 1.818594
 CYCLE:    19 TIME:   0.016 TIME LEFT:  2.00D  GRAD.:    10.869 HEAT: 1.772515
 CYCLE:    20 TIME:   0.016 TIME LEFT:  2.00D  GRAD.:    10.643 HEAT: 1.736267
 CYCLE:    21 TIME:   0.015 TIME LEFT:  2.00D  GRAD.:    18.209 HEAT: 1.735391
 CYCLE:    22 TIME:   0.028 TIME LEFT:  2.00D  GRAD.:    13.924 HEAT: 1.686963
 CYCLE:    23 TIME:   0.015 TIME LEFT:  2.00D  GRAD.:    14.069 HEAT: 1.663798
 CYCLE:    24 TIME:   0.012 TIME LEFT:  2.00D  GRAD.:     6.732 HEAT: 1.613587
 CYCLE:    25 TIME:   0.030 TIME LEFT:  2.00D  GRAD.:     8.760 HEAT: 1.606016
 CYCLE:    26 TIME:   0.015 TIME LEFT:  2.00D  GRAD.:     4.011 HEAT: 1.577486
 CYCLE:    27 TIME:   0.012 TIME LEFT:  2.00D  GRAD.:     7.230 HEAT: 1.560107
 CYCLE:    28 TIME:   0.015 TIME LEFT:  2.00D  GRAD.:     4.377 HEAT: 1.526620
 CYCLE:    29 TIME:   0.015 TIME LEFT:  2.00D  GRAD.:     6.240 HEAT: 1.513013
 CYCLE:    30 TIME:   0.013 TIME LEFT:  2.00D  GRAD.:     3.603 HEAT: 1.499212
 CYCLE:    31 TIME:   0.013 TIME LEFT:  2.00D  GRAD.:     4.916 HEAT: 1.495679
 CYCLE:    32 TIME:   0.013 TIME LEFT:  2.00D  GRAD.:     2.835 HEAT: 1.484824
 CYCLE:    33 TIME:   0.013 TIME LEFT:  2.00D  GRAD.:     5.773 HEAT: 1.482299
 CYCLE:    34 TIME:   0.013 TIME LEFT:  2.00D  GRAD.:     2.873 HEAT: 1.469609
 CYCLE:    35 TIME:   0.018 TIME LEFT:  2.00D  GRAD.:     2.847 HEAT: 1.465781
 CYCLE:    36 TIME:   0.014 TIME LEFT:  2.00D  GRAD.:     1.937 HEAT: 1.460964
 CYCLE:    37 TIME:   0.013 TIME LEFT:  2.00D  GRAD.:     2.474 HEAT: 1.456692
 CYCLE:    38 TIME:   0.011 TIME LEFT:  2.00D  GRAD.:     1.914 HEAT: 1.452723
 CYCLE:    39 TIME:   0.014 TIME LEFT:  2.00D  GRAD.:     2.423 HEAT: 1.448999
 CYCLE:    40 TIME:   0.015 TIME LEFT:  2.00D  GRAD.:     2.847 HEAT: 1.445709
 CYCLE:    41 TIME:   0.012 TIME LEFT:  2.00D  GRAD.:     2.006 HEAT: 1.440271
 CYCLE:    42 TIME:   0.015 TIME LEFT:  2.00D  GRAD.:     2.517 HEAT: 1.432479
 CYCLE:    43 TIME:   0.014 TIME LEFT:  2.00D  GRAD.:     3.879 HEAT: 1.422368
 CYCLE:    44 TIME:   0.015 TIME LEFT:  2.00D  GRAD.:     3.916 HEAT: 1.407433
 CYCLE:    45 TIME:   0.014 TIME LEFT:  2.00D  GRAD.:     5.646 HEAT: 1.364608
 CYCLE:    46 TIME:   0.013 TIME LEFT:  2.00D  GRAD.:    10.096 HEAT: 1.342369
 CYCLE:    47 TIME:   0.012 TIME LEFT:  2.00D  GRAD.:     9.693 HEAT: 1.299106
 CYCLE:    48 TIME:   0.013 TIME LEFT:  2.00D  GRAD.:     4.766 HEAT: 1.239270
 CYCLE:    49 TIME:   0.014 TIME LEFT:  2.00D  GRAD.:     3.842 HEAT: 1.189994
 CYCLE:    50 TIME:   0.013 TIME LEFT:  2.00D  GRAD.:     4.657 HEAT: 1.156374
 CYCLE:    51 TIME:   0.014 TIME LEFT:  2.00D  GRAD.:     4.711 HEAT: 1.128510
 CYCLE:    52 TIME:   0.013 TIME LEFT:  2.00D  GRAD.:     2.940 HEAT: 1.106487
 CYCLE:    53 TIME:   0.013 TIME LEFT:  2.00D  GRAD.:     2.896 HEAT: 1.084952
 CYCLE:    54 TIME:   0.013 TIME LEFT:  2.00D  GRAD.:     3.108 HEAT: 1.064304
 CYCLE:    55 TIME:   0.016 TIME LEFT:  2.00D  GRAD.:     2.545 HEAT: 1.049063
 CYCLE:    56 TIME:   0.013 TIME LEFT:  2.00D  GRAD.:     2.217 HEAT: 1.034361
 CYCLE:    57 TIME:   0.014 TIME LEFT:  2.00D  GRAD.:     2.545 HEAT: 1.023751
 CYCLE:    58 TIME:   0.015 TIME LEFT:  2.00D  GRAD.:     2.170 HEAT: 1.014996
 CYCLE:    59 TIME:   0.012 TIME LEFT:  2.00D  GRAD.:     1.679 HEAT: 1.007731
 CYCLE:    60 TIME:   0.015 TIME LEFT:  2.00D  GRAD.:     1.565 HEAT: 1.000582
 CYCLE:    61 TIME:   0.012 TIME LEFT:  2.00D  GRAD.:     1.640 HEAT:0.9952358
 CYCLE:    62 TIME:   0.013 TIME LEFT:  2.00D  GRAD.:     1.512 HEAT:0.9904498
 CYCLE:    63 TIME:   0.016 TIME LEFT:  2.00D  GRAD.:     1.353 HEAT:0.9865242
 CYCLE:    64 TIME:   0.014 TIME LEFT:  2.00D  GRAD.:     1.484 HEAT:0.9821450
 CYCLE:    65 TIME:   0.017 TIME LEFT:  2.00D  GRAD.:     1.487 HEAT:0.9770999
 CYCLE:    66 TIME:   0.015 TIME LEFT:  2.00D  GRAD.:     1.278 HEAT:0.9724439
 CYCLE:    67 TIME:   0.015 TIME LEFT:  2.00D  GRAD.:     1.113 HEAT:0.9690784
 CYCLE:    68 TIME:   0.016 TIME LEFT:  2.00D  GRAD.:     1.053 HEAT:0.9663397
 CYCLE:    69 TIME:   0.015 TIME LEFT:  2.00D  GRAD.:     1.023 HEAT:0.9640680
 CYCLE:    70 TIME:   0.014 TIME LEFT:  2.00D  GRAD.:     0.850 HEAT:0.9622799
 CYCLE:    71 TIME:   0.015 TIME LEFT:  2.00D  GRAD.:     0.729 HEAT:0.9609576
 CYCLE:    72 TIME:   0.014 TIME LEFT:  2.00D  GRAD.:     0.770 HEAT:0.9596915
 CYCLE:    73 TIME:   0.013 TIME LEFT:  2.00D  GRAD.:     0.838 HEAT:0.9583284
 CYCLE:    74 TIME:   0.013 TIME LEFT:  2.00D  GRAD.:     0.889 HEAT:0.9564676
 CYCLE:    75 TIME:   0.015 TIME LEFT:  2.00D  GRAD.:     0.948 HEAT:0.9544129
 CYCLE:    76 TIME:   0.013 TIME LEFT:  2.00D  GRAD.:     0.986 HEAT:0.9521468
 CYCLE:    77 TIME:   0.013 TIME LEFT:  2.00D  GRAD.:     0.969 HEAT:0.9499553
 CYCLE:    78 TIME:   0.012 TIME LEFT:  2.00D  GRAD.:     0.908 HEAT:0.9479440
 CYCLE:    79 TIME:   0.019 TIME LEFT:  2.00D  GRAD.:     0.861 HEAT:0.9456494
 CYCLE:    80 TIME:   0.015 TIME LEFT:  2.00D  GRAD.:     0.985 HEAT:0.9431812
 CYCLE:    81 TIME:   0.018 TIME LEFT:  2.00D  GRAD.:     1.109 HEAT:0.9404167
 CYCLE:    82 TIME:   0.015 TIME LEFT:  2.00D  GRAD.:     1.101 HEAT:0.9378175
 CYCLE:    83 TIME:   0.014 TIME LEFT:  2.00D  GRAD.:     1.056 HEAT:0.9353783
 CYCLE:    84 TIME:   0.015 TIME LEFT:  2.00D  GRAD.:     1.042 HEAT:0.9329392
 CYCLE:    85 TIME:   0.015 TIME LEFT:  2.00D  GRAD.:     1.089 HEAT:0.9301844
 CYCLE:    86 TIME:   0.014 TIME LEFT:  2.00D  GRAD.:     1.087 HEAT:0.9272330
 CYCLE:    87 TIME:   0.018 TIME LEFT:  2.00D  GRAD.:     1.009 HEAT:0.9245338
 CYCLE:    88 TIME:   0.012 TIME LEFT:  2.00D  GRAD.:     1.050 HEAT:0.9216016
 CYCLE:    89 TIME:   0.013 TIME LEFT:  2.00D  GRAD.:     1.201 HEAT:0.9185187
 CYCLE:    90 TIME:   0.015 TIME LEFT:  2.00D  GRAD.:     1.320 HEAT:0.9146934
 CYCLE:    91 TIME:   0.016 TIME LEFT:  2.00D  GRAD.:     1.316 HEAT:0.9099992
 CYCLE:    92 TIME:   0.014 TIME LEFT:  2.00D  GRAD.:     1.124 HEAT:0.9072998
 CYCLE:    93 TIME:   0.017 TIME LEFT:  2.00D  GRAD.:     1.389 HEAT:0.9029605
 CYCLE:    94 TIME:   0.015 TIME LEFT:  2.00D  GRAD.:     0.946 HEAT:0.9012300
 CYCLE:    95 TIME:   0.014 TIME LEFT:  2.00D  GRAD.:     0.805 HEAT:0.8985069
 CYCLE:    96 TIME:   0.014 TIME LEFT:  2.00D  GRAD.:     0.655 HEAT:0.8975772
 CYCLE:    97 TIME:   0.017 TIME LEFT:  2.00D  GRAD.:     0.668 HEAT:0.8958673
 CYCLE:    98 TIME:   0.013 TIME LEFT:  2.00D  GRAD.:     0.581 HEAT:0.8951260
 CYCLE:    99 TIME:   0.016 TIME LEFT:  2.00D  GRAD.:     0.915 HEAT:0.8930900
 CYCLE:   100 TIME:   0.013 TIME LEFT:  2.00D  GRAD.:     0.758 HEAT:0.8921214
 CYCLE:   101 TIME:   0.014 TIME LEFT:  2.00D  GRAD.:     1.218 HEAT:0.8873233
 CYCLE:   102 TIME:   0.012 TIME LEFT:  2.00D  GRAD.:     1.035 HEAT:0.8854768
 CYCLE:   103 TIME:   0.015 TIME LEFT:  2.00D  GRAD.:     1.474 HEAT:0.8797158
 CYCLE:   104 TIME:   0.014 TIME LEFT:  2.00D  GRAD.:     1.356 HEAT:0.8766325
 CYCLE:   105 TIME:   0.016 TIME LEFT:  2.00D  GRAD.:     3.989 HEAT:0.8395599
 CYCLE:   106 TIME:   0.016 TIME LEFT:  2.00D  GRAD.:     9.052 HEAT:0.7912829
 CYCLE:   107 TIME:   0.041 TIME LEFT:  2.00D  GRAD.:     9.816 HEAT:0.7772987
 CYCLE:   108 TIME:   0.012 TIME LEFT:  2.00D  GRAD.:     4.509 HEAT:0.6848926
 CYCLE:   109 TIME:   0.013 TIME LEFT:  2.00D  GRAD.:     3.718 HEAT:0.6587959
 CYCLE:   110 TIME:   0.013 TIME LEFT:  2.00D  GRAD.:     3.648 HEAT:0.6441664
 CYCLE:   111 TIME:   0.013 TIME LEFT:  2.00D  GRAD.:     2.851 HEAT:0.6307895
 CYCLE:   112 TIME:   0.023 TIME LEFT:  2.00D  GRAD.:     3.586 HEAT:0.6240743
 CYCLE:   113 TIME:   0.016 TIME LEFT:  2.00D  GRAD.:     2.512 HEAT:0.6133738
 CYCLE:   114 TIME:   0.015 TIME LEFT:  2.00D  GRAD.:     1.481 HEAT:0.6065320
 CYCLE:   115 TIME:   0.014 TIME LEFT:  2.00D  GRAD.:     1.169 HEAT:0.6019410
 CYCLE:   116 TIME:   0.015 TIME LEFT:  2.00D  GRAD.:     1.285 HEAT:0.5985010
 CYCLE:   117 TIME:   0.015 TIME LEFT:  2.00D  GRAD.:     1.698 HEAT:0.5931251
 CYCLE:   118 TIME:   0.014 TIME LEFT:  2.00D  GRAD.:     2.308 HEAT:0.5838758
 CYCLE:   119 TIME:   0.015 TIME LEFT:  2.00D  GRAD.:     2.682 HEAT:0.5698906
 CYCLE:   120 TIME:   0.016 TIME LEFT:  2.00D  GRAD.:     3.090 HEAT:0.5488422
 CYCLE:   121 TIME:   0.014 TIME LEFT:  2.00D  GRAD.:     2.673 HEAT:0.5334441
 CYCLE:   122 TIME:   0.014 TIME LEFT:  2.00D  GRAD.:     3.726 HEAT:0.5011732
 CYCLE:   123 TIME:   0.014 TIME LEFT:  2.00D  GRAD.:     4.583 HEAT:0.4735213
 CYCLE:   124 TIME:   0.012 TIME LEFT:  2.00D  GRAD.:     4.913 HEAT:0.4314497
 CYCLE:   125 TIME:   0.013 TIME LEFT:  2.00D  GRAD.:     5.522 HEAT:0.4176323
 CYCLE:   126 TIME:   0.014 TIME LEFT:  2.00D  GRAD.:     9.470 HEAT:0.4158030
 CYCLE:   127 TIME:   0.017 TIME LEFT:  2.00D  GRAD.:     6.415 HEAT:0.3679676
 CYCLE:   128 TIME:   0.012 TIME LEFT:  2.00D  GRAD.:     2.420 HEAT:0.3334338
 CYCLE:   129 TIME:   0.013 TIME LEFT:  2.00D  GRAD.:     2.605 HEAT:0.3187123
 CYCLE:   130 TIME:   0.015 TIME LEFT:  2.00D  GRAD.:     2.003 HEAT:0.3073196
 CYCLE:   131 TIME:   0.015 TIME LEFT:  2.00D  GRAD.:     1.532 HEAT:0.2952615
 CYCLE:   132 TIME:   0.014 TIME LEFT:  2.00D  GRAD.:     1.559 HEAT:0.2913720
 CYCLE:   133 TIME:   0.016 TIME LEFT:  2.00D  GRAD.:     1.486 HEAT:0.2848800
 CYCLE:   134 TIME:   0.012 TIME LEFT:  2.00D  GRAD.:     1.774 HEAT:0.2762085
 CYCLE:   135 TIME:   0.017 TIME LEFT:  2.00D  GRAD.:     2.113 HEAT:0.2685160
 CYCLE:   136 TIME:   0.016 TIME LEFT:  2.00D  GRAD.:     2.634 HEAT:0.2542749
 CYCLE:   137 TIME:   0.013 TIME LEFT:  2.00D  GRAD.:     3.294 HEAT:0.2301887
 CYCLE:   138 TIME:   0.016 TIME LEFT:  2.00D  GRAD.:     2.581 HEAT:0.2137771
 CYCLE:   139 TIME:   0.014 TIME LEFT:  2.00D  GRAD.:     1.803 HEAT:0.1951404
 CYCLE:   140 TIME:   0.014 TIME LEFT:  2.00D  GRAD.:     2.492 HEAT:0.1878117
 CYCLE:   141 TIME:   0.012 TIME LEFT:  2.00D  GRAD.:     1.787 HEAT:0.1799146
 CYCLE:   142 TIME:   0.014 TIME LEFT:  2.00D  GRAD.:     1.067 HEAT:0.1733134
 CYCLE:   143 TIME:   0.016 TIME LEFT:  2.00D  GRAD.:     0.827 HEAT:0.1716503
 CYCLE:   144 TIME:   0.012 TIME LEFT:  2.00D  GRAD.:     0.546 HEAT:0.1707779
 CYCLE:   145 TIME:   0.013 TIME LEFT:  2.00D  GRAD.:     0.372 HEAT:0.1704469
 CYCLE:   146 TIME:   0.015 TIME LEFT:  2.00D  GRAD.:     0.283 HEAT:0.1702207
 CYCLE:   147 TIME:   0.014 TIME LEFT:  2.00D  GRAD.:     0.286 HEAT:0.1700372
 CYCLE:   148 TIME:   0.013 TIME LEFT:  2.00D  GRAD.:     0.240 HEAT:0.1698895
 CYCLE:   149 TIME:   0.012 TIME LEFT:  2.00D  GRAD.:     0.208 HEAT:0.1697860
 CYCLE:   150 TIME:   0.013 TIME LEFT:  2.00D  GRAD.:     0.271 HEAT:0.1696464
 CYCLE:   151 TIME:   0.017 TIME LEFT:  2.00D  GRAD.:     0.346 HEAT:0.1694890
 CYCLE:   152 TIME:   0.013 TIME LEFT:  2.00D  GRAD.:     0.479 HEAT:0.1691338
 CYCLE:   153 TIME:   0.013 TIME LEFT:  2.00D  GRAD.:     0.661 HEAT:0.1682830
 CYCLE:   154 TIME:   0.017 TIME LEFT:  2.00D  GRAD.:     0.575 HEAT:0.1670101
 CYCLE:   155 TIME:   0.015 TIME LEFT:  2.00D  GRAD.:     0.345 HEAT:0.1663610
 CYCLE:   156 TIME:   0.014 TIME LEFT:  2.00D  GRAD.:     0.274 HEAT:0.1660363
 CYCLE:   157 TIME:   0.013 TIME LEFT:  2.00D  GRAD.:     0.218 HEAT:0.1659455
 CYCLE:   158 TIME:   0.017 TIME LEFT:  2.00D  GRAD.:     0.177 HEAT:0.1658562
 CYCLE:   159 TIME:   0.016 TIME LEFT:  2.00D  GRAD.:     0.068 HEAT:0.1658309
 CYCLE:   160 TIME:   0.014 TIME LEFT:  2.00D  GRAD.:     0.060 HEAT:0.1658263
 CYCLE:   161 TIME:   0.013 TIME LEFT:  2.00D  GRAD.:     0.039 HEAT:0.1658214

     RMS GRADIENT =  0.03897  IS LESS THAN CUTOFF =  0.05000



 -------------------------------------------------------------------------------
pm3  precise nosym
 InChI=1S/C11H18/c1-3-7-11-9-6-5-8-10(11)4-2/h3,5,8,10-11H,1,4,6-7,9H2,2H3



     GEOMETRY OPTIMISED USING EIGENVECTOR FOLLOWING (EF).     
     SCF FIELD WAS ACHIEVED                                   


                              PM3 CALCULATION
                                                       MOPAC2012 (Version: 13.159M)
                                                       Mon Jun  2 11:05:05 2014
                                                       No. of days left =   6




          FINAL HEAT OF FORMATION =          0.16582 KCAL/MOL =       0.69380 KJ/MOL


          TOTAL ENERGY            =      -1581.02560 EV
          ELECTRONIC ENERGY       =      -9899.49285 EV  POINT GROUP:     C1  
          CORE-CORE REPULSION     =       8318.46725 EV
          COSMO AREA              =        205.31 SQUARE ANGSTROMS
          COSMO VOLUME            =        222.02 CUBIC ANGSTROMS

          GRADIENT NORM           =          0.03897
          IONIZATION POTENTIAL    =          9.602143 EV
          HOMO LUMO ENERGIES (EV) =         -9.602  1.139
          NO. OF FILLED LEVELS    =         31
          MOLECULAR WEIGHT        =        150.263

          MOLECULAR DIMENSIONS (Angstroms)

            Atom       Atom       Distance
            H    29    H    24     7.24553
            H    28    H    18     6.61779
            H    26    H    21     4.54534


          SCF CALCULATIONS        =        172
          COMPUTATION TIME        =          2.440 SECONDS




   ATOM   CHEMICAL          X               Y               Z
  NUMBER   SYMBOL      (ANGSTROMS)     (ANGSTROMS)     (ANGSTROMS)
 
     1       C         -0.19655985  *  -0.24721708  *  -0.59083320  *
     2       C          0.50275955  *   0.27898102  *   0.67482920  *
     3       C         -0.51695121  *  -1.73218951  *  -0.46381440  *
     4       C          1.11164651  *   1.65805386  *   0.39780212  *
     5       C         -1.45545541  *   0.57623444  *  -0.87953194  *
     6       C          0.73269140  *  -2.55445647  *  -0.20168164  *
     7       C          2.23683965  *   1.60804008  *  -0.61172574  *
     8       C          1.52829064  *  -0.66914061  *   1.20075988  *
     9       C          1.61990983  *  -1.94384220  *   0.82137541  *
    10       C         -2.54180638  *   0.36707429  *   0.11705090  *
    11       C         -3.43235143  *   1.30167141  *   0.42659158  *
    12       H          0.51646369  *  -0.10222491  *  -1.44932760  *
    13       H         -0.26711609  *   0.38937763  *   1.48146758  *
    14       H         -1.01687309  *  -2.08777064  *  -1.38600268  *
    15       H         -1.26235768  *  -1.87245600  *   0.35176388  *
    16       H          1.46519751  *   2.11113476  *   1.34340714  *
    17       H          0.29694611  *   2.31661161  *   0.01837211  *
    18       H          0.44912846  *  -3.57792157  *   0.11306027  *
    19       H          1.31818620  *  -2.67596451  *  -1.13596368  *
    20       H         -1.16299446  *   1.65118167  *  -0.91794772  *
    21       H         -1.84768964  *   0.31868689  *  -1.88320837  *
    22       H          3.11363146  *   1.08005261  *  -0.21413513  *
    23       H          1.91542477  *   1.06966455  *  -1.51973667  *
    24       H          2.55836147  *   2.61323444  *  -0.90882198  *
    25       H          2.38500699  *  -2.60051382  *   1.25052105  *
    26       H          2.21615322  *  -0.25577696  *   1.94821386  *
    27       H         -2.56546167  *  -0.63183323  *   0.58336566  *
    28       H         -3.42708050  *   2.29638134  *  -0.01060821  *
    29       H         -4.23179688  *   1.13418595  *   1.14151167  *

           Empirical Formula: C11 H18  =    29 atoms



      MOLECULAR POINT GROUP   :   C1  


                  EIGENVALUES  
 -42.41363 -35.16994 -34.72276 -30.18169 -28.54972 -25.25212 -23.51509 -21.70446
 -20.21561 -19.38107 -17.51019 -17.11593 -16.30067 -15.77201 -15.55742 -15.09972
 -14.79507 -14.39050 -13.88025 -13.64312 -13.54778 -13.09201 -12.82983 -12.57413
 -12.35514 -11.93031 -11.55357 -11.39849 -10.90819 -10.09229  -9.60214   1.13899
   1.20192   3.32634   3.41398   3.46587   3.53193   3.59681   3.64986   3.83293
   3.86305   3.92781   3.97319   4.06535   4.16353   4.17280   4.26488   4.29545
   4.47182   4.49230   4.58274   4.63306   4.87178   4.89678   4.97856   4.98805
   5.14054   5.24026   5.61137   5.81472   5.87573   6.02831


              NET ATOMIC CHARGES AND DIPOLE CONTRIBUTIONS

  ATOM NO.   TYPE          CHARGE      No. of ELECS.   s-Pop       p-Pop       
    1          C          -0.084866        4.0849     1.18219     2.90267
    2          C          -0.045161        4.0452     1.16821     2.87695
    3          C          -0.100805        4.1008     1.16227     2.93853
    4          C          -0.098433        4.0984     1.16252     2.93591
    5          C          -0.075847        4.0758     1.15455     2.92130
    6          C          -0.054345        4.0543     1.14482     2.90952
    7          C          -0.119541        4.1195     1.14030     2.97925
    8          C          -0.141101        4.1411     1.19495     2.94615
    9          C          -0.151551        4.1516     1.19354     2.95801
   10          C          -0.145013        4.1450     1.19816     2.94686
   11          C          -0.170289        4.1703     1.18174     2.98855
   12          H           0.075705        0.9243     0.92429
   13          H           0.074727        0.9253     0.92527
   14          H           0.051013        0.9490     0.94899
   15          H           0.058274        0.9417     0.94173
   16          H           0.050896        0.9491     0.94910
   17          H           0.054534        0.9455     0.94547
   18          H           0.052610        0.9474     0.94739
   19          H           0.054542        0.9455     0.94546
   20          H           0.063915        0.9361     0.93608
   21          H           0.059465        0.9405     0.94054
   22          H           0.043009        0.9570     0.95699
   23          H           0.044850        0.9551     0.95515
   24          H           0.038320        0.9617     0.96168
   25          H           0.096888        0.9031     0.90311
   26          H           0.099910        0.9001     0.90009
   27          H           0.107830        0.8922     0.89217
   28          H           0.080684        0.9193     0.91932
   29          H           0.079779        0.9202     0.92022
 DIPOLE           X         Y         Z       TOTAL
 POINT-CHG.     0.034    -0.042    -0.265     0.271
 HYBRID         0.014     0.001     0.019     0.023
 SUM            0.048    -0.041    -0.247     0.255


          ATOMIC ORBITAL ELECTRON POPULATIONS

    Atom      s        px        py        pz   
    1  C   1.18219   0.96625   0.94927   0.98716
    2  C   1.16821   0.96558   0.94182   0.96955
    3  C   1.16227   0.97204   0.94907   1.01742
    4  C   1.16252   0.98157   0.96126   0.99308
    5  C   1.15455   0.94095   1.00273   0.97762
    6  C   1.14482   0.95436   0.97654   0.97862
    7  C   1.14030   0.98171   1.00750   0.99004
    8  C   1.19495   0.99023   0.95487   1.00105
    9  C   1.19354   0.99830   0.96578   0.99394
   10  C   1.19816   0.96772   0.99410   0.98504
   11  C   1.18174   0.99043   0.98601   1.01210
   12  H   0.92429
   13  H   0.92527
   14  H   0.94899
   15  H   0.94173
   16  H   0.94910
   17  H   0.94547
   18  H   0.94739
   19  H   0.94546
   20  H   0.93608
   21  H   0.94054
   22  H   0.95699
   23  H   0.95515
   24  H   0.96168
   25  H   0.90311
   26  H   0.90009
   27  H   0.89217
   28  H   0.91932
   29  H   0.92022
 *******************************************************************************
 ** Site#: 14399           For non-commercial use only        Version 13.159M **
 *******************************************************************************
 ** Cite this work as: MOPAC2012, James J. P. Stewart, Stewart Computational  **
 ** Chemistry, Version 13.159M web: HTTP://OpenMOPAC.net  Days remaining:   6 **
 *******************************************************************************
 **                                                                           **
 **                                MOPAC2012                                  **
 **                                                                           **
 *******************************************************************************

                            PM3 CALCULATION RESULTS


 *******************************************************************************
 *  CALCULATION DONE:                                Mon Jun  2 11:05:05 2014  *
 *  PM3      - The PM3 Hamiltonian to be used
 *  OLDGEO   - PREVIOUS GEOMETRY TO BE USED
 *  PRECISE  - CRITERIA TO BE INCREASED BY 100 TIMES
 *  NOSYM    - POINT-GROUP SYMMETRY SET TO C1
 *  T=       - A TIME OF 172800.0 SECONDS REQUESTED
 *  DUMP=N   - RESTART FILE WRITTEN EVERY  7200.000 SECONDS
 *  THERMO   - THERMODYNAMIC QUANTITIES TO BE CALCULATED
 *******************************************************************************
oldgeo thermo nosym precise  pm3

   ATOM   CHEMICAL          X               Y               Z
  NUMBER   SYMBOL      (ANGSTROMS)     (ANGSTROMS)     (ANGSTROMS)
 
     1       C         -0.19655985  *  -0.24721708  *  -0.59083320  *
     2       C          0.50275955  *   0.27898102  *   0.67482920  *
     3       C         -0.51695121  *  -1.73218951  *  -0.46381440  *
     4       C          1.11164651  *   1.65805386  *   0.39780212  *
     5       C         -1.45545541  *   0.57623444  *  -0.87953194  *
     6       C          0.73269140  *  -2.55445647  *  -0.20168164  *
     7       C          2.23683965  *   1.60804008  *  -0.61172574  *
     8       C          1.52829064  *  -0.66914061  *   1.20075988  *
     9       C          1.61990983  *  -1.94384220  *   0.82137541  *
    10       C         -2.54180638  *   0.36707429  *   0.11705090  *
    11       C         -3.43235143  *   1.30167141  *   0.42659158  *
    12       H          0.51646369  *  -0.10222491  *  -1.44932760  *
    13       H         -0.26711609  *   0.38937763  *   1.48146758  *
    14       H         -1.01687309  *  -2.08777064  *  -1.38600268  *
    15       H         -1.26235768  *  -1.87245600  *   0.35176388  *
    16       H          1.46519751  *   2.11113476  *   1.34340714  *
    17       H          0.29694611  *   2.31661161  *   0.01837211  *
    18       H          0.44912846  *  -3.57792157  *   0.11306027  *
    19       H          1.31818620  *  -2.67596451  *  -1.13596368  *
    20       H         -1.16299446  *   1.65118167  *  -0.91794772  *
    21       H         -1.84768964  *   0.31868689  *  -1.88320837  *
    22       H          3.11363146  *   1.08005261  *  -0.21413513  *
    23       H          1.91542477  *   1.06966455  *  -1.51973667  *
    24       H          2.55836147  *   2.61323444  *  -0.90882198  *
    25       H          2.38500699  *  -2.60051382  *   1.25052105  *
    26       H          2.21615322  *  -0.25577696  *   1.94821386  *
    27       H         -2.56546167  *  -0.63183323  *   0.58336566  *
    28       H         -3.42708050  *   2.29638134  *  -0.01060821  *
    29       H         -4.23179688  *   1.13418595  *   1.14151167  *
 


          CARTESIAN COORDINATES 

    NO.       ATOM         X         Y         Z

     1         C       -0.1966   -0.2472   -0.5908
     2         C        0.5028    0.2790    0.6748
     3         C       -0.5170   -1.7322   -0.4638
     4         C        1.1116    1.6581    0.3978
     5         C       -1.4555    0.5762   -0.8795
     6         C        0.7327   -2.5545   -0.2017
     7         C        2.2368    1.6080   -0.6117
     8         C        1.5283   -0.6691    1.2008
     9         C        1.6199   -1.9438    0.8214
    10         C       -2.5418    0.3671    0.1171
    11         C       -3.4324    1.3017    0.4266
    12         H        0.5165   -0.1022   -1.4493
    13         H       -0.2671    0.3894    1.4815
    14         H       -1.0169   -2.0878   -1.3860
    15         H       -1.2624   -1.8725    0.3518
    16         H        1.4652    2.1111    1.3434
    17         H        0.2969    2.3166    0.0184
    18         H        0.4491   -3.5779    0.1131
    19         H        1.3182   -2.6760   -1.1360
    20         H       -1.1630    1.6512   -0.9179
    21         H       -1.8477    0.3187   -1.8832
    22         H        3.1136    1.0801   -0.2141
    23         H        1.9154    1.0697   -1.5197
    24         H        2.5584    2.6132   -0.9088
    25         H        2.3850   -2.6005    1.2505
    26         H        2.2162   -0.2558    1.9482
    27         H       -2.5655   -0.6318    0.5834
    28         H       -3.4271    2.2964   -0.0106
    29         H       -4.2318    1.1342    1.1415

  H: (PM3): J. J. P. STEWART, J. COMP. CHEM. 10, 209 (1989).
  C: (PM3): J. J. P. STEWART, J. COMP. CHEM. 10, 209 (1989).

           Empirical Formula: C11 H18  =    29 atoms



      MOLECULAR POINT GROUP   :   C1  


      RHF CALCULATION, NO. OF DOUBLY OCCUPIED LEVELS =   31



          HEAT OF FORMATION =       0.165821 KCALS/MOLE


          INTERNAL COORDINATE DERIVATIVES

   NUMBER  ATOM       BOND         ANGLE      DIHEDRAL

     1       C     -0.000713     0.001064     0.001864
     2       C     -0.000463     0.000456    -0.001052
     3       C     -0.002065     0.000268    -0.001044
     4       C      0.003542     0.000801    -0.002465
     5       C     -0.001097     0.003783     0.000649
     6       C     -0.001916     0.000517    -0.001814
     7       C      0.003152    -0.002534     0.000298
     8       C     -0.000645     0.004626    -0.000482
     9       C      0.001401    -0.003238    -0.003994
    10       C     -0.008091     0.013532     0.014429
    11       C      0.005333    -0.008970    -0.012834
    12       H      0.001013     0.001267     0.002861
    13       H      0.001378     0.002516     0.004525
    14       H      0.001985    -0.002228    -0.004676
    15       H     -0.001559    -0.002833    -0.001534
    16       H      0.001012    -0.001596    -0.002085
    17       H      0.001152    -0.003545     0.002622
    18       H     -0.001747     0.004292     0.002273
    19       H      0.003657     0.001181     0.008567
    20       H      0.000781    -0.003109     0.000331
    21       H     -0.003886    -0.003857    -0.001360
    22       H      0.001505     0.005365     0.005174
    23       H     -0.005323     0.000158     0.000499
    24       H      0.000171    -0.005099    -0.003900
    25       H      0.000458    -0.001366     0.000367
    26       H     -0.000864    -0.001672     0.000543
    27       H      0.000705     0.008710    -0.002440
    28       H     -0.002050    -0.003810    -0.003835
    29       H      0.003173    -0.004679    -0.001489


          GRADIENT NORM =   0.03747


          TIME FOR SCF CALCULATION =    0.01

          TIME FOR DERIVATIVES     =    0.01

          MOLECULAR WEIGHT =  150.26



          ROTATIONAL CONSTANTS IN CM(-1)

          A =    0.04601445   B =    0.02897110   C =    0.02125967



           PRINCIPAL MOMENTS OF INERTIA IN UNITS OF 10**(-40)*GRAM-CM**2

          A =      608.3475   B =      966.2311   C =     1316.7076


          ORIENTATION OF MOLECULE IN FORCE CALCULATION

    NO.       ATOM         X         Y         Z

     1          C      -0.6639   -0.1240    0.1448
     2          C       0.8749   -0.1240    0.1448
     3          C      -1.2128    1.2982    0.1448
     4          C       1.3953   -1.5250    0.4849
     5          C      -1.1919   -0.9297   -1.0461
     6          C      -0.7105    2.0926    1.3377
     7          C       1.0593   -1.9461    1.8982
     8          C       1.4493    0.9037    1.0620
     9          C       0.7430    1.9075    1.5822
    10          C      -0.9374   -0.2794   -2.3611
    11          C      -0.7679   -0.9616   -3.4873
    12          H      -0.9964   -0.6410    1.0874
    13          H       1.2262    0.1419   -0.8855
    14          H      -2.3201    1.2724    0.1471
    15          H      -0.9287    1.7951   -0.8106
    16          H       2.4887   -1.5712    0.3211
    17          H       0.9382   -2.2394   -0.2376
    18          H      -0.9304    3.1683    1.1916
    19          H      -1.2544    1.7942    2.2573
    20          H      -0.7230   -1.9405   -1.0135
    21          H      -2.2837   -1.0835   -0.9378
    22          H       1.6042   -1.3465    2.6392
    23          H      -0.0178   -1.8084    2.0949
    24          H       1.3047   -2.9999    2.0752
    25          H       1.2192    2.6429    2.2404
    26          H       2.5181    0.7964    1.2833
    27          H      -0.9062    0.8226   -2.3419
    28          H      -0.7850   -2.0470   -3.5335
    29          H      -0.6005   -0.4781   -4.4446


    FIRST DERIVATIVES WILL BE USED IN THE CALCULATION OF SECOND DERIVATIVES

          ESTIMATED TIME TO COMPLETE CALCULATION =        5.99 SECONDS

    FOR POINT-GROUP C1   THERE ARE   1 UNIQUE SYMMETRY FUNCTIONS.

 STEP:   1 TIME =     0.07 SECS, INTEGRAL =      0.07 TIME LEFT: 172799.92
 STEP:   2 TIME =     0.06 SECS, INTEGRAL =      0.12 TIME LEFT: 172799.86
 STEP:   3 TIME =     0.06 SECS, INTEGRAL =      0.18 TIME LEFT: 172799.80
 STEP:   4 TIME =     0.06 SECS, INTEGRAL =      0.24 TIME LEFT: 172799.74
 STEP:   5 TIME =     0.07 SECS, INTEGRAL =      0.31 TIME LEFT: 172799.67
 STEP:   6 TIME =     0.07 SECS, INTEGRAL =      0.38 TIME LEFT: 172799.60
 STEP:   7 TIME =     0.06 SECS, INTEGRAL =      0.45 TIME LEFT: 172799.54
 STEP:   8 TIME =     0.06 SECS, INTEGRAL =      0.51 TIME LEFT: 172799.47
 STEP:   9 TIME =     0.06 SECS, INTEGRAL =      0.57 TIME LEFT: 172799.41
 STEP:  10 TIME =     0.06 SECS, INTEGRAL =      0.63 TIME LEFT: 172799.35
 STEP:  11 TIME =     0.06 SECS, INTEGRAL =      0.69 TIME LEFT: 172799.29
 STEP:  12 TIME =     0.06 SECS, INTEGRAL =      0.76 TIME LEFT: 172799.23
 STEP:  13 TIME =     0.08 SECS, INTEGRAL =      0.83 TIME LEFT: 172799.15
 STEP:  14 TIME =     0.07 SECS, INTEGRAL =      0.90 TIME LEFT: 172799.09
 STEP:  15 TIME =     0.06 SECS, INTEGRAL =      0.96 TIME LEFT: 172799.02
 STEP:  16 TIME =     0.06 SECS, INTEGRAL =      1.02 TIME LEFT: 172798.96
 STEP:  17 TIME =     0.07 SECS, INTEGRAL =      1.09 TIME LEFT: 172798.90
 STEP:  18 TIME =     0.06 SECS, INTEGRAL =      1.15 TIME LEFT: 172798.83
 STEP:  19 TIME =     0.06 SECS, INTEGRAL =      1.21 TIME LEFT: 172798.77
 STEP:  20 TIME =     0.06 SECS, INTEGRAL =      1.28 TIME LEFT: 172798.71
 STEP:  21 TIME =     0.06 SECS, INTEGRAL =      1.34 TIME LEFT: 172798.64
 STEP:  22 TIME =     0.06 SECS, INTEGRAL =      1.40 TIME LEFT: 172798.58
 STEP:  23 TIME =     0.06 SECS, INTEGRAL =      1.46 TIME LEFT: 172798.52
 STEP:  24 TIME =     0.06 SECS, INTEGRAL =      1.52 TIME LEFT: 172798.46
 STEP:  25 TIME =     0.06 SECS, INTEGRAL =      1.59 TIME LEFT: 172798.39
 STEP:  26 TIME =     0.07 SECS, INTEGRAL =      1.65 TIME LEFT: 172798.33
 STEP:  27 TIME =     0.07 SECS, INTEGRAL =      1.72 TIME LEFT: 172798.26
 STEP:  28 TIME =     0.07 SECS, INTEGRAL =      1.79 TIME LEFT: 172798.19
 STEP:  29 TIME =     0.06 SECS, INTEGRAL =      1.85 TIME LEFT: 172798.13
 STEP:  30 TIME =     0.07 SECS, INTEGRAL =      1.92 TIME LEFT: 172798.06
 STEP:  31 TIME =     0.07 SECS, INTEGRAL =      1.99 TIME LEFT: 172797.99
 STEP:  32 TIME =     0.07 SECS, INTEGRAL =      2.06 TIME LEFT: 172797.93
 STEP:  33 TIME =     0.06 SECS, INTEGRAL =      2.12 TIME LEFT: 172797.86
 STEP:  34 TIME =     0.07 SECS, INTEGRAL =      2.19 TIME LEFT: 172797.80
 STEP:  35 TIME =     0.06 SECS, INTEGRAL =      2.25 TIME LEFT: 172797.73
 STEP:  36 TIME =     0.07 SECS, INTEGRAL =      2.31 TIME LEFT: 172797.67
 STEP:  37 TIME =     0.07 SECS, INTEGRAL =      2.39 TIME LEFT: 172797.60
 STEP:  38 TIME =     0.06 SECS, INTEGRAL =      2.45 TIME LEFT: 172797.53
 STEP:  39 TIME =     0.07 SECS, INTEGRAL =      2.52 TIME LEFT: 172797.47
 STEP:  40 TIME =     0.06 SECS, INTEGRAL =      2.58 TIME LEFT: 172797.41
 STEP:  41 TIME =     0.07 SECS, INTEGRAL =      2.64 TIME LEFT: 172797.34
 STEP:  42 TIME =     0.06 SECS, INTEGRAL =      2.71 TIME LEFT: 172797.28
 STEP:  43 TIME =     0.07 SECS, INTEGRAL =      2.77 TIME LEFT: 172797.21
 STEP:  44 TIME =     0.06 SECS, INTEGRAL =      2.83 TIME LEFT: 172797.15
 STEP:  45 TIME =     0.07 SECS, INTEGRAL =      2.90 TIME LEFT: 172797.08
 STEP:  46 TIME =     0.06 SECS, INTEGRAL =      2.96 TIME LEFT: 172797.03
 STEP:  47 TIME =     0.06 SECS, INTEGRAL =      3.02 TIME LEFT: 172796.96
 STEP:  48 TIME =     0.06 SECS, INTEGRAL =      3.08 TIME LEFT: 172796.90
 STEP:  49 TIME =     0.05 SECS, INTEGRAL =      3.13 TIME LEFT: 172796.85
 STEP:  50 TIME =     0.05 SECS, INTEGRAL =      3.18 TIME LEFT: 172796.80
 STEP:  51 TIME =     0.05 SECS, INTEGRAL =      3.23 TIME LEFT: 172796.75
 STEP:  52 TIME =     0.05 SECS, INTEGRAL =      3.28 TIME LEFT: 172796.70
 STEP:  53 TIME =     0.05 SECS, INTEGRAL =      3.33 TIME LEFT: 172796.65
 STEP:  54 TIME =     0.05 SECS, INTEGRAL =      3.38 TIME LEFT: 172796.60
 STEP:  55 TIME =     0.05 SECS, INTEGRAL =      3.43 TIME LEFT: 172796.55
 STEP:  56 TIME =     0.05 SECS, INTEGRAL =      3.48 TIME LEFT: 172796.50
 STEP:  57 TIME =     0.05 SECS, INTEGRAL =      3.54 TIME LEFT: 172796.45
 STEP:  58 TIME =     0.05 SECS, INTEGRAL =      3.59 TIME LEFT: 172796.39
 STEP:  59 TIME =     0.05 SECS, INTEGRAL =      3.64 TIME LEFT: 172796.34
 STEP:  60 TIME =     0.05 SECS, INTEGRAL =      3.69 TIME LEFT: 172796.29
 STEP:  61 TIME =     0.05 SECS, INTEGRAL =      3.74 TIME LEFT: 172796.24
 STEP:  62 TIME =     0.05 SECS, INTEGRAL =      3.79 TIME LEFT: 172796.19
 STEP:  63 TIME =     0.05 SECS, INTEGRAL =      3.84 TIME LEFT: 172796.14
 STEP:  64 TIME =     0.05 SECS, INTEGRAL =      3.89 TIME LEFT: 172796.09
 STEP:  65 TIME =     0.05 SECS, INTEGRAL =      3.94 TIME LEFT: 172796.04
 STEP:  66 TIME =     0.05 SECS, INTEGRAL =      3.99 TIME LEFT: 172795.99
 STEP:  67 TIME =     0.05 SECS, INTEGRAL =      4.04 TIME LEFT: 172795.95
 STEP:  68 TIME =     0.05 SECS, INTEGRAL =      4.09 TIME LEFT: 172795.90
 STEP:  69 TIME =     0.05 SECS, INTEGRAL =      4.14 TIME LEFT: 172795.84
 STEP:  70 TIME =     0.05 SECS, INTEGRAL =      4.19 TIME LEFT: 172795.79
 STEP:  71 TIME =     0.05 SECS, INTEGRAL =      4.24 TIME LEFT: 172795.75
 STEP:  72 TIME =     0.05 SECS, INTEGRAL =      4.29 TIME LEFT: 172795.70
 STEP:  73 TIME =     0.05 SECS, INTEGRAL =      4.34 TIME LEFT: 172795.65
 STEP:  74 TIME =     0.05 SECS, INTEGRAL =      4.39 TIME LEFT: 172795.60
 STEP:  75 TIME =     0.05 SECS, INTEGRAL =      4.44 TIME LEFT: 172795.55
 STEP:  76 TIME =     0.05 SECS, INTEGRAL =      4.48 TIME LEFT: 172795.50
 STEP:  77 TIME =     0.05 SECS, INTEGRAL =      4.54 TIME LEFT: 172795.45
 STEP:  78 TIME =     0.05 SECS, INTEGRAL =      4.59 TIME LEFT: 172795.39
 STEP:  79 TIME =     0.06 SECS, INTEGRAL =      4.65 TIME LEFT: 172795.34
 STEP:  80 TIME =     0.05 SECS, INTEGRAL =      4.69 TIME LEFT: 172795.29
 STEP:  81 TIME =     0.06 SECS, INTEGRAL =      4.75 TIME LEFT: 172795.23
 STEP:  82 TIME =     0.05 SECS, INTEGRAL =      4.81 TIME LEFT: 172795.18
 STEP:  83 TIME =     0.05 SECS, INTEGRAL =      4.85 TIME LEFT: 172795.13
 STEP:  84 TIME =     0.05 SECS, INTEGRAL =      4.90 TIME LEFT: 172795.08
 STEP:  85 TIME =     0.05 SECS, INTEGRAL =      4.96 TIME LEFT: 172795.02
 STEP:  86 TIME =     0.05 SECS, INTEGRAL =      5.01 TIME LEFT: 172794.98
 STEP:  87 TIME =     0.05 SECS, INTEGRAL =      5.05 TIME LEFT: 172794.93

(To convert to Hartree/Bohr^2, multiply by (10^(-21) x N x a0^2)/(4.184 x 627.51) = 0.0642)


           FORCE MATRIX IN MILLIDYNES/ANGSTROM


                  C  1       C  2       C  3       C  4       C  5       C  6
 ------------------------------------------------------------------------------
     C    1  14.197195
     C    2   3.575228  14.562013
     C    3   4.009812   0.619328  14.406242
     C    4   0.628635   3.746100   0.050561  14.253329
     C    5   3.781238   0.623141   0.620838   0.078316  14.535211
     C    6   0.646129   0.099505   4.229097   0.009197   0.054115  14.786420
     C    7   0.075871   0.620567   0.005129   4.447966   0.005296   0.001139
     C    8   0.635483   4.777742   0.063914   0.679051   0.051518   0.842683
     C    9   0.060721   0.807265   0.688500   0.044942   0.004200   5.037540
     C   10   0.643129   0.049600   0.091691   0.004185   4.909198   0.007581
     C   11   0.050506   0.003822   0.008545   0.001442   0.831075   0.002096
     H   12   3.985165   0.430757   0.426637   0.055767   0.413154   0.023426
     H   13   0.434877   4.116512   0.012562   0.422842   0.046237   0.013216
     H   14   0.440996   0.048619   4.474694   0.008620   0.027000   0.431472
     H   15   0.449511   0.019248   4.274736   0.001551   0.026019   0.442410
     H   16   0.047800   0.439995   0.008813   4.501203   0.004294   0.000946
     H   17   0.041207   0.432692   0.001785   4.265593   0.079585   0.001496
     H   18   0.047892   0.009178   0.430331   0.000695   0.009245   4.463192
     H   19   0.012797   0.014103   0.444412   0.000945   0.001080   4.403504
     H   20   0.432482   0.040882   0.048198   0.079226   4.248124   0.009132
     H   21   0.438656   0.047350   0.019441   0.004153   4.444334   0.001689
     H   22   0.003123   0.014845   0.000545   0.463975   0.000536   0.000570
     H   23   0.081043   0.028438   0.002342   0.463801   0.002200   0.000670
     H   24   0.005607   0.051363   0.000489   0.452035   0.000933   0.000347
     H   25   0.004376   0.120243   0.042897   0.014880   0.001020   0.425925
     H   26   0.040284   0.431997   0.003911   0.032351   0.007355   0.121419
     H   27   0.038288   0.009938   0.102968   0.000600   0.438416   0.004003
     H   28   0.006648   0.000839   0.000839   0.000831   0.097697   0.000613
     H   29   0.012682   0.001034   0.001100   0.000418   0.134983   0.000461


                  C  7       C  8       C  9       C 10       C 11       H 12
 ------------------------------------------------------------------------------
     C    7  14.333408
     C    8   0.051400  18.273011
     C    9   0.006637  10.725770  18.244432
     C   10   0.002186   0.005367   0.002831  18.154746
     C   11   0.000745   0.001638   0.001631  11.071610  18.036759
     H   12   0.095153   0.010191   0.006743   0.047724   0.008042   4.520670
     H   13   0.048842   0.384408   0.031537   0.017681   0.005449   0.040055
     H   14   0.000473   0.004316   0.050574   0.004711   0.000590   0.028665
     H   15   0.000806   0.005984   0.008777   0.097105   0.002781   0.042605
     H   16   0.438425   0.023607   0.002107   0.000826   0.000582   0.002387
     H   17   0.437463   0.050708   0.007976   0.002433   0.001028   0.005004
     H   18   0.000165   0.043494   0.432193   0.001081   0.000480   0.001897
     H   19   0.000262   0.030238   0.410465   0.001351   0.000539   0.008015
     H   20   0.002226   0.001947   0.001521   0.448715   0.042057   0.034459
     H   21   0.000672   0.008455   0.001028   0.406204   0.028624   0.036965
     H   22   4.731463   0.009298   0.004014   0.000581   0.000275   0.000852
     H   23   4.549343   0.003400   0.001176   0.000609   0.000676   0.089508
     H   24   4.780507   0.004310   0.000661   0.000626   0.000303   0.002556
     H   25   0.000959   0.443303   4.822126   0.000670   0.000469   0.000572
     H   26   0.009119   4.792339   0.442872   0.000895   0.000642   0.000929
     H   27   0.000716   0.001748   0.001105   4.597157   0.449800   0.002450
     H   28   0.000324   0.000761   0.000768   0.493172   5.074967   0.001234
     H   29   0.000370   0.000697   0.000428   0.462115   5.110479   0.002007


                  H 13       H 14       H 15       H 16       H 17       H 18
 ------------------------------------------------------------------------------
     H   13   4.583771
     H   14   0.001254   5.086782
     H   15   0.007279   0.563517   4.941075
     H   16   0.036201   0.001734   0.000489   5.099438
     H   17   0.033397   0.000519   0.000454   0.535711   4.878423
     H   18   0.000976   0.024018   0.035575   0.000272   0.000348   5.058651
     H   19   0.001887   0.035624   0.042386   0.000349   0.000161   0.567471
     H   20   0.004499   0.001843   0.001751   0.001772   0.063346   0.001817
     H   21   0.002415   0.015386   0.001495   0.000220   0.001466   0.000457
     H   22   0.001708   0.000120   0.000141   0.028230   0.047661   0.000237
     H   23   0.002510   0.000329   0.000504   0.048264   0.022750   0.000215
     H   24   0.008231   0.000195   0.000266   0.024072   0.033304   0.000091
     H   25   0.015534   0.007002   0.001330   0.000548   0.002459   0.035352
     H   26   0.019743   0.000903   0.000472   0.019621   0.002241   0.013905
     H   27   0.009933   0.002568   0.114109   0.000365   0.000923   0.000693
     H   28   0.000621   0.000184   0.000562   0.000153   0.000521   0.000133
     H   29   0.000792   0.000165   0.000617   0.000197   0.000233   0.000130


                  H 19       H 20       H 21       H 22       H 23       H 24
 ------------------------------------------------------------------------------
     H   19   4.999265
     H   20   0.000377   4.852894
     H   21   0.000270   0.527316   5.016629
     H   22   0.000262   0.000709   0.000260   5.460420
     H   23   0.000354   0.001270   0.000329   0.566242   5.306034
     H   24   0.000167   0.000509   0.000245   0.563096   0.545833   5.497534
     H   25   0.019365   0.000392   0.000298   0.000663   0.000196   0.000179
     H   26   0.016873   0.000511   0.001586   0.008189   0.000912   0.000791
     H   27   0.001268   0.034791   0.012943   0.000228   0.000248   0.000238
     H   28   0.000170   0.023333   0.013285   0.000148   0.000169   0.000103
     H   29   0.000170   0.006275   0.017785   0.000090   0.000131   0.000126


                  H 25       H 26       H 27       H 28       H 29
 ------------------------------------------------------------------
     H   25   5.197184
     H   26   0.068753   5.172982
     H   27   0.000571   0.000537   5.028644
     H   28   0.000138   0.000143   0.119769   5.470217
     H   29   0.000163   0.000193   0.081196   0.422833   5.499184


          HEAT OF FORMATION =       0.165821 KCALS/MOLE

          ZERO POINT ENERGY     163.387 KCAL/MOL


           NORMAL COORDINATE ANALYSIS (Total motion = 1 Angstrom)


   Root No.       1         2         3         4         5         6         7         8

                 1 A       2 A       3 A       4 A       5 A       6 A       7 A       8 A   

                  61.5      77.6     139.2     149.4     167.0     226.2     257.0     288.6
  
           1   -0.0149   -0.0036   -0.0075   -0.0021   -0.0094   -0.0011    0.0055    0.0009
           2    0.0030   -0.0121    0.0064   -0.0009   -0.0114   -0.0031    0.0014   -0.0049
           3    0.0088   -0.0041   -0.0047    0.0068    0.0128   -0.0011   -0.0066    0.0059
           4   -0.0149   -0.0033   -0.0074   -0.0021   -0.0099   -0.0012    0.0055    0.0016
           5    0.0004   -0.0147    0.0013    0.0047   -0.0089    0.0005    0.0109    0.0030
           6   -0.0115   -0.0069   -0.0079   -0.0022    0.0112   -0.0089   -0.0080   -0.0207
           7   -0.0130   -0.0074    0.0022   -0.0109   -0.0222   -0.0061   -0.0218    0.0036
           8    0.0038   -0.0138    0.0100   -0.0048   -0.0156   -0.0054   -0.0114   -0.0039
           9    0.0145    0.0107   -0.0006    0.0196    0.0134    0.0106    0.0298   -0.0122
          10   -0.0128   -0.0095   -0.0144    0.0024   -0.0040    0.0026   -0.0014    0.0031
          11   -0.0016   -0.0101   -0.0021    0.0075   -0.0099    0.0029    0.0092    0.0067
          12   -0.0234    0.0230   -0.0123    0.0014   -0.0007   -0.0062   -0.0017   -0.0140
          13   -0.0287   -0.0019   -0.0147    0.0028    0.0007   -0.0040    0.0138    0.0023
          14    0.0055   -0.0023    0.0145    0.0044   -0.0003    0.0014    0.0019   -0.0292
          15    0.0132   -0.0118   -0.0060    0.0018   -0.0013   -0.0034   -0.0122    0.0238
          16    0.0062    0.0019   -0.0041   -0.0020    0.0041    0.0109    0.0128   -0.0001
          17    0.0066   -0.0213   -0.0101   -0.0109    0.0273    0.0088    0.0079   -0.0016
          18    0.0046    0.0115    0.0158    0.0202   -0.0271   -0.0050    0.0054   -0.0128
          19    0.0054    0.0025    0.0269   -0.0305    0.0244   -0.0048   -0.0194   -0.0234
          20   -0.0057    0.0294    0.0249   -0.0144   -0.0142    0.0237    0.0175    0.0297
          21   -0.0204    0.0378    0.0054   -0.0130    0.0043   -0.0018   -0.0024   -0.0127
          22   -0.0012    0.0071   -0.0049    0.0070   -0.0086    0.0008    0.0081    0.0019
          23   -0.0024    0.0003   -0.0076    0.0182   -0.0079   -0.0132   -0.0020   -0.0044
          24   -0.0174   -0.0307    0.0010   -0.0240    0.0077    0.0053    0.0036   -0.0136
          25    0.0080    0.0098   -0.0045    0.0080   -0.0003    0.0036    0.0081   -0.0061
          26    0.0007   -0.0028   -0.0150    0.0158    0.0109   -0.0171   -0.0097   -0.0221
          27   -0.0109   -0.0213    0.0160   -0.0179   -0.0178    0.0153    0.0164    0.0091
          28   -0.0090   -0.0066    0.0310    0.0384    0.0276    0.0012   -0.0042    0.0166
          29   -0.0020    0.0145   -0.0041   -0.0036    0.0077   -0.0008   -0.0048   -0.0121
          30    0.0133   -0.0046   -0.0066    0.0046    0.0070   -0.0036   -0.0187    0.0362
          31    0.0719    0.0108   -0.0040   -0.0054   -0.0037   -0.0006   -0.0005    0.0005
          32   -0.0087    0.0304   -0.0212   -0.0111    0.0200   -0.0034   -0.0193    0.0281
          33    0.0296   -0.0114   -0.0017    0.0026   -0.0050   -0.0024   -0.0104    0.0113
          34   -0.0045   -0.0032   -0.0058   -0.0006   -0.0063    0.0043    0.0093    0.0056
          35    0.0029   -0.0194    0.0055   -0.0086   -0.0208   -0.0125   -0.0143    0.0177
          36    0.0123   -0.0078   -0.0044    0.0029    0.0083   -0.0044   -0.0133    0.0190
          37   -0.0281   -0.0049   -0.0067   -0.0096   -0.0126   -0.0038    0.0068   -0.0098
          38    0.0028   -0.0380    0.0054   -0.0040   -0.0036    0.0067    0.0138    0.0043
          39   -0.0155   -0.0134   -0.0064   -0.0076    0.0112   -0.0076   -0.0061   -0.0237
          40   -0.0130   -0.0073    0.0021   -0.0107   -0.0219   -0.0060   -0.0214    0.0036
          41    0.0052   -0.0174    0.0203   -0.0108   -0.0298   -0.0115   -0.0389    0.0008
          42    0.0320    0.0211   -0.0145    0.0309    0.0504    0.0343    0.0885   -0.0241
          43   -0.0278   -0.0178    0.0196   -0.0220   -0.0595   -0.0294   -0.0856    0.0166
          44    0.0005   -0.0047    0.0130    0.0008   -0.0273   -0.0087   -0.0085   -0.0041
          45    0.0083    0.0124    0.0060    0.0191   -0.0042    0.0018    0.0122   -0.0081
          46   -0.0151   -0.0115   -0.0207    0.0072   -0.0072    0.0038   -0.0001    0.0055
          47   -0.0029   -0.0220   -0.0193    0.0199   -0.0095    0.0074    0.0031    0.0061
          48   -0.0384    0.0131   -0.0489    0.0298   -0.0224    0.0005    0.0098    0.0034
          49   -0.0239   -0.0219   -0.0482    0.0271   -0.0174    0.0092    0.0033    0.0151
          50    0.0015   -0.0242   -0.0048    0.0105   -0.0082   -0.0060    0.0088   -0.0010
          51   -0.0193    0.0447    0.0117   -0.0171    0.0059   -0.0009   -0.0043   -0.0135
          52    0.0101   -0.0183   -0.0037   -0.0308    0.0280    0.0427    0.0402    0.0258
          53    0.0071   -0.0230   -0.0076   -0.0139    0.0255    0.0115    0.0094    0.0016
          54    0.0022    0.0299    0.0345    0.0424   -0.0793   -0.0355   -0.0275   -0.0296
          55    0.0156    0.0249   -0.0078    0.0269    0.0010   -0.0052    0.0082   -0.0220
          56    0.0138   -0.0423   -0.0275   -0.0384    0.0863    0.0494    0.0518    0.0214
          57    0.0125    0.0183    0.0079    0.0285   -0.0099   -0.0016    0.0169   -0.0186
          58   -0.0478    0.0030   -0.0476   -0.0126   -0.0076   -0.0088    0.0256    0.0103
          59   -0.0031   -0.0004    0.0000   -0.0023   -0.0040   -0.0008    0.0068   -0.0251
          60    0.0197   -0.0217    0.0094    0.0114   -0.0028   -0.0025   -0.0127    0.0258
          61   -0.0320   -0.0011   -0.0215   -0.0013   -0.0020   -0.0050    0.0160    0.0038
          62    0.0276   -0.0086    0.0512    0.0220    0.0075    0.0073   -0.0121   -0.0380
          63    0.0095   -0.0125   -0.0228   -0.0157   -0.0187   -0.0051   -0.0085    0.0211
          64    0.0153    0.0107    0.0664   -0.0682    0.0460   -0.1392    0.0317    0.0028
          65   -0.0083    0.0486    0.0232   -0.0074   -0.0229    0.1530   -0.0314    0.0086
          66   -0.0256    0.0163   -0.0222    0.0090   -0.0045   -0.0066   -0.0006   -0.0148
          67    0.0080    0.0045    0.0365   -0.0395    0.0296   -0.0360   -0.0075   -0.0172
          68   -0.0055    0.0369    0.0528   -0.0455   -0.0048   -0.1314    0.0876    0.0773
          69   -0.0062    0.0436    0.0390   -0.0414    0.0266   -0.0664    0.0148   -0.0103
          70    0.0070    0.0016    0.0090   -0.0081    0.0190    0.1538   -0.0943   -0.0748
          71   -0.0064    0.0337    0.0220   -0.0099   -0.0172    0.0728   -0.0025    0.0192
          72   -0.0268    0.0644    0.0122   -0.0167   -0.0063    0.0692   -0.0175   -0.0052
          73    0.0177    0.0179   -0.0043    0.0152    0.0048    0.0026    0.0061   -0.0136
          74   -0.0008    0.0068   -0.0244    0.0299    0.0162   -0.0345   -0.0247   -0.0426
          75   -0.0161   -0.0379    0.0263   -0.0390   -0.0272    0.0357    0.0350    0.0375
          76    0.0006    0.0134   -0.0043    0.0135   -0.0129   -0.0016    0.0068    0.0022
          77   -0.0067    0.0126   -0.0100    0.0327   -0.0196   -0.0234   -0.0095   -0.0034
          78   -0.0281   -0.0553   -0.0031   -0.0490    0.0231    0.0127    0.0067   -0.0148
          79   -0.0610   -0.0247    0.0930    0.0989    0.0706    0.0054   -0.0271    0.0486
          80   -0.0003    0.0149   -0.0056   -0.0052    0.0063   -0.0010   -0.0041   -0.0128
          81    0.0016    0.0065   -0.0078    0.0106    0.0182   -0.0036   -0.0238    0.0563
          82    0.1273    0.0296   -0.0689   -0.0708   -0.0505   -0.0059    0.0207   -0.0325
          83   -0.0102    0.0306   -0.0206   -0.0101    0.0217   -0.0034   -0.0206    0.0311
          84    0.0432   -0.0243    0.0059    0.0011   -0.0243   -0.0006    0.0080   -0.0367
          85    0.0884    0.0075    0.0295    0.0205    0.0146    0.0032   -0.0185    0.0190
          86   -0.0132    0.0445   -0.0380   -0.0197    0.0301   -0.0060   -0.0328    0.0670
          87    0.0302   -0.0049   -0.0043    0.0028    0.0032   -0.0031   -0.0202    0.0338


   Root No.       9        10        11        12        13        14        15        16

                 9 A      10 A      11 A      12 A      13 A      14 A      15 A      16 A   

                 334.3     362.2     387.8     413.2     471.4     487.4     558.2     608.9
  
           1    0.0076    0.0318    0.0061   -0.0236    0.0053    0.0125    0.0069   -0.0088
           2   -0.0057    0.0057   -0.0164   -0.0029    0.0395    0.0009   -0.0014    0.0087
           3   -0.0042   -0.0024   -0.0029    0.0070   -0.0170    0.0066   -0.0325    0.0197
           4    0.0089    0.0310    0.0082   -0.0232    0.0081    0.0090    0.0068    0.0023
           5   -0.0096   -0.0023    0.0021   -0.0120   -0.0036   -0.0320    0.0028   -0.0111
           6   -0.0122   -0.0072    0.0102    0.0027   -0.0117   -0.0099   -0.0177    0.0362
           7    0.0007   -0.0101    0.0066   -0.0041   -0.0360    0.0213    0.0085   -0.0148
           8   -0.0079   -0.0138   -0.0188    0.0065    0.0313    0.0139    0.0031    0.0058
           9   -0.0033   -0.0055    0.0007   -0.0053   -0.0081    0.0290    0.0073   -0.0062
          10    0.0364   -0.0150    0.0173    0.0199    0.0144    0.0244   -0.0042    0.0147
          11    0.0070   -0.0239    0.0055    0.0056   -0.0016   -0.0354    0.0000   -0.0212
          12    0.0218   -0.0141   -0.0090   -0.0034    0.0100   -0.0138    0.0045   -0.0100
          13   -0.0308    0.0161   -0.0313    0.0190    0.0005    0.0072   -0.0089    0.0003
          14    0.0233    0.0193    0.0022    0.0036    0.0028    0.0043   -0.0241    0.0128
          15   -0.0030    0.0071   -0.0018   -0.0084    0.0145    0.0040   -0.0142    0.0048
          16   -0.0059   -0.0189    0.0055    0.0044   -0.0047   -0.0201    0.0035   -0.0049
          17    0.0024   -0.0093   -0.0134   -0.0049   -0.0030    0.0394    0.0116   -0.0062
          18   -0.0109   -0.0118   -0.0047   -0.0017    0.0011    0.0318    0.0105   -0.0054
          19    0.0031   -0.0101   -0.0110    0.0006    0.0080   -0.0049    0.0022   -0.0007
          20   -0.0096    0.0053    0.0243    0.0147   -0.0078    0.0107   -0.0064    0.0066
          21    0.0105   -0.0041   -0.0100   -0.0062    0.0079   -0.0081    0.0058   -0.0100
          22   -0.0016    0.0060    0.0007   -0.0103    0.0028   -0.0370   -0.0157    0.0257
          23    0.0022    0.0004   -0.0131   -0.0263   -0.0266   -0.0070    0.0017    0.0103
          24   -0.0196    0.0055    0.0388    0.0046    0.0090   -0.0086    0.0025    0.0014
          25   -0.0129   -0.0164    0.0112    0.0062   -0.0013   -0.0193    0.0025   -0.0033
          26   -0.0204   -0.0025    0.0220   -0.0065   -0.0152    0.0103    0.0141   -0.0103
          27    0.0079   -0.0153   -0.0154   -0.0147   -0.0208   -0.0100    0.0043    0.0041
          28   -0.0050    0.0032   -0.0083    0.0061    0.0013    0.0016   -0.0241   -0.0220
          29    0.0180    0.0306   -0.0058    0.0308   -0.0196   -0.0132    0.0107   -0.0029
          30   -0.0015    0.0117   -0.0016    0.0021    0.0060   -0.0064    0.0028   -0.0125
          31   -0.0008   -0.0057    0.0019   -0.0040    0.0016    0.0011    0.0048    0.0052
          32   -0.0015   -0.0035    0.0041   -0.0074    0.0043   -0.0028   -0.0004   -0.0029
          33    0.0112    0.0320   -0.0059    0.0240   -0.0080   -0.0142    0.0153   -0.0109
          34    0.0149    0.0409    0.0026   -0.0401    0.0195    0.0072    0.0200   -0.0309
          35   -0.0089    0.0062   -0.0190   -0.0017    0.0549    0.0013   -0.0072    0.0154
          36   -0.0036    0.0021   -0.0057    0.0005   -0.0018    0.0044   -0.0303    0.0148
          37    0.0060    0.0461    0.0134   -0.0362    0.0266    0.0128    0.0333   -0.0141
          38   -0.0296   -0.0013    0.0335    0.0016   -0.0104   -0.0347   -0.0017   -0.0062
          39   -0.0180   -0.0009    0.0208    0.0010   -0.0065   -0.0090   -0.0092    0.0316
          40    0.0005   -0.0098    0.0063   -0.0042   -0.0358    0.0220    0.0090   -0.0152
          41   -0.0159   -0.0525   -0.0201    0.0275   -0.0039    0.0103   -0.0079    0.0093
          42   -0.0028    0.0072    0.0057   -0.0175    0.0427   -0.0045    0.0216   -0.0089
          43   -0.0038   -0.0386    0.0021    0.0160   -0.0964    0.0502   -0.0072   -0.0131
          44   -0.0081   -0.0003   -0.0185    0.0028    0.0527    0.0119    0.0218   -0.0041
          45   -0.0050   -0.0066   -0.0006   -0.0013   -0.0130    0.0359    0.0128   -0.0108
          46    0.0442   -0.0210    0.0197    0.0262    0.0182    0.0266   -0.0047    0.0137
          47    0.0403   -0.0746    0.0092    0.0504    0.0162   -0.0321   -0.0091   -0.0232
          48    0.0620   -0.0353    0.0076    0.0219    0.0268    0.0022    0.0039   -0.0151
          49    0.0778   -0.0592    0.0268    0.0651    0.0357    0.0360   -0.0083    0.0106
          50   -0.0030   -0.0105    0.0081   -0.0120   -0.0118   -0.0444   -0.0022   -0.0114
          51    0.0072   -0.0006   -0.0161   -0.0128    0.0081   -0.0109    0.0085   -0.0168
          52    0.0244   -0.0293   -0.0372   -0.0030   -0.0151   -0.0166   -0.0074    0.0196
          53    0.0052   -0.0112   -0.0206   -0.0042    0.0018    0.0383    0.0093   -0.0015
          54   -0.0387   -0.0099    0.0105    0.0169    0.0586    0.0144    0.0094   -0.0106
          55   -0.0301   -0.0133    0.0337    0.0169    0.0232   -0.0212    0.0106   -0.0220
          56    0.0371   -0.0146   -0.0439   -0.0223   -0.0494    0.0606    0.0099    0.0076
          57   -0.0144   -0.0099    0.0028    0.0003    0.0040    0.0373    0.0142   -0.0113
          58   -0.0725    0.0054   -0.0779    0.0705    0.0036    0.0008    0.0534    0.0417
          59    0.0053    0.0133   -0.0176    0.0253    0.0054    0.0016    0.0017    0.0308
          60   -0.0040   -0.0090   -0.0009   -0.0226    0.0402    0.0120   -0.0386   -0.0037
          61   -0.0383    0.0159   -0.0393    0.0265    0.0013    0.0062    0.0062    0.0095
          62    0.0757    0.0267    0.0589   -0.0572    0.0034    0.0134   -0.0979   -0.0338
          63   -0.0007    0.0197    0.0038   -0.0253    0.0235    0.0055    0.0195    0.0246
          64    0.0029   -0.0093   -0.0071    0.0026   -0.0017   -0.0047    0.0019   -0.0030
          65   -0.0380    0.0271    0.0206    0.0097   -0.0097    0.0304   -0.0097    0.0284
          66    0.0332   -0.0221   -0.0094   -0.0033    0.0166   -0.0236    0.0085   -0.0255
          67    0.0026   -0.0094   -0.0103    0.0006    0.0055   -0.0052    0.0022   -0.0018
          68    0.0084    0.0053    0.0487    0.0340   -0.0108    0.0427   -0.0135    0.0311
          69   -0.0049   -0.0006   -0.0210   -0.0176   -0.0045   -0.0282    0.0091   -0.0286
          70   -0.0239   -0.0056   -0.0399   -0.0204    0.0117   -0.0351    0.0098   -0.0214
          71   -0.0190    0.0108    0.0207    0.0117   -0.0075    0.0127   -0.0065    0.0099
          72   -0.0064    0.0216    0.0059    0.0030    0.0055    0.0416   -0.0032    0.0333
          73   -0.0193   -0.0282    0.0104    0.0193    0.0033    0.0193    0.0129   -0.0156
          74   -0.0406    0.0080    0.0524    0.0006   -0.0142    0.0119    0.0064    0.0120
          75    0.0353   -0.0180   -0.0491   -0.0325   -0.0248   -0.0391    0.0055   -0.0113
          76    0.0018    0.0020   -0.0104   -0.0140   -0.0076   -0.0364   -0.0218    0.0430
          77    0.0184    0.0120   -0.0392   -0.0464   -0.0466    0.0090   -0.0153    0.0640
          78   -0.0269    0.0289    0.0801    0.0140    0.0504   -0.0011    0.0253   -0.0584
          79    0.0153   -0.0047    0.0091   -0.0007    0.0049   -0.0140    0.0530    0.0213
          80    0.0172    0.0300   -0.0061    0.0297   -0.0186   -0.0121    0.0075   -0.0040
          81   -0.0107   -0.0045    0.0020   -0.0085    0.0118   -0.0019    0.0264   -0.0155
          82   -0.0243   -0.0026   -0.0153   -0.0030   -0.0015    0.0267   -0.1232   -0.0741
          83   -0.0021   -0.0059    0.0052   -0.0104    0.0065   -0.0024    0.0009   -0.0007
          84    0.0306    0.0769   -0.0222    0.0772   -0.0435   -0.0284    0.0195   -0.0324
          85    0.0267   -0.0190    0.0304   -0.0173    0.0064   -0.0251    0.1718    0.1262
          86   -0.0226   -0.0420    0.0154   -0.0542    0.0362    0.0133   -0.0257   -0.0006
          87    0.0055    0.0110    0.0045   -0.0011    0.0084   -0.0110    0.0324    0.0108


   Root No.      17        18        19        20        21        22        23        24

                17 A      18 A      19 A      20 A      21 A      22 A      23 A      24 A   

                 663.7     723.7     778.1     848.5     854.5     883.0     903.3     928.1
  
           1    0.0086    0.0009   -0.0172    0.0059    0.0110    0.0006    0.0043    0.0083
           2   -0.0017   -0.0027   -0.0071    0.0016   -0.0098    0.0039    0.0082    0.0111
           3    0.0327    0.0221    0.0039   -0.0061    0.0019   -0.0078   -0.0255    0.0009
           4    0.0007   -0.0069    0.0160   -0.0047   -0.0070   -0.0078   -0.0132   -0.0103
           5    0.0122   -0.0063    0.0053    0.0005   -0.0071    0.0011   -0.0102   -0.0074
           6   -0.0179   -0.0098    0.0045    0.0053    0.0234    0.0018    0.0269    0.0148
           7    0.0097    0.0037   -0.0131    0.0012    0.0184   -0.0175    0.0187    0.0143
           8   -0.0118   -0.0057    0.0081   -0.0001    0.0085    0.0001   -0.0065   -0.0001
           9    0.0128   -0.0081    0.0112    0.0038   -0.0020   -0.0015    0.0050   -0.0041
          10   -0.0155    0.0037    0.0132   -0.0305   -0.0047    0.0038   -0.0041   -0.0026
          11    0.0254   -0.0135   -0.0052   -0.0139    0.0141   -0.0042    0.0070    0.0032
          12    0.0054   -0.0030    0.0016   -0.0102    0.0025   -0.0001    0.0037    0.0022
          13    0.0132    0.0088   -0.0153    0.0008    0.0150    0.0327    0.0025   -0.0076
          14    0.0227    0.0167   -0.0155   -0.0056   -0.0169   -0.0066    0.0215   -0.0111
          15    0.0134    0.0114   -0.0117   -0.0031   -0.0066   -0.0014   -0.0056    0.0120
          16   -0.0122    0.0158   -0.0103   -0.0058   -0.0037    0.0009   -0.0016   -0.0027
          17    0.0005   -0.0002    0.0155    0.0045    0.0266   -0.0165   -0.0129   -0.0181
          18    0.0027   -0.0196    0.0043    0.0023   -0.0034    0.0086    0.0052    0.0100
          19   -0.0030   -0.0008    0.0010   -0.0060   -0.0004    0.0024    0.0036    0.0021
          20    0.0011   -0.0023   -0.0014   -0.0074    0.0080   -0.0021    0.0059    0.0035
          21    0.0046    0.0004    0.0006   -0.0024   -0.0059    0.0005   -0.0081   -0.0056
          22    0.0050   -0.0239    0.0351    0.0188    0.0043   -0.0049   -0.0010   -0.0012
          23   -0.0188    0.0147    0.0140    0.0072   -0.0087    0.0059    0.0035    0.0068
          24   -0.0024   -0.0150   -0.0065    0.0016   -0.0025   -0.0082   -0.0115   -0.0113
          25   -0.0085    0.0087   -0.0034   -0.0010   -0.0116    0.0095   -0.0034    0.0003
          26   -0.0172    0.0241   -0.0014    0.0014   -0.0166    0.0106    0.0011    0.0037
          27   -0.0266    0.0145   -0.0235   -0.0082   -0.0129    0.0007   -0.0170   -0.0056
          28   -0.0138   -0.0038    0.0031   -0.0006   -0.0019   -0.0010   -0.0042   -0.0023
          29   -0.0041   -0.0010    0.0032    0.0002    0.0021   -0.0019   -0.0066    0.0020
          30   -0.0125   -0.0053   -0.0010    0.0006    0.0001    0.0035    0.0101   -0.0084
          31    0.0036    0.0011    0.0002   -0.0002   -0.0015   -0.0034   -0.0034    0.0035
          32   -0.0037   -0.0013    0.0007    0.0009    0.0037    0.0021   -0.0142    0.0155
          33   -0.0135   -0.0063   -0.0002    0.0008    0.0004    0.0036    0.0191   -0.0198
          34    0.0265    0.0035   -0.0226    0.0163   -0.0191   -0.0144   -0.0374    0.0019
          35   -0.0106    0.0052   -0.0179   -0.0057   -0.0077    0.0004   -0.0146    0.0570
          36    0.0343    0.0276   -0.0065   -0.0054   -0.0072   -0.0149   -0.0509    0.0255
          37   -0.0203   -0.0264   -0.0016    0.0083   -0.0168   -0.0096    0.0099   -0.0165
          38    0.0149   -0.0280   -0.0091   -0.0021    0.0012   -0.0055   -0.0241   -0.0324
          39   -0.0245   -0.0218   -0.0039    0.0090    0.0210   -0.0008    0.0298    0.0055
          40    0.0104    0.0029   -0.0129    0.0016    0.0188   -0.0177    0.0191    0.0148
          41    0.0008   -0.0193    0.0498   -0.0059   -0.0389    0.0323   -0.0406   -0.0528
          42   -0.0446    0.0429   -0.0411   -0.0104    0.0602   -0.0529    0.0257    0.0264
          43    0.0683   -0.0455    0.0512    0.0123   -0.0538    0.0347   -0.0088   -0.0330
          44   -0.0342   -0.0253   -0.0020    0.0067    0.0142    0.0127    0.0218    0.0346
          45    0.0167   -0.0315    0.0241    0.0103   -0.0177    0.0190    0.0112    0.0010
          46   -0.0150    0.0045    0.0060    0.0006   -0.0078    0.0014   -0.0069   -0.0045
          47    0.0250   -0.0083   -0.0524    0.1074    0.0166    0.0004    0.0243    0.0202
          48    0.0072    0.0019   -0.0264    0.1367   -0.0186   -0.0147   -0.0222   -0.0165
          49   -0.0143    0.0119   -0.0325    0.1361   -0.0207   -0.0025   -0.0112   -0.0054
          50    0.0219   -0.0209    0.0098   -0.0302    0.0224   -0.0091    0.0111   -0.0002
          51    0.0076   -0.0005    0.0135   -0.0900    0.0032    0.0090    0.0026    0.0066
          52   -0.0085   -0.0598   -0.0252   -0.0116   -0.0389    0.0391    0.0104    0.0338
          53   -0.0006   -0.0092    0.0158    0.0034    0.0291   -0.0153   -0.0163   -0.0172
          54   -0.0125    0.0470    0.0268    0.0001    0.0765   -0.0473   -0.0440   -0.0450
          55   -0.0055    0.0544    0.0238    0.0016    0.0179   -0.0106   -0.0065   -0.0360
          56    0.0186   -0.0981    0.0033    0.0090   -0.0510    0.0487    0.0338    0.0409
          57    0.0122   -0.0257    0.0214    0.0083   -0.0133    0.0209    0.0166    0.0082
          58    0.0337    0.0201   -0.0023   -0.0153   -0.0577   -0.0662    0.0330   -0.0061
          59    0.0313    0.0216   -0.0101   -0.0120   -0.0484   -0.0483    0.0339   -0.0099
          60    0.0026    0.0071   -0.0145   -0.0057   -0.0087    0.0251   -0.0130    0.0301
          61    0.0192    0.0114   -0.0146   -0.0021    0.0020    0.0119    0.0073   -0.0022
          62    0.0009    0.0060   -0.0366    0.0169    0.0656    0.1153   -0.0060   -0.0184
          63    0.0371    0.0192   -0.0375    0.0017   -0.0087   -0.0191    0.0051    0.0539
          64    0.0022    0.0008   -0.0146    0.0759   -0.0041   -0.0081   -0.0052   -0.0059
          65   -0.0214    0.0081   -0.0035    0.0570   -0.0084    0.0008   -0.0015   -0.0008
          66    0.0186   -0.0088    0.0132   -0.1092    0.0093    0.0056    0.0036    0.0034
          67   -0.0009   -0.0002   -0.0037    0.0188   -0.0020   -0.0009   -0.0004   -0.0007
          68   -0.0247    0.0065    0.0058    0.0009   -0.0045    0.0084    0.0072    0.0049
          69    0.0298   -0.0011   -0.0264    0.1090   -0.0055   -0.0215   -0.0275   -0.0190
          70    0.0171   -0.0079   -0.0138    0.0402    0.0063   -0.0111   -0.0002   -0.0008
          71   -0.0027   -0.0003   -0.0030    0.0126    0.0042   -0.0024    0.0034    0.0021
          72   -0.0410    0.0214    0.0113    0.0462   -0.0375    0.0165   -0.0199   -0.0117
          73   -0.0036   -0.0218   -0.0513   -0.0281   -0.0026    0.0041   -0.0245   -0.0077
          74   -0.0220   -0.0619   -0.0823   -0.0243   -0.0505   -0.0013   -0.0453   -0.0017
          75   -0.0252    0.1324    0.1027    0.0407    0.0176    0.0181    0.0495    0.0060
          76   -0.0095   -0.0449    0.0029    0.0122    0.0148   -0.0197   -0.0131   -0.0208
          77   -0.0509   -0.0502   -0.0456    0.0007    0.0235   -0.0482   -0.0293   -0.0482
          78    0.0520    0.0546    0.1215    0.0318   -0.0376    0.0372    0.0304    0.0561
          79    0.0061   -0.0025    0.0100   -0.0026   -0.0502   -0.1106    0.0385    0.0527
          80   -0.0042   -0.0008    0.0024    0.0001    0.0030    0.0014   -0.0064   -0.0005
          81   -0.0237   -0.0239    0.0148    0.0084    0.0096    0.0063   -0.0069    0.0268
          82   -0.0390   -0.0155    0.0164   -0.0019   -0.0371   -0.0684    0.0349    0.0188
          83   -0.0019   -0.0002   -0.0010    0.0005    0.0028    0.0033   -0.0080    0.0081
          84   -0.0357   -0.0205    0.0216    0.0077    0.0219    0.0020   -0.0853    0.0947
          85    0.0772    0.0294   -0.0264    0.0017    0.0380    0.0667   -0.0179   -0.0061
          86    0.0045    0.0060   -0.0163   -0.0048   -0.0201   -0.0020    0.0934   -0.0927
          87    0.0025    0.0017   -0.0130   -0.0015   -0.0040    0.0143    0.0697   -0.0750


   Root No.      25        26        27        28        29        30        31        32

                25 A      26 A      27 A      28 A      29 A      30 A      31 A      32 A   

                 948.2     967.2     976.4     996.0    1009.4    1025.2    1033.3    1061.0
  
           1    0.0097   -0.0014    0.0039   -0.0136    0.0051   -0.0026    0.0010    0.0025
           2   -0.0014   -0.0089    0.0071    0.0005   -0.0089   -0.0007   -0.0074   -0.0056
           3   -0.0047    0.0094   -0.0090    0.0021    0.0040    0.0082    0.0135   -0.0108
           4   -0.0025   -0.0042   -0.0194    0.0090    0.0041    0.0055    0.0009   -0.0029
           5   -0.0015    0.0084    0.0250    0.0051    0.0080    0.0021   -0.0031   -0.0010
           6    0.0071   -0.0070   -0.0081   -0.0064    0.0151    0.0007   -0.0119    0.0079
           7   -0.0249    0.0061    0.0148    0.0175   -0.0063    0.0022    0.0022   -0.0042
           8   -0.0030    0.0073   -0.0068    0.0114    0.0050   -0.0007    0.0128   -0.0012
           9    0.0009   -0.0088    0.0049    0.0151   -0.0073   -0.0125   -0.0088    0.0025
          10    0.0001    0.0028    0.0060    0.0028    0.0096    0.0079    0.0000   -0.0039
          11    0.0019   -0.0039   -0.0074    0.0004    0.0077    0.0024   -0.0097   -0.0167
          12    0.0008   -0.0037   -0.0115   -0.0005    0.0022    0.0009   -0.0087   -0.0142
          13    0.0165    0.0114   -0.0011    0.0081   -0.0029   -0.0085    0.0039   -0.0050
          14   -0.0045   -0.0051    0.0017   -0.0006   -0.0014    0.0001   -0.0084    0.0095
          15    0.0013   -0.0082    0.0027    0.0014    0.0004   -0.0013   -0.0057    0.0069
          16    0.0032   -0.0055   -0.0059    0.0205    0.0070   -0.0077   -0.0021    0.0013
          17    0.0061    0.0055    0.0020   -0.0239   -0.0049   -0.0025   -0.0119    0.0035
          18   -0.0032    0.0052   -0.0010   -0.0123    0.0049    0.0135    0.0117   -0.0022
          19   -0.0002    0.0003    0.0066   -0.0018   -0.0065   -0.0061   -0.0023    0.0003
          20    0.0027   -0.0081   -0.0250   -0.0047   -0.0091   -0.0008    0.0092    0.0142
          21   -0.0012    0.0065    0.0226    0.0024    0.0016    0.0014    0.0083    0.0122
          22   -0.0122    0.0131    0.0056   -0.0145   -0.0193   -0.0057    0.0015    0.0011
          23   -0.0097    0.0120   -0.0083    0.0026    0.0010   -0.0074   -0.0033    0.0084
          24    0.0030   -0.0113    0.0085    0.0031   -0.0168    0.0019    0.0152   -0.0123
          25    0.0086   -0.0022   -0.0003   -0.0261   -0.0040    0.0113    0.0032   -0.0012
          26    0.0055   -0.0085   -0.0003   -0.0071   -0.0054    0.0104    0.0162   -0.0023
          27   -0.0025    0.0134   -0.0134   -0.0169   -0.0071   -0.0092   -0.0149    0.0009
          28   -0.0224   -0.0116    0.0015   -0.0024   -0.0029    0.0135   -0.0090    0.0107
          29    0.0007    0.0032   -0.0015   -0.0037    0.0022    0.0015    0.0073   -0.0063
          30   -0.0033   -0.0006    0.0005    0.0016   -0.0020    0.0011   -0.0050    0.0046
          31   -0.0100   -0.0114    0.0025   -0.0136    0.0159   -0.0231    0.0119   -0.0075
          32    0.0023   -0.0060    0.0026    0.0040   -0.0022   -0.0013   -0.0071    0.0055
          33   -0.0022    0.0064   -0.0017   -0.0039    0.0019   -0.0030    0.0053   -0.0048
          34    0.0165   -0.0141    0.0079   -0.0220    0.0145    0.0071    0.0099    0.0036
          35   -0.0140   -0.0101    0.0049   -0.0119   -0.0142    0.0296    0.0201   -0.0633
          36   -0.0089    0.0033   -0.0082   -0.0081    0.0044    0.0279    0.0307   -0.0412
          37    0.0244   -0.0530   -0.0586    0.0232    0.0314    0.0095   -0.0489    0.0254
          38    0.0146    0.0140    0.1317    0.0325    0.0744    0.0461    0.0311    0.1128
          39    0.0200   -0.0223    0.0057    0.0064    0.0417    0.0139   -0.0195    0.0479
          40   -0.0243    0.0059    0.0157    0.0161   -0.0062    0.0028    0.0021   -0.0045
          41    0.0274   -0.0155   -0.0432    0.1046    0.0232   -0.0603    0.0070    0.0237
          42   -0.0679    0.0318    0.0066    0.0993    0.0000   -0.0155    0.0248   -0.0028
          43    0.0481   -0.0419    0.0036   -0.0017   -0.0081   -0.0289   -0.0351    0.0093
          44   -0.0070    0.0066    0.0083    0.0006   -0.0007    0.0164    0.0284   -0.0186
          45    0.0190   -0.0218    0.0091    0.0040   -0.0103   -0.0121   -0.0107   -0.0027
          46   -0.0007    0.0017   -0.0016    0.0036    0.0079    0.0087    0.0024   -0.0001
          47    0.0030    0.0015    0.0433   -0.0241   -0.0518   -0.0528    0.0032    0.0228
          48   -0.0046   -0.0090   -0.0616    0.0137    0.0103    0.0220    0.0044   -0.0010
          49   -0.0045    0.0044    0.0077   -0.0038   -0.0239   -0.0108    0.0196    0.0376
          50    0.0055   -0.0051   -0.0163    0.0151    0.0767    0.0351   -0.0456   -0.0566
          51    0.0000   -0.0025   -0.0005   -0.0106   -0.0452   -0.0201    0.0152    0.0005
          52   -0.0111    0.0205   -0.0384    0.0570    0.0743    0.0172    0.0598    0.0390
          53    0.0043    0.0145   -0.0069   -0.0180    0.0117    0.0004   -0.0002    0.0165
          54    0.0096    0.0314   -0.0196   -0.0271    0.0311   -0.0032   -0.0026    0.0400
          55    0.0436   -0.0567    0.0095    0.0458   -0.0066   -0.0435   -0.0439   -0.0376
          56   -0.0036   -0.0089    0.0073   -0.0083   -0.0010    0.0248    0.0275   -0.0243
          57    0.0170   -0.0292    0.0101    0.0080   -0.0026    0.0005   -0.0007   -0.0340
          58   -0.0325   -0.0246    0.0058   -0.0039   -0.0048    0.0105   -0.0212    0.0201
          59   -0.0266   -0.0213    0.0052   -0.0049   -0.0037    0.0092   -0.0202    0.0201
[...]
 T-DIPOLE    0.1043        C  3 --  C  6          +11.1% ( 51.1%)    71.9%
 TRAVEL      0.0693        C  2 --  C  8          +10.7% ( 50.3%)    98.8%
 RED. MASS   1.5467        C  6 --  H 18           +8.0% ( 43.4%)     0.3%
 EFF. MASS   9.7271

 VIBRATION   62   62A       ATOM PAIR        ENERGY CONTRIBUTION    RADIAL
 FREQ.      1862.00        C 10 --  C 11          +45.3% ( 99.4%)    99.0%
 T-DIPOLE    0.1890        C  5 --  C 10          +16.7% ( 60.4%)    53.7%
 TRAVEL      0.0554        C 10 --  H 27          +15.5% ( 58.1%)     4.4%
 RED. MASS   5.3046        C 11 --  H 28          +10.9% ( 48.8%)    10.9%
 EFF. MASS  11.7966        C 11 --  H 29          +10.7% ( 48.4%)    13.0%

 VIBRATION   63   63A       ATOM PAIR        ENERGY CONTRIBUTION    RADIAL
 FREQ.      1884.97        C  8 --  C  9          +44.3% ( 98.2%)   100.0%
 T-DIPOLE    0.1008        C  2 --  C  8          +14.3% ( 55.8%)    52.3%
 TRAVEL      0.0549        C  6 --  C  9          +14.1% ( 55.5%)    52.4%
 RED. MASS   5.4223        C  8 --  H 26          +13.2% ( 53.6%)     4.7%
 EFF. MASS  11.8806        C  9 --  H 25          +13.0% ( 53.2%)     4.5%

 VIBRATION   64   64A       ATOM PAIR        ENERGY CONTRIBUTION    RADIAL
 FREQ.      2810.12        C  1 --  H 12          +95.0% ( 99.2%)   100.0%
 T-DIPOLE    0.1073        C  2 --  H 13           +1.2% ( 11.2%)    99.5%
 TRAVEL      0.1291        C  1 --  C  2           +1.1% ( 10.5%)     7.8%
 RED. MASS   0.8977        C  1 --  C  3           +1.0% ( 10.4%)     9.2%
 EFF. MASS   1.4391

 VIBRATION   65   65A       ATOM PAIR        ENERGY CONTRIBUTION    RADIAL
 FREQ.      2845.38        C  2 --  H 13          +95.7% ( 99.3%)   100.0%
 T-DIPOLE    0.1026        C  1 --  H 12           +1.2% ( 10.9%)    99.5%
 TRAVEL      0.1284        C  2 --  C  4           +1.0% ( 10.2%)     8.1%
 RED. MASS   0.9047        C  2 --  C  8           +1.0% ( 10.2%)     6.9%
 EFF. MASS   1.4366

 VIBRATION   66   66A       ATOM PAIR        ENERGY CONTRIBUTION    RADIAL
 FREQ.      2899.31        C  5 --  H 20          +53.7% ( 75.7%)    99.3%
 T-DIPOLE    0.0581        C  4 --  H 17          +31.0% ( 57.5%)    99.5%
 TRAVEL      0.1244        C  5 --  H 21           +9.1% ( 31.1%)    85.2%
 RED. MASS   0.4094        C  4 --  H 16           +3.8% ( 20.1%)    81.2%
 EFF. MASS   1.5040

 VIBRATION   67   67A       ATOM PAIR        ENERGY CONTRIBUTION    RADIAL
 FREQ.      2922.12        C  3 --  H 15          +69.1% ( 86.1%)    98.6%
 T-DIPOLE    0.0619        C  3 --  H 14          +20.2% ( 46.5%)    90.6%
 TRAVEL      0.1233        C  6 --  H 19           +4.2% ( 21.1%)    97.3%
 RED. MASS   0.5525        C  6 --  H 18           +2.2% ( 15.4%)    93.9%
 EFF. MASS   1.5177

 VIBRATION   68   68A       ATOM PAIR        ENERGY CONTRIBUTION    RADIAL
 FREQ.      2927.26        C  4 --  H 17          +51.0% ( 73.4%)    99.1%
 T-DIPOLE    0.0522        C  5 --  H 20          +25.8% ( 52.2%)    98.6%
 TRAVEL      0.1232        C  4 --  H 16          +10.9% ( 33.9%)    87.7%
 RED. MASS   0.3671        C  5 --  H 21           +9.2% ( 31.2%)    91.8%
 EFF. MASS   1.5170

 VIBRATION   69   69A       ATOM PAIR        ENERGY CONTRIBUTION    RADIAL
 FREQ.      2946.41        C  6 --  H 19          +54.7% ( 76.6%)    97.5%
 T-DIPOLE    0.0271        C  6 --  H 18          +36.9% ( 62.9%)    95.3%
 TRAVEL      0.1222        C  3 --  H 15           +4.4% ( 21.8%)    98.7%
 RED. MASS   0.4714        C  3 --  H 14           +1.6% ( 13.1%)    92.7%
 EFF. MASS   1.5318

 VIBRATION   70   70A       ATOM PAIR        ENERGY CONTRIBUTION    RADIAL
 FREQ.      2993.00        C 10 --  H 27          +82.8% ( 92.2%)   100.0%
 T-DIPOLE    0.2739        C  5 --  H 21           +9.4% ( 31.1%)    99.9%
 TRAVEL      0.1229        C  3 --  H 14           +3.5% ( 18.9%)    99.6%
 RED. MASS   0.6825        C  5 --  C 10           +1.3% ( 11.7%)    17.6%
 EFF. MASS   1.4916

 VIBRATION   71   71A       ATOM PAIR        ENERGY CONTRIBUTION    RADIAL
 FREQ.      2997.82        C  5 --  H 21          +71.6% ( 84.2%)    99.7%
 T-DIPOLE    0.1435        C  5 --  H 20          +14.3% ( 37.7%)    85.0%
 TRAVEL      0.1302        C 10 --  H 27          +10.5% ( 32.3%)   100.0%
 RED. MASS   0.5240        C  4 --  H 16           +1.6% ( 12.7%)    99.7%
 EFF. MASS   1.3260

 VIBRATION   72   72A       ATOM PAIR        ENERGY CONTRIBUTION    RADIAL
 FREQ.      3017.07        C  4 --  H 16          +81.7% ( 90.0%)    99.8%
 T-DIPOLE    0.0368        C  4 --  H 17          +12.9% ( 35.7%)    80.9%
 TRAVEL      0.1300        C  7 --  H 23           +1.8% ( 13.5%)    98.7%
 RED. MASS   0.6552        C  5 --  H 20           +0.8% (  8.6%)    97.9%
 EFF. MASS   1.3218

 VIBRATION   73   73A       ATOM PAIR        ENERGY CONTRIBUTION    RADIAL
 FREQ.      3019.41        C  3 --  H 14          +54.4% ( 73.0%)    99.5%
 T-DIPOLE    0.0557        C  3 --  H 15          +16.3% ( 40.0%)    90.8%
 TRAVEL      0.1311        C  6 --  H 18          +15.0% ( 38.4%)    98.6%
 RED. MASS   0.3439        C  6 --  H 19          +10.6% ( 32.2%)    96.4%
 EFF. MASS   1.2993

 VIBRATION   74   74A       ATOM PAIR        ENERGY CONTRIBUTION    RADIAL
 FREQ.      3026.86        C  6 --  H 18          +43.4% ( 65.0%)    98.7%
 T-DIPOLE    0.0507        C  6 --  H 19          +27.1% ( 51.4%)    96.0%
 TRAVEL      0.1315        C  3 --  H 14          +20.4% ( 44.6%)    99.6%
 RED. MASS   0.3025        C  3 --  H 15           +5.1% ( 22.3%)    89.2%
 EFF. MASS   1.2892

 VIBRATION   75   75A       ATOM PAIR        ENERGY CONTRIBUTION    RADIAL
 FREQ.      3040.12        C  8 --  H 26          +66.4% ( 82.7%)   100.0%
 T-DIPOLE    0.2783        C  9 --  H 25          +28.2% ( 53.9%)   100.0%
 TRAVEL      0.1233        C  7 --  H 23           +1.6% ( 12.9%)    99.3%
 RED. MASS   0.5087        C  8 --  C  9           +1.1% ( 10.6%)     2.7%
 EFF. MASS   1.4592

 VIBRATION   76   76A       ATOM PAIR        ENERGY CONTRIBUTION    RADIAL
 FREQ.      3042.09        C  7 --  H 23          +77.8% ( 90.5%)    99.4%
 T-DIPOLE    0.0300        C  7 --  H 22          +13.0% ( 37.0%)    83.6%
 TRAVEL      0.1225        C  7 --  H 24           +4.0% ( 20.6%)    54.7%
 RED. MASS   0.6414        C  4 --  H 16           +2.1% ( 15.0%)    99.9%
 EFF. MASS   1.4781

 VIBRATION   77   77A       ATOM PAIR        ENERGY CONTRIBUTION    RADIAL
 FREQ.      3062.01        C  9 --  H 25          +65.9% ( 82.3%)    99.9%
 T-DIPOLE    0.2753        C  8 --  H 26          +29.3% ( 54.9%)    99.8%
 TRAVEL      0.1180        C  8 --  C  9           +2.0% ( 14.2%)    93.9%
 RED. MASS   0.5198        C  6 --  C  9           +1.1% ( 10.4%)    18.0%
 EFF. MASS   1.5802

 VIBRATION   78   78A       ATOM PAIR        ENERGY CONTRIBUTION    RADIAL
 FREQ.      3086.51        C  7 --  H 24          +48.1% ( 71.5%)    97.4%
 T-DIPOLE    0.0176        C  7 --  H 22          +48.1% ( 71.5%)    96.6%
 TRAVEL      0.1204        C  7 --  H 23           +2.6% ( 16.6%)    29.7%
 RED. MASS   0.4942        C  4 --  C  7           +1.0% ( 10.4%)     0.0%
 EFF. MASS   1.5075

 VIBRATION   79   79A       ATOM PAIR        ENERGY CONTRIBUTION    RADIAL
 FREQ.      3136.62        C 11 --  H 28          +92.4% ( 97.8%)    99.9%
 T-DIPOLE    0.1932        C 11 --  H 29           +6.3% ( 25.5%)    69.4%
 TRAVEL      0.1183        C 10 --  C 11           +1.3% ( 11.7%)    23.0%
 RED. MASS   0.8619
 EFF. MASS   1.5362

 VIBRATION   80   80A       ATOM PAIR        ENERGY CONTRIBUTION    RADIAL
 FREQ.      3147.97        C 11 --  H 29          +92.8% ( 97.0%)    99.7%
 T-DIPOLE    0.2570        C 11 --  H 28           +5.3% ( 23.1%)    37.1%
 TRAVEL      0.1210        C 10 --  C 11           +1.5% ( 12.5%)    69.2%
 RED. MASS   0.8354        C 10 --  H 27           +0.4% (  6.0%)    90.5%
 EFF. MASS   1.4627

 VIBRATION   81   81A       ATOM PAIR        ENERGY CONTRIBUTION    RADIAL
 FREQ.      3166.11        C  7 --  H 24          +48.3% ( 67.2%)    98.5%
 T-DIPOLE    0.0173        C  7 --  H 22          +38.0% ( 59.6%)    97.2%
 TRAVEL      0.1357        C  7 --  H 23          +13.3% ( 35.3%)    88.3%
 RED. MASS   0.3813        C  4 --  C  7           +0.3% (  5.5%)    83.0%
 EFF. MASS   1.1563

 SYMMETRY NUMBER FOR POINT-GROUP C1  =  1


          SYSTEM IS A GROUND STATE


    NULL



          MOLECULE IS NOT LINEAR

          THERE ARE 81 GENUINE VIBRATIONS IN THIS SYSTEM
          THIS THERMODYNAMICS CALCULATION IS LIMITED TO
          MOLECULES WHICH HAVE NO INTERNAL ROTATIONS




                    CALCULATED THERMODYNAMIC PROPERTIES
                                          *
   TEMP. (K)   PARTITION FUNCTION   H.O.F.    ENTHALPY  HEAT CAPACITY ENTROPY
                                   KCAL/MOL   CAL/MOLE    CAL/K/MOL  CAL/K/MOL


 298.00  VIB.     0.9877D+03                  5277.8583    38.7948    31.4135
         ROT.     0.9924D+06                   888.2813     2.9808    30.4200
         INT.     0.9802D+09                  6166.1396    41.7756    61.8335
         TRA.     0.1781D+28                  1480.4688     4.9680    40.9296
         TOT.                        0.166    7646.6084    46.7436   102.7631

 200.00  VIB.     0.5769D+02                  2230.2450    23.8793    19.2096
         ROT.     0.5457D+06                   596.1620     2.9808    29.2313
         INT.     0.3148D+08                  2826.4070    26.8601    48.4409
         TRA.     0.9791D+27                   993.6033     4.9680    38.9485
         TOT.                       -3.661    3820.0102    31.8281    87.3894

 210.00  VIB.     0.7645D+02                  2475.8843    25.2548    20.4078
         ROT.     0.5871D+06                   625.9700     2.9808    29.3767
         INT.     0.4488D+08                  3101.8543    28.2356    49.7845
         TRA.     0.1053D+28                  1043.2834     4.9680    39.1909
         TOT.                       -3.336    4145.1377    33.2036    88.9754

 220.00  VIB.     0.1015D+03                  2735.4678    26.6683    21.6151
         ROT.     0.6295D+06                   655.7781     2.9808    29.5154
         INT.     0.6390D+08                  3391.2460    29.6491    51.1305
         TRA.     0.1130D+28                  1092.9636     4.9680    39.4220
         TOT.                       -2.997    4484.2095    34.6171    90.5525

 230.00  VIB.     0.1350D+03                  3009.3759    28.1196    22.8324
         ROT.     0.6729D+06                   685.5862     2.9808    29.6479
         INT.     0.9086D+08                  3694.9621    31.1004    52.4803
         TRA.     0.1207D+28                  1142.6437     4.9680    39.6428
         TOT.                       -2.643    4837.6059    36.0684    92.1232

 240.00  VIB.     0.1799D+03                  3297.9810    29.6074    24.0605
         ROT.     0.7173D+06                   715.3943     2.9808    29.7748
         INT.     0.1291D+09                  4013.3754    32.5882    53.8353
         TRA.     0.1287D+28                  1192.3239     4.9680    39.8543
         TOT.                       -2.275    5205.6993    37.5562    93.6895

 250.00  VIB.     0.2403D+03                  3601.6371    31.1293    25.2999
         ROT.     0.7626D+06                   745.2024     2.9808    29.8965
         INT.     0.1832D+09                  4346.8395    34.1101    55.1963
         TRA.     0.1368D+28                  1242.0041     4.9680    40.0571
         TOT.                       -1.892    5588.8436    39.0781    95.2534

 260.00  VIB.     0.3214D+03                  3920.6698    32.6821    26.5509
         ROT.     0.8088D+06                   775.0105     2.9808    30.0134
         INT.     0.2599D+09                  4695.6803    35.6629    56.5643
         TRA.     0.1451D+28                  1291.6842     4.9680    40.2519
         TOT.                       -1.493    5987.3645    40.6309    96.8162

 270.00  VIB.     0.4307D+03                  4255.3702    34.2622    27.8139
         ROT.     0.8559D+06                   804.8186     2.9808    30.1259
         INT.     0.3686D+09                  5060.1888    37.2430    57.9398
         TRA.     0.1536D+28                  1341.3644     4.9680    40.4394
         TOT.                       -1.079    6401.5532    42.2110    98.3792

 280.00  VIB.     0.5783D+03                  4605.9896    35.8652    29.0889
         ROT.     0.9039D+06                   834.6267     2.9808    30.2343
         INT.     0.5227D+09                  5440.6163    38.8460    59.3231
         TRA.     0.1622D+28                  1391.0445     4.9680    40.6201
         TOT.                       -0.649    6831.6609    43.8140    99.9432

 290.00  VIB.     0.7780D+03                  4972.7367    37.4869    30.3757
         ROT.     0.9527D+06                   864.4348     2.9808    30.3389
         INT.     0.7412D+09                  5837.1715    40.4678    60.7145
         TRA.     0.1710D+28                  1440.7247     4.9680    40.7944
         TOT.                       -0.203    7277.8962    45.4358   101.5090

 300.00  VIB.     0.1049D+04                  5355.7759    39.1229    31.6741
         ROT.     0.1002D+07                   894.2429     2.9808    30.4399
         INT.     0.1051D+10                  6250.0188    42.1037    62.1140
         TRA.     0.1799D+28                  1490.4049     4.9680    40.9628
         TOT.                        0.260    7740.4237    47.0717   103.0768

 310.00  VIB.     0.1416D+04                  5755.2276    40.7687    32.9837
         ROT.     0.1053D+07                   924.0510     2.9808    30.5377
         INT.     0.1491D+10                  6679.2786    43.7495    63.5214
         TRA.     0.1889D+28                  1540.0850     4.9680    41.1257
         TOT.                        0.739    8219.3636    48.7175   104.6471

 320.00  VIB.     0.1916D+04                  6171.1687    42.4201    34.3041
         ROT.     0.1104D+07                   953.8591     2.9808    30.6323
         INT.     0.2116D+10                  7125.0278    45.4009    64.9364
         TRA.     0.1982D+28                  1589.7652     4.9680    41.2835
         TOT.                        1.234    8714.7930    50.3689   106.2199

 330.00  VIB.     0.2597D+04                  6603.6346    44.0730    35.6348
         ROT.     0.1157D+07                   983.6672     2.9808    30.7240
         INT.     0.3004D+10                  7587.3019    47.0538    66.3588
         TRA.     0.2075D+28                  1639.4454     4.9680    41.4364
         TOT.                        1.746    9226.7472    52.0219   107.7952

 340.00  VIB.     0.3527D+04                  7052.6219    45.7238    36.9750
         ROT.     0.1209D+07                  1013.4753     2.9808    30.8130
         INT.     0.4266D+10                  8066.0972    48.7046    67.7880
         TRA.     0.2170D+28                  1689.1255     4.9680    41.5847
         TOT.                        2.274    9755.2228    53.6726   109.3727

 350.00  VIB.     0.4799D+04                  7518.0906    47.3688    38.3242
         ROT.     0.1263D+07                  1043.2834     2.9808    30.8994
         INT.     0.6062D+10                  8561.3741    50.3496    69.2236
         TRA.     0.2267D+28                  1738.8057     4.9680    41.7287
         TOT.                        2.819   10300.1797    55.3176   110.9523

 360.00  VIB.     0.6541D+04                  7999.9677    49.0049    39.6816
         ROT.     0.1318D+07                  1073.0915     2.9808    30.9834
         INT.     0.8620D+10                  9073.0592    51.9857    70.6650
         TRA.     0.2364D+28                  1788.4859     4.9680    41.8686
         TOT.                        3.381   10861.5451    56.9538   112.5336

 370.00  VIB.     0.8932D+04                  8498.1502    50.6294    41.0464
         ROT.     0.1373D+07                  1102.8996     2.9808    31.0651
         INT.     0.1226D+11                  9601.0498    53.6102    72.1115
         TRA.     0.2464D+28                  1838.1660     4.9680    42.0047
         TOT.                        3.958   11439.2158    58.5782   114.1162

 380.00  VIB.     0.1222D+05                  9012.5084    52.2397    42.4180
         ROT.     0.1429D+07                  1132.7077     2.9808    31.1446
         INT.     0.1746D+11                 10145.2161    55.2205    73.5626
         TRA.     0.2564D+28                  1887.8462     4.9680    42.1372
         TOT.                        4.552   12033.0623    60.1885   115.6998

 390.00  VIB.     0.1674D+05                  9542.8893    53.8336    43.7956
         ROT.     0.1486D+07                  1162.5158     2.9808    31.2220
         INT.     0.2487D+11                 10705.4051    56.8144    75.0176
         TRA.     0.2666D+28                  1937.5263     4.9680    42.2663
         TOT.                        5.162   12642.9314    61.7824   117.2839

 400.00  VIB.     0.2297D+05                 10089.1194    55.4093    45.1785
         ROT.     0.1543D+07                  1192.3239     2.9808    31.2975
         INT.     0.3546D+11                 11281.4433    58.3901    76.4759
         TRA.     0.2769D+28                  1987.2065     4.9680    42.3921
         TOT.                        5.788   13268.6498    63.3581   118.8680

   *: NOTE: HEATS OF FORMATION ARE RELATIVE TO THE
            ELEMENTS IN THEIR STANDARD STATE AT 298K
              (=  Standard Enthalpy of Formation).

            Hvib:  Zero-point energy is not included.
                   frequencies of less than zero cm-1 are not included.
            Hrot = (3/2)RT
            Htra = (3/2)RT + pV = (5/2)RT

            Heat capacity is Cp, not Cv

           For more information, see: HTTP://OpenMOPAC.net/Manual/thermochemistry.html


           FORCE CONSTANT IN CARTESIAN COORDINATES (Millidynes/A)

    ATOM   CHEMICAL       X               Y               Z
   NUMBER   SYMBOL  FORCE CONSTANT  FORCE CONSTANT  FORCE CONSTANT

      1       C        7.788956        8.501806        8.280867
      2       C        8.077707        8.641697        8.445220
      3       C        8.612273        7.966896        8.352989
      4       C        8.558744        7.814676        8.294874
      5       C        8.190678        8.298113        8.662336
      6       C        8.931711        8.501043        8.135769
      7       C        8.086316        8.508837        8.220425
      8       C       10.892070       10.643106        5.797747
      9       C       10.725940       10.587698        6.010538
     10       C        2.703550       10.603741       13.656923
     11       C        2.258621       10.584807       13.645691
     12       H        1.149380        1.534764        3.294925
     13       H        1.108191        0.902753        3.863797
     14       H        4.977413        0.723636        0.719212
     15       H        1.018771        1.641432        3.728081
     16       H        4.918200        0.716145        0.790925
     17       H        1.453086        2.425858        2.395081
     18       H        0.815719        4.725305        0.805374
     19       H        1.638200        1.026034        3.585398
     20       H        1.464298        3.982120        0.790209
     21       H        4.831284        0.701842        0.722814
     22       H        1.883479        2.119960        2.752173
     23       H        5.009920        0.795429        0.894440
     24       H        0.905099        5.066632        0.814656
     25       H        1.591599        2.588030        2.073786
     26       H        4.864135        0.685269        0.686412
     27       H        0.387042        4.927328        0.901310
     28       H        0.351356        5.405618        0.701495
     29       H        0.457864        1.663006        4.356946



 TOTAL CPU TIME:             7.54 SECONDS

 == MOPAC DONE ==
