 *******************************************************************************
 ** Site#: 14399           For non-commercial use only        Version 13.159M **
 *******************************************************************************
 ** Cite this work as: MOPAC2012, James J. P. Stewart, Stewart Computational  **
 ** Chemistry, Version 13.159M web: HTTP://OpenMOPAC.net  Days remaining:   6 **
 *******************************************************************************
 **                                                                           **
 **                                MOPAC2012                                  **
 **                                                                           **
 *******************************************************************************

                            PM3 CALCULATION RESULTS


 *******************************************************************************
 *  CALCULATION DONE:                                Mon Jun  2 11:09:15 2014  *
 *  PM3      - The PM3 Hamiltonian to be used
 *  PRECISE  - CRITERIA TO BE INCREASED BY 100 TIMES
 *  NOSYM    - POINT-GROUP SYMMETRY SET TO C1
 *  T=       - A TIME OF 172800.0 SECONDS REQUESTED
 *  DUMP=N   - RESTART FILE WRITTEN EVERY  7200.000 SECONDS
 *******************************************************************************
pm3  precise nosym
 InChI=1S/C10H16/c1-5-9-7(3)8(4)10(9)6-2/h5-10H,1-2H2,3-4H3

   ATOM   CHEMICAL          X               Y               Z
  NUMBER   SYMBOL      (ANGSTROMS)     (ANGSTROMS)     (ANGSTROMS)
 
     1       C          0.11800000  *  -1.38840000  *  -0.04280000  *
     2       C         -1.07080000  *  -0.45260000  *   0.19480000  *
     3       C          0.99000000  *  -0.11840000  *  -0.32920000  *
     4       C         -0.14660000  *   0.72670000  *   0.25910000  *
     5       C         -0.03120000  *  -2.34710000  *  -1.22280000  *
     6       C         -1.86230000  *  -0.73640000  *   1.47190000  *
     7       C         -0.55570000  *   1.90950000  *  -0.58000000  *
     8       C          2.29000000  *  -0.05340000  *   0.42640000  *
     9       C         -1.59920000  *   2.67400000  *  -0.25050000  *
    10       C          3.05440000  *   1.04040000  *   0.40210000  *
    11       H          0.43250000  *  -1.93780000  *   0.87810000  *
    12       H         -1.76390000  *  -0.41250000  *  -0.68190000  *
    13       H          1.15480000  *   0.03970000  *  -1.42330000  *
    14       H          0.07620000  *   1.05500000  *   1.30480000  *
    15       H         -0.33990000  *  -1.82250000  *  -2.15600000  *
    16       H         -0.79600000  *  -3.11980000  *  -0.98320000  *
    17       H          0.93900000  *  -2.85900000  *  -1.41260000  *
    18       H         -1.20810000  *  -0.78610000  *   2.37270000  *
    19       H         -2.62120000  *   0.06210000  *   1.63300000  *
    20       H         -2.39650000  *  -1.70830000  *   1.37360000  *
    21       H          0.01850000  *   2.17100000  *  -1.46800000  *
    22       H          2.63250000  *  -0.91740000  *   0.99410000  *
    23       H         -1.86740000  *   3.52870000  *  -0.86850000  *
    24       H         -2.19860000  *   2.46420000  *   0.63390000  *
    25       H          2.75710000  *   1.92580000  *  -0.15810000  *
    26       H          3.99470000  *   1.06270000  *   0.94950000  *
 


          CARTESIAN COORDINATES 

    NO.       ATOM         X         Y         Z

     1         C        0.1180   -1.3884   -0.0428
     2         C       -1.0708   -0.4526    0.1948
     3         C        0.9900   -0.1184   -0.3292
     4         C       -0.1466    0.7267    0.2591
     5         C       -0.0312   -2.3471   -1.2228
     6         C       -1.8623   -0.7364    1.4719
     7         C       -0.5557    1.9095   -0.5800
     8         C        2.2900   -0.0534    0.4264
     9         C       -1.5992    2.6740   -0.2505
    10         C        3.0544    1.0404    0.4021
    11         H        0.4325   -1.9378    0.8781
    12         H       -1.7639   -0.4125   -0.6819
    13         H        1.1548    0.0397   -1.4233
    14         H        0.0762    1.0550    1.3048
    15         H       -0.3399   -1.8225   -2.1560
    16         H       -0.7960   -3.1198   -0.9832
    17         H        0.9390   -2.8590   -1.4126
    18         H       -1.2081   -0.7861    2.3727
    19         H       -2.6212    0.0621    1.6330
    20         H       -2.3965   -1.7083    1.3736
    21         H        0.0185    2.1710   -1.4680
    22         H        2.6325   -0.9174    0.9941
    23         H       -1.8674    3.5287   -0.8685
    24         H       -2.1986    2.4642    0.6339
    25         H        2.7571    1.9258   -0.1581
    26         H        3.9947    1.0627    0.9495

  H: (PM3): J. J. P. STEWART, J. COMP. CHEM. 10, 209 (1989).
  C: (PM3): J. J. P. STEWART, J. COMP. CHEM. 10, 209 (1989).

           Empirical Formula: C10 H16  =    26 atoms



      MOLECULAR POINT GROUP   :   C1  


      RHF CALCULATION, NO. OF DOUBLY OCCUPIED LEVELS =   28

      Geometry optimization using EF

          DIAGONAL MATRIX USED AS START HESSIAN

 CYCLE:     1 TIME:   0.011 TIME LEFT:  2.00D  GRAD.:   112.870 HEAT: 26.13673
 CYCLE:     2 TIME:   0.017 TIME LEFT:  2.00D  GRAD.:   108.240 HEAT: 24.70514
 CYCLE:     3 TIME:   0.016 TIME LEFT:  2.00D  GRAD.:    46.400 HEAT: 22.56696
 CYCLE:     4 TIME:   0.016 TIME LEFT:  2.00D  GRAD.:    38.884 HEAT: 22.19267
 CYCLE:     5 TIME:   0.009 TIME LEFT:  2.00D  GRAD.:    41.292 HEAT: 22.09107
 CYCLE:     6 TIME:   0.009 TIME LEFT:  2.00D  GRAD.:    35.447 HEAT: 21.88481
 CYCLE:     7 TIME:   0.009 TIME LEFT:  2.00D  GRAD.:    32.631 HEAT: 21.84543
 CYCLE:     8 TIME:   0.009 TIME LEFT:  2.00D  GRAD.:    30.073 HEAT: 21.70065
 CYCLE:     9 TIME:   0.016 TIME LEFT:  2.00D  GRAD.:    15.128 HEAT: 21.47911
 CYCLE:    10 TIME:   0.016 TIME LEFT:  2.00D  GRAD.:    15.764 HEAT: 21.45120
 CYCLE:    11 TIME:   0.009 TIME LEFT:  2.00D  GRAD.:    11.451 HEAT: 21.41197
 CYCLE:    12 TIME:   0.009 TIME LEFT:  2.00D  GRAD.:    14.250 HEAT: 21.40876
 CYCLE:    13 TIME:   0.016 TIME LEFT:  2.00D  GRAD.:     8.097 HEAT: 21.36388
 CYCLE:    14 TIME:   0.016 TIME LEFT:  2.00D  GRAD.:     4.127 HEAT: 21.34611
 CYCLE:    15 TIME:   0.009 TIME LEFT:  2.00D  GRAD.:     4.001 HEAT: 21.33637
 CYCLE:    16 TIME:   0.009 TIME LEFT:  2.00D  GRAD.:     5.232 HEAT: 21.32750
 CYCLE:    17 TIME:   0.009 TIME LEFT:  2.00D  GRAD.:     3.837 HEAT: 21.31560
 CYCLE:    18 TIME:   0.016 TIME LEFT:  2.00D  GRAD.:     5.620 HEAT: 21.31112
 CYCLE:    19 TIME:   0.009 TIME LEFT:  2.00D  GRAD.:     4.870 HEAT: 21.30260
 CYCLE:    20 TIME:   0.016 TIME LEFT:  2.00D  GRAD.:     5.031 HEAT: 21.29772
 CYCLE:    21 TIME:   0.009 TIME LEFT:  2.00D  GRAD.:     5.518 HEAT: 21.29514
 CYCLE:    22 TIME:   0.008 TIME LEFT:  2.00D  GRAD.:     3.442 HEAT: 21.28497
 CYCLE:    23 TIME:   0.009 TIME LEFT:  2.00D  GRAD.:     2.540 HEAT: 21.27580
 CYCLE:    24 TIME:   0.009 TIME LEFT:  2.00D  GRAD.:     6.305 HEAT: 21.26010
 CYCLE:    25 TIME:   0.009 TIME LEFT:  2.00D  GRAD.:     6.862 HEAT: 21.24119
 CYCLE:    26 TIME:   0.009 TIME LEFT:  2.00D  GRAD.:     5.843 HEAT: 21.22155
 CYCLE:    27 TIME:   0.009 TIME LEFT:  2.00D  GRAD.:     8.338 HEAT: 21.20889
 CYCLE:    28 TIME:   0.009 TIME LEFT:  2.00D  GRAD.:     6.773 HEAT: 21.18022
 CYCLE:    29 TIME:   0.023 TIME LEFT:  2.00D  GRAD.:     8.810 HEAT: 21.17335
 CYCLE:    30 TIME:   0.009 TIME LEFT:  2.00D  GRAD.:     3.472 HEAT: 21.13763
 CYCLE:    31 TIME:   0.009 TIME LEFT:  2.00D  GRAD.:     4.315 HEAT: 21.11898
 CYCLE:    32 TIME:   0.009 TIME LEFT:  2.00D  GRAD.:     4.145 HEAT: 21.08705
 CYCLE:    33 TIME:   0.009 TIME LEFT:  2.00D  GRAD.:     3.821 HEAT: 21.05062
 CYCLE:    34 TIME:   0.009 TIME LEFT:  2.00D  GRAD.:     3.680 HEAT: 20.99732
 CYCLE:    35 TIME:   0.009 TIME LEFT:  2.00D  GRAD.:     4.568 HEAT: 20.96499
 CYCLE:    36 TIME:   0.009 TIME LEFT:  2.00D  GRAD.:     3.273 HEAT: 20.95236
 CYCLE:    37 TIME:   0.009 TIME LEFT:  2.00D  GRAD.:     3.013 HEAT: 20.93995
 CYCLE:    38 TIME:   0.009 TIME LEFT:  2.00D  GRAD.:     3.903 HEAT: 20.91008
 CYCLE:    39 TIME:   0.009 TIME LEFT:  2.00D  GRAD.:     4.458 HEAT: 20.88351
 CYCLE:    40 TIME:   0.009 TIME LEFT:  2.00D  GRAD.:     3.617 HEAT: 20.86381
 CYCLE:    41 TIME:   0.009 TIME LEFT:  2.00D  GRAD.:     3.297 HEAT: 20.84465
 CYCLE:    42 TIME:   0.009 TIME LEFT:  2.00D  GRAD.:     3.689 HEAT: 20.81918
 CYCLE:    43 TIME:   0.009 TIME LEFT:  2.00D  GRAD.:     3.909 HEAT: 20.79705
 CYCLE:    44 TIME:   0.009 TIME LEFT:  2.00D  GRAD.:     3.394 HEAT: 20.77075
 CYCLE:    45 TIME:   0.009 TIME LEFT:  2.00D  GRAD.:     2.701 HEAT: 20.74963
 CYCLE:    46 TIME:   0.009 TIME LEFT:  2.00D  GRAD.:     2.552 HEAT: 20.73451
 CYCLE:    47 TIME:   0.009 TIME LEFT:  2.00D  GRAD.:     2.521 HEAT: 20.72067
 CYCLE:    48 TIME:   0.009 TIME LEFT:  2.00D  GRAD.:     1.985 HEAT: 20.70823
 CYCLE:    49 TIME:   0.009 TIME LEFT:  2.00D  GRAD.:     1.882 HEAT: 20.70054
 CYCLE:    50 TIME:   0.009 TIME LEFT:  2.00D  GRAD.:     1.389 HEAT: 20.69545
 CYCLE:    51 TIME:   0.009 TIME LEFT:  2.00D  GRAD.:     1.036 HEAT: 20.69241
 CYCLE:    52 TIME:   0.009 TIME LEFT:  2.00D  GRAD.:     0.807 HEAT: 20.69000
 CYCLE:    53 TIME:   0.009 TIME LEFT:  2.00D  GRAD.:     0.628 HEAT: 20.68877
 CYCLE:    54 TIME:   0.009 TIME LEFT:  2.00D  GRAD.:     0.613 HEAT: 20.68727
 CYCLE:    55 TIME:   0.009 TIME LEFT:  2.00D  GRAD.:     0.615 HEAT: 20.68611
 CYCLE:    56 TIME:   0.009 TIME LEFT:  2.00D  GRAD.:     0.630 HEAT: 20.68513
 CYCLE:    57 TIME:   0.009 TIME LEFT:  2.00D  GRAD.:     0.677 HEAT: 20.68406
 CYCLE:    58 TIME:   0.009 TIME LEFT:  2.00D  GRAD.:     0.572 HEAT: 20.68316
 CYCLE:    59 TIME:   0.009 TIME LEFT:  2.00D  GRAD.:     0.473 HEAT: 20.68245
 CYCLE:    60 TIME:   0.009 TIME LEFT:  2.00D  GRAD.:     0.448 HEAT: 20.68192
 CYCLE:    61 TIME:   0.009 TIME LEFT:  2.00D  GRAD.:     0.463 HEAT: 20.68149
 CYCLE:    62 TIME:   0.009 TIME LEFT:  2.00D  GRAD.:     0.463 HEAT: 20.68097
 CYCLE:    63 TIME:   0.009 TIME LEFT:  2.00D  GRAD.:     0.438 HEAT: 20.68042
 CYCLE:    64 TIME:   0.009 TIME LEFT:  2.00D  GRAD.:     0.383 HEAT: 20.67989
 CYCLE:    65 TIME:   0.009 TIME LEFT:  2.00D  GRAD.:     0.362 HEAT: 20.67950
 CYCLE:    66 TIME:   0.009 TIME LEFT:  2.00D  GRAD.:     0.378 HEAT: 20.67914
 CYCLE:    67 TIME:   0.009 TIME LEFT:  2.00D  GRAD.:     0.400 HEAT: 20.67879
 CYCLE:    68 TIME:   0.009 TIME LEFT:  2.00D  GRAD.:     0.452 HEAT: 20.67833
 CYCLE:    69 TIME:   0.013 TIME LEFT:  2.00D  GRAD.:     0.519 HEAT: 20.67778
 CYCLE:    70 TIME:   0.009 TIME LEFT:  2.00D  GRAD.:     0.571 HEAT: 20.67702
 CYCLE:    71 TIME:   0.010 TIME LEFT:  2.00D  GRAD.:     0.766 HEAT: 20.67579
 CYCLE:    72 TIME:   0.009 TIME LEFT:  2.00D  GRAD.:     0.642 HEAT: 20.67504
 CYCLE:    73 TIME:   0.012 TIME LEFT:  2.00D  GRAD.:     0.937 HEAT: 20.67312
 CYCLE:    74 TIME:   0.013 TIME LEFT:  2.00D  GRAD.:     0.744 HEAT: 20.67223
 CYCLE:    75 TIME:   0.009 TIME LEFT:  2.00D  GRAD.:     0.911 HEAT: 20.66897
 CYCLE:    76 TIME:   0.009 TIME LEFT:  2.00D  GRAD.:     0.840 HEAT: 20.66750
 CYCLE:    77 TIME:   0.009 TIME LEFT:  2.00D  GRAD.:     1.947 HEAT: 20.66389
 CYCLE:    78 TIME:   0.009 TIME LEFT:  2.00D  GRAD.:     1.284 HEAT: 20.66190
 CYCLE:    79 TIME:   0.009 TIME LEFT:  2.00D  GRAD.:     0.852 HEAT: 20.65999
 CYCLE:    80 TIME:   0.010 TIME LEFT:  2.00D  GRAD.:     1.044 HEAT: 20.65608
 CYCLE:    81 TIME:   0.010 TIME LEFT:  2.00D  GRAD.:     1.601 HEAT: 20.65308
 CYCLE:    82 TIME:   0.009 TIME LEFT:  2.00D  GRAD.:     0.984 HEAT: 20.64987
 CYCLE:    83 TIME:   0.009 TIME LEFT:  2.00D  GRAD.:     1.043 HEAT: 20.64802
 CYCLE:    84 TIME:   0.009 TIME LEFT:  2.00D  GRAD.:     0.841 HEAT: 20.64525
 CYCLE:    85 TIME:   0.009 TIME LEFT:  2.00D  GRAD.:     1.209 HEAT: 20.64208
 CYCLE:    86 TIME:   0.009 TIME LEFT:  2.00D  GRAD.:     1.246 HEAT: 20.63811
 CYCLE:    87 TIME:   0.009 TIME LEFT:  2.00D  GRAD.:     1.708 HEAT: 20.63427
 CYCLE:    88 TIME:   0.009 TIME LEFT:  2.00D  GRAD.:     1.541 HEAT: 20.62909
 CYCLE:    89 TIME:   0.009 TIME LEFT:  2.00D  GRAD.:     3.946 HEAT: 20.62653
 CYCLE:    90 TIME:   0.009 TIME LEFT:  2.00D  GRAD.:     1.711 HEAT: 20.61795
 CYCLE:    91 TIME:   0.009 TIME LEFT:  2.00D  GRAD.:     1.744 HEAT: 20.60932
 CYCLE:    92 TIME:   0.009 TIME LEFT:  2.00D  GRAD.:     2.759 HEAT: 20.59502
 CYCLE:    93 TIME:   0.009 TIME LEFT:  2.00D  GRAD.:     2.329 HEAT: 20.58101
 CYCLE:    94 TIME:   0.009 TIME LEFT:  2.00D  GRAD.:     3.178 HEAT: 20.56812
 CYCLE:    95 TIME:   0.016 TIME LEFT:  2.00D  GRAD.:     3.213 HEAT: 20.55982
 CYCLE:    96 TIME:   0.009 TIME LEFT:  2.00D  GRAD.:     2.059 HEAT: 20.54893
 CYCLE:    97 TIME:   0.009 TIME LEFT:  2.00D  GRAD.:     2.284 HEAT: 20.53857
 CYCLE:    98 TIME:   0.009 TIME LEFT:  2.00D  GRAD.:     2.917 HEAT: 20.52885
 CYCLE:    99 TIME:   0.009 TIME LEFT:  2.00D  GRAD.:     3.266 HEAT: 20.51679
 CYCLE:   100 TIME:   0.009 TIME LEFT:  2.00D  GRAD.:     2.065 HEAT: 20.50194
 CYCLE:   101 TIME:   0.009 TIME LEFT:  2.00D  GRAD.:     4.914 HEAT: 20.49569
 CYCLE:   102 TIME:   0.009 TIME LEFT:  2.00D  GRAD.:     2.785 HEAT: 20.48943
 CYCLE:   103 TIME:   0.009 TIME LEFT:  2.00D  GRAD.:     1.889 HEAT: 20.48444
 CYCLE:   104 TIME:   0.009 TIME LEFT:  2.00D  GRAD.:     2.093 HEAT: 20.47871
 CYCLE:   105 TIME:   0.009 TIME LEFT:  2.00D  GRAD.:     2.415 HEAT: 20.47031
 CYCLE:   106 TIME:   0.009 TIME LEFT:  2.00D  GRAD.:     2.827 HEAT: 20.45234
 CYCLE:   107 TIME:   0.009 TIME LEFT:  2.00D  GRAD.:     2.730 HEAT: 20.43898
 CYCLE:   108 TIME:   0.009 TIME LEFT:  2.00D  GRAD.:     6.680 HEAT: 20.38570
 CYCLE:   109 TIME:   0.009 TIME LEFT:  2.00D  GRAD.:     5.974 HEAT: 20.35413
 CYCLE:   110 TIME:   0.008 TIME LEFT:  2.00D  GRAD.:     2.740 HEAT: 20.33095
 CYCLE:   111 TIME:   0.009 TIME LEFT:  2.00D  GRAD.:     3.670 HEAT: 20.30270
 CYCLE:   112 TIME:   0.009 TIME LEFT:  2.00D  GRAD.:     1.809 HEAT: 20.29414
 CYCLE:   113 TIME:   0.009 TIME LEFT:  2.00D  GRAD.:     2.156 HEAT: 20.28707
 CYCLE:   114 TIME:   0.009 TIME LEFT:  2.00D  GRAD.:     2.250 HEAT: 20.28136
 CYCLE:   115 TIME:   0.009 TIME LEFT:  2.00D  GRAD.:     1.842 HEAT: 20.27685
 CYCLE:   116 TIME:   0.009 TIME LEFT:  2.00D  GRAD.:     1.466 HEAT: 20.27486
 CYCLE:   117 TIME:   0.009 TIME LEFT:  2.00D  GRAD.:     1.308 HEAT: 20.27268
 CYCLE:   118 TIME:   0.009 TIME LEFT:  2.00D  GRAD.:     0.999 HEAT: 20.27107
 CYCLE:   119 TIME:   0.009 TIME LEFT:  2.00D  GRAD.:     1.731 HEAT: 20.26816
 CYCLE:   120 TIME:   0.009 TIME LEFT:  2.00D  GRAD.:     1.417 HEAT: 20.26366
 CYCLE:   121 TIME:   0.009 TIME LEFT:  2.00D  GRAD.:     1.789 HEAT: 20.25386
 CYCLE:   122 TIME:   0.009 TIME LEFT:  2.00D  GRAD.:     2.388 HEAT: 20.24033
 CYCLE:   123 TIME:   0.009 TIME LEFT:  2.00D  GRAD.:     2.621 HEAT: 20.22815
 CYCLE:   124 TIME:   0.009 TIME LEFT:  2.00D  GRAD.:     4.900 HEAT: 20.21202
 CYCLE:   125 TIME:   0.023 TIME LEFT:  2.00D  GRAD.:     3.094 HEAT: 20.20225
 CYCLE:   126 TIME:   0.009 TIME LEFT:  2.00D  GRAD.:     3.161 HEAT: 20.19004
 CYCLE:   127 TIME:   0.009 TIME LEFT:  2.00D  GRAD.:     3.119 HEAT: 20.18042
 CYCLE:   128 TIME:   0.009 TIME LEFT:  2.00D  GRAD.:     2.247 HEAT: 20.17471
 CYCLE:   129 TIME:   0.009 TIME LEFT:  2.00D  GRAD.:     1.565 HEAT: 20.16843
 CYCLE:   130 TIME:   0.009 TIME LEFT:  2.00D  GRAD.:     3.102 HEAT: 20.16400
 CYCLE:   131 TIME:   0.009 TIME LEFT:  2.00D  GRAD.:     2.173 HEAT: 20.16004
 CYCLE:   132 TIME:   0.009 TIME LEFT:  2.00D  GRAD.:     1.456 HEAT: 20.15531
 CYCLE:   133 TIME:   0.009 TIME LEFT:  2.00D  GRAD.:     1.729 HEAT: 20.15095
 CYCLE:   134 TIME:   0.009 TIME LEFT:  2.00D  GRAD.:     1.719 HEAT: 20.14752
 CYCLE:   135 TIME:   0.009 TIME LEFT:  2.00D  GRAD.:     1.119 HEAT: 20.14437
 CYCLE:   136 TIME:   0.009 TIME LEFT:  2.00D  GRAD.:     1.761 HEAT: 20.14144
 CYCLE:   137 TIME:   0.009 TIME LEFT:  2.00D  GRAD.:     2.192 HEAT: 20.13984
 CYCLE:   138 TIME:   0.009 TIME LEFT:  2.00D  GRAD.:     1.168 HEAT: 20.13753
 CYCLE:   139 TIME:   0.009 TIME LEFT:  2.00D  GRAD.:     1.564 HEAT: 20.13577
 CYCLE:   140 TIME:   0.009 TIME LEFT:  2.00D  GRAD.:     1.479 HEAT: 20.13347
 CYCLE:   141 TIME:   0.009 TIME LEFT:  2.00D  GRAD.:     0.686 HEAT: 20.13138
 CYCLE:   142 TIME:   0.009 TIME LEFT:  2.00D  GRAD.:     1.071 HEAT: 20.13036
 CYCLE:   143 TIME:   0.009 TIME LEFT:  2.00D  GRAD.:     0.705 HEAT: 20.12951
 CYCLE:   144 TIME:   0.009 TIME LEFT:  2.00D  GRAD.:     0.695 HEAT: 20.12871
 CYCLE:   145 TIME:   0.009 TIME LEFT:  2.00D  GRAD.:     0.667 HEAT: 20.12788
 CYCLE:   146 TIME:   0.009 TIME LEFT:  2.00D  GRAD.:     0.560 HEAT: 20.12728
 CYCLE:   147 TIME:   0.009 TIME LEFT:  2.00D  GRAD.:     0.942 HEAT: 20.12674
 CYCLE:   148 TIME:   0.009 TIME LEFT:  2.00D  GRAD.:     1.293 HEAT: 20.12578
 CYCLE:   149 TIME:   0.009 TIME LEFT:  2.00D  GRAD.:     1.639 HEAT: 20.12352
 CYCLE:   150 TIME:   0.009 TIME LEFT:  2.00D  GRAD.:     1.700 HEAT: 20.12075
 CYCLE:   151 TIME:   0.009 TIME LEFT:  2.00D  GRAD.:     1.945 HEAT: 20.11690
 CYCLE:   152 TIME:   0.009 TIME LEFT:  2.00D  GRAD.:     2.634 HEAT: 20.11047
 CYCLE:   153 TIME:   0.009 TIME LEFT:  2.00D  GRAD.:     2.230 HEAT: 20.10204
 CYCLE:   154 TIME:   0.010 TIME LEFT:  2.00D  GRAD.:     1.869 HEAT: 20.09888
 CYCLE:   155 TIME:   0.013 TIME LEFT:  2.00D  GRAD.:     0.999 HEAT: 20.09625
 CYCLE:   156 TIME:   0.012 TIME LEFT:  2.00D  GRAD.:     0.829 HEAT: 20.09453
 CYCLE:   157 TIME:   0.012 TIME LEFT:  2.00D  GRAD.:     1.059 HEAT: 20.09342
 CYCLE:   158 TIME:   0.009 TIME LEFT:  2.00D  GRAD.:     1.294 HEAT: 20.09238
 CYCLE:   159 TIME:   0.009 TIME LEFT:  2.00D  GRAD.:     1.388 HEAT: 20.09027
 CYCLE:   160 TIME:   0.009 TIME LEFT:  2.00D  GRAD.:     2.020 HEAT: 20.08657
 CYCLE:   161 TIME:   0.009 TIME LEFT:  2.00D  GRAD.:     1.452 HEAT: 20.08415
 CYCLE:   162 TIME:   0.009 TIME LEFT:  2.00D  GRAD.:     1.179 HEAT: 20.08106
 CYCLE:   163 TIME:   0.009 TIME LEFT:  2.00D  GRAD.:     0.962 HEAT: 20.07987
 CYCLE:   164 TIME:   0.009 TIME LEFT:  2.00D  GRAD.:     1.000 HEAT: 20.07809
 CYCLE:   165 TIME:   0.009 TIME LEFT:  2.00D  GRAD.:     0.813 HEAT: 20.07722
 CYCLE:   166 TIME:   0.009 TIME LEFT:  2.00D  GRAD.:     0.949 HEAT: 20.07524
 CYCLE:   167 TIME:   0.009 TIME LEFT:  2.00D  GRAD.:     1.383 HEAT: 20.07492
 CYCLE:   168 TIME:   0.009 TIME LEFT:  2.00D  GRAD.:     0.541 HEAT: 20.07380
 CYCLE:   169 TIME:   0.009 TIME LEFT:  2.00D  GRAD.:     0.450 HEAT: 20.07331
 CYCLE:   170 TIME:   0.009 TIME LEFT:  2.00D  GRAD.:     0.343 HEAT: 20.07301
 CYCLE:   171 TIME:   0.009 TIME LEFT:  2.00D  GRAD.:     0.239 HEAT: 20.07280
 CYCLE:   172 TIME:   0.009 TIME LEFT:  2.00D  GRAD.:     0.215 HEAT: 20.07269
 CYCLE:   173 TIME:   0.009 TIME LEFT:  2.00D  GRAD.:     0.232 HEAT: 20.07262
 CYCLE:   174 TIME:   0.009 TIME LEFT:  2.00D  GRAD.:     0.228 HEAT: 20.07255
 CYCLE:   175 TIME:   0.009 TIME LEFT:  2.00D  GRAD.:     0.220 HEAT: 20.07245
 CYCLE:   176 TIME:   0.009 TIME LEFT:  2.00D  GRAD.:     0.402 HEAT: 20.07184
 CYCLE:   177 TIME:   0.009 TIME LEFT:  2.00D  GRAD.:     0.475 HEAT: 20.07145
 CYCLE:   178 TIME:   0.009 TIME LEFT:  2.00D  GRAD.:     0.516 HEAT: 20.07087
 CYCLE:   179 TIME:   0.009 TIME LEFT:  2.00D  GRAD.:     0.426 HEAT: 20.07044
 CYCLE:   180 TIME:   0.009 TIME LEFT:  2.00D  GRAD.:     0.420 HEAT: 20.06983
 CYCLE:   181 TIME:   0.009 TIME LEFT:  2.00D  GRAD.:     0.406 HEAT: 20.06971
 CYCLE:   182 TIME:   0.009 TIME LEFT:  2.00D  GRAD.:     0.336 HEAT: 20.06952
 CYCLE:   183 TIME:   0.009 TIME LEFT:  2.00D  GRAD.:     0.271 HEAT: 20.06945
 CYCLE:   184 TIME:   0.009 TIME LEFT:  2.00D  GRAD.:     0.188 HEAT: 20.06928
 CYCLE:   185 TIME:   0.009 TIME LEFT:  2.00D  GRAD.:     0.155 HEAT: 20.06922
 CYCLE:   186 TIME:   0.009 TIME LEFT:  2.00D  GRAD.:     0.076 HEAT: 20.06917
 CYCLE:   187 TIME:   0.009 TIME LEFT:  2.00D  GRAD.:     0.062 HEAT: 20.06916
 CYCLE:   188 TIME:   0.009 TIME LEFT:  2.00D  GRAD.:     0.066 HEAT: 20.06915
 CYCLE:   189 TIME:   0.009 TIME LEFT:  2.00D  GRAD.:     0.051 HEAT: 20.06915
 CYCLE:   190 TIME:   0.009 TIME LEFT:  2.00D  GRAD.:     0.087 HEAT: 20.06914
 CYCLE:   191 TIME:   0.009 TIME LEFT:  2.00D  GRAD.:     0.031 HEAT: 20.06913

     RMS GRADIENT =  0.03086  IS LESS THAN CUTOFF =  0.05000



 -------------------------------------------------------------------------------
pm3  precise nosym
 InChI=1S/C10H16/c1-5-9-7(3)8(4)10(9)6-2/h5-10H,1-2H2,3-4H3



     GEOMETRY OPTIMISED USING EIGENVECTOR FOLLOWING (EF).     
     SCF FIELD WAS ACHIEVED                                   


                              PM3 CALCULATION
                                                       MOPAC2012 (Version: 13.159M)
                                                       Mon Jun  2 11:09:17 2014
                                                       No. of days left =   6




          FINAL HEAT OF FORMATION =         20.06913 KCAL/MOL =      83.96925 KJ/MOL


          TOTAL ENERGY            =      -1430.85674 EV
          ELECTRONIC ENERGY       =      -8318.95374 EV  POINT GROUP:     C1  
          CORE-CORE REPULSION     =       6888.09700 EV
          COSMO AREA              =        201.07 SQUARE ANGSTROMS
          COSMO VOLUME            =        213.54 CUBIC ANGSTROMS

          GRADIENT NORM           =          0.03086
          IONIZATION POTENTIAL    =          9.967463 EV
          HOMO LUMO ENERGIES (EV) =         -9.967  1.044
          NO. OF FILLED LEVELS    =         28
          MOLECULAR WEIGHT        =        136.236

          MOLECULAR DIMENSIONS (Angstroms)

            Atom       Atom       Distance
            H    26    H    20     6.78092
            H    23    H    17     6.36339
            H    15    H    18     4.57635


          SCF CALCULATIONS        =        206
          COMPUTATION TIME        =          1.843 SECONDS




   ATOM   CHEMICAL          X               Y               Z
  NUMBER   SYMBOL      (ANGSTROMS)     (ANGSTROMS)     (ANGSTROMS)
 
     1       C          0.15302003  *  -1.24344110  *  -0.10721554  *
     2       C         -1.08895686  *  -0.42063380  *   0.33192577  *
     3       C          0.98925720  *   0.06553879  *  -0.19334202  *
     4       C         -0.23074969  *   0.87580844  *   0.33463907  *
     5       C         -0.00034888  *  -1.98556950  *  -1.40760455  *
     6       C         -1.66801770  *  -0.80036963  *   1.66846609  *
     7       C         -0.68269344  *   1.97760237  *  -0.54919489  *
     8       C          2.16912043  *   0.09311119  *   0.70681404  *
     9       C         -1.94819947  *   2.36941210  *  -0.64220266  *
    10       C          3.39154794  *   0.39572856  *   0.28545878  *
    11       H          0.51291233  *  -1.93378874  *   0.68663207  *
    12       H         -1.88920945  *  -0.40405565  *  -0.44042668  *
    13       H          1.27000195  *   0.33120535  *  -1.23660175  *
    14       H         -0.06913311  *   1.28720116  *   1.35598926  *
    15       H         -0.35374921  *  -1.33209457  *  -2.21698952  *
    16       H         -0.72329621  *  -2.80559339  *  -1.30875423  *
    17       H          0.95530241  *  -2.41905186  *  -1.72924363  *
    18       H         -0.90507846  *  -0.81531477  *   2.45912534  *
    19       H         -2.44584508  *  -0.08857168  *   1.97452892  *
    20       H         -2.12256818  *  -1.79866504  *   1.63154525  *
    21       H          0.10804379  *   2.47926346  *  -1.12082308  *
    22       H          1.97587942  *  -0.15503360  *   1.75841944  *
    23       H         -2.26147909  *   3.19129480  *  -1.27825226  *
    24       H         -2.75717700  *   1.89771153  *  -0.09007745  *
    25       H          3.62243780  *   0.64626218  *  -0.74655910  *
    26       H          4.25091209  *   0.41341757  *   0.94871492  *

           Empirical Formula: C10 H16  =    26 atoms



      MOLECULAR POINT GROUP   :   C1  


                  EIGENVALUES  
 -42.10313 -33.66397 -33.02868 -30.45815 -27.73559 -23.16727 -22.52102 -19.94714
 -19.48679 -18.57277 -16.75026 -16.33639 -15.90325 -15.36375 -14.94690 -14.34923
 -14.03832 -13.70835 -13.60277 -13.03088 -12.63475 -12.20964 -12.08543 -11.79703
 -11.45437 -11.19410 -10.25106  -9.96746   1.04420   1.19912   3.15001   3.26891
   3.36924   3.57277   3.68005   3.76900   3.83511   3.90059   4.02815   4.04910
   4.07475   4.18261   4.19747   4.31709   4.49571   4.52878   4.57530   4.73692
   4.77440   4.89954   5.25624   5.33402   5.64284   5.78509   5.86413   5.97593


              NET ATOMIC CHARGES AND DIPOLE CONTRIBUTIONS

  ATOM NO.   TYPE          CHARGE      No. of ELECS.   s-Pop       p-Pop       
    1          C          -0.086721        4.0867     1.19204     2.89468
    2          C          -0.091947        4.0919     1.19317     2.89878
    3          C          -0.064312        4.0643     1.18544     2.87887
    4          C          -0.061106        4.0611     1.18276     2.87834
    5          C          -0.101952        4.1020     1.13706     2.96489
    6          C          -0.102362        4.1024     1.13754     2.96482
    7          C          -0.123700        4.1237     1.19300     2.93070
    8          C          -0.129476        4.1295     1.19406     2.93542
    9          C          -0.172190        4.1722     1.18153     2.99066
   10          C          -0.159162        4.1592     1.18295     2.97621
   11          H           0.077207        0.9228     0.92279
   12          H           0.081110        0.9189     0.91889
   13          H           0.082539        0.9175     0.91746
   14          H           0.085606        0.9144     0.91439
   15          H           0.041868        0.9581     0.95813
   16          H           0.040054        0.9599     0.95995
   17          H           0.040974        0.9590     0.95903
   18          H           0.040037        0.9600     0.95996
   19          H           0.040548        0.9595     0.95945
   20          H           0.040800        0.9592     0.95920
   21          H           0.099153        0.9008     0.90085
   22          H           0.098844        0.9012     0.90116
   23          H           0.080367        0.9196     0.91963
   24          H           0.083740        0.9163     0.91626
   25          H           0.081351        0.9186     0.91865
   26          H           0.078728        0.9213     0.92127
 DIPOLE           X         Y         Z       TOTAL
 POINT-CHG.    -0.054    -0.216     0.056     0.230
 HYBRID         0.026     0.031     0.021     0.045
 SUM           -0.029    -0.185     0.077     0.202


          ATOMIC ORBITAL ELECTRON POPULATIONS

    Atom      s        px        py        pz   
    1  C   1.19204   0.96026   0.95163   0.98279
    2  C   1.19317   0.96389   0.95324   0.98166
    3  C   1.18544   0.92748   0.96366   0.98773
    4  C   1.18276   0.95679   0.93004   0.99151
    5  C   1.13706   1.00808   0.99440   0.96242
    6  C   1.13754   1.00037   1.00469   0.95977
    7  C   1.19300   0.97273   0.97492   0.98306
    8  C   1.19406   0.95166   0.99681   0.98695
    9  C   1.18153   0.96457   1.00888   1.01721
   10  C   1.18295   0.96348   1.00636   1.00637
   11  H   0.92279
   12  H   0.91889
   13  H   0.91746
   14  H   0.91439
   15  H   0.95813
   16  H   0.95995
   17  H   0.95903
   18  H   0.95996
   19  H   0.95945
   20  H   0.95920
   21  H   0.90085
   22  H   0.90116
   23  H   0.91963
   24  H   0.91626
   25  H   0.91865
   26  H   0.92127
 *******************************************************************************
 ** Site#: 14399           For non-commercial use only        Version 13.159M **
 *******************************************************************************
 ** Cite this work as: MOPAC2012, James J. P. Stewart, Stewart Computational  **
 ** Chemistry, Version 13.159M web: HTTP://OpenMOPAC.net  Days remaining:   6 **
 *******************************************************************************
 **                                                                           **
 **                                MOPAC2012                                  **
 **                                                                           **
 *******************************************************************************

                            PM3 CALCULATION RESULTS


 *******************************************************************************
 *  CALCULATION DONE:                                Mon Jun  2 11:09:17 2014  *
 *  PM3      - The PM3 Hamiltonian to be used
 *  OLDGEO   - PREVIOUS GEOMETRY TO BE USED
 *  PRECISE  - CRITERIA TO BE INCREASED BY 100 TIMES
 *  NOSYM    - POINT-GROUP SYMMETRY SET TO C1
 *  T=       - A TIME OF 172800.0 SECONDS REQUESTED
 *  DUMP=N   - RESTART FILE WRITTEN EVERY  7200.000 SECONDS
 *  THERMO   - THERMODYNAMIC QUANTITIES TO BE CALCULATED
 *******************************************************************************
oldgeo thermo nosym precise  pm3

   ATOM   CHEMICAL          X               Y               Z
  NUMBER   SYMBOL      (ANGSTROMS)     (ANGSTROMS)     (ANGSTROMS)
 
     1       C          0.15302003  *  -1.24344110  *  -0.10721554  *
     2       C         -1.08895686  *  -0.42063380  *   0.33192577  *
     3       C          0.98925720  *   0.06553879  *  -0.19334202  *
     4       C         -0.23074969  *   0.87580844  *   0.33463907  *
     5       C         -0.00034888  *  -1.98556950  *  -1.40760455  *
     6       C         -1.66801770  *  -0.80036963  *   1.66846609  *
     7       C         -0.68269344  *   1.97760237  *  -0.54919489  *
     8       C          2.16912043  *   0.09311119  *   0.70681404  *
     9       C         -1.94819947  *   2.36941210  *  -0.64220266  *
    10       C          3.39154794  *   0.39572856  *   0.28545878  *
    11       H          0.51291233  *  -1.93378874  *   0.68663207  *
    12       H         -1.88920945  *  -0.40405565  *  -0.44042668  *
    13       H          1.27000195  *   0.33120535  *  -1.23660175  *
    14       H         -0.06913311  *   1.28720116  *   1.35598926  *
    15       H         -0.35374921  *  -1.33209457  *  -2.21698952  *
    16       H         -0.72329621  *  -2.80559339  *  -1.30875423  *
    17       H          0.95530241  *  -2.41905186  *  -1.72924363  *
    18       H         -0.90507846  *  -0.81531477  *   2.45912534  *
    19       H         -2.44584508  *  -0.08857168  *   1.97452892  *
    20       H         -2.12256818  *  -1.79866504  *   1.63154525  *
    21       H          0.10804379  *   2.47926346  *  -1.12082308  *
    22       H          1.97587942  *  -0.15503360  *   1.75841944  *
    23       H         -2.26147909  *   3.19129480  *  -1.27825226  *
    24       H         -2.75717700  *   1.89771153  *  -0.09007745  *
    25       H          3.62243780  *   0.64626218  *  -0.74655910  *
    26       H          4.25091209  *   0.41341757  *   0.94871492  *
 


          CARTESIAN COORDINATES 

    NO.       ATOM         X         Y         Z

     1         C        0.1530   -1.2434   -0.1072
     2         C       -1.0890   -0.4206    0.3319
     3         C        0.9893    0.0655   -0.1933
     4         C       -0.2307    0.8758    0.3346
     5         C       -0.0003   -1.9856   -1.4076
     6         C       -1.6680   -0.8004    1.6685
     7         C       -0.6827    1.9776   -0.5492
     8         C        2.1691    0.0931    0.7068
     9         C       -1.9482    2.3694   -0.6422
    10         C        3.3915    0.3957    0.2855
    11         H        0.5129   -1.9338    0.6866
    12         H       -1.8892   -0.4041   -0.4404
    13         H        1.2700    0.3312   -1.2366
    14         H       -0.0691    1.2872    1.3560
    15         H       -0.3537   -1.3321   -2.2170
    16         H       -0.7233   -2.8056   -1.3088
    17         H        0.9553   -2.4191   -1.7292
    18         H       -0.9051   -0.8153    2.4591
    19         H       -2.4458   -0.0886    1.9745
    20         H       -2.1226   -1.7987    1.6315
    21         H        0.1080    2.4793   -1.1208
    22         H        1.9759   -0.1550    1.7584
    23         H       -2.2615    3.1913   -1.2783
    24         H       -2.7572    1.8977   -0.0901
    25         H        3.6224    0.6463   -0.7466
    26         H        4.2509    0.4134    0.9487

  H: (PM3): J. J. P. STEWART, J. COMP. CHEM. 10, 209 (1989).
  C: (PM3): J. J. P. STEWART, J. COMP. CHEM. 10, 209 (1989).

           Empirical Formula: C10 H16  =    26 atoms



      MOLECULAR POINT GROUP   :   C1  


      RHF CALCULATION, NO. OF DOUBLY OCCUPIED LEVELS =   28



          HEAT OF FORMATION =      20.069133 KCALS/MOLE


          INTERNAL COORDINATE DERIVATIVES

   NUMBER  ATOM       BOND         ANGLE      DIHEDRAL

     1       C     -0.001007     0.000623    -0.000202
     2       C     -0.001655     0.001438    -0.000773
     3       C      0.000256    -0.000533     0.000660
     4       C     -0.000691     0.000230     0.002402
     5       C     -0.000552     0.001196     0.002162
     6       C     -0.002906     0.001794     0.000159
     7       C     -0.010111     0.003005     0.002574
     8       C      0.005921     0.008730     0.004154
     9       C      0.003918     0.001346     0.002403
    10       C     -0.001784    -0.001921    -0.000960
    11       H     -0.000290    -0.005159     0.000656
    12       H     -0.000791     0.002921    -0.000716
    13       H     -0.001900    -0.000696    -0.000613
    14       H      0.006305    -0.001286     0.002904
    15       H     -0.002432    -0.001427    -0.001722
    16       H      0.001675    -0.005326    -0.000997
    17       H     -0.002056    -0.000783     0.001983
    18       H     -0.002467     0.003825    -0.001275
    19       H      0.001986    -0.003533     0.000689
    20       H      0.002662    -0.000476    -0.000099
    21       H      0.008565    -0.003204    -0.008187
    22       H      0.002000    -0.003536    -0.006259
    23       H     -0.000238     0.000947    -0.000880
    24       H     -0.001235    -0.000342    -0.000895
    25       H      0.000909     0.003089     0.003442
    26       H     -0.004085    -0.000921    -0.000610


          GRADIENT NORM =   0.02737


          TIME FOR SCF CALCULATION =    0.01

          TIME FOR DERIVATIVES     =    0.01

          MOLECULAR WEIGHT =  136.24



          ROTATIONAL CONSTANTS IN CM(-1)

          A =    0.04904622   B =    0.03421902   C =    0.02725861



           PRINCIPAL MOMENTS OF INERTIA IN UNITS OF 10**(-40)*GRAM-CM**2

          A =      570.7428   B =      818.0473   C =     1026.9332


          ORIENTATION OF MOLECULE IN FORCE CALCULATION

    NO.       ATOM         X         Y         Z

     1          C      -0.8080   -1.0926   -0.0190
     2          C       0.7452   -1.0926   -0.0190
     3          C      -0.8076    0.4630   -0.0190
     4          C       0.7465    0.4594   -0.1113
     5          C      -1.4462   -1.7274    1.1873
     6          C       1.3849   -1.7976   -1.1850
     7          C       1.4417    1.1923    0.9745
     8          C      -1.4819    1.0708   -1.1933
     9          C       2.6349    0.8465    1.4440
    10          C      -2.4183    2.0061   -1.0839
    11          H      -1.2370   -1.5239   -0.9497
    12          H       1.1755   -1.4662    0.9363
    13          H      -1.1863    0.8953    0.9336
    14          H       1.1240    0.8358   -1.0882
    15          H      -1.0462   -1.3228    2.1272
    16          H      -1.2745   -2.8115    1.1975
    17          H      -2.5309   -1.5603    1.1933
    18          H       0.9905   -1.4437   -2.1476
    19          H       2.4705   -1.6340   -1.1935
    20          H       1.2091   -2.8798   -1.1357
    21          H       0.9135    2.0712    1.3647
    22          H      -1.1615    0.6998   -2.1754
    23          H       3.1410    1.4047    2.2253
    24          H       3.1880   -0.0159    1.0807
    25          H      -2.7620    2.3982   -0.1303
    26          H      -2.9085    2.4463   -1.9467


    FIRST DERIVATIVES WILL BE USED IN THE CALCULATION OF SECOND DERIVATIVES

          ESTIMATED TIME TO COMPLETE CALCULATION =        3.78 SECONDS

    FOR POINT-GROUP C1   THERE ARE   1 UNIQUE SYMMETRY FUNCTIONS.

 STEP:   1 TIME =     0.04 SECS, INTEGRAL =      0.04 TIME LEFT: 172799.95
 STEP:   2 TIME =     0.04 SECS, INTEGRAL =      0.08 TIME LEFT: 172799.91
 STEP:   3 TIME =     0.04 SECS, INTEGRAL =      0.12 TIME LEFT: 172799.87
 STEP:   4 TIME =     0.04 SECS, INTEGRAL =      0.16 TIME LEFT: 172799.83
 STEP:   5 TIME =     0.04 SECS, INTEGRAL =      0.20 TIME LEFT: 172799.79
 STEP:   6 TIME =     0.04 SECS, INTEGRAL =      0.23 TIME LEFT: 172799.75
 STEP:   7 TIME =     0.04 SECS, INTEGRAL =      0.27 TIME LEFT: 172799.71
 STEP:   8 TIME =     0.04 SECS, INTEGRAL =      0.31 TIME LEFT: 172799.68
 STEP:   9 TIME =     0.04 SECS, INTEGRAL =      0.35 TIME LEFT: 172799.64
 STEP:  10 TIME =     0.04 SECS, INTEGRAL =      0.39 TIME LEFT: 172799.60
 STEP:  11 TIME =     0.04 SECS, INTEGRAL =      0.43 TIME LEFT: 172799.56
 STEP:  12 TIME =     0.04 SECS, INTEGRAL =      0.47 TIME LEFT: 172799.52
 STEP:  13 TIME =     0.04 SECS, INTEGRAL =      0.51 TIME LEFT: 172799.48
 STEP:  14 TIME =     0.04 SECS, INTEGRAL =      0.55 TIME LEFT: 172799.44
 STEP:  15 TIME =     0.04 SECS, INTEGRAL =      0.59 TIME LEFT: 172799.40
 STEP:  16 TIME =     0.04 SECS, INTEGRAL =      0.62 TIME LEFT: 172799.36
 STEP:  17 TIME =     0.04 SECS, INTEGRAL =      0.66 TIME LEFT: 172799.33
 STEP:  18 TIME =     0.04 SECS, INTEGRAL =      0.70 TIME LEFT: 172799.29
 STEP:  19 TIME =     0.04 SECS, INTEGRAL =      0.74 TIME LEFT: 172799.25
 STEP:  20 TIME =     0.04 SECS, INTEGRAL =      0.78 TIME LEFT: 172799.21
 STEP:  21 TIME =     0.04 SECS, INTEGRAL =      0.82 TIME LEFT: 172799.17
 STEP:  22 TIME =     0.04 SECS, INTEGRAL =      0.86 TIME LEFT: 172799.13
 STEP:  23 TIME =     0.04 SECS, INTEGRAL =      0.90 TIME LEFT: 172799.09
 STEP:  24 TIME =     0.04 SECS, INTEGRAL =      0.94 TIME LEFT: 172799.05
 STEP:  25 TIME =     0.04 SECS, INTEGRAL =      0.98 TIME LEFT: 172799.01
 STEP:  26 TIME =     0.04 SECS, INTEGRAL =      1.02 TIME LEFT: 172798.97
 STEP:  27 TIME =     0.04 SECS, INTEGRAL =      1.06 TIME LEFT: 172798.93
 STEP:  28 TIME =     0.04 SECS, INTEGRAL =      1.10 TIME LEFT: 172798.89
 STEP:  29 TIME =     0.04 SECS, INTEGRAL =      1.14 TIME LEFT: 172798.85
 STEP:  30 TIME =     0.04 SECS, INTEGRAL =      1.18 TIME LEFT: 172798.81
 STEP:  31 TIME =     0.04 SECS, INTEGRAL =      1.22 TIME LEFT: 172798.77
 STEP:  32 TIME =     0.04 SECS, INTEGRAL =      1.26 TIME LEFT: 172798.73
 STEP:  33 TIME =     0.04 SECS, INTEGRAL =      1.29 TIME LEFT: 172798.69
 STEP:  34 TIME =     0.04 SECS, INTEGRAL =      1.33 TIME LEFT: 172798.65
 STEP:  35 TIME =     0.04 SECS, INTEGRAL =      1.38 TIME LEFT: 172798.61
 STEP:  36 TIME =     0.04 SECS, INTEGRAL =      1.41 TIME LEFT: 172798.57
 STEP:  37 TIME =     0.04 SECS, INTEGRAL =      1.45 TIME LEFT: 172798.53
 STEP:  38 TIME =     0.04 SECS, INTEGRAL =      1.49 TIME LEFT: 172798.49
 STEP:  39 TIME =     0.04 SECS, INTEGRAL =      1.53 TIME LEFT: 172798.46
 STEP:  40 TIME =     0.04 SECS, INTEGRAL =      1.57 TIME LEFT: 172798.42
 STEP:  41 TIME =     0.04 SECS, INTEGRAL =      1.61 TIME LEFT: 172798.37
 STEP:  42 TIME =     0.04 SECS, INTEGRAL =      1.65 TIME LEFT: 172798.34
 STEP:  43 TIME =     0.04 SECS, INTEGRAL =      1.69 TIME LEFT: 172798.30
 STEP:  44 TIME =     0.04 SECS, INTEGRAL =      1.73 TIME LEFT: 172798.26
 STEP:  45 TIME =     0.04 SECS, INTEGRAL =      1.77 TIME LEFT: 172798.22
 STEP:  46 TIME =     0.04 SECS, INTEGRAL =      1.81 TIME LEFT: 172798.18
 STEP:  47 TIME =     0.04 SECS, INTEGRAL =      1.85 TIME LEFT: 172798.14
 STEP:  48 TIME =     0.04 SECS, INTEGRAL =      1.89 TIME LEFT: 172798.10
 STEP:  49 TIME =     0.04 SECS, INTEGRAL =      1.92 TIME LEFT: 172798.06
 STEP:  50 TIME =     0.04 SECS, INTEGRAL =      1.96 TIME LEFT: 172798.02
 STEP:  51 TIME =     0.04 SECS, INTEGRAL =      2.00 TIME LEFT: 172797.99
 STEP:  52 TIME =     0.04 SECS, INTEGRAL =      2.04 TIME LEFT: 172797.95
 STEP:  53 TIME =     0.04 SECS, INTEGRAL =      2.08 TIME LEFT: 172797.91
 STEP:  54 TIME =     0.04 SECS, INTEGRAL =      2.12 TIME LEFT: 172797.87
 STEP:  55 TIME =     0.04 SECS, INTEGRAL =      2.16 TIME LEFT: 172797.83
 STEP:  56 TIME =     0.04 SECS, INTEGRAL =      2.20 TIME LEFT: 172797.79
 STEP:  57 TIME =     0.04 SECS, INTEGRAL =      2.24 TIME LEFT: 172797.75
 STEP:  58 TIME =     0.04 SECS, INTEGRAL =      2.28 TIME LEFT: 172797.71
 STEP:  59 TIME =     0.04 SECS, INTEGRAL =      2.31 TIME LEFT: 172797.68
 STEP:  60 TIME =     0.04 SECS, INTEGRAL =      2.35 TIME LEFT: 172797.64
 STEP:  61 TIME =     0.04 SECS, INTEGRAL =      2.39 TIME LEFT: 172797.60
 STEP:  62 TIME =     0.04 SECS, INTEGRAL =      2.43 TIME LEFT: 172797.56
 STEP:  63 TIME =     0.04 SECS, INTEGRAL =      2.47 TIME LEFT: 172797.52
 STEP:  64 TIME =     0.04 SECS, INTEGRAL =      2.51 TIME LEFT: 172797.48
 STEP:  65 TIME =     0.04 SECS, INTEGRAL =      2.55 TIME LEFT: 172797.44
 STEP:  66 TIME =     0.04 SECS, INTEGRAL =      2.59 TIME LEFT: 172797.40
 STEP:  67 TIME =     0.04 SECS, INTEGRAL =      2.63 TIME LEFT: 172797.36
 STEP:  68 TIME =     0.04 SECS, INTEGRAL =      2.67 TIME LEFT: 172797.32
 STEP:  69 TIME =     0.04 SECS, INTEGRAL =      2.71 TIME LEFT: 172797.28
 STEP:  70 TIME =     0.04 SECS, INTEGRAL =      2.75 TIME LEFT: 172797.24
 STEP:  71 TIME =     0.04 SECS, INTEGRAL =      2.79 TIME LEFT: 172797.20
 STEP:  72 TIME =     0.04 SECS, INTEGRAL =      2.83 TIME LEFT: 172797.16
 STEP:  73 TIME =     0.04 SECS, INTEGRAL =      2.87 TIME LEFT: 172797.12
 STEP:  74 TIME =     0.04 SECS, INTEGRAL =      2.91 TIME LEFT: 172797.08
 STEP:  75 TIME =     0.04 SECS, INTEGRAL =      2.95 TIME LEFT: 172797.04
 STEP:  76 TIME =     0.04 SECS, INTEGRAL =      2.99 TIME LEFT: 172797.00
 STEP:  77 TIME =     0.04 SECS, INTEGRAL =      3.03 TIME LEFT: 172796.96
 STEP:  78 TIME =     0.04 SECS, INTEGRAL =      3.06 TIME LEFT: 172796.92

(To convert to Hartree/Bohr^2, multiply by (10^(-21) x N x a0^2)/(4.184 x 627.51) = 0.0642)


           FORCE MATRIX IN MILLIDYNES/ANGSTROM


                  C  1       C  2       C  3       C  4       C  5       C  6
 ------------------------------------------------------------------------------
     C    1  14.437590
     C    2   3.273571  14.443948
     C    3   3.180759   1.772991  14.758115
     C    4   1.782977   3.211213   3.151871  14.688892
     C    5   4.635294   0.549703   0.553264   0.040917  14.523919
     C    6   0.546940   4.629930   0.040990   0.548557   0.034643  14.517862
     C    7   0.040999   0.544563   0.569981   5.070684   0.005833   0.034208
     C    8   0.586078   0.044247   5.043112   0.586016   0.033647   0.007287
     C    9   0.006298   0.051105   0.048008   0.828926   0.001302   0.005278
     C   10   0.035109   0.004656   0.855762   0.035501   0.005578   0.001144
     H   11   4.382370   0.438536   0.438049   0.026217   0.421129   0.034076
     H   12   0.437634   4.370699   0.025557   0.436356   0.034010   0.420496
     H   13   0.435844   0.025624   4.362814   0.435506   0.033638   0.001840
     H   14   0.025496   0.442936   0.441825   4.337541   0.001791   0.033704
     H   15   0.468793   0.020822   0.020928   0.001836   4.710919   0.001049
     H   16   0.451155   0.012653   0.048148   0.003463   4.743424   0.001918
     H   17   0.452267   0.047645   0.012310   0.003887   4.747966   0.005912
     H   18   0.020495   0.468888   0.002062   0.021185   0.001038   4.702317
     H   19   0.047512   0.452026   0.003589   0.012558   0.005871   4.737457
     H   20   0.012688   0.450737   0.003549   0.047407   0.001933   4.748004
     H   21   0.002526   0.034973   0.030548   0.434849   0.001151   0.004632
     H   22   0.019604   0.001360   0.436317   0.019727   0.001312   0.002669
     H   23   0.001569   0.007125   0.010215   0.133024   0.000371   0.000513
     H   24   0.001693   0.017407   0.004565   0.098239   0.000916   0.003793
     H   25   0.009920   0.001102   0.099326   0.009643   0.001485   0.000240
     H   26   0.016628   0.001865   0.138326   0.016709   0.002037   0.000875


                  C  7       C  8       C  9       C 10       H 11       H 12
 ------------------------------------------------------------------------------
     C    7  18.272872
     C    8   0.033800  18.308606
     C    9  11.056210   0.006861  18.010817
     C   10   0.006068  11.068230   0.002422  18.036074
     H   11   0.001485   0.038650   0.001187   0.003071   4.894005
     H   12   0.025422   0.002589   0.015173   0.000832   0.029204   4.881108
     H   13   0.033144   0.444029   0.003027   0.052419   0.028780   0.002397
     H   14   0.390423   0.038275   0.025401   0.003307   0.002388   0.029846
     H   15   0.001359   0.000764   0.000648   0.000633   0.044069   0.022286
     H   16   0.001085   0.006095   0.000490   0.001214   0.029835   0.005371
     H   17   0.000967   0.002909   0.000208   0.000964   0.029748   0.002900
     H   18   0.001589   0.002475   0.001126   0.000671   0.021777   0.044052
     H   19   0.001507   0.001237   0.002138   0.000582   0.002932   0.030615
     H   20   0.005810   0.001408   0.000735   0.000526   0.005366   0.029476
     H   21   4.780062   0.002957   0.455478   0.001629   0.000582   0.002981
     H   22   0.001675   4.765298   0.000852   0.453578   0.021371   0.000772
     H   23   0.463739   0.001299   5.112637   0.000575   0.000142   0.001291
     H   24   0.493436   0.001224   5.060852   0.000391   0.000424   0.023397
     H   25   0.002256   0.490617   0.000955   5.069834   0.000776   0.000196
     H   26   0.002199   0.460918   0.000731   5.106645   0.000907   0.000224


                  H 13       H 14       H 15       H 16       H 17       H 18
 ------------------------------------------------------------------------------
     H   13   4.872436
     H   14   0.029694   4.831960
     H   15   0.022538   0.000567   5.450326
     H   16   0.002887   0.000438   0.571389   5.468741
     H   17   0.005180   0.000414   0.571021   0.566599   5.472962
     H   18   0.000553   0.023045   0.000455   0.000191   0.000405   5.438562
     H   19   0.000478   0.005073   0.000379   0.000412   0.001212   0.568861
     H   20   0.000474   0.003011   0.000341   0.001876   0.000366   0.570786
     H   21   0.029061   0.014141   0.000391   0.000272   0.000371   0.000436
     H   22   0.036625   0.021998   0.000541   0.000469   0.000483   0.006120
     H   23   0.000684   0.015065   0.000123   0.000221   0.000131   0.000374
     H   24   0.000738   0.011912   0.000379   0.000229   0.000246   0.000735
     H   25   0.029587   0.000832   0.000245   0.000422   0.000222   0.000211
     H   26   0.001995   0.000937   0.000180   0.000364   0.000238   0.000212


                  H 19       H 20       H 21       H 22       H 23       H 24
 ------------------------------------------------------------------------------
     H   19   5.457551
     H   20   0.564486   5.471283
     H   21   0.000378   0.001017   5.145054
     H   22   0.000523   0.000565   0.000863   5.136696
     H   23   0.000435   0.000275   0.078817   0.000254   5.499918
     H   24   0.008265   0.000568   0.117160   0.000259   0.417058   5.449670
     H   25   0.000123   0.000144   0.000593   0.117237   0.000350   0.000212
     H   26   0.000227   0.000256   0.000560   0.078270   0.000176   0.000259


                  H 25       H 26
 ------------------------------
     H   25   5.465409
     H   26   0.422384   5.494375


          HEAT OF FORMATION =      20.069133 KCALS/MOLE

          ZERO POINT ENERGY     144.668 KCAL/MOL


           NORMAL COORDINATE ANALYSIS (Total motion = 1 Angstrom)


   Root No.       1         2         3         4         5         6         7         8

                 1 A       2 A       3 A       4 A       5 A       6 A       7 A       8 A   

                  53.5      75.3     109.1     166.3     173.7     189.9     209.0     243.0
  
           1   -0.0019    0.0005    0.0089    0.0014    0.0014    0.0031    0.0035   -0.0046
           2   -0.0049   -0.0198    0.0013   -0.0043   -0.0047    0.0012   -0.0043    0.0096
           3   -0.0143    0.0072   -0.0049   -0.0016   -0.0004    0.0010   -0.0133   -0.0032
           4   -0.0019    0.0008    0.0090    0.0023    0.0021    0.0023    0.0038   -0.0061
           5   -0.0036   -0.0038   -0.0008   -0.0137   -0.0022    0.0105   -0.0065    0.0091
           6    0.0162   -0.0037   -0.0087   -0.0041   -0.0004    0.0016   -0.0102   -0.0046
           7   -0.0022   -0.0157    0.0105    0.0112   -0.0006   -0.0074    0.0016   -0.0078
           8   -0.0049   -0.0201    0.0006   -0.0057   -0.0048    0.0014   -0.0051    0.0113
           9    0.0002    0.0027   -0.0104   -0.0001   -0.0022    0.0014   -0.0282    0.0014
          10   -0.0026   -0.0157    0.0100    0.0111   -0.0016   -0.0071    0.0013   -0.0065
          11   -0.0047   -0.0039   -0.0019   -0.0123   -0.0019    0.0103   -0.0060    0.0083
          12   -0.0030   -0.0018   -0.0290    0.0033   -0.0015   -0.0011   -0.0108   -0.0036
          13   -0.0285    0.0191    0.0123   -0.0080   -0.0101    0.0081    0.0141    0.0441
          14   -0.0193   -0.0232    0.0075    0.0002    0.0127   -0.0014    0.0377   -0.0300
          15   -0.0363    0.0156    0.0002   -0.0046    0.0030    0.0024    0.0158    0.0018
          16    0.0263   -0.0016    0.0052   -0.0269    0.0160    0.0137    0.0222   -0.0122
          17   -0.0206    0.0048   -0.0235   -0.0184    0.0102    0.0072   -0.0151   -0.0312
          18    0.0424   -0.0103    0.0031   -0.0186   -0.0004    0.0107    0.0055    0.0186
          19    0.0030   -0.0226    0.0051   -0.0082   -0.0022    0.0023   -0.0268   -0.0102
          20    0.0092    0.0061    0.0209    0.0047   -0.0026    0.0013   -0.0259   -0.0022
          21   -0.0163   -0.0045   -0.0413    0.0045   -0.0008   -0.0011    0.0218    0.0062
          22   -0.0076   -0.0127   -0.0109    0.0172   -0.0047   -0.0144   -0.0091    0.0114
          23    0.0111   -0.0190    0.0058    0.0040   -0.0068   -0.0090    0.0092    0.0301
          24    0.0118    0.0014    0.0053    0.0022   -0.0007   -0.0005   -0.0139   -0.0016
          25    0.0128   -0.0193   -0.0395    0.0014   -0.0030   -0.0015   -0.0083   -0.0065
          26    0.0225    0.0200   -0.0139    0.0501   -0.0050   -0.0222    0.0019   -0.0033
          27   -0.0314   -0.0027    0.0453    0.0117   -0.0005   -0.0079   -0.0051   -0.0042
          28    0.0016    0.0601   -0.0078    0.0069    0.0021   -0.0029   -0.0066   -0.0089
          29    0.0183    0.0545    0.0062   -0.0073   -0.0004    0.0033    0.0084    0.0115
          30    0.0297   -0.0039    0.0312    0.0104    0.0026   -0.0078    0.0239   -0.0148
          31    0.0186   -0.0026    0.0059   -0.0015    0.0002    0.0064   -0.0015   -0.0152
          32    0.0055   -0.0282   -0.0015    0.0005   -0.0070   -0.0018   -0.0234    0.0183
          33   -0.0287    0.0126   -0.0022   -0.0027    0.0014    0.0010   -0.0008   -0.0020
          34   -0.0218    0.0120    0.0081    0.0088    0.0038   -0.0004   -0.0024   -0.0073
          35    0.0120   -0.0011    0.0115   -0.0217   -0.0007    0.0150   -0.0008    0.0215
          36    0.0314   -0.0078   -0.0032   -0.0110   -0.0006    0.0052   -0.0045    0.0022
          37    0.0023   -0.0191    0.0275    0.0110   -0.0011   -0.0089    0.0001   -0.0107
          38   -0.0161   -0.0221    0.0008   -0.0075   -0.0066    0.0002   -0.0066    0.0061
          39    0.0073    0.0022   -0.0032    0.0009   -0.0014    0.0011   -0.0264    0.0020
          40   -0.0071   -0.0229    0.0023    0.0175   -0.0017   -0.0130    0.0188   -0.0049
          41   -0.0181    0.0006   -0.0151   -0.0130   -0.0024    0.0152    0.0013    0.0106
          42   -0.0100   -0.0029   -0.0367    0.0054   -0.0017   -0.0014   -0.0001   -0.0016
          43   -0.0482    0.0193    0.0155    0.0372    0.1106    0.0610    0.0166    0.0952
          44   -0.0318   -0.0113    0.0119   -0.0490   -0.1025   -0.0518    0.0801   -0.0731
          45   -0.0225    0.0104   -0.0030   -0.0027    0.0013    0.0017   -0.0030   -0.0013
          46   -0.0302    0.0372    0.0116   -0.0732   -0.1721   -0.0520    0.0223    0.0385
          47   -0.0196   -0.0204    0.0075   -0.0103   -0.0131   -0.0111    0.0396   -0.0317
          48   -0.0465    0.0205    0.0051   -0.0377   -0.0724   -0.0360    0.0613   -0.0541
          49   -0.0284    0.0164    0.0124    0.0020    0.0149    0.0176    0.0131    0.0458
          50   -0.0179   -0.0412    0.0083    0.0654    0.1751    0.0591    0.0305   -0.0239
          51   -0.0576    0.0226    0.0029    0.0239    0.0830    0.0428    0.0155    0.0654
          52    0.0475   -0.0141    0.0111    0.0094   -0.0522    0.1228    0.0462   -0.0251
          53   -0.0378    0.0018   -0.0341    0.0392   -0.0581    0.1013   -0.0161   -0.0764
          54    0.0275   -0.0064   -0.0031   -0.0125    0.0025    0.0007   -0.0043    0.0077
          55    0.0260   -0.0035    0.0069   -0.0157    0.0014    0.0318    0.0238   -0.0133
          56   -0.0172    0.0167   -0.0354   -0.0942    0.1069   -0.1096   -0.0230   -0.0258
          57    0.0649   -0.0199    0.0029   -0.0010   -0.0475    0.1003    0.0293   -0.0003
          58    0.0285    0.0107   -0.0063   -0.1034    0.1149   -0.1072    0.0137   -0.0054
          59   -0.0203    0.0028   -0.0210   -0.0079   -0.0035    0.0233   -0.0137   -0.0303
          60    0.0563   -0.0103    0.0190   -0.0553    0.0440   -0.0607    0.0062    0.0697
          61   -0.0006   -0.0312    0.0330   -0.0355   -0.0016    0.0156   -0.0634   -0.0163
          62    0.0058    0.0026    0.0735   -0.0089   -0.0025    0.0067   -0.0708   -0.0140
          63   -0.0138   -0.0082   -0.1212   -0.0003   -0.0004    0.0039    0.0736    0.0244
          64   -0.0201   -0.0676   -0.0308    0.0297   -0.0140   -0.0288   -0.0239    0.0510
          65    0.0179   -0.0759    0.0112    0.0221   -0.0135   -0.0285    0.0259    0.0622
          66    0.0053    0.0050   -0.0030   -0.0005   -0.0011    0.0021   -0.0243   -0.0011
          67    0.0189   -0.0252   -0.0558   -0.0221   -0.0027    0.0121   -0.0269   -0.0075
          68    0.0304    0.0285    0.0061    0.0750   -0.0070   -0.0367   -0.0176   -0.0157
          69   -0.0410   -0.0050    0.0417    0.0093    0.0007   -0.0065    0.0208    0.0052
          70    0.0146   -0.0106   -0.0612    0.0322   -0.0038   -0.0177    0.0263   -0.0019
          71    0.0254    0.0240   -0.0627    0.0659   -0.0051   -0.0294    0.0458    0.0079
          72   -0.0356    0.0012    0.1282    0.0222   -0.0017   -0.0165   -0.0565   -0.0238
          73    0.0139    0.1161    0.0123   -0.0043    0.0120    0.0107    0.0125   -0.0538
          74    0.0123    0.1122    0.0001   -0.0268    0.0056    0.0241   -0.0121   -0.0175
          75    0.0366   -0.0075    0.0410    0.0144    0.0038   -0.0115    0.0395   -0.0192
          76   -0.0026    0.0698   -0.0254    0.0085   -0.0016   -0.0058   -0.0238    0.0169
          77    0.0309    0.0629    0.0127    0.0018   -0.0005   -0.0061    0.0288    0.0228
          78    0.0385   -0.0051    0.0445    0.0141    0.0047   -0.0110    0.0442   -0.0238


   Root No.       9        10        11        12        13        14        15        16

                 9 A      10 A      11 A      12 A      13 A      14 A      15 A      16 A   

                 273.8     356.4     394.6     433.2     450.3     496.7     556.0     640.4
  
           1   -0.0135   -0.0205    0.0158    0.0109    0.0296   -0.0040   -0.0005   -0.0191
           2   -0.0157    0.0048   -0.0016   -0.0194   -0.0214   -0.0091    0.0046   -0.0225
           3    0.0016   -0.0111    0.0076   -0.0317    0.0206    0.0094    0.0305   -0.0127
           4   -0.0112   -0.0194    0.0184    0.0089    0.0292   -0.0017    0.0073   -0.0169
           5   -0.0149   -0.0187    0.0023    0.0000   -0.0037    0.0288   -0.0062   -0.0086
           6    0.0026   -0.0171   -0.0230   -0.0024    0.0304   -0.0243   -0.0243   -0.0085
           7   -0.0100   -0.0043    0.0027   -0.0203   -0.0020   -0.0244    0.0029    0.0092
           8   -0.0139    0.0083   -0.0021   -0.0211   -0.0132   -0.0112    0.0112   -0.0165
           9    0.0024    0.0101    0.0378   -0.0006   -0.0241    0.0016   -0.0135   -0.0121
          10   -0.0133    0.0026   -0.0030   -0.0144    0.0085   -0.0167    0.0032    0.0180
          11   -0.0166   -0.0200    0.0062    0.0055   -0.0089    0.0251    0.0036    0.0112
          12    0.0044    0.0036   -0.0124    0.0374   -0.0097   -0.0157    0.0167    0.0072
          13   -0.0002    0.0085   -0.0153    0.0135   -0.0092   -0.0158   -0.0204   -0.0099
          14    0.0007    0.0021    0.0144    0.0239   -0.0122   -0.0060   -0.0197   -0.0110
          15    0.0203    0.0041   -0.0013   -0.0114    0.0079    0.0107    0.0204    0.0131
          16    0.0198    0.0240    0.0174   -0.0082   -0.0091    0.0042    0.0231    0.0000
          17    0.0218   -0.0029   -0.0220   -0.0172    0.0102   -0.0045   -0.0226   -0.0055
          18   -0.0029   -0.0043   -0.0138   -0.0034   -0.0005    0.0000   -0.0222   -0.0043
          19   -0.0059    0.0210   -0.0187    0.0109    0.0077    0.0244   -0.0052    0.0252
          20    0.0050   -0.0228    0.0023    0.0196   -0.0129   -0.0170    0.0164    0.0571
          21   -0.0190   -0.0044   -0.0031    0.0170   -0.0060   -0.0075    0.0233   -0.0035
          22    0.0305   -0.0225    0.0061   -0.0108   -0.0257    0.0005   -0.0042   -0.0023
          23    0.0251    0.0076    0.0038   -0.0006    0.0285   -0.0108    0.0115    0.0047
          24   -0.0001    0.0174    0.0443    0.0032    0.0007   -0.0132   -0.0222    0.0048
          25   -0.0107    0.0232   -0.0192    0.0132    0.0070    0.0224    0.0012    0.0066
          26   -0.0014    0.0200   -0.0039   -0.0001   -0.0029    0.0041    0.0017    0.0029
          27   -0.0129    0.0225   -0.0103    0.0009    0.0057    0.0194   -0.0027    0.0104
          28    0.0062   -0.0203   -0.0008   -0.0055   -0.0295    0.0100   -0.0088   -0.0050
          29    0.0003    0.0153    0.0023    0.0063    0.0320   -0.0044    0.0078    0.0041
          30    0.0028   -0.0218   -0.0175   -0.0039   -0.0191    0.0061   -0.0011   -0.0026
          31   -0.0192   -0.0399    0.0130    0.0232    0.0598   -0.0037   -0.0155   -0.0325
          32   -0.0202    0.0180    0.0099   -0.0336   -0.0482   -0.0216    0.0031   -0.0317
          33    0.0078   -0.0071    0.0032   -0.0296    0.0186    0.0149    0.0378   -0.0011
          34   -0.0164   -0.0348    0.0308    0.0036    0.0523    0.0157    0.0209   -0.0333
          35   -0.0235   -0.0324    0.0126   -0.0112    0.0079    0.0572   -0.0197   -0.0212
          36    0.0014   -0.0146   -0.0242   -0.0044    0.0229   -0.0198   -0.0356   -0.0066
          37   -0.0163    0.0080    0.0143   -0.0499    0.0030   -0.0352   -0.0032    0.0089
          38   -0.0196    0.0074   -0.0133   -0.0513   -0.0177   -0.0129    0.0320   -0.0329
          39    0.0025    0.0145    0.0469    0.0014   -0.0198   -0.0026   -0.0254   -0.0049
          40   -0.0158   -0.0021   -0.0256   -0.0200    0.0144   -0.0464    0.0217    0.0195
          41   -0.0229   -0.0189    0.0218    0.0216   -0.0233    0.0551    0.0206   -0.0130
          42   -0.0006    0.0020   -0.0145    0.0406   -0.0125   -0.0152    0.0306   -0.0012
          43    0.0114    0.0266   -0.0418    0.0264   -0.0318   -0.0267   -0.0452    0.0093
          44    0.0163    0.0098    0.0262    0.0583   -0.0195   -0.0042   -0.0457    0.0087
          45    0.0090   -0.0065    0.0047   -0.0307    0.0201    0.0142    0.0408   -0.0030
          46    0.0009    0.0220   -0.0289   -0.0020   -0.0318   -0.0258   -0.0211   -0.0112
          47    0.0011    0.0042    0.0131    0.0226   -0.0157   -0.0072   -0.0206   -0.0110
          48    0.0367    0.0040    0.0228    0.0342    0.0144    0.0195   -0.0048    0.0371
          49   -0.0001    0.0070   -0.0141    0.0163   -0.0066   -0.0153   -0.0218   -0.0098
          50    0.0000   -0.0106    0.0276    0.0426    0.0082    0.0020   -0.0248   -0.0115
          51    0.0321    0.0308   -0.0403   -0.0108   -0.0276   -0.0052   -0.0009    0.0358
          52    0.0450    0.0525    0.0243   -0.0240   -0.0415    0.0213    0.0419    0.0140
          53    0.0521   -0.0022   -0.0388   -0.0328    0.0375   -0.0341   -0.0410   -0.0094
          54   -0.0021   -0.0152   -0.0223   -0.0025    0.0217   -0.0171   -0.0355   -0.0112
          55    0.0192    0.0217    0.0192   -0.0069   -0.0080    0.0065    0.0241   -0.0014
          56    0.0303    0.0185   -0.0336   -0.0316   -0.0025   -0.0195   -0.0238    0.0074
          57    0.0342    0.0372   -0.0138   -0.0295   -0.0398    0.0090   -0.0059    0.0164
          58    0.0264    0.0449    0.0080   -0.0207   -0.0219   -0.0095    0.0268    0.0132
          59    0.0192   -0.0068   -0.0198   -0.0147    0.0115   -0.0010   -0.0230   -0.0079
          60   -0.0455   -0.0204    0.0083    0.0226   -0.0204    0.0378   -0.0079   -0.0097
          61    0.0088    0.0157   -0.0315    0.0495   -0.0027    0.0228    0.0191    0.0017
          62    0.0275   -0.0159   -0.0141    0.0585   -0.0233   -0.0268    0.0430    0.0208
          63   -0.0501   -0.0242    0.0164   -0.0200    0.0034    0.0151   -0.0050    0.0445
          64    0.0919   -0.0379    0.0358    0.0005   -0.0135    0.0365   -0.0203   -0.0127
          65    0.0869   -0.0209    0.0006    0.0122    0.0610    0.0244    0.0110    0.0081
          66   -0.0034    0.0222    0.0536    0.0020   -0.0081   -0.0142   -0.0264   -0.0002
          67    0.0038   -0.0070   -0.0246    0.0680   -0.0167   -0.0284    0.0682   -0.0348
          68    0.0152    0.0674   -0.0287    0.0247   -0.0022    0.0188    0.0187   -0.1694
          69   -0.0343    0.0092    0.0104   -0.0523    0.0210    0.0435   -0.0588    0.1594
          70   -0.0299    0.0534   -0.0137   -0.0375    0.0308    0.0710   -0.0553    0.0153
          71   -0.0248    0.0204    0.0122   -0.0471    0.0122    0.0278   -0.0413    0.0666
          72    0.0133    0.0698   -0.0408    0.0342    0.0066    0.0397    0.0115   -0.1306
          73   -0.0567   -0.0220   -0.0560   -0.0257   -0.0762   -0.0198    0.0198   -0.0083
          74   -0.0650    0.0639    0.0260   -0.0028    0.0230   -0.0676    0.0054    0.0225
          75    0.0070   -0.0430   -0.0482   -0.0076   -0.0328    0.0219    0.0108   -0.0118
          76    0.0458   -0.0162    0.0480    0.0202    0.0126    0.0511   -0.0440   -0.0059
          77    0.0419   -0.0263   -0.0242    0.0228    0.0451    0.0671    0.0062   -0.0154
          78    0.0016   -0.0461   -0.0594   -0.0104   -0.0378    0.0199    0.0180   -0.0127


   Root No.      17        18        19        20        21        22        23        24

                17 A      18 A      19 A      20 A      21 A      22 A      23 A      24 A   

                 653.3     708.1     880.6     906.7     912.1     929.6     940.9     949.7
  
           1   -0.0017   -0.0149   -0.0362   -0.0017   -0.0025   -0.0019    0.0003   -0.0014
           2    0.0265   -0.0209    0.0111    0.0103   -0.0140    0.0042    0.0027    0.0050
           3    0.0068   -0.0129   -0.0131    0.0034   -0.0097    0.0019    0.0018    0.0025
           4   -0.0032   -0.0159    0.0360    0.0003    0.0030    0.0028    0.0005    0.0024
           5   -0.0153    0.0220    0.0119   -0.0154   -0.0047    0.0099    0.0080    0.0020
           6    0.0038   -0.0139    0.0124    0.0095    0.0057   -0.0045   -0.0039   -0.0010
           7    0.0056    0.0298    0.0010   -0.0080    0.0036   -0.0143   -0.0044   -0.0132
           8    0.0088   -0.0167   -0.0079   -0.0139    0.0175   -0.0087   -0.0030   -0.0123
           9    0.0006   -0.0193   -0.0056   -0.0059    0.0198    0.0120   -0.0012    0.0044
          10    0.0175    0.0275   -0.0001   -0.0043    0.0014    0.0161    0.0041    0.0038
          11   -0.0078    0.0142   -0.0072    0.0193    0.0055   -0.0192   -0.0152   -0.0081
          12    0.0021   -0.0265    0.0062   -0.0188   -0.0108   -0.0075    0.0106   -0.0178
          13    0.0052   -0.0091   -0.0284   -0.0018   -0.0044    0.0012    0.0024    0.0000
          14    0.0079   -0.0108    0.0033    0.0112   -0.0170    0.0040    0.0046    0.0119
          15   -0.0077    0.0099    0.0045   -0.0006   -0.0008   -0.0012    0.0017   -0.0004
          16    0.0035   -0.0116    0.0290    0.0016    0.0053    0.0002    0.0000   -0.0011
          17   -0.0045    0.0143    0.0032   -0.0185   -0.0063    0.0137    0.0167   -0.0002
          18   -0.0041    0.0124   -0.0044    0.0002    0.0016    0.0001   -0.0042    0.0027
          19   -0.0014   -0.0096   -0.0014    0.0082    0.0031    0.0026    0.0094   -0.0004
          20    0.0119   -0.0039   -0.0023    0.0119    0.0055   -0.0021    0.0115   -0.0118
          21    0.0061    0.0217   -0.0013   -0.0024   -0.0016   -0.0007   -0.0171    0.0079
          22   -0.0392   -0.0023   -0.0002   -0.0008    0.0002   -0.0181    0.0084    0.0121
          23   -0.0389   -0.0041   -0.0021   -0.0037    0.0059   -0.0145    0.0080    0.0130
          24   -0.0001    0.0227    0.0029    0.0028   -0.0054    0.0001   -0.0009    0.0007
          25   -0.0019    0.0004   -0.0013    0.0055    0.0007    0.0026    0.0023    0.0038
          26    0.0016    0.0014   -0.0036    0.0041    0.0032    0.0097    0.0052    0.0121
          27   -0.0006    0.0006   -0.0031    0.0063    0.0037    0.0109   -0.0051    0.0229
          28    0.0022    0.0007    0.0014    0.0028   -0.0050   -0.0078    0.0028    0.0047
          29    0.0028   -0.0002   -0.0020   -0.0025    0.0046   -0.0009    0.0022    0.0063
          30   -0.0001    0.0019    0.0038    0.0059   -0.0180   -0.0125    0.0026   -0.0059
          31   -0.0141   -0.0250   -0.0333   -0.0051    0.0042   -0.0027    0.0015    0.0021
          32    0.0458   -0.0358    0.0265    0.0043    0.0173    0.0103   -0.0155   -0.0175
          33    0.0023   -0.0006   -0.0196    0.0071   -0.0259   -0.0007    0.0095    0.0107
          34   -0.0157   -0.0271    0.0307   -0.0111   -0.0048    0.0032   -0.0018    0.0069
          35   -0.0371    0.0431    0.0282    0.0059    0.0147   -0.0040   -0.0369    0.0246
          36    0.0004    0.0004    0.0192    0.0215    0.0161   -0.0094   -0.0197    0.0059
          37    0.0305    0.0676    0.0064   -0.0262    0.0321    0.0006   -0.0287   -0.0196
          38    0.0403   -0.0256   -0.0016   -0.0304    0.0218   -0.0168   -0.0148   -0.0399
          39   -0.0036    0.0002   -0.0057   -0.0052    0.0286    0.0213   -0.0055    0.0142
          40    0.0360    0.0676   -0.0032   -0.0384   -0.0195    0.0235    0.0003   -0.0312
          41   -0.0276    0.0351   -0.0006    0.0247   -0.0021   -0.0500   -0.0590   -0.0030
          42    0.0025   -0.0019    0.0069   -0.0292   -0.0217   -0.0168   -0.0087   -0.0294
          43    0.0024    0.0075    0.0569   -0.0022    0.0328   -0.0037   -0.0162   -0.0105
          44   -0.0124    0.0085    0.0083   -0.0243    0.0536   -0.0028   -0.0188   -0.0266
          45    0.0019   -0.0050   -0.0322    0.0143   -0.0447    0.0036    0.0188    0.0198
          46    0.0245   -0.0135    0.0549    0.0348   -0.0378    0.0048    0.0064    0.0290
          47    0.0102   -0.0113    0.0148    0.0156   -0.0200    0.0046    0.0046    0.0152
          48   -0.0422    0.0350   -0.0316   -0.0584    0.0946   -0.0116   -0.0253   -0.0574
          49    0.0028   -0.0088   -0.0388   -0.0066    0.0009    0.0008    0.0013   -0.0040
          50   -0.0103   -0.0086   -0.0817   -0.0248    0.0173    0.0019   -0.0006   -0.0166
          51   -0.0011    0.0285    0.1455    0.0174    0.0240   -0.0064   -0.0159    0.0012
          52    0.0061    0.0047   -0.0578   -0.0209   -0.0267    0.0101    0.0258   -0.0060
          53    0.0071   -0.0049    0.0106    0.0510    0.0291   -0.0285   -0.0541    0.0134
          54   -0.0010   -0.0008    0.0321    0.0331    0.0261   -0.0186   -0.0389    0.0093
          55    0.0017   -0.0116    0.0401   -0.0048    0.0045    0.0046    0.0062   -0.0023
          56    0.0107    0.0146   -0.0918    0.0277   -0.0058   -0.0183   -0.0272    0.0085
          57    0.0060    0.0323   -0.1434   -0.0042   -0.0327   -0.0021    0.0041    0.0027
          58    0.0190   -0.0160   -0.0563    0.0487    0.0068   -0.0334   -0.0428    0.0046
          59   -0.0076    0.0163    0.0173   -0.0292   -0.0078    0.0213    0.0263   -0.0012
          60   -0.0258    0.0377    0.0314   -0.0984   -0.0368    0.0622    0.0901   -0.0125
          61   -0.0067   -0.0054    0.0054   -0.0362   -0.0290   -0.0441   -0.0847   -0.0059
          62    0.0099    0.0045    0.0058   -0.0608   -0.0397   -0.0229   -0.0983    0.0248
          63    0.0025    0.0078   -0.0109    0.1013    0.0574   -0.0189    0.1024   -0.0840
          64    0.0063   -0.0090   -0.0092    0.0326   -0.0076    0.1472   -0.0675   -0.0715
          65    0.0064    0.0063    0.0012    0.0457   -0.0537    0.1148   -0.0605   -0.0893
          66   -0.0022    0.0157   -0.0016   -0.0054    0.0149    0.0055    0.0003    0.0121
          67    0.0174    0.0747   -0.0178    0.0440    0.0308    0.0725   -0.0002    0.1151
          68   -0.0235    0.0553    0.0044    0.0045    0.0021   -0.0388   -0.0152   -0.0469
          69    0.0041   -0.0864    0.0021   -0.0185   -0.0152   -0.0014    0.0105   -0.0089
          70   -0.0227   -0.0507    0.0179   -0.0456   -0.0351   -0.0614   -0.0596   -0.0521
          71   -0.0019   -0.0477    0.0073   -0.0471   -0.0280   -0.0136   -0.0679    0.0247
          72   -0.0255    0.0376    0.0015    0.0482    0.0217   -0.0369    0.0730   -0.1002
          73   -0.1158   -0.0469   -0.0133    0.0075    0.0367    0.1268   -0.0508   -0.0429
          74   -0.1207    0.0184    0.0117    0.0423   -0.0769    0.0508   -0.0343   -0.0786
          75    0.0082   -0.0244   -0.0078   -0.0117    0.0329    0.0163   -0.0019    0.0124
          76    0.1856    0.0532    0.0192    0.0070   -0.0534   -0.0502    0.0040   -0.0392
          77    0.1927   -0.0125   -0.0127   -0.0389    0.0747    0.0367   -0.0119   -0.0050
          78   -0.0074   -0.0353   -0.0121   -0.0155    0.0468    0.0319   -0.0055    0.0138


   Root No.      25        26        27        28        29        30        31        32

                25 A      26 A      27 A      28 A      29 A      30 A      31 A      32 A   

                 973.2     990.9    1026.2    1028.8    1056.1    1067.8    1085.3    1091.9
  
           1   -0.0001    0.0067    0.0011    0.0017   -0.0009   -0.0001   -0.0202    0.0094
           2   -0.0010   -0.0005   -0.0002   -0.0075    0.0178    0.0113   -0.0130   -0.0096
           3    0.0020    0.0078    0.0022   -0.0043   -0.0002    0.0061    0.0005   -0.0075
           4   -0.0002    0.0070    0.0042   -0.0003    0.0021    0.0179    0.0064   -0.0067
           5    0.0006    0.0014    0.0056   -0.0023    0.0188   -0.0075    0.0169    0.0064
           6    0.0019    0.0084   -0.0071   -0.0003   -0.0039   -0.0075   -0.0107   -0.0124
           7   -0.0074   -0.0025    0.0017    0.0124   -0.0302    0.0149    0.0026    0.0072
           8    0.0185    0.0036   -0.0005    0.0067   -0.0027   -0.0231   -0.0021    0.0214
           9   -0.0038    0.0015   -0.0004   -0.0020    0.0069    0.0010   -0.0025    0.0016
          10   -0.0121   -0.0022   -0.0003   -0.0111    0.0348    0.0098   -0.0099    0.0033
          11   -0.0076   -0.0019   -0.0074   -0.0001   -0.0046   -0.0059   -0.0272   -0.0057
          12   -0.0046    0.0004    0.0021    0.0027    0.0007    0.0106    0.0202    0.0204
          13    0.0048   -0.0224   -0.0033   -0.0016   -0.0017   -0.0007    0.0101   -0.0074
          14   -0.0156    0.0006    0.0005    0.0060   -0.0111   -0.0069    0.0077    0.0035
          15   -0.0044   -0.0113   -0.0023    0.0040    0.0031   -0.0030   -0.0081    0.0062
          16    0.0057   -0.0214   -0.0047   -0.0014   -0.0004   -0.0116   -0.0048    0.0013
          17    0.0010   -0.0023   -0.0056    0.0012   -0.0122    0.0062   -0.0102   -0.0045
          18   -0.0008   -0.0118    0.0078    0.0004   -0.0001    0.0129    0.0052    0.0080
          19    0.0032    0.0007   -0.0115    0.0016    0.0006    0.0047    0.0057    0.0098
          20   -0.0059    0.0009   -0.0255   -0.0035    0.0028   -0.0003    0.0111   -0.0052
          21   -0.0018   -0.0006    0.0123   -0.0042   -0.0022   -0.0123   -0.0087   -0.0261
          22    0.0016    0.0003    0.0002    0.0247    0.0065   -0.0006   -0.0008   -0.0066
          23   -0.0045   -0.0004    0.0006    0.0251    0.0057    0.0008   -0.0003   -0.0064
          24   -0.0083   -0.0009    0.0007    0.0001   -0.0038   -0.0062    0.0024   -0.0002
          25    0.0040   -0.0008    0.0244   -0.0008   -0.0026   -0.0058   -0.0034   -0.0087
          26    0.0114   -0.0011    0.0386    0.0029   -0.0088   -0.0039   -0.0056   -0.0026
          27    0.0148    0.0034   -0.0351    0.0063   -0.0060    0.0038    0.0039    0.0084
          28    0.0058    0.0010   -0.0015   -0.0428   -0.0053   -0.0029   -0.0006    0.0032
          29   -0.0066   -0.0001   -0.0004   -0.0427   -0.0069    0.0019    0.0013    0.0046
          30    0.0241    0.0022   -0.0010    0.0003    0.0071   -0.0045   -0.0015    0.0026
          31    0.0044    0.1027    0.0081    0.0091    0.0144   -0.1007   -0.0854    0.0866
          32    0.0260   -0.0121   -0.0002   -0.0381    0.0315    0.1396   -0.0240   -0.0986
          33   -0.0123   -0.0311   -0.0011    0.0069   -0.0136   -0.0073    0.0357   -0.0013
          34    0.0048    0.0964    0.0202    0.0054   -0.0157    0.0432    0.1408   -0.0541
          35    0.0116    0.0087    0.0349    0.0031    0.0374   -0.0378    0.1871   -0.0251
          36    0.0040   -0.0288   -0.0020   -0.0007    0.0117   -0.0298   -0.0035   -0.0025
          37   -0.0162   -0.0009    0.0111   -0.0032   -0.1363   -0.0263    0.0652   -0.0089
          38    0.0808    0.0206    0.0113   -0.0201   -0.0750   -0.0411    0.0677    0.0363
          39   -0.0365   -0.0056   -0.0018    0.0040   -0.0031   -0.0073   -0.0088   -0.0116
          40   -0.0334   -0.0044    0.0160   -0.0534    0.1366   -0.0832    0.0384    0.0216
          41   -0.0307   -0.0246    0.0878    0.0150   -0.0358    0.1391   -0.0347    0.1341
          42   -0.0227   -0.0094    0.0463   -0.0089    0.0296    0.0309    0.0363    0.0828
          43    0.0137    0.0854    0.0114   -0.0111    0.0040    0.0087   -0.0145   -0.0006
          44    0.0427    0.0470    0.0068   -0.0249    0.0210    0.0289   -0.0072   -0.0230
          45   -0.0322   -0.0743   -0.0110    0.0206   -0.0116   -0.0215    0.0062    0.0146
          46   -0.0445    0.0417    0.0061    0.0171   -0.0290   -0.0195    0.0051    0.0175
          47   -0.0210    0.0105    0.0020    0.0076   -0.0138   -0.0080    0.0069    0.0055
          48    0.0801    0.0046   -0.0015   -0.0355    0.0581    0.0414   -0.0363   -0.0256
          49    0.0120   -0.0274   -0.0041   -0.0048    0.0013    0.0020    0.0108   -0.0116
          50    0.0362   -0.0548   -0.0076   -0.0161    0.0132    0.0149    0.0187   -0.0295
          51   -0.0218    0.1262    0.0164    0.0052    0.0046   -0.0014   -0.0542    0.0341
          52   -0.0113    0.0822   -0.0121    0.0015   -0.0069    0.0010   -0.0035   -0.0278
          53    0.0029   -0.0486    0.0303   -0.0029    0.0282    0.0090    0.0383    0.0283
          54    0.0063   -0.0686    0.0237   -0.0021    0.0160    0.0109    0.0219    0.0312
          55    0.0078   -0.0269   -0.0088   -0.0014   -0.0044   -0.0144   -0.0101   -0.0007
          56   -0.0172    0.0602    0.0247    0.0010    0.0200    0.0293    0.0347    0.0021
          57   -0.0283    0.1170    0.0163    0.0044    0.0019    0.0521    0.0258   -0.0164
          58   -0.0107    0.0424    0.0191   -0.0027    0.0329   -0.0022    0.0340    0.0014
          59    0.0036   -0.0117   -0.0100    0.0016   -0.0190    0.0059   -0.0170   -0.0052
          60    0.0033    0.0002   -0.0325    0.0066   -0.0616    0.0247   -0.0559   -0.0165
          61   -0.0196   -0.0035   -0.0041   -0.0080   -0.0486   -0.0519   -0.0276   -0.0908
          62   -0.0134   -0.0046    0.0240   -0.0095   -0.0122   -0.0306   -0.0263   -0.0603
          63   -0.0166    0.0059   -0.0897   -0.0037   -0.0364   -0.0202    0.0306   -0.0376
          64   -0.0144    0.0007   -0.0001   -0.0681   -0.0157   -0.0519    0.0061    0.0345
          65    0.0343    0.0035   -0.0030   -0.0678   -0.0408    0.0408   -0.0039    0.0026
          66   -0.0284   -0.0021    0.0020    0.0049    0.0068   -0.0381    0.0062    0.0101
          67    0.0769    0.0138   -0.0689    0.0259   -0.0254    0.0073    0.0109    0.0185
          68   -0.0402    0.0037   -0.1560   -0.0067    0.0208    0.0134    0.0052    0.0132
          69    0.0032   -0.0094    0.1628   -0.0046   -0.0130   -0.0184   -0.0129   -0.0232
          70   -0.0536    0.0004   -0.1225   -0.0150    0.0207   -0.0032    0.0120   -0.0205
          71   -0.0035    0.0035   -0.1217    0.0044    0.0020    0.0102    0.0071    0.0145
          72   -0.0433   -0.0070    0.1178   -0.0203    0.0049   -0.0260   -0.0045   -0.0508
          73   -0.0565   -0.0059    0.0051    0.1486    0.0033   -0.0027    0.0010   -0.0164
          74    0.0710    0.0044    0.0012    0.1404    0.0297    0.0033   -0.0043   -0.0052
          75   -0.0326   -0.0023    0.0009   -0.0059   -0.0050   -0.0050    0.0017   -0.0001
          76    0.0769    0.0037    0.0010    0.1703    0.0327   -0.0096   -0.0057   -0.0066
          77   -0.0673   -0.0075    0.0079    0.1803    0.0061    0.0109    0.0053   -0.0110
          78   -0.0488   -0.0032    0.0019   -0.0069   -0.0079    0.0027    0.0035    0.0002


   Root No.      33        34        35        36        37        38        39        40

                33 A      34 A      35 A      36 A      37 A      38 A      39 A      40 A   

                1134.0    1152.8    1154.9    1171.1    1177.3    1198.3    1204.2    1208.5
  
           1   -0.0019    0.0126   -0.0207    0.0142    0.0201   -0.0013   -0.0287   -0.0099
           2    0.0023   -0.0098    0.0188   -0.0092   -0.0124    0.0260    0.0237   -0.0143
           3    0.0329   -0.0008    0.0038    0.0278    0.0071    0.0172    0.0049   -0.0117
           4   -0.0083   -0.0082    0.0049   -0.0262   -0.0212    0.0016   -0.0264    0.0209
           5   -0.0109   -0.0231   -0.0021   -0.0093   -0.0081    0.0322   -0.0200    0.0042
           6   -0.0102    0.0069    0.0358    0.0058   -0.0159   -0.0111    0.0060    0.0227
           7   -0.0254    0.0179   -0.0106    0.0191   -0.0116    0.0176    0.0071   -0.0109
           8   -0.0184    0.0207   -0.0219    0.0012   -0.0147   -0.0136    0.0088    0.0187
           9   -0.0016   -0.0150   -0.0149    0.0055    0.0182   -0.0190    0.0002    0.0339
          10    0.0069   -0.0343   -0.0091    0.0045   -0.0063   -0.0272    0.0063    0.0060
          11    0.0018    0.0249    0.0038    0.0037   -0.0057    0.0062   -0.0033    0.0124
          12   -0.0137   -0.0020   -0.0007    0.0049   -0.0037    0.0222   -0.0053   -0.0072
          13    0.0018   -0.0037    0.0116   -0.0022   -0.0046   -0.0004    0.0101    0.0016
          14    0.0016    0.0009   -0.0060    0.0039    0.0083   -0.0083   -0.0058    0.0042
          15   -0.0301    0.0001    0.0005   -0.0226    0.0071   -0.0091    0.0002   -0.0065
          16    0.0070    0.0033    0.0008    0.0090    0.0049    0.0015    0.0100   -0.0049
          17    0.0057    0.0059   -0.0020    0.0033    0.0042   -0.0114    0.0050   -0.0026
[...]
 TRAVEL      0.1722        C  5 --  H 17          +14.4% ( 33.1%)    11.5%
 RED. MASS   0.2448        C  5 --  H 16          +14.0% ( 32.7%)    11.0%
 EFF. MASS   1.6122

 VIBRATION   52   52A       ATOM PAIR        ENERGY CONTRIBUTION    RADIAL
 FREQ.      1411.51        C  6 --  H 18          +10.5% ( 40.6%)     2.7%
 T-DIPOLE    0.0360        C  6 --  H 20           +9.3% ( 38.2%)     5.6%
 TRAVEL      0.1017        C  5 --  H 15           +8.6% ( 36.7%)     3.2%
 RED. MASS   0.3116        C  5 --  H 16           +7.9% ( 35.1%)     5.2%
 EFF. MASS   4.6186

 VIBRATION   53   53A       ATOM PAIR        ENERGY CONTRIBUTION    RADIAL
 FREQ.      1420.97        C  1 --  C  5          +11.3% ( 46.8%)    98.8%
 T-DIPOLE    0.0400        C  2 --  C  6          +11.2% ( 46.6%)    98.4%
 TRAVEL      0.0878        C  5 --  H 15          +10.3% ( 44.7%)     4.0%
 RED. MASS   0.8339        C  6 --  H 18           +9.7% ( 43.5%)     4.0%
 EFF. MASS   6.1587

 VIBRATION   54   54A       ATOM PAIR        ENERGY CONTRIBUTION    RADIAL
 FREQ.      1485.32        C  1 --  C  4           +8.5% ( 50.3%)   100.0%
 T-DIPOLE    0.0717        C  2 --  C  4           +8.2% ( 49.2%)    53.7%
 TRAVEL      0.0664        C  1 --  C  2           +8.0% ( 48.7%)    54.2%
 RED. MASS   1.4808        C  3 --  C  4           +7.8% ( 48.2%)    49.5%
 EFF. MASS  10.3044

 VIBRATION   55   55A       ATOM PAIR        ENERGY CONTRIBUTION    RADIAL
 FREQ.      1860.82        C  7 --  C  9          +35.8% ( 88.6%)    98.8%
 T-DIPOLE    0.2073        C  4 --  C  7          +13.6% ( 54.6%)    57.6%
 TRAVEL      0.0554        C  7 --  H 21          +12.3% ( 52.0%)     3.7%
 RED. MASS   3.5950        C  8 --  C 10           +9.0% ( 44.5%)    98.9%
 EFF. MASS  11.8131

 VIBRATION   56   56A       ATOM PAIR        ENERGY CONTRIBUTION    RADIAL
 FREQ.      1863.78        C  8 --  C 10          +35.8% ( 88.5%)    98.8%
 T-DIPOLE    0.2111        C  3 --  C  8          +13.6% ( 54.5%)    56.2%
 TRAVEL      0.0554        C  8 --  H 22          +12.4% ( 52.1%)     3.8%
 RED. MASS   3.5895        C  7 --  C  9           +9.0% ( 44.3%)    98.7%
 EFF. MASS  11.8016

 VIBRATION   57   57A       ATOM PAIR        ENERGY CONTRIBUTION    RADIAL
 FREQ.      2922.75        C  4 --  H 14          +80.7% ( 91.9%)   100.0%
 T-DIPOLE    0.0880        C  3 --  H 13           +9.9% ( 32.2%)   100.0%
 TRAVEL      0.1262        C  2 --  H 12           +4.9% ( 22.5%)   100.0%
 RED. MASS   0.6733        C  3 --  C  4           +1.0% ( 10.4%)    16.7%
 EFF. MASS   1.4487

 VIBRATION   58   58A       ATOM PAIR        ENERGY CONTRIBUTION    RADIAL
 FREQ.      2932.39        C  3 --  H 13          +73.4% ( 87.6%)   100.0%
 T-DIPOLE    0.1051        C  1 --  H 11          +11.7% ( 34.9%)   100.0%
 TRAVEL      0.1262        C  4 --  H 14           +7.8% ( 28.6%)    99.9%
 RED. MASS   0.5681        C  2 --  H 12           +2.7% ( 16.7%)   100.0%
 EFF. MASS   1.4432

 VIBRATION   59   59A       ATOM PAIR        ENERGY CONTRIBUTION    RADIAL
 FREQ.      2935.13        C  2 --  H 12          +65.0% ( 82.4%)   100.0%
 T-DIPOLE    0.0948        C  1 --  H 11          +25.9% ( 52.0%)   100.0%
 TRAVEL      0.1262        C  4 --  H 14           +3.5% ( 19.2%)    99.9%
 RED. MASS   0.4975        C  3 --  H 13           +1.2% ( 11.3%)    99.9%
 EFF. MASS   1.4427

 VIBRATION   60   60A       ATOM PAIR        ENERGY CONTRIBUTION    RADIAL
 FREQ.      2944.17        C  1 --  H 11          +58.0% ( 77.7%)   100.0%
 T-DIPOLE    0.1752        C  2 --  H 12          +23.1% ( 49.0%)   100.0%
 TRAVEL      0.1260        C  3 --  H 13          +11.0% ( 33.8%)   100.0%
 RED. MASS   0.4077        C  4 --  H 14           +3.5% ( 19.2%)    99.9%
 EFF. MASS   1.4429

 VIBRATION   61   61A       ATOM PAIR        ENERGY CONTRIBUTION    RADIAL
 FREQ.      3034.89        C  8 --  H 22          +96.2% ( 99.5%)   100.0%
 T-DIPOLE    0.2348        C  8 --  C 10           +1.4% ( 12.2%)    31.4%
 TRAVEL      0.1215        C  3 --  C  8           +1.3% ( 11.8%)    14.5%
 RED. MASS   0.9113        C 10 --  H 26           +0.8% (  9.1%)    94.8%
 EFF. MASS   1.5045

 VIBRATION   62   62A       ATOM PAIR        ENERGY CONTRIBUTION    RADIAL
 FREQ.      3037.73        C  7 --  H 21          +96.3% ( 99.6%)   100.0%
 T-DIPOLE    0.2370        C  7 --  C  9           +1.4% ( 12.1%)    30.8%
 TRAVEL      0.1214        C  4 --  C  7           +1.4% ( 11.8%)    14.0%
 RED. MASS   0.9141        C  9 --  H 23           +0.8% (  9.2%)    95.0%
 EFF. MASS   1.5052

 VIBRATION   63   63A       ATOM PAIR        ENERGY CONTRIBUTION    RADIAL
 FREQ.      3073.83        C  6 --  H 18          +67.4% ( 84.7%)    99.0%
 T-DIPOLE    0.0147        C  6 --  H 19          +20.7% ( 46.9%)    88.1%
 TRAVEL      0.1207        C  6 --  H 20          +10.7% ( 33.7%)    75.6%
 RED. MASS   0.5373        C  2 --  C  6           +1.0% ( 10.4%)     0.0%
 EFF. MASS   1.5049

 VIBRATION   64   64A       ATOM PAIR        ENERGY CONTRIBUTION    RADIAL
 FREQ.      3076.38        C  5 --  H 15          +67.4% ( 84.7%)    99.0%
 T-DIPOLE    0.0151        C  5 --  H 16          +18.3% ( 44.2%)    86.1%
 TRAVEL      0.1207        C  5 --  H 17          +13.1% ( 37.4%)    80.0%
 RED. MASS   0.5337        C  1 --  C  5           +1.0% ( 10.3%)     0.0%
 EFF. MASS   1.5046

 VIBRATION   65   65A       ATOM PAIR        ENERGY CONTRIBUTION    RADIAL
 FREQ.      3082.73        C  6 --  H 20          +52.1% ( 74.4%)    97.6%
 T-DIPOLE    0.0195        C  6 --  H 19          +45.1% ( 69.3%)    96.3%
 TRAVEL      0.1204        C  6 --  H 18           +1.7% ( 13.6%)    17.1%
 RED. MASS   0.5047        C  2 --  C  6           +1.0% ( 10.4%)     0.0%
 EFF. MASS   1.5083

 VIBRATION   66   66A       ATOM PAIR        ENERGY CONTRIBUTION    RADIAL
 FREQ.      3084.04        C  5 --  H 17          +51.1% ( 73.8%)    97.4%
 T-DIPOLE    0.0215        C  5 --  H 16          +46.7% ( 70.5%)    96.7%
 TRAVEL      0.1204        C  5 --  H 15           +1.1% ( 11.1%)     4.7%
 RED. MASS   0.5090        C  1 --  C  5           +1.0% ( 10.4%)     0.0%
 EFF. MASS   1.5079

 VIBRATION   67   67A       ATOM PAIR        ENERGY CONTRIBUTION    RADIAL
 FREQ.      3131.16        C  9 --  H 24          +96.2% ( 99.5%)   100.0%
 T-DIPOLE    0.2123        C  9 --  H 23           +2.3% ( 15.4%)    42.0%
 TRAVEL      0.1193        C  7 --  C  9           +1.4% ( 11.8%)    33.6%
 RED. MASS   0.9158
 EFF. MASS   1.5126

 VIBRATION   68   68A       ATOM PAIR        ENERGY CONTRIBUTION    RADIAL
 FREQ.      3134.67        C 10 --  H 25          +91.1% ( 97.2%)    99.8%
 T-DIPOLE    0.1928        C 10 --  H 26           +7.5% ( 27.9%)    73.7%
 TRAVEL      0.1181        C  8 --  C 10           +1.3% ( 11.7%)    21.1%
 RED. MASS   0.8439
 EFF. MASS   1.5412

 VIBRATION   69   69A       ATOM PAIR        ENERGY CONTRIBUTION    RADIAL
 FREQ.      3146.81        C 10 --  H 26          +91.1% ( 96.1%)    99.6%
 T-DIPOLE    0.2686        C 10 --  H 25           +6.4% ( 25.5%)    45.7%
 TRAVEL      0.1210        C  8 --  C 10           +1.6% ( 12.7%)    74.2%
 RED. MASS   0.8071        C  8 --  H 22           +0.7% (  8.3%)    94.1%
 EFF. MASS   1.4625

 VIBRATION   70   70A       ATOM PAIR        ENERGY CONTRIBUTION    RADIAL
 FREQ.      3148.03        C  9 --  H 23          +95.7% ( 98.8%)    99.9%
 T-DIPOLE    0.2488        C  9 --  H 24           +1.9% ( 13.8%)     1.7%
 TRAVEL      0.1199        C  7 --  C  9           +1.5% ( 12.5%)    59.6%
 RED. MASS   0.8914        C  7 --  H 21           +0.7% (  8.6%)    95.1%
 EFF. MASS   1.4907

 VIBRATION   71   71A       ATOM PAIR        ENERGY CONTRIBUTION    RADIAL
 FREQ.      3174.25        C  6 --  H 20          +36.8% ( 58.4%)    97.6%
 T-DIPOLE    0.0300        C  6 --  H 19          +33.4% ( 55.7%)    97.1%
 TRAVEL      0.1367        C  6 --  H 18          +29.4% ( 52.2%)    96.3%
 RED. MASS   0.3288        C  2 --  C  6           +0.3% (  5.2%)    99.2%
 EFF. MASS   1.1373

 VIBRATION   72   72A       ATOM PAIR        ENERGY CONTRIBUTION    RADIAL
 FREQ.      3177.18        C  5 --  H 17          +35.2% ( 57.1%)    97.4%
 T-DIPOLE    0.0337        C  5 --  H 16          +34.3% ( 56.4%)    97.3%
 TRAVEL      0.1366        C  5 --  H 15          +30.2% ( 52.9%)    96.5%
 RED. MASS   0.3280        C  1 --  C  5           +0.3% (  5.2%)    99.5%
 EFF. MASS   1.1369

 SYMMETRY NUMBER FOR POINT-GROUP C1  =  1


          SYSTEM IS A GROUND STATE


    NULL



          MOLECULE IS NOT LINEAR

          THERE ARE 72 GENUINE VIBRATIONS IN THIS SYSTEM
          THIS THERMODYNAMICS CALCULATION IS LIMITED TO
          MOLECULES WHICH HAVE NO INTERNAL ROTATIONS




                    CALCULATED THERMODYNAMIC PROPERTIES
                                          *
   TEMP. (K)   PARTITION FUNCTION   H.O.F.    ENTHALPY  HEAT CAPACITY ENTROPY
                                   KCAL/MOL   CAL/MOLE    CAL/K/MOL  CAL/K/MOL


 298.00  VIB.     0.1705D+04                  5304.8108    36.7906    32.5891
         ROT.     0.7811D+06                   888.2813     2.9808    29.9442
         INT.     0.1332D+10                  6193.0922    39.7714    62.5333
         TRA.     0.1537D+28                  1480.4688     4.9680    40.6375
         TOT.                       20.069    7673.5610    44.7394   103.1708

 200.00  VIB.     0.9199D+02                  2351.0703    23.8658    20.7408
         ROT.     0.4295D+06                   596.1620     2.9808    28.7555
         INT.     0.3951D+08                  2947.2322    26.8466    49.4963
         TRA.     0.8452D+27                   993.6033     4.9680    38.6564
         TOT.                       16.336    3940.8355    31.8146    88.1527

 210.00  VIB.     0.1237D+03                  2595.7311    25.0710    21.9342
         ROT.     0.4621D+06                   625.9700     2.9808    28.9010
         INT.     0.5715D+08                  3221.7012    28.0518    50.8352
         TRA.     0.9094D+27                  1043.2834     4.9680    38.8988
         TOT.                       16.661    4264.9846    33.0198    89.7340

 220.00  VIB.     0.1663D+03                  2852.5853    26.3046    23.1289
         ROT.     0.4955D+06                   655.7781     2.9808    29.0396
         INT.     0.8242D+08                  3508.3635    29.2855    52.1685
         TRA.     0.9752D+27                  1092.9636     4.9680    39.1299
         TOT.                       16.997    4601.3270    34.2535    91.2984

 230.00  VIB.     0.2238D+03                  3121.9207    27.5672    24.3259
         ROT.     0.5296D+06                   685.5862     2.9808    29.1721
         INT.     0.1185D+09                  3807.5069    30.5481    53.4981
         TRA.     0.1042D+28                  1142.6437     4.9680    39.3507
         TOT.                       17.346    4950.1507    35.5161    92.8488

 240.00  VIB.     0.3013D+03                  3404.0251    28.8583    25.5264
         ROT.     0.5646D+06                   715.3943     2.9808    29.2990
         INT.     0.1701D+09                  4119.4195    31.8391    54.8254
         TRA.     0.1111D+28                  1192.3239     4.9680    39.5621
         TOT.                       17.707    5311.7434    36.8071    94.3875

 250.00  VIB.     0.4057D+03                  3699.1762    30.1762    26.7310
         ROT.     0.6002D+06                   745.2024     2.9808    29.4207
         INT.     0.2435D+09                  4444.3787    33.1571    56.1517
         TRA.     0.1181D+28                  1242.0041     4.9680    39.7650
         TOT.                       18.082    5686.3827    38.1251    95.9167

 260.00  VIB.     0.5466D+03                  4007.6323    31.5188    27.9407
         ROT.     0.6366D+06                   775.0105     2.9808    29.5376
         INT.     0.3479D+09                  4782.6428    34.4997    57.4782
         TRA.     0.1253D+28                  1291.6842     4.9680    39.9598
         TOT.                       18.470    6074.3270    39.4677    97.4380

 270.00  VIB.     0.7368D+03                  4329.6257    32.8832    29.1557
         ROT.     0.6737D+06                   804.8186     2.9808    29.6501
         INT.     0.4963D+09                  5134.4443    35.8640    58.8058
         TRA.     0.1326D+28                  1341.3644     4.9680    40.1473
         TOT.                       18.871    6475.8087    40.8320    98.9531

 280.00  VIB.     0.9937D+03                  4665.3580    34.2661    30.3765
         ROT.     0.7114D+06                   834.6267     2.9808    29.7585
         INT.     0.7069D+09                  5499.9848    37.2469    60.1350
         TRA.     0.1400D+28                  1391.0445     4.9680    40.3280
         TOT.                       19.287    6891.0293    42.2149   100.4630

 290.00  VIB.     0.1341D+04                  5014.9970    35.6639    31.6033
         ROT.     0.7499D+06                   864.4348     2.9808    29.8631
         INT.     0.1006D+10                  5879.4319    38.6447    61.4664
         TRA.     0.1476D+28                  1440.7247     4.9680    40.5023
         TOT.                       19.716    7320.1566    43.6128   101.9687

 300.00  VIB.     0.1811D+04                  5378.6745    37.0732    32.8361
         ROT.     0.7890D+06                   894.2429     2.9808    29.9641
         INT.     0.1429D+10                  6272.9175    40.0540    62.8003
         TRA.     0.1553D+28                  1490.4049     4.9680    40.6707
         TOT.                       20.159    7763.3223    45.0220   103.4710

 310.00  VIB.     0.2447D+04                  5756.4862    38.4902    34.0748
         ROT.     0.8288D+06                   924.0510     2.9808    30.0619
         INT.     0.2028D+10                  6680.5372    41.4710    64.1367
         TRA.     0.1631D+28                  1540.0850     4.9680    40.8336
         TOT.                       20.616    8220.6222    46.4390   104.9703

 320.00  VIB.     0.3309D+04                  6148.4917    39.9114    35.3193
         ROT.     0.8692D+06                   953.8591     2.9808    30.1565
         INT.     0.2876D+10                  7102.3508    42.8922    65.4758
         TRA.     0.1711D+28                  1589.7652     4.9680    40.9914
         TOT.                       21.088    8692.1160    47.8602   106.4672

 330.00  VIB.     0.4478D+04                  6554.7164    41.3334    36.5692
         ROT.     0.9103D+06                   983.6672     2.9808    30.2482
         INT.     0.4076D+10                  7538.3836    44.3142    66.8174
         TRA.     0.1791D+28                  1639.4454     4.9680    41.1442
         TOT.                       21.573    9177.8290    49.2823   107.9617

 340.00  VIB.     0.6065D+04                  6975.1527    42.7532    37.8242
         ROT.     0.9520D+06                  1013.4753     2.9808    30.3372
         INT.     0.5773D+10                  7988.6280    45.7340    68.1614
         TRA.     0.1874D+28                  1689.1255     4.9680    41.2926
         TOT.                       22.073    9677.7535    50.7020   109.4540

 350.00  VIB.     0.8219D+04                  7409.7625    44.1677    39.0839
         ROT.     0.9943D+06                  1043.2834     2.9808    30.4236
         INT.     0.8172D+10                  8453.0459    47.1485    69.5076
         TRA.     0.1957D+28                  1738.8057     4.9680    41.4366
         TOT.                       22.587   10191.8516    52.1165   110.9441

 360.00  VIB.     0.1115D+05                  7858.4796    45.5742    40.3479
         ROT.     0.1037D+07                  1073.0915     2.9808    30.5076
         INT.     0.1156D+11                  8931.5711    48.5550    70.8555
         TRA.     0.2041D+28                  1788.4859     4.9680    41.5765
         TOT.                       23.116   10720.0570    53.5231   112.4320

 370.00  VIB.     0.1513D+05                  8321.2127    46.9705    41.6157
         ROT.     0.1081D+07                  1102.8996     2.9808    30.5893
         INT.     0.1635D+11                  9424.1123    49.9513    72.2049
         TRA.     0.2127D+28                  1838.1660     4.9680    41.7126
         TOT.                       23.658   11262.2784    54.9193   113.9176

 380.00  VIB.     0.2055D+05                  8797.8476    48.3543    42.8867
         ROT.     0.1125D+07                  1132.7077     2.9808    30.6688
         INT.     0.2312D+11                  9930.5554    51.3351    73.5555
         TRA.     0.2214D+28                  1887.8462     4.9680    41.8451
         TOT.                       24.214   11818.4015    56.3031   115.4006

 390.00  VIB.     0.2794D+05                  9288.2504    49.7237    44.1605
         ROT.     0.1169D+07                  1162.5158     2.9808    30.7462
         INT.     0.3267D+11                 10450.7662    52.7046    74.9067
         TRA.     0.2302D+28                  1937.5263     4.9680    41.9742
         TOT.                       24.784   12388.2925    57.6726   116.8808

 400.00  VIB.     0.3800D+05                  9792.2695    51.0773    45.4364
         ROT.     0.1215D+07                  1192.3239     2.9808    30.8217
         INT.     0.4616D+11                 10984.5934    54.0581    76.2581
         TRA.     0.2391D+28                  1987.2065     4.9680    42.1000
         TOT.                       25.367   12971.7999    59.0261   118.3581

   *: NOTE: HEATS OF FORMATION ARE RELATIVE TO THE
            ELEMENTS IN THEIR STANDARD STATE AT 298K
              (=  Standard Enthalpy of Formation).

            Hvib:  Zero-point energy is not included.
                   frequencies of less than zero cm-1 are not included.
            Hrot = (3/2)RT
            Htra = (3/2)RT + pV = (5/2)RT

            Heat capacity is Cp, not Cv

           For more information, see: HTTP://OpenMOPAC.net/Manual/thermochemistry.html


           FORCE CONSTANT IN CARTESIAN COORDINATES (Millidynes/A)

    ATOM   CHEMICAL       X               Y               Z
   NUMBER   SYMBOL  FORCE CONSTANT  FORCE CONSTANT  FORCE CONSTANT

      1       C        7.868731        7.806728        8.927447
      2       C        7.905883        7.829420        8.887928
      3       C        7.835797        7.845919        9.315154
      4       C        8.102053        8.004735        8.890569
      5       C        8.403757        8.390783        8.359839
      6       C        8.388543        8.414157        8.341196
      7       C       13.071050        7.435621        6.810578
      8       C        9.111273        9.050504        9.196998
      9       C       12.850350        7.093800        6.538389
     10       C        8.766855        8.695899        9.043790
     11       H        1.354807        1.362607        3.540031
     12       H        1.358179        1.196487        3.683413
     13       H        1.225070        1.363473        3.667182
     14       H        1.195029        1.176654        3.748179
     15       H        1.358876        1.374798        4.036549
     16       H        0.793237        5.251753        0.700893
     17       H        5.261701        0.787312        0.702187
     18       H        1.335282        1.221557        4.199453
     19       H        5.251882        0.783718        0.696714
     20       H        0.798616        5.230401        0.718190
     21       H        1.676766        3.412077        1.114702
     22       H        0.923692        1.044319        4.236356
     23       H        1.638422        1.854909        2.990781
     24       H        1.846384        3.542921        1.055122
     25       H        0.993012        1.131842        4.341666
     26       H        1.474067        1.284589        3.722901



 TOTAL CPU TIME:             4.94 SECONDS

 == MOPAC DONE ==
