 *******************************************************************************
 ** Site#: 14399           For non-commercial use only        Version 13.159M **
 *******************************************************************************
 ** Cite this work as: MOPAC2012, James J. P. Stewart, Stewart Computational  **
 ** Chemistry, Version 13.159M web: HTTP://OpenMOPAC.net  Days remaining:   6 **
 *******************************************************************************
 **                                                                           **
 **                                MOPAC2012                                  **
 **                                                                           **
 *******************************************************************************

                            PM3 CALCULATION RESULTS


 *******************************************************************************
 *  CALCULATION DONE:                                Mon Jun  2 11:07:24 2014  *
 *  PM3      - The PM3 Hamiltonian to be used
 *  PRECISE  - CRITERIA TO BE INCREASED BY 100 TIMES
 *  NOSYM    - POINT-GROUP SYMMETRY SET TO C1
 *  T=       - A TIME OF 172800.0 SECONDS REQUESTED
 *  DUMP=N   - RESTART FILE WRITTEN EVERY  7200.000 SECONDS
 *******************************************************************************
pm3  precise nosym
 InChI=1S/C11H18/c1-5-9-8(4)10(6-2)11(9)7-3/h5,7-11H,1,3,6H2,2,4H3

   ATOM   CHEMICAL          X               Y               Z
  NUMBER   SYMBOL      (ANGSTROMS)     (ANGSTROMS)     (ANGSTROMS)
 
     1       C          0.68480000  *   0.30260000  *  -0.35280000  *
     2       C          0.33770000  *  -1.15870000  *  -0.04450000  *
     3       C         -0.74240000  *   0.68720000  *   0.16920000  *
     4       C         -1.10990000  *  -0.79990000  *   0.11310000  *
     5       C          1.83770000  *   0.90960000  *   0.45670000  *
     6       C          0.64900000  *  -2.14250000  *  -1.17310000  *
     7       C          3.19980000  *   0.39420000  *   0.00670000  *
     8       C         -1.78010000  *  -1.32890000  *   1.35460000  *
     9       C         -1.52990000  *   1.58220000  *  -0.75010000  *
    10       C         -3.02260000  *  -0.96820000  *   1.68320000  *
    11       C         -1.20440000  *   2.86510000  *  -0.92100000  *
    12       H          0.79830000  *   0.50840000  *  -1.44600000  *
    13       H          0.81250000  *  -1.50950000  *   0.90470000  *
    14       H         -1.71330000  *  -1.06840000  *  -0.78920000  *
    15       H         -0.73310000  *   1.09020000  *   1.21200000  *
    16       H          1.81880000  *   2.01580000  *   0.32440000  *
    17       H          1.71630000  *   0.70870000  *   1.54680000  *
    18       H          4.00460000  *   0.89710000  *   0.58920000  *
    19       H          3.36870000  *   0.60720000  *  -1.07360000  *
    20       H          3.28680000  *  -0.70250000  *   0.17890000  *
    21       H          0.23970000  *  -3.14650000  *  -0.92000000  *
    22       H          1.75090000  *  -2.23790000  *  -1.29960000  *
    23       H          0.21380000  *  -1.82020000  *  -2.14700000  *
    24       H         -1.25850000  *  -2.03720000  *   1.99740000  *
    25       H         -2.39860000  *   1.19090000  *  -1.27800000  *
    26       H         -3.59020000  *  -0.27050000  *   1.06910000  *
    27       H         -3.48980000  *  -1.37020000  *   2.58010000  *
    28       H         -0.35210000  *   3.30690000  *  -0.40740000  *
    29       H         -1.79450000  *   3.49490000  *  -1.58390000  *
 


          CARTESIAN COORDINATES 

    NO.       ATOM         X         Y         Z

     1         C        0.6848    0.3026   -0.3528
     2         C        0.3377   -1.1587   -0.0445
     3         C       -0.7424    0.6872    0.1692
     4         C       -1.1099   -0.7999    0.1131
     5         C        1.8377    0.9096    0.4567
     6         C        0.6490   -2.1425   -1.1731
     7         C        3.1998    0.3942    0.0067
     8         C       -1.7801   -1.3289    1.3546
     9         C       -1.5299    1.5822   -0.7501
    10         C       -3.0226   -0.9682    1.6832
    11         C       -1.2044    2.8651   -0.9210
    12         H        0.7983    0.5084   -1.4460
    13         H        0.8125   -1.5095    0.9047
    14         H       -1.7133   -1.0684   -0.7892
    15         H       -0.7331    1.0902    1.2120
    16         H        1.8188    2.0158    0.3244
    17         H        1.7163    0.7087    1.5468
    18         H        4.0046    0.8971    0.5892
    19         H        3.3687    0.6072   -1.0736
    20         H        3.2868   -0.7025    0.1789
    21         H        0.2397   -3.1465   -0.9200
    22         H        1.7509   -2.2379   -1.2996
    23         H        0.2138   -1.8202   -2.1470
    24         H       -1.2585   -2.0372    1.9974
    25         H       -2.3986    1.1909   -1.2780
    26         H       -3.5902   -0.2705    1.0691
    27         H       -3.4898   -1.3702    2.5801
    28         H       -0.3521    3.3069   -0.4074
    29         H       -1.7945    3.4949   -1.5839

  H: (PM3): J. J. P. STEWART, J. COMP. CHEM. 10, 209 (1989).
  C: (PM3): J. J. P. STEWART, J. COMP. CHEM. 10, 209 (1989).

           Empirical Formula: C11 H18  =    29 atoms



      MOLECULAR POINT GROUP   :   C1  


      RHF CALCULATION, NO. OF DOUBLY OCCUPIED LEVELS =   31

      Geometry optimization using EF

          DIAGONAL MATRIX USED AS START HESSIAN

 CYCLE:     1 TIME:   0.015 TIME LEFT:  2.00D  GRAD.:   109.318 HEAT: 21.07806
 CYCLE:     2 TIME:   0.021 TIME LEFT:  2.00D  GRAD.:   108.521 HEAT: 19.81478
 CYCLE:     3 TIME:   0.021 TIME LEFT:  2.00D  GRAD.:    40.982 HEAT: 17.51695
 CYCLE:     4 TIME:   0.021 TIME LEFT:  2.00D  GRAD.:    43.749 HEAT: 17.27648
 CYCLE:     5 TIME:   0.012 TIME LEFT:  2.00D  GRAD.:    40.020 HEAT: 16.99083
 CYCLE:     6 TIME:   0.012 TIME LEFT:  2.00D  GRAD.:    39.496 HEAT: 16.81490
 CYCLE:     7 TIME:   0.012 TIME LEFT:  2.00D  GRAD.:    43.589 HEAT: 16.77444
 CYCLE:     8 TIME:   0.011 TIME LEFT:  2.00D  GRAD.:    35.264 HEAT: 16.60045
 CYCLE:     9 TIME:   0.012 TIME LEFT:  2.00D  GRAD.:    33.636 HEAT: 16.56202
 CYCLE:    10 TIME:   0.012 TIME LEFT:  2.00D  GRAD.:    36.904 HEAT: 16.54255
 CYCLE:    11 TIME:   0.021 TIME LEFT:  2.00D  GRAD.:    11.720 HEAT: 16.22405
 CYCLE:    12 TIME:   0.020 TIME LEFT:  2.00D  GRAD.:    13.214 HEAT: 16.21199
 CYCLE:    13 TIME:   0.011 TIME LEFT:  2.00D  GRAD.:    11.458 HEAT: 16.18628
 CYCLE:    14 TIME:   0.011 TIME LEFT:  2.00D  GRAD.:     9.817 HEAT: 16.16296
 CYCLE:    15 TIME:   0.021 TIME LEFT:  2.00D  GRAD.:     6.249 HEAT: 16.14144
 CYCLE:    16 TIME:   0.011 TIME LEFT:  2.00D  GRAD.:     8.747 HEAT: 16.14009
 CYCLE:    17 TIME:   0.011 TIME LEFT:  2.00D  GRAD.:     3.872 HEAT: 16.11093
 CYCLE:    18 TIME:   0.020 TIME LEFT:  2.00D  GRAD.:     5.011 HEAT: 16.10453
 CYCLE:    19 TIME:   0.011 TIME LEFT:  2.00D  GRAD.:     3.496 HEAT: 16.09127
 CYCLE:    20 TIME:   0.011 TIME LEFT:  2.00D  GRAD.:     7.348 HEAT: 16.08535
 CYCLE:    21 TIME:   0.011 TIME LEFT:  2.00D  GRAD.:     4.209 HEAT: 16.06063
 CYCLE:    22 TIME:   0.029 TIME LEFT:  2.00D  GRAD.:     5.000 HEAT: 16.05623
 CYCLE:    23 TIME:   0.011 TIME LEFT:  2.00D  GRAD.:     2.851 HEAT: 16.04558
 CYCLE:    24 TIME:   0.011 TIME LEFT:  2.00D  GRAD.:     5.094 HEAT: 16.03882
 CYCLE:    25 TIME:   0.011 TIME LEFT:  2.00D  GRAD.:     4.695 HEAT: 16.02746
 CYCLE:    26 TIME:   0.011 TIME LEFT:  2.00D  GRAD.:     7.827 HEAT: 16.02604
 CYCLE:    27 TIME:   0.011 TIME LEFT:  2.00D  GRAD.:     4.202 HEAT: 16.00350
 CYCLE:    28 TIME:   0.011 TIME LEFT:  2.00D  GRAD.:     6.005 HEAT: 15.99774
 CYCLE:    29 TIME:   0.011 TIME LEFT:  2.00D  GRAD.:     5.132 HEAT: 15.98434
 CYCLE:    30 TIME:   0.011 TIME LEFT:  2.00D  GRAD.:     8.377 HEAT: 15.97761
 CYCLE:    31 TIME:   0.011 TIME LEFT:  2.00D  GRAD.:     6.222 HEAT: 15.95535
 CYCLE:    32 TIME:   0.011 TIME LEFT:  2.00D  GRAD.:     7.838 HEAT: 15.94124
 CYCLE:    33 TIME:   0.011 TIME LEFT:  2.00D  GRAD.:     6.389 HEAT: 15.91712
 CYCLE:    34 TIME:   0.011 TIME LEFT:  2.00D  GRAD.:     4.487 HEAT: 15.88644
 CYCLE:    35 TIME:   0.011 TIME LEFT:  2.00D  GRAD.:     3.747 HEAT: 15.86096
 CYCLE:    36 TIME:   0.012 TIME LEFT:  2.00D  GRAD.:     5.126 HEAT: 15.82214
 CYCLE:    37 TIME:   0.011 TIME LEFT:  2.00D  GRAD.:     8.357 HEAT: 15.79561
 CYCLE:    38 TIME:   0.011 TIME LEFT:  2.00D  GRAD.:     6.447 HEAT: 15.76977
 CYCLE:    39 TIME:   0.011 TIME LEFT:  2.00D  GRAD.:     4.375 HEAT: 15.73953
 CYCLE:    40 TIME:   0.016 TIME LEFT:  2.00D  GRAD.:     5.012 HEAT: 15.71462
 CYCLE:    41 TIME:   0.013 TIME LEFT:  2.00D  GRAD.:     4.020 HEAT: 15.69506
 CYCLE:    42 TIME:   0.011 TIME LEFT:  2.00D  GRAD.:     2.604 HEAT: 15.68332
 CYCLE:    43 TIME:   0.011 TIME LEFT:  2.00D  GRAD.:     2.583 HEAT: 15.67168
 CYCLE:    44 TIME:   0.011 TIME LEFT:  2.00D  GRAD.:     3.800 HEAT: 15.65750
 CYCLE:    45 TIME:   0.011 TIME LEFT:  2.00D  GRAD.:     3.022 HEAT: 15.64620
 CYCLE:    46 TIME:   0.011 TIME LEFT:  2.00D  GRAD.:     2.725 HEAT: 15.63357
 CYCLE:    47 TIME:   0.011 TIME LEFT:  2.00D  GRAD.:     3.781 HEAT: 15.61071
 CYCLE:    48 TIME:   0.011 TIME LEFT:  2.00D  GRAD.:     3.845 HEAT: 15.59049
 CYCLE:    49 TIME:   0.011 TIME LEFT:  2.00D  GRAD.:     4.423 HEAT: 15.56512
 CYCLE:    50 TIME:   0.011 TIME LEFT:  2.00D  GRAD.:     3.114 HEAT: 15.55096
 CYCLE:    51 TIME:   0.011 TIME LEFT:  2.00D  GRAD.:     2.333 HEAT: 15.53767
 CYCLE:    52 TIME:   0.011 TIME LEFT:  2.00D  GRAD.:     2.981 HEAT: 15.52407
 CYCLE:    53 TIME:   0.012 TIME LEFT:  2.00D  GRAD.:     2.301 HEAT: 15.51413
 CYCLE:    54 TIME:   0.012 TIME LEFT:  2.00D  GRAD.:     1.711 HEAT: 15.50524
 CYCLE:    55 TIME:   0.018 TIME LEFT:  2.00D  GRAD.:     1.700 HEAT: 15.49660
 CYCLE:    56 TIME:   0.012 TIME LEFT:  2.00D  GRAD.:     1.460 HEAT: 15.49271
 CYCLE:    57 TIME:   0.012 TIME LEFT:  2.00D  GRAD.:     1.145 HEAT: 15.48789
 CYCLE:    58 TIME:   0.011 TIME LEFT:  2.00D  GRAD.:     1.135 HEAT: 15.48574
 CYCLE:    59 TIME:   0.011 TIME LEFT:  2.00D  GRAD.:     0.931 HEAT: 15.48402
 CYCLE:    60 TIME:   0.011 TIME LEFT:  2.00D  GRAD.:     0.959 HEAT: 15.48184
 CYCLE:    61 TIME:   0.011 TIME LEFT:  2.00D  GRAD.:     0.946 HEAT: 15.47999
 CYCLE:    62 TIME:   0.012 TIME LEFT:  2.00D  GRAD.:     0.911 HEAT: 15.47823
 CYCLE:    63 TIME:   0.011 TIME LEFT:  2.00D  GRAD.:     0.863 HEAT: 15.47652
 CYCLE:    64 TIME:   0.011 TIME LEFT:  2.00D  GRAD.:     0.821 HEAT: 15.47471
 CYCLE:    65 TIME:   0.011 TIME LEFT:  2.00D  GRAD.:     0.808 HEAT: 15.47304
 CYCLE:    66 TIME:   0.011 TIME LEFT:  2.00D  GRAD.:     0.725 HEAT: 15.47166
 CYCLE:    67 TIME:   0.011 TIME LEFT:  2.00D  GRAD.:     0.634 HEAT: 15.47052
 CYCLE:    68 TIME:   0.011 TIME LEFT:  2.00D  GRAD.:     0.588 HEAT: 15.46961
 CYCLE:    69 TIME:   0.011 TIME LEFT:  2.00D  GRAD.:     0.589 HEAT: 15.46878
 CYCLE:    70 TIME:   0.011 TIME LEFT:  2.00D  GRAD.:     0.666 HEAT: 15.46783
 CYCLE:    71 TIME:   0.011 TIME LEFT:  2.00D  GRAD.:     0.789 HEAT: 15.46665
 CYCLE:    72 TIME:   0.011 TIME LEFT:  2.00D  GRAD.:     0.888 HEAT: 15.46514
 CYCLE:    73 TIME:   0.011 TIME LEFT:  2.00D  GRAD.:     1.018 HEAT: 15.46286
 CYCLE:    74 TIME:   0.011 TIME LEFT:  2.00D  GRAD.:     0.912 HEAT: 15.46125
 CYCLE:    75 TIME:   0.012 TIME LEFT:  2.00D  GRAD.:     1.110 HEAT: 15.45783
 CYCLE:    76 TIME:   0.011 TIME LEFT:  2.00D  GRAD.:     0.836 HEAT: 15.45658
 CYCLE:    77 TIME:   0.014 TIME LEFT:  2.00D  GRAD.:     1.073 HEAT: 15.45388
 CYCLE:    78 TIME:   0.013 TIME LEFT:  2.00D  GRAD.:     0.808 HEAT: 15.45275
 CYCLE:    79 TIME:   0.012 TIME LEFT:  2.00D  GRAD.:     0.884 HEAT: 15.44913
 CYCLE:    80 TIME:   0.012 TIME LEFT:  2.00D  GRAD.:     0.882 HEAT: 15.44708
 CYCLE:    81 TIME:   0.012 TIME LEFT:  2.00D  GRAD.:     1.295 HEAT: 15.44329
 CYCLE:    82 TIME:   0.011 TIME LEFT:  2.00D  GRAD.:     0.883 HEAT: 15.44162
 CYCLE:    83 TIME:   0.011 TIME LEFT:  2.00D  GRAD.:     0.744 HEAT: 15.43960
 CYCLE:    84 TIME:   0.011 TIME LEFT:  2.00D  GRAD.:     0.822 HEAT: 15.43638
 CYCLE:    85 TIME:   0.012 TIME LEFT:  2.00D  GRAD.:     0.819 HEAT: 15.43415
 CYCLE:    86 TIME:   0.012 TIME LEFT:  2.00D  GRAD.:     0.861 HEAT: 15.43223
 CYCLE:    87 TIME:   0.012 TIME LEFT:  2.00D  GRAD.:     0.785 HEAT: 15.43068
 CYCLE:    88 TIME:   0.012 TIME LEFT:  2.00D  GRAD.:     0.827 HEAT: 15.42859
 CYCLE:    89 TIME:   0.011 TIME LEFT:  2.00D  GRAD.:     0.750 HEAT: 15.42760
 CYCLE:    90 TIME:   0.012 TIME LEFT:  2.00D  GRAD.:     1.133 HEAT: 15.42494
 CYCLE:    91 TIME:   0.011 TIME LEFT:  2.00D  GRAD.:     0.856 HEAT: 15.42331
 CYCLE:    92 TIME:   0.012 TIME LEFT:  2.00D  GRAD.:     0.786 HEAT: 15.42086
 CYCLE:    93 TIME:   0.012 TIME LEFT:  2.00D  GRAD.:     0.984 HEAT: 15.41858
 CYCLE:    94 TIME:   0.012 TIME LEFT:  2.00D  GRAD.:     1.139 HEAT: 15.41589
 CYCLE:    95 TIME:   0.012 TIME LEFT:  2.00D  GRAD.:     1.270 HEAT: 15.41235
 CYCLE:    96 TIME:   0.012 TIME LEFT:  2.00D  GRAD.:     1.785 HEAT: 15.40696
 CYCLE:    97 TIME:   0.012 TIME LEFT:  2.00D  GRAD.:     2.689 HEAT: 15.40003
 CYCLE:    98 TIME:   0.012 TIME LEFT:  2.00D  GRAD.:     3.132 HEAT: 15.39276
 CYCLE:    99 TIME:   0.011 TIME LEFT:  2.00D  GRAD.:     2.044 HEAT: 15.37998
 CYCLE:   100 TIME:   0.012 TIME LEFT:  2.00D  GRAD.:     2.595 HEAT: 15.36825
 CYCLE:   101 TIME:   0.012 TIME LEFT:  2.00D  GRAD.:     2.154 HEAT: 15.35890
 CYCLE:   102 TIME:   0.012 TIME LEFT:  2.00D  GRAD.:     3.480 HEAT: 15.34531
 CYCLE:   103 TIME:   0.012 TIME LEFT:  2.00D  GRAD.:     3.346 HEAT: 15.33653
 CYCLE:   104 TIME:   0.012 TIME LEFT:  2.00D  GRAD.:     3.142 HEAT: 15.32510
 CYCLE:   105 TIME:   0.011 TIME LEFT:  2.00D  GRAD.:     2.268 HEAT: 15.31517
 CYCLE:   106 TIME:   0.011 TIME LEFT:  2.00D  GRAD.:     3.011 HEAT: 15.30349
 CYCLE:   107 TIME:   0.011 TIME LEFT:  2.00D  GRAD.:     2.019 HEAT: 15.29801
 CYCLE:   108 TIME:   0.012 TIME LEFT:  2.00D  GRAD.:     2.133 HEAT: 15.28902
 CYCLE:   109 TIME:   0.012 TIME LEFT:  2.00D  GRAD.:     3.782 HEAT: 15.27761
 CYCLE:   110 TIME:   0.011 TIME LEFT:  2.00D  GRAD.:     2.922 HEAT: 15.26618
 CYCLE:   111 TIME:   0.011 TIME LEFT:  2.00D  GRAD.:     2.586 HEAT: 15.24757
 CYCLE:   112 TIME:   0.012 TIME LEFT:  2.00D  GRAD.:     2.997 HEAT: 15.21767
 CYCLE:   113 TIME:   0.012 TIME LEFT:  2.00D  GRAD.:     4.577 HEAT: 15.20063
 CYCLE:   114 TIME:   0.021 TIME LEFT:  2.00D  GRAD.:     6.035 HEAT: 15.18209
 CYCLE:   115 TIME:   0.011 TIME LEFT:  2.00D  GRAD.:     4.268 HEAT: 15.16166
 CYCLE:   116 TIME:   0.011 TIME LEFT:  2.00D  GRAD.:     3.141 HEAT: 15.14407
 CYCLE:   117 TIME:   0.012 TIME LEFT:  2.00D  GRAD.:     2.862 HEAT: 15.12694
 CYCLE:   118 TIME:   0.013 TIME LEFT:  2.00D  GRAD.:     3.411 HEAT: 15.10686
 CYCLE:   119 TIME:   0.011 TIME LEFT:  2.00D  GRAD.:     4.310 HEAT: 15.09950
 CYCLE:   120 TIME:   0.012 TIME LEFT:  2.00D  GRAD.:     3.708 HEAT: 15.08917
 CYCLE:   121 TIME:   0.012 TIME LEFT:  2.00D  GRAD.:     3.828 HEAT: 15.08336
 CYCLE:   122 TIME:   0.014 TIME LEFT:  2.00D  GRAD.:     2.029 HEAT: 15.07582
 CYCLE:   123 TIME:   0.014 TIME LEFT:  2.00D  GRAD.:     2.075 HEAT: 15.06936
 CYCLE:   124 TIME:   0.013 TIME LEFT:  2.00D  GRAD.:     2.071 HEAT: 15.06288
 CYCLE:   125 TIME:   0.011 TIME LEFT:  2.00D  GRAD.:     1.399 HEAT: 15.05993
 CYCLE:   126 TIME:   0.012 TIME LEFT:  2.00D  GRAD.:     1.163 HEAT: 15.05644
 CYCLE:   127 TIME:   0.012 TIME LEFT:  2.00D  GRAD.:     1.326 HEAT: 15.05401
 CYCLE:   128 TIME:   0.012 TIME LEFT:  2.00D  GRAD.:     1.818 HEAT: 15.04930
 CYCLE:   129 TIME:   0.011 TIME LEFT:  2.00D  GRAD.:     2.163 HEAT: 15.04445
 CYCLE:   130 TIME:   0.012 TIME LEFT:  2.00D  GRAD.:     2.131 HEAT: 15.03847
 CYCLE:   131 TIME:   0.011 TIME LEFT:  2.00D  GRAD.:     2.184 HEAT: 15.03213
 CYCLE:   132 TIME:   0.011 TIME LEFT:  2.00D  GRAD.:     1.675 HEAT: 15.02685
 CYCLE:   133 TIME:   0.011 TIME LEFT:  2.00D  GRAD.:     1.625 HEAT: 15.02236
 CYCLE:   134 TIME:   0.012 TIME LEFT:  2.00D  GRAD.:     1.778 HEAT: 15.01811
 CYCLE:   135 TIME:   0.011 TIME LEFT:  2.00D  GRAD.:     1.766 HEAT: 15.01434
 CYCLE:   136 TIME:   0.012 TIME LEFT:  2.00D  GRAD.:     1.515 HEAT: 15.01048
 CYCLE:   137 TIME:   0.012 TIME LEFT:  2.00D  GRAD.:     1.679 HEAT: 15.00747
 CYCLE:   138 TIME:   0.012 TIME LEFT:  2.00D  GRAD.:     1.332 HEAT: 15.00529
 CYCLE:   139 TIME:   0.011 TIME LEFT:  2.00D  GRAD.:     1.271 HEAT: 15.00312
 CYCLE:   140 TIME:   0.011 TIME LEFT:  2.00D  GRAD.:     1.446 HEAT: 15.00023
 CYCLE:   141 TIME:   0.012 TIME LEFT:  2.00D  GRAD.:     1.940 HEAT: 14.99616
 CYCLE:   142 TIME:   0.016 TIME LEFT:  2.00D  GRAD.:     2.503 HEAT: 14.99062
 CYCLE:   143 TIME:   0.012 TIME LEFT:  2.00D  GRAD.:     3.022 HEAT: 14.98133
 CYCLE:   144 TIME:   0.011 TIME LEFT:  2.00D  GRAD.:     2.800 HEAT: 14.97256
 CYCLE:   145 TIME:   0.012 TIME LEFT:  2.00D  GRAD.:     3.949 HEAT: 14.95378
 CYCLE:   146 TIME:   0.011 TIME LEFT:  2.00D  GRAD.:     2.841 HEAT: 14.94221
 CYCLE:   147 TIME:   0.011 TIME LEFT:  2.00D  GRAD.:     3.151 HEAT: 14.93771
 CYCLE:   148 TIME:   0.011 TIME LEFT:  2.00D  GRAD.:     2.510 HEAT: 14.92716
 CYCLE:   149 TIME:   0.011 TIME LEFT:  2.00D  GRAD.:     1.926 HEAT: 14.92307
 CYCLE:   150 TIME:   0.012 TIME LEFT:  2.00D  GRAD.:     2.039 HEAT: 14.91575
 CYCLE:   151 TIME:   0.011 TIME LEFT:  2.00D  GRAD.:     1.144 HEAT: 14.91231
 CYCLE:   152 TIME:   0.012 TIME LEFT:  2.00D  GRAD.:     1.967 HEAT: 14.90757
 CYCLE:   153 TIME:   0.011 TIME LEFT:  2.00D  GRAD.:     1.072 HEAT: 14.90654
 CYCLE:   154 TIME:   0.012 TIME LEFT:  2.00D  GRAD.:     0.684 HEAT: 14.90483
 CYCLE:   155 TIME:   0.012 TIME LEFT:  2.00D  GRAD.:     0.947 HEAT: 14.90347
 CYCLE:   156 TIME:   0.011 TIME LEFT:  2.00D  GRAD.:     0.838 HEAT: 14.90263
 CYCLE:   157 TIME:   0.012 TIME LEFT:  2.00D  GRAD.:     0.648 HEAT: 14.90185
 CYCLE:   158 TIME:   0.011 TIME LEFT:  2.00D  GRAD.:     0.506 HEAT: 14.90144
 CYCLE:   159 TIME:   0.011 TIME LEFT:  2.00D  GRAD.:     0.753 HEAT: 14.90021
 CYCLE:   160 TIME:   0.012 TIME LEFT:  2.00D  GRAD.:     0.734 HEAT: 14.89960
 CYCLE:   161 TIME:   0.012 TIME LEFT:  2.00D  GRAD.:     1.065 HEAT: 14.89807
 CYCLE:   162 TIME:   0.012 TIME LEFT:  2.00D  GRAD.:     1.049 HEAT: 14.89671
 CYCLE:   163 TIME:   0.012 TIME LEFT:  2.00D  GRAD.:     0.929 HEAT: 14.89483
 CYCLE:   164 TIME:   0.011 TIME LEFT:  2.00D  GRAD.:     0.735 HEAT: 14.89388
 CYCLE:   165 TIME:   0.012 TIME LEFT:  2.00D  GRAD.:     1.368 HEAT: 14.89160
 CYCLE:   166 TIME:   0.011 TIME LEFT:  2.00D  GRAD.:     1.140 HEAT: 14.89064
 CYCLE:   167 TIME:   0.011 TIME LEFT:  2.00D  GRAD.:     0.788 HEAT: 14.88958
 CYCLE:   168 TIME:   0.012 TIME LEFT:  2.00D  GRAD.:     0.988 HEAT: 14.88691
 CYCLE:   169 TIME:   0.012 TIME LEFT:  2.00D  GRAD.:     0.898 HEAT: 14.88566
 CYCLE:   170 TIME:   0.012 TIME LEFT:  2.00D  GRAD.:     0.962 HEAT: 14.88302
 CYCLE:   171 TIME:   0.011 TIME LEFT:  2.00D  GRAD.:     0.757 HEAT: 14.88199
 CYCLE:   172 TIME:   0.012 TIME LEFT:  2.00D  GRAD.:     0.766 HEAT: 14.88015
 CYCLE:   173 TIME:   0.012 TIME LEFT:  2.00D  GRAD.:     0.590 HEAT: 14.87937
 CYCLE:   174 TIME:   0.012 TIME LEFT:  2.00D  GRAD.:     0.448 HEAT: 14.87872
 CYCLE:   175 TIME:   0.011 TIME LEFT:  2.00D  GRAD.:     0.365 HEAT: 14.87821
 CYCLE:   176 TIME:   0.011 TIME LEFT:  2.00D  GRAD.:     0.289 HEAT: 14.87790
 CYCLE:   177 TIME:   0.011 TIME LEFT:  2.00D  GRAD.:     0.339 HEAT: 14.87777
 CYCLE:   178 TIME:   0.011 TIME LEFT:  2.00D  GRAD.:     0.318 HEAT: 14.87768
 CYCLE:   179 TIME:   0.012 TIME LEFT:  2.00D  GRAD.:     0.382 HEAT: 14.87758
 CYCLE:   180 TIME:   0.011 TIME LEFT:  2.00D  GRAD.:     0.359 HEAT: 14.87745
 CYCLE:   181 TIME:   0.011 TIME LEFT:  2.00D  GRAD.:     0.256 HEAT: 14.87730
 CYCLE:   182 TIME:   0.011 TIME LEFT:  2.00D  GRAD.:     0.287 HEAT: 14.87718
 CYCLE:   183 TIME:   0.011 TIME LEFT:  2.00D  GRAD.:     0.389 HEAT: 14.87686
 CYCLE:   184 TIME:   0.012 TIME LEFT:  2.00D  GRAD.:     0.417 HEAT: 14.87664
 CYCLE:   185 TIME:   0.012 TIME LEFT:  2.00D  GRAD.:     0.707 HEAT: 14.87613
 CYCLE:   186 TIME:   0.012 TIME LEFT:  2.00D  GRAD.:     0.286 HEAT: 14.87583
 CYCLE:   187 TIME:   0.011 TIME LEFT:  2.00D  GRAD.:     0.254 HEAT: 14.87562
 CYCLE:   188 TIME:   0.012 TIME LEFT:  2.00D  GRAD.:     0.316 HEAT: 14.87543
 CYCLE:   189 TIME:   0.012 TIME LEFT:  2.00D  GRAD.:     0.231 HEAT: 14.87536
 CYCLE:   190 TIME:   0.011 TIME LEFT:  2.00D  GRAD.:     0.089 HEAT: 14.87530
 CYCLE:   191 TIME:   0.011 TIME LEFT:  2.00D  GRAD.:     0.068 HEAT: 14.87529
 CYCLE:   192 TIME:   0.011 TIME LEFT:  2.00D  GRAD.:     0.066 HEAT: 14.87528
 CYCLE:   193 TIME:   0.011 TIME LEFT:  2.00D  GRAD.:     0.057 HEAT: 14.87527
 CYCLE:   194 TIME:   0.011 TIME LEFT:  2.00D  GRAD.:     0.049 HEAT: 14.87527

     RMS GRADIENT =  0.04858  IS LESS THAN CUTOFF =  0.05000



 -------------------------------------------------------------------------------
pm3  precise nosym
 InChI=1S/C11H18/c1-5-9-8(4)10(6-2)11(9)7-3/h5,7-11H,1,3,6H2,2,4H3



     GEOMETRY OPTIMISED USING EIGENVECTOR FOLLOWING (EF).     
     SCF FIELD WAS ACHIEVED                                   


                              PM3 CALCULATION
                                                       MOPAC2012 (Version: 13.159M)
                                                       Mon Jun  2 11:07:27 2014
                                                       No. of days left =   6




          FINAL HEAT OF FORMATION =         14.87527 KCAL/MOL =      62.23812 KJ/MOL


          TOTAL ENERGY            =      -1580.38774 EV
          ELECTRONIC ENERGY       =      -9737.33442 EV  POINT GROUP:     C1  
          CORE-CORE REPULSION     =       8156.94668 EV
          COSMO AREA              =        217.33 SQUARE ANGSTROMS
          COSMO VOLUME            =        236.06 CUBIC ANGSTROMS

          GRADIENT NORM           =          0.04858
          IONIZATION POTENTIAL    =          9.972646 EV
          HOMO LUMO ENERGIES (EV) =         -9.973  1.043
          NO. OF FILLED LEVELS    =         31
          MOLECULAR WEIGHT        =        150.263

          MOLECULAR DIMENSIONS (Angstroms)

            Atom       Atom       Distance
            H    27    H    29     7.41469
            H    26    H    18     7.03456
            H    15    H    22     4.76935


          SCF CALCULATIONS        =        205
          COMPUTATION TIME        =          2.356 SECONDS




   ATOM   CHEMICAL          X               Y               Z
  NUMBER   SYMBOL      (ANGSTROMS)     (ANGSTROMS)     (ANGSTROMS)
 
     1       C          0.68255430  *   0.38731838  *  -0.27257661  *
     2       C          0.24231358  *  -1.09313078  *  -0.10487166  *
     3       C         -0.73307492  *   0.85794309  *   0.16477322  *
     4       C         -1.20171139  *  -0.62505363  *   0.23347868  *
     5       C          1.80645209  *   0.84413984  *   0.63337022  *
     6       C          0.36685266  *  -1.93901942  *  -1.34344353  *
     7       C          3.14446949  *   0.30703629  *   0.17689999  *
     8       C         -1.67952040  *  -1.04707913  *   1.57389239  *
     9       C         -1.47672045  *   1.70984636  *  -0.79480022  *
    10       C         -2.84426524  *  -1.65510287  *   1.76663319  *
    11       C         -0.93053801  *   2.73802886  *  -1.43378758  *
    12       H          0.91620467  *   0.64924288  *  -1.32859991  *
    13       H          0.74462880  *  -1.59604437  *   0.75073811  *
    14       H         -1.93740177  *  -0.88625186  *  -0.55918669  *
    15       H         -0.73658541  *   1.35976442  *   1.15819534  *
    16       H          1.82441197  *   1.95231034  *   0.65052494  *
    17       H          1.60733645  *   0.53138130  *   1.67848764  *
    18       H          3.94979725  *   0.61130468  *   0.85713069  *
    19       H          3.40606382  *   0.66919788  *  -0.82628426  *
    20       H          3.14191781  *  -0.79110754  *   0.13551477  *
    21       H         -0.09164347  *  -2.92521278  *  -1.19642070  *
    22       H          1.42259278  *  -2.09452652  *  -1.60265388  *
    23       H         -0.12080919  *  -1.47565079  *  -2.21192969  *
    24       H         -1.00762821  *  -0.82735418  *   2.41357617  *
    25       H         -2.53371171  *   1.45216349  *  -0.93622561  *
    26       H         -3.53569389  *  -1.88989330  *   0.96168613  *
    27       H         -3.18799859  *  -1.96187676  *   2.74972291  *
    28       H          0.11223120  *   3.02220630  *  -1.31615273  *
    29       H         -1.49056672  *   3.36656791  *  -2.11895296  *

           Empirical Formula: C11 H18  =    29 atoms



      MOLECULAR POINT GROUP   :   C1  


                  EIGENVALUES  
 -42.37192 -34.64945 -33.49015 -31.87722 -28.45327 -24.90721 -23.09704 -21.58425
 -19.74256 -19.52420 -18.68899 -16.77712 -16.51379 -15.83648 -15.62464 -15.06840
 -14.68939 -14.27565 -14.03789 -13.75361 -13.46525 -12.85790 -12.67253 -12.32204
 -12.09090 -11.92710 -11.76743 -11.42336 -11.11933 -10.25008  -9.97265   1.04318
   1.19334   3.14909   3.22102   3.36653   3.55970   3.65172   3.74845   3.81807
   3.87692   3.92775   3.95278   4.04549   4.08466   4.10799   4.20506   4.26649
   4.35322   4.44895   4.52952   4.67915   4.74803   4.85065   4.87599   4.99119
   5.28190   5.35346   5.64110   5.78788   5.86085   5.97465


              NET ATOMIC CHARGES AND DIPOLE CONTRIBUTIONS

  ATOM NO.   TYPE          CHARGE      No. of ELECS.   s-Pop       p-Pop       
    1          C          -0.095331        4.0953     1.19698     2.89835
    2          C          -0.086138        4.0861     1.19172     2.89442
    3          C          -0.060431        4.0604     1.18247     2.87796
    4          C          -0.064105        4.0641     1.18530     2.87881
    5          C          -0.089405        4.0894     1.15750     2.93191
    6          C          -0.102735        4.1027     1.13738     2.96535
    7          C          -0.110786        4.1108     1.13827     2.97252
    8          C          -0.129599        4.1296     1.19407     2.93553
    9          C          -0.124023        4.1240     1.19306     2.93096
   10          C          -0.159021        4.1590     1.18295     2.97607
   11          C          -0.172173        4.1722     1.18164     2.99053
   12          H           0.083783        0.9162     0.91622
   13          H           0.078193        0.9218     0.92181
   14          H           0.082621        0.9174     0.91738
   15          H           0.085171        0.9148     0.91483
   16          H           0.050551        0.9494     0.94945
   17          H           0.050580        0.9494     0.94942
   18          H           0.037517        0.9625     0.96248
   19          H           0.038274        0.9617     0.96173
   20          H           0.040702        0.9593     0.95930
   21          H           0.040966        0.9590     0.95903
   22          H           0.040715        0.9593     0.95928
   23          H           0.041945        0.9581     0.95806
   24          H           0.098738        0.9013     0.90126
   25          H           0.099420        0.9006     0.90058
   26          H           0.081383        0.9186     0.91862
   27          H           0.078742        0.9213     0.92126
   28          H           0.083936        0.9161     0.91606
   29          H           0.080511        0.9195     0.91949
 DIPOLE           X         Y         Z       TOTAL
 POINT-CHG.     0.200    -0.111     0.038     0.232
 HYBRID        -0.031     0.003     0.009     0.033
 SUM            0.169    -0.108     0.048     0.206


          ATOMIC ORBITAL ELECTRON POPULATIONS

    Atom      s        px        py        pz   
    1  C   1.19698   0.93666   0.95726   1.00444
    2  C   1.19172   0.95798   0.94969   0.98675
    3  C   1.18247   0.95071   0.93874   0.98851
    4  C   1.18530   0.96536   0.95408   0.95936
    5  C   1.15750   0.94679   1.00095   0.98416
    6  C   1.13738   1.00862   0.98965   0.96708
    7  C   1.13827   0.96193   1.00620   1.00438
    8  C   1.19407   0.97450   0.98975   0.97128
    9  C   1.19306   0.98910   0.96813   0.97373
   10  C   1.18295   0.96879   0.99768   1.00960
   11  C   1.18164   1.00680   0.97980   1.00393
   12  H   0.91622
   13  H   0.92181
   14  H   0.91738
   15  H   0.91483
   16  H   0.94945
   17  H   0.94942
   18  H   0.96248
   19  H   0.96173
   20  H   0.95930
   21  H   0.95903
   22  H   0.95928
   23  H   0.95806
   24  H   0.90126
   25  H   0.90058
   26  H   0.91862
   27  H   0.92126
   28  H   0.91606
   29  H   0.91949
 *******************************************************************************
 ** Site#: 14399           For non-commercial use only        Version 13.159M **
 *******************************************************************************
 ** Cite this work as: MOPAC2012, James J. P. Stewart, Stewart Computational  **
 ** Chemistry, Version 13.159M web: HTTP://OpenMOPAC.net  Days remaining:   6 **
 *******************************************************************************
 **                                                                           **
 **                                MOPAC2012                                  **
 **                                                                           **
 *******************************************************************************

                            PM3 CALCULATION RESULTS


 *******************************************************************************
 *  CALCULATION DONE:                                Mon Jun  2 11:07:27 2014  *
 *  PM3      - The PM3 Hamiltonian to be used
 *  OLDGEO   - PREVIOUS GEOMETRY TO BE USED
 *  PRECISE  - CRITERIA TO BE INCREASED BY 100 TIMES
 *  NOSYM    - POINT-GROUP SYMMETRY SET TO C1
 *  T=       - A TIME OF 172800.0 SECONDS REQUESTED
 *  DUMP=N   - RESTART FILE WRITTEN EVERY  7200.000 SECONDS
 *  THERMO   - THERMODYNAMIC QUANTITIES TO BE CALCULATED
 *******************************************************************************
oldgeo thermo nosym precise  pm3

   ATOM   CHEMICAL          X               Y               Z
  NUMBER   SYMBOL      (ANGSTROMS)     (ANGSTROMS)     (ANGSTROMS)
 
     1       C          0.68255430  *   0.38731838  *  -0.27257661  *
     2       C          0.24231358  *  -1.09313078  *  -0.10487166  *
     3       C         -0.73307492  *   0.85794309  *   0.16477322  *
     4       C         -1.20171139  *  -0.62505363  *   0.23347868  *
     5       C          1.80645209  *   0.84413984  *   0.63337022  *
     6       C          0.36685266  *  -1.93901942  *  -1.34344353  *
     7       C          3.14446949  *   0.30703629  *   0.17689999  *
     8       C         -1.67952040  *  -1.04707913  *   1.57389239  *
     9       C         -1.47672045  *   1.70984636  *  -0.79480022  *
    10       C         -2.84426524  *  -1.65510287  *   1.76663319  *
    11       C         -0.93053801  *   2.73802886  *  -1.43378758  *
    12       H          0.91620467  *   0.64924288  *  -1.32859991  *
    13       H          0.74462880  *  -1.59604437  *   0.75073811  *
    14       H         -1.93740177  *  -0.88625186  *  -0.55918669  *
    15       H         -0.73658541  *   1.35976442  *   1.15819534  *
    16       H          1.82441197  *   1.95231034  *   0.65052494  *
    17       H          1.60733645  *   0.53138130  *   1.67848764  *
    18       H          3.94979725  *   0.61130468  *   0.85713069  *
    19       H          3.40606382  *   0.66919788  *  -0.82628426  *
    20       H          3.14191781  *  -0.79110754  *   0.13551477  *
    21       H         -0.09164347  *  -2.92521278  *  -1.19642070  *
    22       H          1.42259278  *  -2.09452652  *  -1.60265388  *
    23       H         -0.12080919  *  -1.47565079  *  -2.21192969  *
    24       H         -1.00762821  *  -0.82735418  *   2.41357617  *
    25       H         -2.53371171  *   1.45216349  *  -0.93622561  *
    26       H         -3.53569389  *  -1.88989330  *   0.96168613  *
    27       H         -3.18799859  *  -1.96187676  *   2.74972291  *
    28       H          0.11223120  *   3.02220630  *  -1.31615273  *
    29       H         -1.49056672  *   3.36656791  *  -2.11895296  *
 


          CARTESIAN COORDINATES 

    NO.       ATOM         X         Y         Z

     1         C        0.6826    0.3873   -0.2726
     2         C        0.2423   -1.0931   -0.1049
     3         C       -0.7331    0.8579    0.1648
     4         C       -1.2017   -0.6251    0.2335
     5         C        1.8065    0.8441    0.6334
     6         C        0.3669   -1.9390   -1.3434
     7         C        3.1445    0.3070    0.1769
     8         C       -1.6795   -1.0471    1.5739
     9         C       -1.4767    1.7098   -0.7948
    10         C       -2.8443   -1.6551    1.7666
    11         C       -0.9305    2.7380   -1.4338
    12         H        0.9162    0.6492   -1.3286
    13         H        0.7446   -1.5960    0.7507
    14         H       -1.9374   -0.8863   -0.5592
    15         H       -0.7366    1.3598    1.1582
    16         H        1.8244    1.9523    0.6505
    17         H        1.6073    0.5314    1.6785
    18         H        3.9498    0.6113    0.8571
    19         H        3.4061    0.6692   -0.8263
    20         H        3.1419   -0.7911    0.1355
    21         H       -0.0916   -2.9252   -1.1964
    22         H        1.4226   -2.0945   -1.6027
    23         H       -0.1208   -1.4757   -2.2119
    24         H       -1.0076   -0.8274    2.4136
    25         H       -2.5337    1.4522   -0.9362
    26         H       -3.5357   -1.8899    0.9617
    27         H       -3.1880   -1.9619    2.7497
    28         H        0.1122    3.0222   -1.3162
    29         H       -1.4906    3.3666   -2.1190

  H: (PM3): J. J. P. STEWART, J. COMP. CHEM. 10, 209 (1989).
  C: (PM3): J. J. P. STEWART, J. COMP. CHEM. 10, 209 (1989).

           Empirical Formula: C11 H18  =    29 atoms



      MOLECULAR POINT GROUP   :   C1  


      RHF CALCULATION, NO. OF DOUBLY OCCUPIED LEVELS =   31



          HEAT OF FORMATION =      14.875268 KCALS/MOLE


          INTERNAL COORDINATE DERIVATIVES

   NUMBER  ATOM       BOND         ANGLE      DIHEDRAL

     1       C     -0.001444     0.001896     0.000806
     2       C     -0.000344    -0.000956     0.003815
     3       C     -0.000256     0.001846    -0.001287
     4       C     -0.000267    -0.001998    -0.000821
     5       C      0.003689     0.002165    -0.001745
     6       C     -0.004126     0.001853     0.002169
     7       C      0.001886     0.001797    -0.001813
     8       C     -0.012317    -0.018366    -0.002469
     9       C      0.008267    -0.002762    -0.004289
    10       C      0.018832     0.015047     0.000284
    11       C     -0.007961     0.004475     0.002002
    12       H      0.001694    -0.005414    -0.001993
    13       H     -0.000137     0.002623    -0.001788
    14       H      0.000651     0.002387    -0.001502
    15       H     -0.000925    -0.000363     0.000239
    16       H     -0.004113     0.000557     0.002162
    17       H     -0.000064    -0.001837     0.000016
    18       H     -0.006038     0.005256    -0.000700
    19       H      0.003820     0.004150     0.007232
    20       H      0.000748    -0.008619    -0.004514
    21       H      0.003641    -0.007695    -0.002135
    22       H     -0.003801     0.000348     0.001827
    23       H      0.007595     0.007623     0.000807
    24       H     -0.000092    -0.004109    -0.000916
    25       H      0.005049     0.006417     0.006355
    26       H      0.002511     0.006431     0.002763
    27       H     -0.000795     0.001284     0.000104
    28       H     -0.010661    -0.010513    -0.006360
    29       H     -0.005044    -0.003523     0.001751


          GRADIENT NORM =   0.04869


          TIME FOR SCF CALCULATION =    0.01

          TIME FOR DERIVATIVES     =    0.01

          MOLECULAR WEIGHT =  150.26



          ROTATIONAL CONSTANTS IN CM(-1)

          A =    0.03863922   B =    0.02807496   C =    0.02120731



           PRINCIPAL MOMENTS OF INERTIA IN UNITS OF 10**(-40)*GRAM-CM**2

          A =      724.4653   B =      997.0725   C =     1319.9591


          ORIENTATION OF MOLECULE IN FORCE CALCULATION

    NO.       ATOM         X         Y         Z

     1          C      -0.6196   -0.7789    0.0309
     2          C       0.9340   -0.7789    0.0309
     3          C      -0.6198    0.7757    0.0309
     4          C       0.9336    0.7729    0.1339
     5          C      -1.2756   -1.4092   -1.1794
     6          C       1.5710   -1.4968    1.1902
     7          C      -1.1923   -2.9186   -1.1366
     8          C       1.6159    1.4574   -0.9926
     9          C      -1.3244    1.4408    1.1538
    10          C       2.5461    2.3883   -0.8148
    11          C      -2.5279    1.0748    1.5797
    12          H      -1.0494   -1.2095    0.9627
    13          H       1.3632   -1.1478   -0.9266
    14          H       1.3054    1.1408    1.1159
    15          H      -0.9897    1.2103   -0.9246
    16          H      -2.3349   -1.0854   -1.2217
    17          H      -0.8084   -1.0285   -2.1102
    18          H      -1.6370   -3.3685   -2.0331
    19          H      -1.7198   -3.3295   -0.2654
    20          H      -0.1496   -3.2603   -1.0760
    21          H       2.6566   -1.3364    1.2062
    22          H       1.3921   -2.5782    1.1227
    23          H       1.1739   -1.1568    2.1564
    24          H       1.3067    1.1483   -1.9994
    25          H      -0.7946    2.2855    1.6113
    26          H       2.8789    2.7204    0.1650
    27          H       3.0420    2.8850   -1.6431
    28          H      -3.0815    0.2443    1.1486
    29          H      -3.0421    1.5823    2.3897


    FIRST DERIVATIVES WILL BE USED IN THE CALCULATION OF SECOND DERIVATIVES

          ESTIMATED TIME TO COMPLETE CALCULATION =        5.27 SECONDS

    FOR POINT-GROUP C1   THERE ARE   1 UNIQUE SYMMETRY FUNCTIONS.

 STEP:   1 TIME =     0.05 SECS, INTEGRAL =      0.05 TIME LEFT: 172799.94
 STEP:   2 TIME =     0.05 SECS, INTEGRAL =      0.10 TIME LEFT: 172799.89
 STEP:   3 TIME =     0.05 SECS, INTEGRAL =      0.15 TIME LEFT: 172799.84
 STEP:   4 TIME =     0.05 SECS, INTEGRAL =      0.20 TIME LEFT: 172799.79
 STEP:   5 TIME =     0.05 SECS, INTEGRAL =      0.24 TIME LEFT: 172799.74
 STEP:   6 TIME =     0.05 SECS, INTEGRAL =      0.29 TIME LEFT: 172799.69
 STEP:   7 TIME =     0.05 SECS, INTEGRAL =      0.34 TIME LEFT: 172799.64
 STEP:   8 TIME =     0.05 SECS, INTEGRAL =      0.39 TIME LEFT: 172799.59
 STEP:   9 TIME =     0.05 SECS, INTEGRAL =      0.44 TIME LEFT: 172799.54
 STEP:  10 TIME =     0.05 SECS, INTEGRAL =      0.49 TIME LEFT: 172799.49
 STEP:  11 TIME =     0.05 SECS, INTEGRAL =      0.54 TIME LEFT: 172799.44
 STEP:  12 TIME =     0.05 SECS, INTEGRAL =      0.59 TIME LEFT: 172799.39
 STEP:  13 TIME =     0.05 SECS, INTEGRAL =      0.64 TIME LEFT: 172799.35
 STEP:  14 TIME =     0.05 SECS, INTEGRAL =      0.69 TIME LEFT: 172799.30
 STEP:  15 TIME =     0.05 SECS, INTEGRAL =      0.74 TIME LEFT: 172799.25
 STEP:  16 TIME =     0.05 SECS, INTEGRAL =      0.78 TIME LEFT: 172799.20
 STEP:  17 TIME =     0.05 SECS, INTEGRAL =      0.83 TIME LEFT: 172799.15
 STEP:  18 TIME =     0.05 SECS, INTEGRAL =      0.88 TIME LEFT: 172799.10
 STEP:  19 TIME =     0.05 SECS, INTEGRAL =      0.93 TIME LEFT: 172799.06
 STEP:  20 TIME =     0.05 SECS, INTEGRAL =      0.98 TIME LEFT: 172799.01
 STEP:  21 TIME =     0.05 SECS, INTEGRAL =      1.02 TIME LEFT: 172798.96
 STEP:  22 TIME =     0.05 SECS, INTEGRAL =      1.07 TIME LEFT: 172798.91
 STEP:  23 TIME =     0.05 SECS, INTEGRAL =      1.12 TIME LEFT: 172798.86
 STEP:  24 TIME =     0.05 SECS, INTEGRAL =      1.18 TIME LEFT: 172798.81
 STEP:  25 TIME =     0.05 SECS, INTEGRAL =      1.23 TIME LEFT: 172798.76
 STEP:  26 TIME =     0.05 SECS, INTEGRAL =      1.28 TIME LEFT: 172798.71
 STEP:  27 TIME =     0.05 SECS, INTEGRAL =      1.33 TIME LEFT: 172798.66
 STEP:  28 TIME =     0.05 SECS, INTEGRAL =      1.38 TIME LEFT: 172798.61
 STEP:  29 TIME =     0.05 SECS, INTEGRAL =      1.43 TIME LEFT: 172798.56
 STEP:  30 TIME =     0.05 SECS, INTEGRAL =      1.47 TIME LEFT: 172798.51
 STEP:  31 TIME =     0.05 SECS, INTEGRAL =      1.52 TIME LEFT: 172798.46
 STEP:  32 TIME =     0.05 SECS, INTEGRAL =      1.57 TIME LEFT: 172798.41
 STEP:  33 TIME =     0.05 SECS, INTEGRAL =      1.62 TIME LEFT: 172798.36
 STEP:  34 TIME =     0.05 SECS, INTEGRAL =      1.67 TIME LEFT: 172798.31
 STEP:  35 TIME =     0.05 SECS, INTEGRAL =      1.72 TIME LEFT: 172798.26
 STEP:  36 TIME =     0.05 SECS, INTEGRAL =      1.77 TIME LEFT: 172798.21
 STEP:  37 TIME =     0.05 SECS, INTEGRAL =      1.82 TIME LEFT: 172798.16
 STEP:  38 TIME =     0.05 SECS, INTEGRAL =      1.87 TIME LEFT: 172798.11
 STEP:  39 TIME =     0.05 SECS, INTEGRAL =      1.92 TIME LEFT: 172798.06
 STEP:  40 TIME =     0.05 SECS, INTEGRAL =      1.97 TIME LEFT: 172798.01
 STEP:  41 TIME =     0.05 SECS, INTEGRAL =      2.02 TIME LEFT: 172797.96
 STEP:  42 TIME =     0.05 SECS, INTEGRAL =      2.07 TIME LEFT: 172797.92
 STEP:  43 TIME =     0.05 SECS, INTEGRAL =      2.12 TIME LEFT: 172797.86
 STEP:  44 TIME =     0.05 SECS, INTEGRAL =      2.17 TIME LEFT: 172797.81
 STEP:  45 TIME =     0.05 SECS, INTEGRAL =      2.22 TIME LEFT: 172797.77
 STEP:  46 TIME =     0.05 SECS, INTEGRAL =      2.27 TIME LEFT: 172797.72
 STEP:  47 TIME =     0.05 SECS, INTEGRAL =      2.32 TIME LEFT: 172797.67
 STEP:  48 TIME =     0.05 SECS, INTEGRAL =      2.37 TIME LEFT: 172797.62
 STEP:  49 TIME =     0.05 SECS, INTEGRAL =      2.42 TIME LEFT: 172797.57
 STEP:  50 TIME =     0.05 SECS, INTEGRAL =      2.47 TIME LEFT: 172797.52
 STEP:  51 TIME =     0.05 SECS, INTEGRAL =      2.52 TIME LEFT: 172797.47
 STEP:  52 TIME =     0.05 SECS, INTEGRAL =      2.57 TIME LEFT: 172797.42
 STEP:  53 TIME =     0.05 SECS, INTEGRAL =      2.62 TIME LEFT: 172797.37
 STEP:  54 TIME =     0.05 SECS, INTEGRAL =      2.66 TIME LEFT: 172797.32
 STEP:  55 TIME =     0.05 SECS, INTEGRAL =      2.71 TIME LEFT: 172797.27
 STEP:  56 TIME =     0.05 SECS, INTEGRAL =      2.76 TIME LEFT: 172797.22
 STEP:  57 TIME =     0.05 SECS, INTEGRAL =      2.81 TIME LEFT: 172797.17
 STEP:  58 TIME =     0.05 SECS, INTEGRAL =      2.86 TIME LEFT: 172797.13
 STEP:  59 TIME =     0.05 SECS, INTEGRAL =      2.91 TIME LEFT: 172797.08
 STEP:  60 TIME =     0.05 SECS, INTEGRAL =      2.96 TIME LEFT: 172797.03
 STEP:  61 TIME =     0.05 SECS, INTEGRAL =      3.01 TIME LEFT: 172796.98
 STEP:  62 TIME =     0.05 SECS, INTEGRAL =      3.06 TIME LEFT: 172796.93
 STEP:  63 TIME =     0.05 SECS, INTEGRAL =      3.11 TIME LEFT: 172796.88
 STEP:  64 TIME =     0.05 SECS, INTEGRAL =      3.16 TIME LEFT: 172796.82
 STEP:  65 TIME =     0.05 SECS, INTEGRAL =      3.21 TIME LEFT: 172796.78
 STEP:  66 TIME =     0.05 SECS, INTEGRAL =      3.26 TIME LEFT: 172796.72
 STEP:  67 TIME =     0.05 SECS, INTEGRAL =      3.31 TIME LEFT: 172796.67
 STEP:  68 TIME =     0.05 SECS, INTEGRAL =      3.36 TIME LEFT: 172796.62
 STEP:  69 TIME =     0.05 SECS, INTEGRAL =      3.41 TIME LEFT: 172796.57
 STEP:  70 TIME =     0.05 SECS, INTEGRAL =      3.46 TIME LEFT: 172796.52
 STEP:  71 TIME =     0.05 SECS, INTEGRAL =      3.51 TIME LEFT: 172796.47
 STEP:  72 TIME =     0.05 SECS, INTEGRAL =      3.56 TIME LEFT: 172796.43
 STEP:  73 TIME =     0.05 SECS, INTEGRAL =      3.61 TIME LEFT: 172796.38
 STEP:  74 TIME =     0.05 SECS, INTEGRAL =      3.66 TIME LEFT: 172796.33
 STEP:  75 TIME =     0.05 SECS, INTEGRAL =      3.71 TIME LEFT: 172796.28
 STEP:  76 TIME =     0.05 SECS, INTEGRAL =      3.76 TIME LEFT: 172796.23
 STEP:  77 TIME =     0.05 SECS, INTEGRAL =      3.81 TIME LEFT: 172796.18
 STEP:  78 TIME =     0.05 SECS, INTEGRAL =      3.86 TIME LEFT: 172796.13
 STEP:  79 TIME =     0.05 SECS, INTEGRAL =      3.91 TIME LEFT: 172796.08
 STEP:  80 TIME =     0.05 SECS, INTEGRAL =      3.96 TIME LEFT: 172796.03
 STEP:  81 TIME =     0.05 SECS, INTEGRAL =      4.00 TIME LEFT: 172795.98
 STEP:  82 TIME =     0.05 SECS, INTEGRAL =      4.05 TIME LEFT: 172795.93
 STEP:  83 TIME =     0.05 SECS, INTEGRAL =      4.10 TIME LEFT: 172795.88
 STEP:  84 TIME =     0.05 SECS, INTEGRAL =      4.15 TIME LEFT: 172795.83
 STEP:  85 TIME =     0.05 SECS, INTEGRAL =      4.20 TIME LEFT: 172795.78
 STEP:  86 TIME =     0.05 SECS, INTEGRAL =      4.25 TIME LEFT: 172795.73
 STEP:  87 TIME =     0.05 SECS, INTEGRAL =      4.30 TIME LEFT: 172795.68

(To convert to Hartree/Bohr^2, multiply by (10^(-21) x N x a0^2)/(4.184 x 627.51) = 0.0642)


           FORCE MATRIX IN MILLIDYNES/ANGSTROM


                  C  1       C  2       C  3       C  4       C  5       C  6
 ------------------------------------------------------------------------------
     C    1  14.381120
     C    2   3.259712  14.430104
     C    3   3.216887   1.785179  14.692711
     C    4   1.772422   3.190778   3.152440  14.762498
     C    5   4.317008   0.530270   0.535529   0.041084  14.489778
     C    6   0.548659   4.637124   0.041303   0.550774   0.033534  14.520781
     C    7   0.664001   0.031872   0.050146   0.004844   4.461559   0.004853
     C    8   0.043855   0.586226   0.585803   5.043423   0.006753   0.033299
     C    9   0.546111   0.040682   5.069765   0.568175   0.033788   0.006071
     C   10   0.004923   0.035271   0.035460   0.855235   0.001498   0.005453
     C   11   0.051042   0.006163   0.830880   0.047862   0.005586   0.001822
     H   12   4.354185   0.438472   0.435742   0.025301   0.427728   0.034235
     H   13   0.438196   4.367975   0.026088   0.438097   0.032512   0.420482
     H   14   0.025501   0.435996   0.435648   4.363066   0.001517   0.032738
     H   15   0.442360   0.025471   4.334072   0.441738   0.036379   0.001726
     H   16   0.432669   0.045969   0.019045   0.003195   4.447058   0.005925
     H   17   0.450092   0.024050   0.021269   0.001983   4.427982   0.001113
     H   18   0.051675   0.002215   0.008480   0.000777   0.450928   0.000399
     H   19   0.022778   0.002225   0.001551   0.000528   0.463486   0.000807
     H   20   0.022744   0.007587   0.001956   0.000557   0.463420   0.004185
     H   21   0.047328   0.452327   0.003885   0.012049   0.005794   4.750904
     H   22   0.013096   0.450425   0.003536   0.048223   0.001924   4.728039
     H   23   0.020670   0.468728   0.001970   0.020428   0.001099   4.714146
     H   24   0.001366   0.019942   0.019386   0.436345   0.002910   0.001506
     H   25   0.034722   0.002553   0.435030   0.030638   0.004405   0.001173
     H   26   0.001051   0.009588   0.010045   0.099344   0.000230   0.001265
     H   27   0.001736   0.016316   0.016867   0.137834   0.000685   0.002189
     H   28   0.016887   0.001599   0.098150   0.004541   0.004893   0.000796
     H   29   0.007244   0.001576   0.132891   0.009919   0.000830   0.000593


                  C  7       C  8       C  9       C 10       C 11       H 12
 ------------------------------------------------------------------------------
     C    7  14.366492
     C    8   0.001122  18.308834
     C    9   0.007221   0.033574  18.269922
     C   10   0.001336  11.067460   0.005450  18.036835
     C   11   0.000743   0.007231  11.054649   0.002530  18.010542
     H   12   0.031606   0.002675   0.025461   0.000765   0.014160   4.868510
     H   13   0.008141   0.038753   0.001417   0.003070   0.001124   0.029275
     H   14   0.000567   0.444019   0.033083   0.052274   0.003026   0.002394
     H   15   0.002862   0.038438   0.391066   0.003160   0.025657   0.029852
     H   16   0.439583   0.001558   0.001678   0.000600   0.002709   0.026225
     H   17   0.437944   0.002596   0.001240   0.000604   0.001125   0.041752
     H   18   4.757865   0.000576   0.001398   0.000406   0.000298   0.001993
     H   19   4.725223   0.000344   0.000648   0.000234   0.000363   0.020591
     H   20   4.703912   0.000796   0.000741   0.000401   0.000405   0.002175
     H   21   0.000577   0.002807   0.001050   0.000433   0.000432   0.002861
     H   22   0.002975   0.006152   0.001003   0.001289   0.000498   0.005267
     H   23   0.000450   0.000814   0.001204   0.000723   0.000496   0.022413
     H   24   0.000791   4.765068   0.001775   0.454156   0.000845   0.000738
     H   25   0.001225   0.003029   4.781322   0.001320   0.455235   0.003010
     H   26   0.000321   0.490483   0.002033   5.069707   0.001009   0.000205
     H   27   0.000313   0.460928   0.002175   5.106774   0.000816   0.000196
     H   28   0.001038   0.001121   0.493218   0.000700   5.059180   0.021770
     H   29   0.000431   0.001357   0.463682   0.000478   5.113655   0.001161


                  H 13       H 14       H 15       H 16       H 17       H 18
 ------------------------------------------------------------------------------
     H   13   4.881406
     H   14   0.028980   4.872180
     H   15   0.002338   0.029881   4.829704
     H   16   0.002986   0.000546   0.010379   5.051690
     H   17   0.026731   0.000532   0.020750   0.565939   5.042664
     H   18   0.000583   0.000111   0.000720   0.027268   0.031313   5.491638
     H   19   0.000475   0.000141   0.000497   0.025802   0.047614   0.570053
     H   20   0.011018   0.000262   0.000484   0.048350   0.022907   0.566339
     H   21   0.030003   0.004924   0.000488   0.001240   0.000386   0.000118
     H   22   0.030798   0.002871   0.000506   0.000374   0.000270   0.000345
     H   23   0.043774   0.022199   0.000577   0.000336   0.000492   0.000158
     H   24   0.021908   0.036701   0.021823   0.000483   0.006134   0.000229
     H   25   0.000526   0.029189   0.014147   0.000427   0.000365   0.000307
     H   26   0.000787   0.029578   0.000830   0.000086   0.000171   0.000116
     H   27   0.000949   0.002015   0.001014   0.000235   0.000190   0.000188
     H   28   0.000438   0.000652   0.011738   0.008998   0.000840   0.000279
     H   29   0.000184   0.000718   0.014906   0.000513   0.000321   0.000184


                  H 19       H 20       H 21       H 22       H 23       H 24
 ------------------------------------------------------------------------------
     H   19   5.468017
     H   20   0.576217   5.437845
     H   21   0.000234   0.000322   5.473964
     H   22   0.000891   0.008927   0.563296   5.447357
     H   23   0.000219   0.000322   0.570607   0.569292   5.451793
     H   24   0.000283   0.000305   0.000511   0.000426   0.000530   5.136541
     H   25   0.000182   0.000198   0.000427   0.000339   0.000377   0.000851
     H   26   0.000082   0.000120   0.000258   0.000432   0.000234   0.117493
     H   27   0.000113   0.000164   0.000321   0.000432   0.000191   0.078274
     H   28   0.000261   0.000312   0.000295   0.000242   0.000339   0.000326
     H   29   0.000192   0.000163   0.000155   0.000245   0.000229   0.000266


                  H 25       H 26       H 27       H 28       H 29
 ------------------------------------------------------------------
     H   25   5.146504
     H   26   0.000641   5.465052
     H   27   0.000475   0.422529   5.494569
     H   28   0.116713   0.000208   0.000271   5.447011
     H   29   0.078491   0.000151   0.000224   0.415997   5.500118


          HEAT OF FORMATION =      14.875268 KCALS/MOLE

          ZERO POINT ENERGY     162.199 KCAL/MOL


           NORMAL COORDINATE ANALYSIS (Total motion = 1 Angstrom)


   Root No.       1         2         3         4         5         6         7         8

                 1 A       2 A       3 A       4 A       5 A       6 A       7 A       8 A   

                  46.3      73.8      89.3     106.8     162.8     167.9     189.2     201.6
  
           1   -0.0045   -0.0026   -0.0107   -0.0124   -0.0034    0.0012    0.0054    0.0031
           2    0.0018    0.0047   -0.0006    0.0043   -0.0013   -0.0171   -0.0130   -0.0039
           3   -0.0013    0.0013    0.0135   -0.0133   -0.0078    0.0028    0.0009    0.0178
           4   -0.0045   -0.0029   -0.0107   -0.0124   -0.0031    0.0026    0.0061    0.0036
           5    0.0002    0.0185   -0.0076    0.0008    0.0014   -0.0060   -0.0011   -0.0020
           6    0.0198   -0.0079   -0.0028   -0.0066   -0.0048    0.0018    0.0005    0.0116
           7   -0.0038   -0.0163   -0.0031   -0.0086   -0.0071   -0.0073   -0.0051   -0.0005
           8    0.0019    0.0049   -0.0002    0.0042   -0.0014   -0.0155   -0.0122   -0.0039
           9    0.0071    0.0007    0.0063   -0.0243    0.0065   -0.0020   -0.0012    0.0051
          10   -0.0033   -0.0162   -0.0028   -0.0089   -0.0063   -0.0085   -0.0055   -0.0010
          11    0.0014    0.0183   -0.0083    0.0002    0.0002   -0.0066   -0.0008   -0.0018
          12    0.0006   -0.0023    0.0017   -0.0090    0.0018   -0.0040   -0.0052    0.0141
          13    0.0144   -0.0050   -0.0222   -0.0044    0.0244    0.0035    0.0077    0.0027
          14    0.0130   -0.0028   -0.0045   -0.0139   -0.0087   -0.0086   -0.0085    0.0108
          15   -0.0178    0.0066    0.0219   -0.0081   -0.0197   -0.0046   -0.0039    0.0096
          16   -0.0235    0.0133   -0.0001   -0.0226   -0.0063    0.0249    0.0098    0.0280
          17    0.0162    0.0201   -0.0174   -0.0006   -0.0131    0.0222    0.0137   -0.0099
          18    0.0404   -0.0161   -0.0149   -0.0019   -0.0128    0.0074    0.0082   -0.0072
          19    0.0231    0.0126    0.0565    0.0164    0.0140   -0.0167   -0.0123   -0.0060
          20    0.0130   -0.0019   -0.0014   -0.0128   -0.0093   -0.0098   -0.0096    0.0107
          21   -0.0376    0.0068   -0.0199    0.0093    0.0132   -0.0225   -0.0156   -0.0174
          22   -0.0101   -0.0124   -0.0033    0.0090   -0.0155   -0.0080   -0.0096   -0.0033
          23   -0.0168    0.0180   -0.0075    0.0038    0.0070    0.0010    0.0106   -0.0116
          24   -0.0149   -0.0001    0.0019    0.0045    0.0004    0.0019    0.0000    0.0068
          25    0.0034   -0.0212    0.0033    0.0005    0.0075    0.0052    0.0036   -0.0204
          26   -0.0039   -0.0038    0.0141    0.0218   -0.0011    0.0053   -0.0016    0.0209
          27    0.0153    0.0030    0.0016   -0.0289    0.0161   -0.0068   -0.0022   -0.0236
          28   -0.0019    0.0589   -0.0065    0.0037   -0.0039   -0.0046   -0.0001   -0.0058
          29   -0.0210   -0.0538   -0.0045    0.0052   -0.0044   -0.0049   -0.0011   -0.0065
          30   -0.0368    0.0030    0.0025    0.0260   -0.0014    0.0156    0.0127   -0.0094
          31    0.0092   -0.0163   -0.0069    0.0362   -0.0049    0.0041    0.0002   -0.0035
          32   -0.0092   -0.0180    0.0384   -0.0098    0.0333    0.0320    0.0196   -0.0044
          33    0.0270    0.0052   -0.0066    0.0438    0.0097    0.0114    0.0054    0.0029
          34   -0.0190    0.0073   -0.0036   -0.0157   -0.0105    0.0006    0.0085    0.0053
          35   -0.0054    0.0018    0.0053    0.0128   -0.0081   -0.0202   -0.0171   -0.0063
          36   -0.0115    0.0046    0.0193   -0.0106   -0.0146    0.0003   -0.0001    0.0167
          37    0.0095   -0.0061   -0.0237   -0.0085   -0.0001    0.0038    0.0077   -0.0058
          38   -0.0139    0.0271   -0.0048   -0.0014    0.0094   -0.0084   -0.0053    0.0049
          39    0.0316   -0.0128   -0.0099   -0.0040   -0.0069    0.0035    0.0032    0.0040
          40    0.0033   -0.0193    0.0018   -0.0210   -0.0018   -0.0120   -0.0087   -0.0049
          41    0.0154    0.0186   -0.0134   -0.0024   -0.0034   -0.0054    0.0029    0.0031
          42   -0.0073   -0.0012    0.0019   -0.0031    0.0014   -0.0025   -0.0047    0.0130
          43   -0.0093   -0.0225   -0.0022   -0.0019   -0.0132   -0.0120   -0.0117    0.0104
          44    0.0083    0.0018   -0.0041   -0.0013    0.0046   -0.0243   -0.0185   -0.0175
          45    0.0121    0.0017    0.0041   -0.0290    0.0117   -0.0044   -0.0017   -0.0063
          46    0.0130   -0.0089   -0.0396   -0.0083    0.0287    0.0070    0.0111    0.0045
          47    0.0069   -0.0147   -0.0560   -0.0283   -0.0015    0.0031    0.0028    0.0170
          48   -0.0269    0.0148    0.0667   -0.0135   -0.0612   -0.0082   -0.0076    0.0101
          49    0.0239   -0.0165   -0.0733   -0.0079    0.0582    0.0124    0.0157    0.0080
          50    0.0284    0.0021    0.0411   -0.0178   -0.0276   -0.0062   -0.0096    0.0229
          51   -0.0068    0.0029    0.0148   -0.0114   -0.0106    0.0007   -0.0005    0.0167
          52    0.0269    0.0135    0.0420    0.0293    0.1048   -0.0389   -0.0587    0.0700
          53    0.0223   -0.0073   -0.0009   -0.0292   -0.0236    0.0075    0.0031    0.0328
          54   -0.0442    0.0090   -0.0130    0.0112   -0.0244   -0.0204    0.0008   -0.0661
          55    0.0239    0.0213    0.1138    0.0157   -0.0772   -0.0077    0.0195   -0.0829
          56   -0.0013   -0.0076   -0.0502   -0.0103    0.0081   -0.0126   -0.0074   -0.0068
          57   -0.0438    0.0094   -0.0083    0.0101   -0.0337   -0.0185    0.0047   -0.0723
          58    0.0247    0.0168    0.0762    0.0207    0.0067   -0.0207   -0.0152   -0.0123
          59    0.0176    0.0100    0.0490    0.0022   -0.0123   -0.0254   -0.0259    0.0058
          60   -0.0405    0.0020   -0.0720    0.0211    0.1272   -0.0453   -0.0640    0.0650
          61   -0.0235    0.0113    0.0010   -0.0212   -0.0046    0.0071    0.0273    0.0313
          62    0.0149    0.0345   -0.0236   -0.0109   -0.0252    0.1401   -0.0984   -0.0283
          63    0.0549   -0.0220   -0.0278    0.0014   -0.0145    0.0597   -0.0743   -0.0440
          64   -0.0238    0.0273   -0.0070   -0.0328   -0.0185    0.1457   -0.1070    0.0078
          65    0.0154    0.0181   -0.0160    0.0009   -0.0108    0.0052    0.0276   -0.0071
          66    0.0540   -0.0214   -0.0192    0.0011   -0.0226   -0.0325    0.0949    0.0002
          67   -0.0380    0.0147    0.0140   -0.0227   -0.0001   -0.0539    0.1084    0.0657
          68    0.0312    0.0093   -0.0207    0.0065   -0.0175   -0.0500    0.1215   -0.0015
          69    0.0292   -0.0118   -0.0080   -0.0044   -0.0088    0.0004    0.0108    0.0050
          70   -0.0230   -0.0661   -0.0012    0.0273   -0.0326   -0.0087   -0.0193   -0.0038
          71   -0.0277    0.0751   -0.0090    0.0072    0.0219    0.0129    0.0308   -0.0257
          72   -0.0077   -0.0011    0.0017   -0.0020    0.0011   -0.0014   -0.0030    0.0109
          73    0.0041   -0.0296    0.0165   -0.0173    0.0313    0.0190    0.0151   -0.0499
          74   -0.0023    0.0014    0.0046    0.0667   -0.0229    0.0069   -0.0049    0.0647
          75    0.0115    0.0030    0.0039   -0.0907    0.0296   -0.0250   -0.0087   -0.0704
          76    0.0108    0.1136   -0.0087   -0.0147    0.0130   -0.0056    0.0081   -0.0040
          77   -0.0110   -0.1117   -0.0029    0.0011   -0.0195   -0.0187   -0.0231    0.0089
          78   -0.0445    0.0040    0.0027    0.0337   -0.0020    0.0207    0.0175   -0.0154
          79   -0.0073    0.0686   -0.0072    0.0175   -0.0100   -0.0002    0.0006   -0.0102
          80   -0.0349   -0.0607   -0.0033    0.0108    0.0002    0.0035    0.0103   -0.0174
          81   -0.0484    0.0046    0.0028    0.0376   -0.0023    0.0233    0.0201   -0.0186
          82    0.0074   -0.0081   -0.0187    0.0486   -0.0305   -0.0128   -0.0134    0.0249
          83   -0.0106   -0.0234    0.0477   -0.0517    0.0557    0.0323    0.0240   -0.0471
          84    0.0320    0.0052   -0.0093    0.1088    0.0001    0.0333    0.0149    0.0487
          85    0.0156   -0.0201   -0.0034    0.0541    0.0106    0.0208    0.0116   -0.0168
          86   -0.0119   -0.0249    0.0497    0.0061    0.0413    0.0558    0.0341    0.0160
          87    0.0328    0.0071   -0.0115    0.0454    0.0146    0.0073    0.0036   -0.0183


   Root No.       9        10        11        12        13        14        15        16

                 9 A      10 A      11 A      12 A      13 A      14 A      15 A      16 A   

                 218.5     262.6     329.0     387.2     394.7     432.9     451.2     514.3
  
           1   -0.0049    0.0128    0.0102   -0.0170   -0.0160   -0.0067   -0.0296   -0.0013
           2   -0.0022   -0.0073   -0.0045    0.0045    0.0095   -0.0010   -0.0043    0.0261
           3    0.0014    0.0033   -0.0048   -0.0250    0.0235    0.0066    0.0256   -0.0205
           4   -0.0044    0.0137    0.0090   -0.0140   -0.0185   -0.0098   -0.0300    0.0015
           5   -0.0036   -0.0048    0.0195   -0.0048    0.0138   -0.0091   -0.0262   -0.0028
           6   -0.0071    0.0005   -0.0007    0.0025    0.0220   -0.0290    0.0123    0.0197
           7    0.0004    0.0134   -0.0058    0.0077   -0.0072    0.0121   -0.0056    0.0156
           8   -0.0016   -0.0084   -0.0011    0.0081    0.0184    0.0064   -0.0081    0.0312
           9   -0.0061    0.0003    0.0002   -0.0024   -0.0097    0.0434   -0.0072   -0.0037
          10    0.0001    0.0119   -0.0002    0.0022   -0.0131    0.0165    0.0056    0.0233
          11   -0.0035   -0.0022    0.0215   -0.0079    0.0146   -0.0127   -0.0166   -0.0023
          12   -0.0183    0.0015    0.0103    0.0378   -0.0035   -0.0067   -0.0222   -0.0034
          13   -0.0257   -0.0102   -0.0054   -0.0211    0.0196    0.0111    0.0069   -0.0066
          14   -0.0017   -0.0045   -0.0239   -0.0120   -0.0175   -0.0141    0.0060   -0.0134
          15    0.0125    0.0150    0.0111   -0.0206    0.0162   -0.0003   -0.0003   -0.0042
          16    0.0016   -0.0230   -0.0144    0.0154    0.0013   -0.0167    0.0076    0.0180
          17    0.0275   -0.0154   -0.0049    0.0184   -0.0098    0.0207   -0.0079   -0.0124
          18    0.0096    0.0164   -0.0038    0.0000   -0.0058   -0.0112    0.0053    0.0130
          19   -0.0009   -0.0062   -0.0133   -0.0015   -0.0071   -0.0010    0.0046   -0.0049
          20   -0.0008   -0.0048   -0.0272   -0.0134   -0.0218   -0.0194    0.0077   -0.0187
          21   -0.0072   -0.0081   -0.0194   -0.0005   -0.0186   -0.0072    0.0014   -0.0073
          22    0.0128   -0.0265    0.0281   -0.0068   -0.0059    0.0097    0.0253    0.0036
          23   -0.0021    0.0367    0.0063   -0.0004    0.0023   -0.0014    0.0262   -0.0061
          24   -0.0093    0.0009    0.0143    0.0421   -0.0068   -0.0066    0.0059   -0.0236
          25    0.0125    0.0099   -0.0121    0.0156    0.0227   -0.0068   -0.0096   -0.0206
          26   -0.0130    0.0045   -0.0094    0.0076    0.0194    0.0297   -0.0130   -0.0007
          27    0.0087   -0.0123    0.0041    0.0003    0.0073    0.0236   -0.0060    0.0022
          28    0.0036    0.0023    0.0237   -0.0003   -0.0029    0.0041    0.0282   -0.0062
          29    0.0033    0.0095    0.0186    0.0023   -0.0028    0.0038    0.0324   -0.0016
          30    0.0145   -0.0062   -0.0227   -0.0162    0.0045    0.0007   -0.0170    0.0057
          31    0.0054    0.0123   -0.0141    0.0162    0.0243   -0.0084   -0.0096   -0.0195
          32   -0.0067   -0.0023    0.0113   -0.0030   -0.0127   -0.0024   -0.0024    0.0019
          33   -0.0057   -0.0124    0.0169   -0.0105   -0.0184   -0.0044    0.0066    0.0149
          34    0.0025    0.0199    0.0207   -0.0278   -0.0265    0.0020   -0.0513   -0.0208
          35    0.0019   -0.0059   -0.0049    0.0085    0.0274   -0.0155    0.0082    0.0492
          36    0.0068    0.0078    0.0003   -0.0278    0.0258    0.0035    0.0201   -0.0184
          37   -0.0082    0.0224    0.0193   -0.0117   -0.0314   -0.0221   -0.0590    0.0021
          38   -0.0184   -0.0042    0.0338    0.0047    0.0146   -0.0215   -0.0529   -0.0148
          39   -0.0024    0.0055   -0.0015   -0.0001    0.0144   -0.0289    0.0093    0.0240
          40    0.0009    0.0170   -0.0129   -0.0024   -0.0172    0.0485    0.0041    0.0388
          41   -0.0034   -0.0079    0.0255   -0.0235    0.0265   -0.0363   -0.0273    0.0047
          42   -0.0176    0.0014    0.0128    0.0447   -0.0060   -0.0097   -0.0175   -0.0124
          43   -0.0085    0.0140   -0.0048    0.0312   -0.0168    0.0088   -0.0074    0.0370
          44   -0.0005   -0.0148   -0.0031    0.0275    0.0063    0.0157   -0.0179    0.0601
          45   -0.0016   -0.0037   -0.0003   -0.0024   -0.0103    0.0480   -0.0106    0.0018
          46   -0.0316   -0.0128   -0.0078   -0.0256    0.0230    0.0135    0.0113   -0.0116
          47   -0.0172   -0.0082   -0.0274   -0.0266   -0.0106   -0.0119    0.0123   -0.0272
          48    0.0414    0.0445    0.0358   -0.0154   -0.0181   -0.0273   -0.0504    0.0099
          49   -0.0533   -0.0339   -0.0269   -0.0341    0.0512    0.0332    0.0517   -0.0278
          50    0.0158    0.0073   -0.0176   -0.0175   -0.0183   -0.0205    0.0053   -0.0200
          51    0.0059    0.0081    0.0031   -0.0287    0.0307    0.0079    0.0209   -0.0169
          52    0.0967    0.0190   -0.0064    0.0073   -0.0210   -0.0086   -0.0012   -0.0031
          53    0.0068    0.0101   -0.0006   -0.0348    0.0179   -0.0066    0.0065   -0.0125
          54   -0.0594   -0.0282   -0.0368    0.0060   -0.0325   -0.0103    0.0051   -0.0119
          55   -0.0786   -0.0280   -0.0270    0.0033   -0.0149   -0.0042    0.0094   -0.0084
          56   -0.0269   -0.0222   -0.0464   -0.0084   -0.0372   -0.0212    0.0111   -0.0248
          57   -0.0668   -0.0296   -0.0370    0.0049   -0.0311   -0.0102    0.0059   -0.0125
          58    0.0001   -0.0066   -0.0169    0.0035   -0.0157   -0.0055    0.0045   -0.0062
          59    0.0187   -0.0023   -0.0366    0.0031   -0.0494   -0.0335    0.0059   -0.0217
          60    0.0894    0.0132   -0.0168    0.0070   -0.0341   -0.0133   -0.0041   -0.0074
          61    0.0019   -0.0233   -0.0126    0.0140    0.0017   -0.0188    0.0046    0.0182
          62    0.0271   -0.0198   -0.0215    0.0357   -0.0103    0.0330    0.0182   -0.0074
          63   -0.0030    0.0583    0.0183   -0.0367   -0.0233   -0.0031   -0.0285   -0.0068
          64   -0.0002   -0.0250   -0.0296    0.0302    0.0011   -0.0068    0.0329    0.0250
          65    0.0258   -0.0142   -0.0012    0.0147   -0.0084    0.0177   -0.0129   -0.0131
          66    0.0449   -0.0007   -0.0278    0.0321   -0.0347    0.0194    0.0219    0.0069
          67    0.0090   -0.0569   -0.0263    0.0397    0.0197   -0.0315    0.0278    0.0360
          68    0.0580   -0.0240   -0.0176    0.0367   -0.0381    0.0462   -0.0078   -0.0241
          69    0.0022    0.0058   -0.0041    0.0035    0.0110   -0.0254    0.0132    0.0237
          70    0.0342   -0.0916    0.0555   -0.0395    0.0002    0.0102    0.0084   -0.0243
          71   -0.0036    0.0982   -0.0356   -0.0012    0.0000    0.0044    0.0615    0.0258
          72   -0.0149    0.0019    0.0180    0.0509   -0.0076   -0.0083   -0.0004   -0.0239
          73    0.0256    0.0015   -0.0044    0.0178    0.0310   -0.0494   -0.0023   -0.0292
          74   -0.0346    0.0172   -0.0146    0.0014   -0.0031    0.0744   -0.0205   -0.0042
          75    0.0330   -0.0266    0.0063    0.0089    0.0373   -0.0120   -0.0004    0.0198
          76   -0.0210    0.0719    0.0109    0.0555   -0.0154    0.0029    0.0814    0.0098
          77    0.0020   -0.0514    0.0797    0.0224   -0.0058   -0.0037    0.0227   -0.0672
          78    0.0235   -0.0093   -0.0396   -0.0429    0.0100    0.0038   -0.0324    0.0233
          79    0.0199   -0.0396    0.0322   -0.0500    0.0129   -0.0005   -0.0213   -0.0337
          80    0.0099    0.0441   -0.0303   -0.0154   -0.0051    0.0171    0.0495    0.0695
          81    0.0283   -0.0107   -0.0477   -0.0572    0.0128    0.0059   -0.0378    0.0326
          82   -0.0050    0.0250   -0.0350    0.0238    0.0415    0.0586   -0.0320   -0.0408
          83    0.0137   -0.0157    0.0197    0.0020    0.0056   -0.0580    0.0089    0.0115
          84   -0.0320   -0.0030    0.0285   -0.0306   -0.0777    0.0150    0.0143    0.0247
          85    0.0094    0.0020    0.0057    0.0085    0.0078   -0.0790    0.0120    0.0025
          86   -0.0220    0.0040    0.0251   -0.0212   -0.0708    0.0148    0.0032    0.0033
          87    0.0063   -0.0230    0.0213   -0.0044    0.0064   -0.0603    0.0174    0.0291


   Root No.      17        18        19        20        21        22        23        24

                17 A      18 A      19 A      20 A      21 A      22 A      23 A      24 A   

                 553.9     641.5     658.9     711.6     818.9     903.8     918.7     921.0
  
           1    0.0055    0.0157   -0.0064   -0.0140    0.0108    0.0162   -0.0148   -0.0019
           2    0.0116   -0.0055    0.0145   -0.0227   -0.0057   -0.0028    0.0043   -0.0069
           3    0.0144   -0.0082    0.0006    0.0139   -0.0038   -0.0140    0.0133    0.0088
           4   -0.0020    0.0182   -0.0066   -0.0098   -0.0241   -0.0147    0.0108    0.0018
           5   -0.0013   -0.0241   -0.0183    0.0194   -0.0030   -0.0168   -0.0080    0.0019
           6   -0.0246   -0.0148   -0.0047    0.0120    0.0104   -0.0025   -0.0115   -0.0005
           7    0.0085   -0.0164    0.0234    0.0212    0.0006   -0.0034    0.0018   -0.0065
           8    0.0102    0.0091    0.0101   -0.0221   -0.0044   -0.0033    0.0021    0.0015
           9   -0.0157    0.0063   -0.0013    0.0265    0.0049   -0.0023    0.0027   -0.0172
          10    0.0106   -0.0102    0.0120    0.0244    0.0021   -0.0041   -0.0085    0.0110
          11   -0.0115   -0.0161   -0.0045    0.0143    0.0020    0.0181    0.0127   -0.0049
          12    0.0134   -0.0135    0.0038    0.0177    0.0022    0.0187    0.0094    0.0116
          13    0.0211    0.0011    0.0033   -0.0164    0.0350    0.0016   -0.0021   -0.0012
          14    0.0012    0.0002   -0.0016   -0.0011    0.0026    0.0001    0.0000   -0.0007
          15    0.0248   -0.0047    0.0065   -0.0161   -0.0102    0.0090   -0.0062   -0.0040
          16   -0.0160    0.0101    0.0019   -0.0077   -0.0128   -0.0140    0.0152    0.0018
          17    0.0184   -0.0126   -0.0043    0.0106    0.0028   -0.0164   -0.0125    0.0017
          18   -0.0161    0.0127    0.0031   -0.0081   -0.0049   -0.0016   -0.0016   -0.0016
          19    0.0014    0.0003    0.0005   -0.0016    0.0083   -0.0019    0.0035   -0.0003
          20    0.0011   -0.0003   -0.0037   -0.0020    0.0027    0.0038   -0.0033    0.0002
          21   -0.0020    0.0007   -0.0012   -0.0015   -0.0003    0.0074   -0.0069   -0.0049
          22   -0.0019   -0.0032   -0.0363    0.0009    0.0001    0.0008   -0.0044    0.0069
          23   -0.0159    0.0093    0.0342    0.0028    0.0018    0.0054    0.0072   -0.0040
          24    0.0141    0.0066   -0.0017   -0.0197   -0.0024   -0.0062   -0.0017   -0.0016
          25   -0.0101   -0.0218   -0.0009   -0.0082    0.0001    0.0008    0.0021   -0.0115
          26   -0.0104    0.0506   -0.0159    0.0062   -0.0003   -0.0009   -0.0006    0.0152
          27   -0.0195   -0.0007   -0.0087   -0.0212   -0.0024    0.0015   -0.0004   -0.0088
          28   -0.0105    0.0052    0.0007    0.0012    0.0012    0.0053    0.0017    0.0038
          29   -0.0082    0.0037   -0.0037    0.0007    0.0015    0.0056    0.0035    0.0017
          30    0.0018   -0.0022    0.0005   -0.0019   -0.0010   -0.0147   -0.0086   -0.0105
          31   -0.0042   -0.0057   -0.0021    0.0015    0.0010    0.0006    0.0028   -0.0057
          32   -0.0012    0.0018   -0.0021   -0.0012    0.0003    0.0034   -0.0042    0.0097
          33    0.0065    0.0091    0.0003   -0.0015   -0.0010    0.0028   -0.0044    0.0099
          34    0.0133    0.0300   -0.0216   -0.0195   -0.0130    0.0241   -0.0251    0.0086
          35    0.0336   -0.0166    0.0400   -0.0517   -0.0227   -0.0132    0.0259   -0.0066
          36    0.0282   -0.0072    0.0055   -0.0029   -0.0211   -0.0140    0.0177    0.0132
          37   -0.0142    0.0290   -0.0216   -0.0170   -0.0404   -0.0001   -0.0159   -0.0054
          38   -0.0011   -0.0360   -0.0336    0.0362   -0.0154    0.0015    0.0132    0.0115
          39   -0.0301   -0.0041   -0.0047    0.0018    0.0069   -0.0029   -0.0298   -0.0074
          40    0.0112   -0.0094    0.0410    0.0550    0.0113   -0.0256   -0.0304    0.0078
          41   -0.0312   -0.0357   -0.0321    0.0273    0.0002    0.0249    0.0223   -0.0201
          42    0.0203   -0.0065    0.0028    0.0010   -0.0008    0.0234    0.0140    0.0184
          43    0.0348   -0.0189    0.0491    0.0519   -0.0016   -0.0045    0.0047    0.0245
          44    0.0065   -0.0111    0.0320   -0.0500   -0.0092   -0.0084    0.0025   -0.0341
          45   -0.0273   -0.0018   -0.0020    0.0006    0.0035   -0.0042    0.0015   -0.0453
          46    0.0248   -0.0001    0.0038   -0.0130    0.0001    0.0170   -0.0176   -0.0041
          47    0.0109   -0.0002   -0.0033    0.0036   -0.0757    0.0473   -0.0503   -0.0094
          48    0.0082    0.0180   -0.0099   -0.0451    0.1573    0.0060   -0.0177   -0.0022
          49    0.0403   -0.0177    0.0148    0.0084   -0.1257    0.0191   -0.0091   -0.0028
          50    0.0018    0.0012   -0.0059   -0.0036    0.0831   -0.0428    0.0436    0.0177
          51    0.0332   -0.0132    0.0100   -0.0047   -0.0530   -0.0012    0.0089    0.0030
          52   -0.0091    0.0010   -0.0026    0.0109   -0.0415    0.0116   -0.0129   -0.0004
          53    0.0384   -0.0069    0.0110   -0.0394    0.0134    0.0376   -0.0301   -0.0294
          54   -0.0161    0.0039   -0.0076    0.0119    0.0191   -0.0168    0.0151    0.0108
          55   -0.0077   -0.0014   -0.0020    0.0126   -0.0503    0.0139   -0.0158   -0.0022
          56   -0.0129    0.0066   -0.0121    0.0055    0.0996   -0.0554    0.0561    0.0306
          57   -0.0145    0.0033   -0.0070    0.0108    0.0136   -0.0130    0.0114    0.0093
          58   -0.0062   -0.0002   -0.0020    0.0087   -0.0338    0.0101   -0.0112   -0.0012
          59   -0.0234   -0.0011   -0.0118    0.0289   -0.1117    0.0334   -0.0404    0.0004
          60   -0.0139    0.0050   -0.0072    0.0073    0.0270   -0.0164    0.0149    0.0104
          61   -0.0174    0.0097   -0.0003   -0.0069   -0.0165   -0.0241    0.0151    0.0024
          62    0.0240   -0.0127    0.0137    0.0052    0.0368    0.0710   -0.0259   -0.0064
          63   -0.0024    0.0342   -0.0074   -0.0190   -0.0609   -0.0733    0.0803    0.0157
          64   -0.0141    0.0136    0.0196   -0.0162    0.0154    0.0683    0.0070   -0.0070
          65    0.0173   -0.0148   -0.0084    0.0135   -0.0017   -0.0338   -0.0146    0.0032
          66    0.0060    0.0397    0.0298   -0.0337   -0.0010    0.0920    0.0633    0.0000
          67   -0.0336   -0.0089    0.0038    0.0035    0.0232    0.0188   -0.0550   -0.0113
          68    0.0410    0.0100    0.0105   -0.0079   -0.0077    0.0313    0.0536    0.0080
          69   -0.0302   -0.0025   -0.0010    0.0026    0.0128   -0.0046   -0.0510   -0.0086
          70   -0.0279    0.0144    0.0004   -0.0052   -0.0020    0.0063    0.0472   -0.0679
          71   -0.0058    0.0059   -0.0073   -0.0057    0.0023   -0.0436   -0.0700    0.0386
          72    0.0184    0.0018   -0.0002   -0.0144   -0.0017    0.0077    0.0063    0.0084
          73    0.0078   -0.0011   -0.0086   -0.0014    0.0002    0.0051   -0.0082    0.0877
          74   -0.0379    0.0148   -0.0131   -0.0028    0.0036    0.0034    0.0013   -0.1186
          75    0.0121    0.0400   -0.0037   -0.0120   -0.0097   -0.0111    0.0085    0.1230
          76    0.0250   -0.0059   -0.1113   -0.0348   -0.0050   -0.0304    0.0107   -0.0696
          77   -0.0279    0.0404    0.1005   -0.0231   -0.0019   -0.0659   -0.0662    0.0007
          78   -0.0040   -0.0113    0.0033    0.0197    0.0025    0.0237    0.0131    0.0161
          79   -0.0576    0.0293    0.1714    0.0368    0.0098    0.0441    0.0171    0.0449
          80    0.0209   -0.0411   -0.1683    0.0200    0.0030    0.0644    0.0424    0.0263
          81   -0.0087   -0.0154    0.0042    0.0319    0.0051    0.0452    0.0247    0.0298
          82   -0.0580   -0.0126   -0.0289   -0.0452   -0.0034    0.0172   -0.0204    0.0959
          83    0.0419    0.0683   -0.0015    0.0509    0.0057    0.0020    0.0030   -0.0804
          84   -0.0058   -0.1124    0.0354   -0.0405   -0.0059   -0.0168    0.0130    0.0489
          85    0.0588    0.0292    0.0219    0.0710    0.0089   -0.0171    0.0237   -0.0773
          86   -0.0251   -0.1611    0.0353   -0.0660   -0.0058   -0.0107    0.0185   -0.0163
          87    0.0622    0.1326   -0.0069    0.0834    0.0077   -0.0002   -0.0049   -0.0200


   Root No.      25        26        27        28        29        30        31        32

                25 A      26 A      27 A      28 A      29 A      30 A      31 A      32 A   

                 933.5     948.0     968.1     977.8    1010.6    1026.5    1029.1    1040.6
  
           1    0.0101    0.0069   -0.0102   -0.0109    0.0033   -0.0023    0.0006   -0.0035
           2   -0.0081   -0.0039    0.0049    0.0058   -0.0031   -0.0180   -0.0015   -0.0356
           3    0.0016    0.0045   -0.0143   -0.0083    0.0032   -0.0004   -0.0002   -0.0006
           4   -0.0060   -0.0028    0.0023    0.0018   -0.0100   -0.0010   -0.0023   -0.0059
           5   -0.0014   -0.0056    0.0023    0.0010   -0.0027   -0.0017   -0.0066   -0.0082
           6    0.0019   -0.0025   -0.0017    0.0015    0.0086   -0.0018   -0.0032    0.0034
           7    0.0095    0.0049   -0.0099    0.0053    0.0017    0.0085    0.0104    0.0268
           8    0.0088    0.0111   -0.0065   -0.0148    0.0021    0.0099   -0.0003    0.0156
           9    0.0067    0.0129    0.0145    0.0056   -0.0008   -0.0025    0.0014   -0.0091
          10   -0.0057   -0.0124   -0.0056    0.0049    0.0004   -0.0084   -0.0111   -0.0256
          11    0.0043    0.0132   -0.0111    0.0118    0.0013   -0.0002    0.0058   -0.0038
          12   -0.0093   -0.0036    0.0017   -0.0007    0.0007   -0.0006   -0.0017   -0.0045
          13   -0.0004   -0.0010    0.0016   -0.0012    0.0182   -0.0042    0.0022    0.0001
          14    0.0006    0.0009    0.0003   -0.0004    0.0019   -0.0013    0.0006   -0.0018
          15   -0.0022   -0.0031    0.0042    0.0014   -0.0079   -0.0021    0.0011    0.0031
          16   -0.0070   -0.0026    0.0066    0.0041    0.0152   -0.0004    0.0023    0.0023
          17    0.0004   -0.0124    0.0079   -0.0105    0.0039    0.0008    0.0054    0.0055
          18    0.0017   -0.0011    0.0046   -0.0044   -0.0091    0.0020    0.0029   -0.0039
          19   -0.0032   -0.0026    0.0070    0.0073   -0.0120    0.0062   -0.0013    0.0035
          20   -0.0025   -0.0045    0.0068    0.0065   -0.0027    0.0057   -0.0015    0.0045
          21   -0.0016   -0.0039    0.0161    0.0128    0.0058    0.0088   -0.0014    0.0061
          22   -0.0155    0.0124    0.0023   -0.0004    0.0002   -0.0038   -0.0212    0.0061
          23    0.0122   -0.0136    0.0017   -0.0026   -0.0003    0.0042    0.0213   -0.0048
          24    0.0002   -0.0010    0.0030   -0.0075    0.0007   -0.0021    0.0018   -0.0004
          25   -0.0060    0.0011    0.0001   -0.0031   -0.0008   -0.0089    0.0016    0.0038
          26    0.0125    0.0086    0.0078   -0.0016    0.0026    0.0197   -0.0095   -0.0076
          27   -0.0101   -0.0035   -0.0052   -0.0060   -0.0001   -0.0083   -0.0003    0.0080
          28   -0.0071    0.0041    0.0051   -0.0028   -0.0011    0.0074    0.0369   -0.0058
          29    0.0002   -0.0069    0.0043   -0.0055    0.0013   -0.0072   -0.0361    0.0086
          30    0.0114    0.0059   -0.0129    0.0161   -0.0004   -0.0004   -0.0022   -0.0054
          31   -0.0008    0.0039    0.0023   -0.0031    0.0018    0.0177   -0.0054   -0.0077
[...]

 VIBRATION   61   61A       ATOM PAIR        ENERGY CONTRIBUTION    RADIAL
 FREQ.      1483.33        C  2 --  C  3           +8.8% ( 51.4%)   100.0%
 T-DIPOLE    0.0290        C  3 --  C  4           +8.2% ( 49.6%)    50.7%
 TRAVEL      0.0662        C  2 --  C  4           +7.9% ( 48.7%)    51.1%
 RED. MASS   1.4965        C  1 --  C  3           +7.9% ( 48.6%)    56.1%
 EFF. MASS  10.3665

 VIBRATION   62   62A       ATOM PAIR        ENERGY CONTRIBUTION    RADIAL
 FREQ.      1860.53        C  9 --  C 11          +37.2% ( 90.4%)    98.8%
 T-DIPOLE    0.2073        C  3 --  C  9          +14.1% ( 55.6%)    57.4%
 TRAVEL      0.0554        C  9 --  H 25          +12.8% ( 53.0%)     3.7%
 RED. MASS   3.8117        C 11 --  H 28           +9.0% ( 44.4%)    10.6%
 EFF. MASS  11.8143

 VIBRATION   63   63A       ATOM PAIR        ENERGY CONTRIBUTION    RADIAL
 FREQ.      1863.71        C  8 --  C 10          +37.3% ( 90.3%)    98.8%
 T-DIPOLE    0.1982        C  4 --  C  8          +14.1% ( 55.6%)    56.1%
 TRAVEL      0.0554        C  8 --  H 24          +12.9% ( 53.1%)     3.8%
 RED. MASS   3.8059        C 10 --  H 26           +8.9% ( 44.2%)    10.9%
 EFF. MASS  11.8004

 VIBRATION   64   64A       ATOM PAIR        ENERGY CONTRIBUTION    RADIAL
 FREQ.      2921.53        C  3 --  H 15          +76.6% ( 89.6%)   100.0%
 T-DIPOLE    0.0763        C  1 --  H 12          +10.4% ( 33.1%)   100.0%
 TRAVEL      0.1261        C  4 --  H 14           +7.5% ( 28.0%)   100.0%
 RED. MASS   0.6141        C  1 --  C  3           +1.0% ( 10.2%)    16.8%
 EFF. MASS   1.4511

 VIBRATION   65   65A       ATOM PAIR        ENERGY CONTRIBUTION    RADIAL
 FREQ.      2930.18        C  1 --  H 12          +58.4% ( 78.2%)   100.0%
 T-DIPOLE    0.1041        C  2 --  H 13          +22.9% ( 49.0%)   100.0%
 TRAVEL      0.1262        C  3 --  H 15           +9.9% ( 32.2%)    99.9%
 RED. MASS   0.4107        C  5 --  H 17           +2.3% ( 15.4%)    96.9%
 EFF. MASS   1.4457

 VIBRATION   66   66A       ATOM PAIR        ENERGY CONTRIBUTION    RADIAL
 FREQ.      2931.37        C  4 --  H 14          +63.7% ( 81.6%)   100.0%
 T-DIPOLE    0.0905        C  2 --  H 13          +21.0% ( 46.8%)   100.0%
 TRAVEL      0.1263        C  1 --  H 12           +6.9% ( 26.8%)   100.0%
 RED. MASS   0.4628        C  3 --  H 15           +3.6% ( 19.5%)    99.9%
 EFF. MASS   1.4427

 VIBRATION   67   67A       ATOM PAIR        ENERGY CONTRIBUTION    RADIAL
 FREQ.      2940.29        C  2 --  H 13          +50.6% ( 72.5%)   100.0%
 T-DIPOLE    0.1775        C  4 --  H 14          +23.5% ( 49.4%)   100.0%
 TRAVEL      0.1259        C  1 --  H 12          +12.7% ( 36.4%)    99.9%
 RED. MASS   0.3349        C  3 --  H 15           +5.2% ( 23.3%)    99.9%
 EFF. MASS   1.4475

 VIBRATION   68   68A       ATOM PAIR        ENERGY CONTRIBUTION    RADIAL
 FREQ.      2949.31        C  5 --  H 17          +47.2% ( 71.2%)    96.9%
 T-DIPOLE    0.0457        C  5 --  H 16          +42.3% ( 67.4%)    96.2%
 TRAVEL      0.1221        C  1 --  H 12           +7.0% ( 27.4%)   100.0%
 RED. MASS   0.4384        C  5 --  C  7           +1.1% ( 10.8%)     0.0%
 EFF. MASS   1.5329

 VIBRATION   69   69A       ATOM PAIR        ENERGY CONTRIBUTION    RADIAL
 FREQ.      3026.48        C  5 --  H 16          +51.9% ( 71.0%)    98.0%
 T-DIPOLE    0.0370        C  5 --  H 17          +45.7% ( 66.6%)    97.3%
 TRAVEL      0.1321        C  5 --  C  7           +0.6% (  7.8%)    26.7%
 RED. MASS   0.4753        C  1 --  C  5           +0.6% (  7.7%)    29.4%
 EFF. MASS   1.2768

 VIBRATION   70   70A       ATOM PAIR        ENERGY CONTRIBUTION    RADIAL
 FREQ.      3034.93        C  8 --  H 24          +95.8% ( 99.2%)   100.0%
 T-DIPOLE    0.2320        C  8 --  C 10           +1.4% ( 12.1%)    31.3%
 TRAVEL      0.1216        C  4 --  C  8           +1.3% ( 11.7%)    14.5%
 RED. MASS   0.9019        C 10 --  H 27           +0.8% (  9.1%)    94.7%
 EFF. MASS   1.5031

 VIBRATION   71   71A       ATOM PAIR        ENERGY CONTRIBUTION    RADIAL
 FREQ.      3038.14        C  9 --  H 25          +96.3% ( 99.6%)   100.0%
 T-DIPOLE    0.2382        C  9 --  C 11           +1.4% ( 12.1%)    30.9%
 TRAVEL      0.1214        C  3 --  C  9           +1.4% ( 11.8%)    14.1%
 RED. MASS   0.9140        C 11 --  H 29           +0.8% (  9.3%)    95.0%
 EFF. MASS   1.5053

 VIBRATION   72   72A       ATOM PAIR        ENERGY CONTRIBUTION    RADIAL
 FREQ.      3073.55        C  7 --  H 20          +54.1% ( 75.9%)    98.4%
 T-DIPOLE    0.0106        C  7 --  H 19          +30.2% ( 56.7%)    94.3%
 TRAVEL      0.1209        C  6 --  H 23           +6.1% ( 25.5%)    97.2%
 RED. MASS   0.4134        C  6 --  H 22           +6.0% ( 25.3%)    96.9%
 EFF. MASS   1.5021

 VIBRATION   73   73A       ATOM PAIR        ENERGY CONTRIBUTION    RADIAL
 FREQ.      3075.65        C  6 --  H 23          +53.5% ( 75.5%)    98.5%
 T-DIPOLE    0.0188        C  6 --  H 22          +29.4% ( 56.0%)    93.7%
 TRAVEL      0.1207        C  7 --  H 20           +6.8% ( 26.9%)    98.0%
 RED. MASS   0.4045        C  7 --  H 19           +4.8% ( 22.5%)    95.6%
 EFF. MASS   1.5050

 VIBRATION   74   74A       ATOM PAIR        ENERGY CONTRIBUTION    RADIAL
 FREQ.      3082.32        C  6 --  H 21          +58.1% ( 78.7%)    98.4%
 T-DIPOLE    0.0221        C  6 --  H 22          +32.2% ( 58.6%)    93.3%
 TRAVEL      0.1205        C  6 --  H 23           +7.6% ( 28.4%)    65.9%
 RED. MASS   0.4774        C  2 --  C  6           +1.0% ( 10.4%)     0.0%
 EFF. MASS   1.5077

 VIBRATION   75   75A       ATOM PAIR        ENERGY CONTRIBUTION    RADIAL
 FREQ.      3085.04        C  7 --  H 18          +58.6% ( 79.0%)    98.5%
 T-DIPOLE    0.0040        C  7 --  H 19          +29.9% ( 56.4%)    92.4%
 TRAVEL      0.1205        C  7 --  H 20           +9.5% ( 31.7%)    72.1%
 RED. MASS   0.4709        C  5 --  C  7           +1.0% ( 10.3%)     0.0%
 EFF. MASS   1.5043

 VIBRATION   76   76A       ATOM PAIR        ENERGY CONTRIBUTION    RADIAL
 FREQ.      3130.44        C 11 --  H 28          +96.6% ( 99.7%)   100.0%
 T-DIPOLE    0.2108        C 11 --  H 29           +2.0% ( 14.3%)    37.1%
 TRAVEL      0.1195        C  9 --  C 11           +1.4% ( 11.9%)    35.0%
 RED. MASS   0.9207
 EFF. MASS   1.5096

 VIBRATION   77   77A       ATOM PAIR        ENERGY CONTRIBUTION    RADIAL
 FREQ.      3134.60        C 10 --  H 26          +91.1% ( 97.2%)    99.8%
 T-DIPOLE    0.1943        C 10 --  H 27           +7.5% ( 27.9%)    73.4%
 TRAVEL      0.1181        C  8 --  C 10           +1.3% ( 11.7%)    21.1%
 RED. MASS   0.8440
 EFF. MASS   1.5413

 VIBRATION   78   78A       ATOM PAIR        ENERGY CONTRIBUTION    RADIAL
 FREQ.      3146.85        C 10 --  H 27          +91.1% ( 96.1%)    99.6%
 T-DIPOLE    0.2691        C 10 --  H 26           +6.4% ( 25.5%)    45.7%
 TRAVEL      0.1210        C  8 --  C 10           +1.6% ( 12.7%)    74.2%
 RED. MASS   0.8077        C  8 --  H 24           +0.7% (  8.4%)    94.1%
 EFF. MASS   1.4625

 VIBRATION   79   79A       ATOM PAIR        ENERGY CONTRIBUTION    RADIAL
 FREQ.      3148.08        C 11 --  H 29          +96.0% ( 99.0%)    99.9%
 T-DIPOLE    0.2483        C 11 --  H 28           +1.6% ( 12.9%)     0.2%
 TRAVEL      0.1197        C  9 --  C 11           +1.5% ( 12.5%)    58.1%
 RED. MASS   0.8974        C  9 --  H 25           +0.7% (  8.6%)    95.2%
 EFF. MASS   1.4943

 VIBRATION   80   80A       ATOM PAIR        ENERGY CONTRIBUTION    RADIAL
 FREQ.      3174.66        C  6 --  H 21          +36.4% ( 58.1%)    97.6%
 T-DIPOLE    0.0355        C  6 --  H 23          +31.1% ( 53.7%)    96.8%
 TRAVEL      0.1367        C  6 --  H 22          +30.3% ( 53.0%)    96.6%
 RED. MASS   0.3164        C  7 --  H 18           +0.8% (  8.6%)    98.0%
 EFF. MASS   1.1371

 VIBRATION   81   81A       ATOM PAIR        ENERGY CONTRIBUTION    RADIAL
 FREQ.      3178.11        C  7 --  H 18          +37.6% ( 59.0%)    97.8%
 T-DIPOLE    0.0106        C  7 --  H 19          +32.9% ( 55.2%)    97.1%
 TRAVEL      0.1366        C  7 --  H 20          +27.3% ( 50.3%)    96.0%
 RED. MASS   0.3189        C  6 --  H 22           +0.7% (  8.0%)    97.5%
 EFF. MASS   1.1373

 SYMMETRY NUMBER FOR POINT-GROUP C1  =  1


          SYSTEM IS A GROUND STATE


    NULL



          MOLECULE IS NOT LINEAR

          THERE ARE 81 GENUINE VIBRATIONS IN THIS SYSTEM
          THIS THERMODYNAMICS CALCULATION IS LIMITED TO
          MOLECULES WHICH HAVE NO INTERNAL ROTATIONS




                    CALCULATED THERMODYNAMIC PROPERTIES
                                          *
   TEMP. (K)   PARTITION FUNCTION   H.O.F.    ENTHALPY  HEAT CAPACITY ENTROPY
                                   KCAL/MOL   CAL/MOLE    CAL/K/MOL  CAL/K/MOL


 298.00  VIB.     0.8126D+04                  6128.5077    41.6040    38.4560
         ROT.     0.1102D+07                   888.2813     2.9808    30.6272
         INT.     0.8951D+10                  7016.7890    44.5848    69.0833
         TRA.     0.1781D+28                  1480.4688     4.9680    40.9296
         TOT.                       14.875    8497.2578    49.5528   110.0129

 200.00  VIB.     0.2700D+03                  2774.0330    27.3111    24.9951
         ROT.     0.6056D+06                   596.1620     2.9808    29.4386
         INT.     0.1635D+09                  3370.1949    30.2919    54.4337
         TRA.     0.9791D+27                   993.6033     4.9680    38.9485
         TOT.                       10.742    4363.7982    35.2599    93.3822

 210.00  VIB.     0.3826D+03                  3053.7231    28.6324    26.3595
         ROT.     0.6516D+06                   625.9700     2.9808    29.5840
         INT.     0.2493D+09                  3679.6931    31.6132    55.9435
         TRA.     0.1053D+28                  1043.2834     4.9680    39.1909
         TOT.                       11.101    4722.9765    36.5813    95.1343

 220.00  VIB.     0.5420D+03                  3346.7950    29.9877    27.7226
         ROT.     0.6987D+06                   655.7781     2.9808    29.7227
         INT.     0.3787D+09                  4002.5732    32.9685    57.4453
         TRA.     0.1130D+28                  1092.9636     4.9680    39.4220
         TOT.                       11.474    5095.5367    37.9366    96.8672

 230.00  VIB.     0.7674D+03                  3653.5939    31.3778    29.0862
         ROT.     0.7469D+06                   685.5862     2.9808    29.8552
         INT.     0.5731D+09                  4339.1801    34.3586    58.9413
         TRA.     0.1207D+28                  1142.6437     4.9680    39.6428
         TOT.                       11.860    5481.8238    39.3266    98.5841

 240.00  VIB.     0.1086D+04                  3974.4655    32.8021    30.4516
         ROT.     0.7961D+06                   715.3943     2.9808    29.9820
         INT.     0.8647D+09                  4689.8599    35.7829    60.4336
         TRA.     0.1287D+28                  1192.3239     4.9680    39.8543
         TOT.                       12.260    5882.1838    40.7509   100.2878

 250.00  VIB.     0.1537D+04                  4309.7442    34.2589    31.8200
         ROT.     0.8464D+06                   745.2024     2.9808    30.1037
         INT.     0.1301D+10                  5054.9467    37.2397    61.9237
         TRA.     0.1368D+28                  1242.0041     4.9680    40.0571
         TOT.                       12.675    6296.9507    42.2077   101.9808

 260.00  VIB.     0.2174D+04                  4659.7424    35.7455    33.1926
         ROT.     0.8977D+06                   775.0105     2.9808    30.2206
         INT.     0.1952D+10                  5434.7529    38.7263    63.4132
         TRA.     0.1451D+28                  1291.6842     4.9680    40.2519
         TOT.                       13.104    6726.4371    43.6943   103.6651

 270.00  VIB.     0.3076D+04                  5024.7426    37.2587    34.5699
         ROT.     0.9500D+06                   804.8186     2.9808    30.3331
         INT.     0.2922D+10                  5829.5612    40.2395    64.9030
         TRA.     0.1536D+28                  1341.3644     4.9680    40.4394
         TOT.                       13.549    7170.9256    45.2075   105.3424

 280.00  VIB.     0.4351D+04                  5404.9922    38.7947    35.9526
         ROT.     0.1003D+07                   834.6267     2.9808    30.4415
         INT.     0.4365D+10                  6239.6189    41.7755    66.3941
         TRA.     0.1622D+28                  1391.0445     4.9680    40.6201
         TOT.                       14.009    7630.6635    46.7435   107.0142

 290.00  VIB.     0.6156D+04                  5800.6992    40.3495    37.3410
         ROT.     0.1057D+07                   864.4348     2.9808    30.5461
         INT.     0.6509D+10                  6665.1340    43.3303    67.8872
         TRA.     0.1710D+28                  1440.7247     4.9680    40.7944
         TOT.                       14.484    8105.8588    48.2983   108.6816

 300.00  VIB.     0.8711D+04                  6212.0305    41.9188    38.7354
         ROT.     0.1113D+07                   894.2429     2.9808    30.6472
         INT.     0.9692D+10                  7106.2734    44.8997    69.3825
         TRA.     0.1799D+28                  1490.4049     4.9680    40.9628
         TOT.                       14.975    8596.6783    49.8677   110.3454

 310.00  VIB.     0.1233D+05                  6639.1107    43.4986    40.1356
         ROT.     0.1169D+07                   924.0510     2.9808    30.7449
         INT.     0.1441D+11                  7563.1618    46.4794    70.8805
         TRA.     0.1889D+28                  1540.0850     4.9680    41.1257
         TOT.                       15.481    9103.2468    51.4474   112.0063

 320.00  VIB.     0.1746D+05                  7082.0234    45.0846    41.5417
         ROT.     0.1226D+07                   953.8591     2.9808    30.8395
         INT.     0.2140D+11                  8035.8825    48.0655    72.3812
         TRA.     0.1982D+28                  1589.7652     4.9680    41.2835
         TOT.                       16.004    9625.6477    53.0335   113.6647

 330.00  VIB.     0.2473D+05                  7540.8116    46.6731    42.9533
         ROT.     0.1284D+07                   983.6672     2.9808    30.9313
         INT.     0.3175D+11                  8524.4788    49.6539    73.8846
         TRA.     0.2075D+28                  1639.4454     4.9680    41.4364
         TOT.                       16.542   10163.9241    54.6219   115.3209

 340.00  VIB.     0.3505D+05                  8015.4805    48.2602    44.3702
         ROT.     0.1342D+07                  1013.4753     2.9808    31.0203
         INT.     0.4705D+11                  9028.9558    51.2410    75.3905
         TRA.     0.2170D+28                  1689.1255     4.9680    41.5847
         TOT.                       17.096   10718.0813    56.2090   116.9751

 350.00  VIB.     0.4970D+05                  8505.9998    49.8426    45.7920
         ROT.     0.1402D+07                  1043.2834     2.9808    31.1067
         INT.     0.6968D+11                  9549.2832    52.8234    76.8987
         TRA.     0.2267D+28                  1738.8057     4.9680    41.7287
         TOT.                       17.666   11288.0889    57.7914   118.6273

 360.00  VIB.     0.7050D+05                  9012.3065    51.4172    47.2182
         ROT.     0.1463D+07                  1073.0915     2.9808    31.1906
         INT.     0.1031D+12                 10085.3980    54.3980    78.4088
         TRA.     0.2364D+28                  1788.4859     4.9680    41.8686
         TOT.                       18.252   11873.8839    59.3660   120.2775

 370.00  VIB.     0.1001D+06                  9534.3081    52.9811    48.6483
         ROT.     0.1524D+07                  1102.8996     2.9808    31.2723
         INT.     0.1525D+12                 10637.2077    55.9620    79.9206
         TRA.     0.2464D+28                  1838.1660     4.9680    42.0047
         TOT.                       18.853   12475.3738    60.9300   121.9254

 380.00  VIB.     0.1421D+06                 10071.8856    54.5320    50.0819
         ROT.     0.1586D+07                  1132.7077     2.9808    31.3518
         INT.     0.2254D+12                 11204.5933    57.5128    81.4337
         TRA.     0.2564D+28                  1887.8462     4.9680    42.1372
         TOT.                       19.470   13092.4395    62.4808   123.5709

 390.00  VIB.     0.2019D+06                 10624.8966    56.0675    51.5183
         ROT.     0.1649D+07                  1162.5158     2.9808    31.4292
         INT.     0.3330D+12                 11787.4124    59.0483    82.9475
         TRA.     0.2666D+28                  1937.5263     4.9680    42.2663
         TOT.                       20.103   13724.9388    64.0163   125.2138

 400.00  VIB.     0.2870D+06                 11193.1786    57.5859    52.9569
         ROT.     0.1713D+07                  1192.3239     2.9808    31.5047
         INT.     0.4917D+12                 12385.5025    60.5667    84.4616
         TRA.     0.2769D+28                  1987.2065     4.9680    42.3921
         TOT.                       20.751   14372.7090    65.5347   126.8537

   *: NOTE: HEATS OF FORMATION ARE RELATIVE TO THE
            ELEMENTS IN THEIR STANDARD STATE AT 298K
              (=  Standard Enthalpy of Formation).

            Hvib:  Zero-point energy is not included.
                   frequencies of less than zero cm-1 are not included.
            Hrot = (3/2)RT
            Htra = (3/2)RT + pV = (5/2)RT

            Heat capacity is Cp, not Cv

           For more information, see: HTTP://OpenMOPAC.net/Manual/thermochemistry.html


           FORCE CONSTANT IN CARTESIAN COORDINATES (Millidynes/A)

    ATOM   CHEMICAL       X               Y               Z
   NUMBER   SYMBOL  FORCE CONSTANT  FORCE CONSTANT  FORCE CONSTANT

      1       C        7.852175        7.976945        8.716334
      2       C        7.845826        7.857569        8.888901
      3       C        8.126459        7.959095        8.920232
      4       C        7.835964        7.879124        9.289435
      5       C        8.311066        8.484504        8.299670
      6       C        8.415542        8.374199        8.359357
      7       C        8.223758        8.313934        8.342281
      8       C        9.040850        9.053470        9.264282
      9       C       13.248234        7.086776        6.978693
     10       C        8.695262        8.704896        9.108985
     11       C       13.036211        6.715609        6.732069
     12       H        1.351742        1.347608        3.535017
     13       H        1.358153        1.198249        3.695233
     14       H        1.207809        1.195739        3.849907
     15       H        1.176540        1.335977        3.608735
     16       H        4.617128        1.052154        0.690376
     17       H        1.531113        1.197584        3.659754
     18       H        1.460964        1.439983        3.894243
     19       H        1.789010        1.316764        3.675960
     20       H        4.940864        1.120301        0.678890
     21       H        5.271176        0.780030        0.699754
     22       H        0.801086        5.194166        0.726477
     23       H        1.350142        1.184012        4.236606
     24       H        0.896660        0.896596        4.409768
     25       H        1.688771        3.176233        1.341402
     26       H        0.962198        0.960612        4.542641
     27       H        1.495279        1.498982        3.489102
     28       H        1.852031        3.304208        1.285924
     29       H        1.676320        1.613235        3.195018



 TOTAL CPU TIME:             6.70 SECONDS

 == MOPAC DONE ==
