 *******************************************************************************
 ** Site#: 14399           For non-commercial use only        Version 13.159M **
 *******************************************************************************
 ** Cite this work as: MOPAC2012, James J. P. Stewart, Stewart Computational  **
 ** Chemistry, Version 13.159M web: HTTP://OpenMOPAC.net  Days remaining:   6 **
 *******************************************************************************
 **                                                                           **
 **                                MOPAC2012                                  **
 **                                                                           **
 *******************************************************************************

                            PM3 CALCULATION RESULTS


 *******************************************************************************
 *  CALCULATION DONE:                                Mon Jun  2 14:11:58 2014  *
 *  PM3      - The PM3 Hamiltonian to be used
 *  PRECISE  - CRITERIA TO BE INCREASED BY 100 TIMES
 *  NOSYM    - POINT-GROUP SYMMETRY SET TO C1
 *  T=       - A TIME OF 172800.0 SECONDS REQUESTED
 *  DUMP=N   - RESTART FILE WRITTEN EVERY  7200.000 SECONDS
 *******************************************************************************
pm3  precise nosym
 InChI=1S/C8H14O/c1-2-3-4-7-5-8(9)6-7/h3-4,7-9H,2,5-6H2,1H3

   ATOM   CHEMICAL          X               Y               Z
  NUMBER   SYMBOL      (ANGSTROMS)     (ANGSTROMS)     (ANGSTROMS)
 
     1       C         -1.11780000  *   0.25300000  *  -0.38240000  *
     2       C         -2.62880000  *   0.20000000  *   1.15020000  *
     3       C         -1.54900000  *  -0.77860000  *   0.70570000  *
     4       C         -2.11070000  *   1.24260000  *   0.22070000  *
     5       C          2.75860000  *   0.16960000  *  -0.62010000  *
     6       C          3.51860000  *  -0.71880000  *   0.35620000  *
     7       C          0.33070000  *   0.65790000  *  -0.32170000  *
     8       C          1.30260000  *  -0.19770000  *  -0.66430000  *
     9       O         -3.95130000  *  -0.23950000  *   0.77560000  *
    10       H         -1.42500000  *  -0.06560000  *  -1.40730000  *
    11       H         -2.56080000  *   0.49140000  *   2.22600000  *
    12       H         -0.78790000  *  -0.94660000  *   1.50430000  *
    13       H         -1.93610000  *  -1.72930000  *   0.27060000  *
    14       H         -2.85660000  *   1.61080000  *  -0.52250000  *
    15       H         -1.64490000  *   2.09000000  *   0.77770000  *
    16       H          2.91900000  *   1.23480000  *  -0.33130000  *
    17       H          3.18380000  *   0.04120000  *  -1.64160000  *
    18       H          3.12440000  *  -0.59480000  *   1.39090000  *
    19       H          3.44230000  *  -1.79130000  *   0.06400000  *
    20       H          4.59660000  *  -0.43940000  *   0.36020000  *
    21       H          1.04300000  *  -1.20590000  *  -0.98830000  *
    22       H          0.58730000  *   1.66840000  *  -0.00470000  *
    23       H         -4.23820000  *  -0.95230000  *   1.46940000  *
 


          CARTESIAN COORDINATES 

    NO.       ATOM         X         Y         Z

     1         C       -1.1178    0.2530   -0.3824
     2         C       -2.6288    0.2000    1.1502
     3         C       -1.5490   -0.7786    0.7057
     4         C       -2.1107    1.2426    0.2207
     5         C        2.7586    0.1696   -0.6201
     6         C        3.5186   -0.7188    0.3562
     7         C        0.3307    0.6579   -0.3217
     8         C        1.3026   -0.1977   -0.6643
     9         O       -3.9513   -0.2395    0.7756
    10         H       -1.4250   -0.0656   -1.4073
    11         H       -2.5608    0.4914    2.2260
    12         H       -0.7879   -0.9466    1.5043
    13         H       -1.9361   -1.7293    0.2706
    14         H       -2.8566    1.6108   -0.5225
    15         H       -1.6449    2.0900    0.7777
    16         H        2.9190    1.2348   -0.3313
    17         H        3.1838    0.0412   -1.6416
    18         H        3.1244   -0.5948    1.3909
    19         H        3.4423   -1.7913    0.0640
    20         H        4.5966   -0.4394    0.3602
    21         H        1.0430   -1.2059   -0.9883
    22         H        0.5873    1.6684   -0.0047
    23         H       -4.2382   -0.9523    1.4694

  H: (PM3): J. J. P. STEWART, J. COMP. CHEM. 10, 209 (1989).
  C: (PM3): J. J. P. STEWART, J. COMP. CHEM. 10, 209 (1989).
  O: (PM3): J. J. P. STEWART, J. COMP. CHEM. 10, 209 (1989).

           Empirical Formula: C8 H14 O  =    23 atoms



      MOLECULAR POINT GROUP   :   C1  


      RHF CALCULATION, NO. OF DOUBLY OCCUPIED LEVELS =   26

      Geometry optimization using EF

          DIAGONAL MATRIX USED AS START HESSIAN

 CYCLE:     1 TIME:   0.010 TIME LEFT:  2.00D  GRAD.:   162.321 HEAT:-31.14010
 CYCLE:     2 TIME:   0.013 TIME LEFT:  2.00D  GRAD.:    54.049 HEAT:-38.24621
 CYCLE:     3 TIME:   0.013 TIME LEFT:  2.00D  GRAD.:    59.414 HEAT:-39.08441
 CYCLE:     4 TIME:   0.007 TIME LEFT:  2.00D  GRAD.:    68.950 HEAT:-39.14247
 CYCLE:     5 TIME:   0.007 TIME LEFT:  2.00D  GRAD.:    51.356 HEAT:-39.97678
 CYCLE:     6 TIME:   0.013 TIME LEFT:  2.00D  GRAD.:    53.905 HEAT:-40.19339
 CYCLE:     7 TIME:   0.007 TIME LEFT:  2.00D  GRAD.:    47.305 HEAT:-40.37797
 CYCLE:     8 TIME:   0.007 TIME LEFT:  2.00D  GRAD.:    37.320 HEAT:-40.64450
 CYCLE:     9 TIME:   0.013 TIME LEFT:  2.00D  GRAD.:    17.017 HEAT:-41.01652
 CYCLE:    10 TIME:   0.013 TIME LEFT:  2.00D  GRAD.:    19.199 HEAT:-41.05132
 CYCLE:    11 TIME:   0.007 TIME LEFT:  2.00D  GRAD.:    11.122 HEAT:-41.13958
 CYCLE:    12 TIME:   0.007 TIME LEFT:  2.00D  GRAD.:    17.692 HEAT:-41.15120
 CYCLE:    13 TIME:   0.007 TIME LEFT:  2.00D  GRAD.:    18.164 HEAT:-41.17984
 CYCLE:    14 TIME:   0.013 TIME LEFT:  2.00D  GRAD.:     9.766 HEAT:-41.24835
 CYCLE:    15 TIME:   0.013 TIME LEFT:  2.00D  GRAD.:     5.913 HEAT:-41.26999
 CYCLE:    16 TIME:   0.007 TIME LEFT:  2.00D  GRAD.:     7.783 HEAT:-41.28287
 CYCLE:    17 TIME:   0.007 TIME LEFT:  2.00D  GRAD.:     6.057 HEAT:-41.30424
 CYCLE:    18 TIME:   0.007 TIME LEFT:  2.00D  GRAD.:     6.026 HEAT:-41.32257
 CYCLE:    19 TIME:   0.007 TIME LEFT:  2.00D  GRAD.:    10.067 HEAT:-41.33259
 CYCLE:    20 TIME:   0.007 TIME LEFT:  2.00D  GRAD.:     7.597 HEAT:-41.35433
 CYCLE:    21 TIME:   0.007 TIME LEFT:  2.00D  GRAD.:     9.534 HEAT:-41.36726
 CYCLE:    22 TIME:   0.007 TIME LEFT:  2.00D  GRAD.:     3.979 HEAT:-41.39712
 CYCLE:    23 TIME:   0.007 TIME LEFT:  2.00D  GRAD.:     6.937 HEAT:-41.41525
 CYCLE:    24 TIME:   0.007 TIME LEFT:  2.00D  GRAD.:     6.163 HEAT:-41.44104
 CYCLE:    25 TIME:   0.008 TIME LEFT:  2.00D  GRAD.:     6.709 HEAT:-41.46698
 CYCLE:    26 TIME:   0.007 TIME LEFT:  2.00D  GRAD.:    10.390 HEAT:-41.47404
 CYCLE:    27 TIME:   0.007 TIME LEFT:  2.00D  GRAD.:     5.277 HEAT:-41.50857
 CYCLE:    28 TIME:   0.007 TIME LEFT:  2.00D  GRAD.:     5.291 HEAT:-41.52618
 CYCLE:    29 TIME:   0.007 TIME LEFT:  2.00D  GRAD.:     4.817 HEAT:-41.55387
 CYCLE:    30 TIME:   0.007 TIME LEFT:  2.00D  GRAD.:     5.129 HEAT:-41.58073
 CYCLE:    31 TIME:   0.007 TIME LEFT:  2.00D  GRAD.:     4.835 HEAT:-41.59450
 CYCLE:    32 TIME:   0.007 TIME LEFT:  2.00D  GRAD.:     3.731 HEAT:-41.60819
 CYCLE:    33 TIME:   0.007 TIME LEFT:  2.00D  GRAD.:     3.019 HEAT:-41.62353
 CYCLE:    34 TIME:   0.007 TIME LEFT:  2.00D  GRAD.:     2.603 HEAT:-41.63675
 CYCLE:    35 TIME:   0.007 TIME LEFT:  2.00D  GRAD.:     1.856 HEAT:-41.64228
 CYCLE:    36 TIME:   0.007 TIME LEFT:  2.00D  GRAD.:     1.546 HEAT:-41.64675
 CYCLE:    37 TIME:   0.007 TIME LEFT:  2.00D  GRAD.:     1.634 HEAT:-41.65190
 CYCLE:    38 TIME:   0.007 TIME LEFT:  2.00D  GRAD.:     1.489 HEAT:-41.65459
 CYCLE:    39 TIME:   0.007 TIME LEFT:  2.00D  GRAD.:     1.534 HEAT:-41.65847
 CYCLE:    40 TIME:   0.007 TIME LEFT:  2.00D  GRAD.:     1.655 HEAT:-41.66388
 CYCLE:    41 TIME:   0.007 TIME LEFT:  2.00D  GRAD.:     1.483 HEAT:-41.66831
 CYCLE:    42 TIME:   0.007 TIME LEFT:  2.00D  GRAD.:     1.305 HEAT:-41.67288
 CYCLE:    43 TIME:   0.007 TIME LEFT:  2.00D  GRAD.:     1.718 HEAT:-41.67682
 CYCLE:    44 TIME:   0.007 TIME LEFT:  2.00D  GRAD.:     1.542 HEAT:-41.68080
 CYCLE:    45 TIME:   0.007 TIME LEFT:  2.00D  GRAD.:     1.467 HEAT:-41.68554
 CYCLE:    46 TIME:   0.007 TIME LEFT:  2.00D  GRAD.:     1.340 HEAT:-41.68985
 CYCLE:    47 TIME:   0.007 TIME LEFT:  2.00D  GRAD.:     1.436 HEAT:-41.69443
 CYCLE:    48 TIME:   0.007 TIME LEFT:  2.00D  GRAD.:     1.725 HEAT:-41.70034
 CYCLE:    49 TIME:   0.007 TIME LEFT:  2.00D  GRAD.:     1.774 HEAT:-41.70759
 CYCLE:    50 TIME:   0.007 TIME LEFT:  2.00D  GRAD.:     1.817 HEAT:-41.71482
 CYCLE:    51 TIME:   0.007 TIME LEFT:  2.00D  GRAD.:     0.806 HEAT:-41.71744
 CYCLE:    52 TIME:   0.007 TIME LEFT:  2.00D  GRAD.:     0.683 HEAT:-41.71935
 CYCLE:    53 TIME:   0.008 TIME LEFT:  2.00D  GRAD.:     0.645 HEAT:-41.72008
 CYCLE:    54 TIME:   0.008 TIME LEFT:  2.00D  GRAD.:     0.761 HEAT:-41.72162
 CYCLE:    55 TIME:   0.007 TIME LEFT:  2.00D  GRAD.:     0.999 HEAT:-41.72288
 CYCLE:    56 TIME:   0.007 TIME LEFT:  2.00D  GRAD.:     0.937 HEAT:-41.72477
 CYCLE:    57 TIME:   0.007 TIME LEFT:  2.00D  GRAD.:     1.076 HEAT:-41.72669
 CYCLE:    58 TIME:   0.007 TIME LEFT:  2.00D  GRAD.:     1.028 HEAT:-41.72869
 CYCLE:    59 TIME:   0.008 TIME LEFT:  2.00D  GRAD.:     1.042 HEAT:-41.73089
 CYCLE:    60 TIME:   0.009 TIME LEFT:  2.00D  GRAD.:     1.152 HEAT:-41.73301
 CYCLE:    61 TIME:   0.007 TIME LEFT:  2.00D  GRAD.:     0.930 HEAT:-41.73506
 CYCLE:    62 TIME:   0.007 TIME LEFT:  2.00D  GRAD.:     0.894 HEAT:-41.73678
 CYCLE:    63 TIME:   0.007 TIME LEFT:  2.00D  GRAD.:     0.810 HEAT:-41.73803
 CYCLE:    64 TIME:   0.007 TIME LEFT:  2.00D  GRAD.:     0.794 HEAT:-41.73947
 CYCLE:    65 TIME:   0.007 TIME LEFT:  2.00D  GRAD.:     0.763 HEAT:-41.74085
 CYCLE:    66 TIME:   0.007 TIME LEFT:  2.00D  GRAD.:     0.762 HEAT:-41.74236
 CYCLE:    67 TIME:   0.007 TIME LEFT:  2.00D  GRAD.:     0.852 HEAT:-41.74401
 CYCLE:    68 TIME:   0.007 TIME LEFT:  2.00D  GRAD.:     1.047 HEAT:-41.74610
 CYCLE:    69 TIME:   0.007 TIME LEFT:  2.00D  GRAD.:     1.063 HEAT:-41.74836
 CYCLE:    70 TIME:   0.007 TIME LEFT:  2.00D  GRAD.:     1.224 HEAT:-41.75084
 CYCLE:    71 TIME:   0.007 TIME LEFT:  2.00D  GRAD.:     0.999 HEAT:-41.75281
 CYCLE:    72 TIME:   0.007 TIME LEFT:  2.00D  GRAD.:     0.915 HEAT:-41.75460
 CYCLE:    73 TIME:   0.007 TIME LEFT:  2.00D  GRAD.:     0.888 HEAT:-41.75673
 CYCLE:    74 TIME:   0.007 TIME LEFT:  2.00D  GRAD.:     0.959 HEAT:-41.75919
 CYCLE:    75 TIME:   0.007 TIME LEFT:  2.00D  GRAD.:     0.981 HEAT:-41.76163
 CYCLE:    76 TIME:   0.007 TIME LEFT:  2.00D  GRAD.:     0.991 HEAT:-41.76412
 CYCLE:    77 TIME:   0.007 TIME LEFT:  2.00D  GRAD.:     1.135 HEAT:-41.76676
 CYCLE:    78 TIME:   0.007 TIME LEFT:  2.00D  GRAD.:     1.402 HEAT:-41.76878
 CYCLE:    79 TIME:   0.007 TIME LEFT:  2.00D  GRAD.:     0.947 HEAT:-41.77114
 CYCLE:    80 TIME:   0.007 TIME LEFT:  2.00D  GRAD.:     0.772 HEAT:-41.77303
 CYCLE:    81 TIME:   0.007 TIME LEFT:  2.00D  GRAD.:     0.710 HEAT:-41.77459
 CYCLE:    82 TIME:   0.007 TIME LEFT:  2.00D  GRAD.:     0.663 HEAT:-41.77585
 CYCLE:    83 TIME:   0.007 TIME LEFT:  2.00D  GRAD.:     0.674 HEAT:-41.77714
 CYCLE:    84 TIME:   0.007 TIME LEFT:  2.00D  GRAD.:     0.648 HEAT:-41.77804
 CYCLE:    85 TIME:   0.007 TIME LEFT:  2.00D  GRAD.:     0.562 HEAT:-41.77890
 CYCLE:    86 TIME:   0.007 TIME LEFT:  2.00D  GRAD.:     0.628 HEAT:-41.77979
 CYCLE:    87 TIME:   0.007 TIME LEFT:  2.00D  GRAD.:     0.834 HEAT:-41.78076
 CYCLE:    88 TIME:   0.007 TIME LEFT:  2.00D  GRAD.:     0.743 HEAT:-41.78168
 CYCLE:    89 TIME:   0.007 TIME LEFT:  2.00D  GRAD.:     0.856 HEAT:-41.78262
 CYCLE:    90 TIME:   0.007 TIME LEFT:  2.00D  GRAD.:     0.866 HEAT:-41.78397
 CYCLE:    91 TIME:   0.007 TIME LEFT:  2.00D  GRAD.:     1.063 HEAT:-41.78598
 CYCLE:    92 TIME:   0.007 TIME LEFT:  2.00D  GRAD.:     1.353 HEAT:-41.78870
 CYCLE:    93 TIME:   0.007 TIME LEFT:  2.00D  GRAD.:     1.483 HEAT:-41.79232
 CYCLE:    94 TIME:   0.007 TIME LEFT:  2.00D  GRAD.:     1.611 HEAT:-41.79571
 CYCLE:    95 TIME:   0.007 TIME LEFT:  2.00D  GRAD.:     1.440 HEAT:-41.79929
 CYCLE:    96 TIME:   0.007 TIME LEFT:  2.00D  GRAD.:     1.280 HEAT:-41.80283
 CYCLE:    97 TIME:   0.007 TIME LEFT:  2.00D  GRAD.:     1.092 HEAT:-41.80561
 CYCLE:    98 TIME:   0.007 TIME LEFT:  2.00D  GRAD.:     0.967 HEAT:-41.80772
 CYCLE:    99 TIME:   0.007 TIME LEFT:  2.00D  GRAD.:     0.815 HEAT:-41.80893
 CYCLE:   100 TIME:   0.007 TIME LEFT:  2.00D  GRAD.:     0.565 HEAT:-41.80973
 CYCLE:   101 TIME:   0.007 TIME LEFT:  2.00D  GRAD.:     0.470 HEAT:-41.81027
 CYCLE:   102 TIME:   0.007 TIME LEFT:  2.00D  GRAD.:     0.483 HEAT:-41.81071
 CYCLE:   103 TIME:   0.007 TIME LEFT:  2.00D  GRAD.:     0.429 HEAT:-41.81107
 CYCLE:   104 TIME:   0.007 TIME LEFT:  2.00D  GRAD.:     0.315 HEAT:-41.81144
 CYCLE:   105 TIME:   0.007 TIME LEFT:  2.00D  GRAD.:     0.304 HEAT:-41.81162
 CYCLE:   106 TIME:   0.007 TIME LEFT:  2.00D  GRAD.:     0.371 HEAT:-41.81183
 CYCLE:   107 TIME:   0.007 TIME LEFT:  2.00D  GRAD.:     0.473 HEAT:-41.81214
 CYCLE:   108 TIME:   0.007 TIME LEFT:  2.00D  GRAD.:     0.767 HEAT:-41.81303
 CYCLE:   109 TIME:   0.007 TIME LEFT:  2.00D  GRAD.:     1.139 HEAT:-41.81473
 CYCLE:   110 TIME:   0.007 TIME LEFT:  2.00D  GRAD.:     1.588 HEAT:-41.81840
 CYCLE:   111 TIME:   0.007 TIME LEFT:  2.00D  GRAD.:     1.354 HEAT:-41.82086
 CYCLE:   112 TIME:   0.007 TIME LEFT:  2.00D  GRAD.:     1.237 HEAT:-41.82527
 CYCLE:   113 TIME:   0.007 TIME LEFT:  2.00D  GRAD.:     1.403 HEAT:-41.82904
 CYCLE:   114 TIME:   0.007 TIME LEFT:  2.00D  GRAD.:     2.067 HEAT:-41.83387
 CYCLE:   115 TIME:   0.007 TIME LEFT:  2.00D  GRAD.:     2.268 HEAT:-41.83465
 CYCLE:   116 TIME:   0.007 TIME LEFT:  2.00D  GRAD.:     0.904 HEAT:-41.83898
 CYCLE:   117 TIME:   0.007 TIME LEFT:  2.00D  GRAD.:     0.840 HEAT:-41.84020
 CYCLE:   118 TIME:   0.007 TIME LEFT:  2.00D  GRAD.:     0.755 HEAT:-41.84131
 CYCLE:   119 TIME:   0.007 TIME LEFT:  2.00D  GRAD.:     0.773 HEAT:-41.84207
 CYCLE:   120 TIME:   0.007 TIME LEFT:  2.00D  GRAD.:     0.445 HEAT:-41.84264
 CYCLE:   121 TIME:   0.007 TIME LEFT:  2.00D  GRAD.:     0.454 HEAT:-41.84298
 CYCLE:   122 TIME:   0.007 TIME LEFT:  2.00D  GRAD.:     0.380 HEAT:-41.84321
 CYCLE:   123 TIME:   0.007 TIME LEFT:  2.00D  GRAD.:     0.348 HEAT:-41.84345
 CYCLE:   124 TIME:   0.007 TIME LEFT:  2.00D  GRAD.:     0.316 HEAT:-41.84366
 CYCLE:   125 TIME:   0.007 TIME LEFT:  2.00D  GRAD.:     0.228 HEAT:-41.84387
 CYCLE:   126 TIME:   0.007 TIME LEFT:  2.00D  GRAD.:     0.204 HEAT:-41.84399
 CYCLE:   127 TIME:   0.007 TIME LEFT:  2.00D  GRAD.:     0.169 HEAT:-41.84406
 CYCLE:   128 TIME:   0.007 TIME LEFT:  2.00D  GRAD.:     0.336 HEAT:-41.84388
 CYCLE:   129 TIME:   0.007 TIME LEFT:  2.00D  GRAD.:     0.145 HEAT:-41.84409
 CYCLE:   130 TIME:   0.007 TIME LEFT:  2.00D  GRAD.:     0.134 HEAT:-41.84411
 CYCLE:   131 TIME:   0.007 TIME LEFT:  2.00D  GRAD.:     0.127 HEAT:-41.84412
 CYCLE:   132 TIME:   0.007 TIME LEFT:  2.00D  GRAD.:     0.105 HEAT:-41.84418
 CYCLE:   133 TIME:   0.007 TIME LEFT:  2.00D  GRAD.:     0.904 HEAT:-41.84119
 CYCLE:   134 TIME:   0.007 TIME LEFT:  2.00D  GRAD.:     0.262 HEAT:-41.84425
 CYCLE:   135 TIME:   0.007 TIME LEFT:  2.00D  GRAD.:     0.127 HEAT:-41.84432
 CYCLE:   136 TIME:   0.007 TIME LEFT:  2.00D  GRAD.:     0.174 HEAT:-41.84439
 CYCLE:   137 TIME:   0.007 TIME LEFT:  2.00D  GRAD.:     0.661 HEAT:-41.84422
 CYCLE:   138 TIME:   0.007 TIME LEFT:  2.00D  GRAD.:     0.310 HEAT:-41.84460
 CYCLE:   139 TIME:   0.008 TIME LEFT:  2.00D  GRAD.:     0.301 HEAT:-41.84467
 CYCLE:   140 TIME:   0.008 TIME LEFT:  2.00D  GRAD.:     0.459 HEAT:-41.84487
 CYCLE:   141 TIME:   0.007 TIME LEFT:  2.00D  GRAD.:     0.313 HEAT:-41.84498
 CYCLE:   142 TIME:   0.008 TIME LEFT:  2.00D  GRAD.:     0.798 HEAT:-41.84431
 CYCLE:   143 TIME:   0.008 TIME LEFT:  2.00D  GRAD.:     0.096 HEAT:-41.84517
 CYCLE:   144 TIME:   0.007 TIME LEFT:  2.00D  GRAD.:     0.078 HEAT:-41.84519
 CYCLE:   145 TIME:   0.007 TIME LEFT:  2.00D  GRAD.:     0.066 HEAT:-41.84520
 CYCLE:   146 TIME:   0.007 TIME LEFT:  2.00D  GRAD.:     0.050 HEAT:-41.84521
 CYCLE:   147 TIME:   0.014 TIME LEFT:  2.00D  GRAD.:     2.003 HEAT:-41.83779
 CYCLE:   148 TIME:   0.007 TIME LEFT:  2.00D  GRAD.:     0.434 HEAT:-41.84468
 CYCLE:   149 TIME:   0.007 TIME LEFT:  2.00D  GRAD.:     0.155 HEAT:-41.84514
 CYCLE:   150 TIME:   0.007 TIME LEFT:  2.00D  GRAD.:     0.061 HEAT:-41.84520
 CYCLE:   151 TIME:   0.007 TIME LEFT:  2.00D  GRAD.:     0.052 HEAT:-41.84521
 CYCLE:   152 TIME:   0.007 TIME LEFT:  2.00D  GRAD.:     0.048 HEAT:-41.84521

     RMS GRADIENT =  0.04846  IS LESS THAN CUTOFF =  0.05000



 -------------------------------------------------------------------------------
pm3  precise nosym
 InChI=1S/C8H14O/c1-2-3-4-7-5-8(9)6-7/h3-4,7-9H,2,5-6H2,1H3



     GEOMETRY OPTIMISED USING EIGENVECTOR FOLLOWING (EF).     
     SCF FIELD WAS ACHIEVED                                   


                              PM3 CALCULATION
                                                       MOPAC2012 (Version: 13.159M)
                                                       Mon Jun  2 14:11:59 2014
                                                       No. of days left =   6




          FINAL HEAT OF FORMATION =        -41.84521 KCAL/MOL =    -175.08034 KJ/MOL


          TOTAL ENERGY            =      -1457.52034 EV
          ELECTRONIC ENERGY       =      -7272.31977 EV  POINT GROUP:     C1  
          CORE-CORE REPULSION     =       5814.79943 EV
          COSMO AREA              =        184.98 SQUARE ANGSTROMS
          COSMO VOLUME            =        180.59 CUBIC ANGSTROMS

          GRADIENT NORM           =          0.04846
          IONIZATION POTENTIAL    =          9.748756 EV
          HOMO LUMO ENERGIES (EV) =         -9.749  1.044
          NO. OF FILLED LEVELS    =         26
          MOLECULAR WEIGHT        =        126.198

          MOLECULAR DIMENSIONS (Angstroms)

            Atom       Atom       Distance
            H    20    H    23     8.69169
            H    15    H    19     4.17493
            H    10    H    11     3.70849


          SCF CALCULATIONS        =        161
          COMPUTATION TIME        =          1.144 SECONDS




   ATOM   CHEMICAL          X               Y               Z
  NUMBER   SYMBOL      (ANGSTROMS)     (ANGSTROMS)     (ANGSTROMS)
 
     1       C         -1.14918389  *   0.28858301  *  -0.51568835  *
     2       C         -2.52513360  *   0.12698280  *   1.18787397  *
     3       C         -1.59077148  *  -0.85712923  *   0.42788524  *
     4       C         -2.08988816  *   1.26735925  *   0.23114399  *
     5       C          2.71151013  *   0.14107004  *  -0.55290342  *
     6       C          3.50225009  *  -0.64834784  *   0.46826490  *
     7       C          0.28708451  *   0.65755810  *  -0.48889623  *
     8       C          1.27326379  *  -0.23918712  *  -0.53453481  *
     9       O         -3.89985373  *  -0.12765904  *   1.08081306  *
    10       H         -1.44781438  *   0.12133859  *  -1.57289847  *
    11       H         -2.25770100  *   0.28821042  *   2.25333256  *
    12       H         -0.78400396  *  -1.28626205  *   1.04154460  *
    13       H         -2.10217117  *  -1.69140309  *  -0.07623237  *
    14       H         -2.89599841  *   1.68939124  *  -0.38877688  *
    15       H         -1.58523760  *   2.10834608  *   0.73067635  *
    16       H          2.84134404  *   1.22762444  *  -0.37573347  *
    17       H          3.10781854  *  -0.04590757  *  -1.57141957  *
    18       H          3.14892519  *  -0.45509412  *   1.48937442  *
    19       H          3.42377421  *  -1.72998612  *   0.29560238  *
    20       H          4.56741380  *  -0.38640935  *   0.43374647  *
    21       H          1.05963759  *  -1.31540020  *  -0.56677966  *
    22       H          0.50096703  *   1.73393574  *  -0.45270068  *
    23       H         -4.04136336  *  -0.97806032  *   1.47507261  *

           Empirical Formula: C8 H14 O  =    23 atoms



      MOLECULAR POINT GROUP   :   C1  


                  EIGENVALUES  
 -41.22453 -37.21045 -34.81943 -29.51887 -25.89164 -24.42239 -21.73038 -19.74929
 -18.75938 -17.78161 -17.05208 -16.38548 -15.83209 -15.40721 -14.78683 -13.77562
 -13.57180 -13.36211 -13.21810 -12.60174 -12.36582 -11.98385 -11.78955 -11.62296
 -10.94237  -9.74876   1.04371   3.09531   3.17277   3.23787   3.45808   3.63059
   3.71283   3.85571   3.91510   3.94664   4.07322   4.11997   4.21577   4.34158
   4.39938   4.45985   4.63503   4.75510   4.82212   5.01690   5.28256   5.72785
   5.79175   5.92872


              NET ATOMIC CHARGES AND DIPOLE CONTRIBUTIONS

  ATOM NO.   TYPE          CHARGE      No. of ELECS.   s-Pop       p-Pop       
    1          C          -0.050529        4.0505     1.17472     2.87581
    2          C           0.066304        3.9337     1.18323     2.75047
    3          C          -0.151238        4.1512     1.18702     2.96422
    4          C          -0.115802        4.1158     1.17932     2.93649
    5          C          -0.059903        4.0599     1.14545     2.91445
    6          C          -0.105877        4.1059     1.13769     2.96818
    7          C          -0.141617        4.1416     1.19481     2.94681
    8          C          -0.153443        4.1534     1.19593     2.95751
    9          O          -0.298115        6.2981     1.80698     4.49114
   10          H           0.079377        0.9206     0.92062
   11          H           0.052176        0.9478     0.94782
   12          H           0.066347        0.9337     0.93365
   13          H           0.064473        0.9355     0.93553
   14          H           0.073522        0.9265     0.92648
   15          H           0.062263        0.9377     0.93774
   16          H           0.051232        0.9488     0.94877
   17          H           0.053192        0.9468     0.94681
   18          H           0.039427        0.9606     0.96057
   19          H           0.037519        0.9625     0.96248
   20          H           0.037145        0.9629     0.96286
   21          H           0.102749        0.8973     0.89725
   22          H           0.104312        0.8957     0.89569
   23          H           0.186485        0.8135     0.81352
 DIPOLE           X         Y         Z       TOTAL
 POINT-CHG.     0.842    -0.332     0.252     0.940
 HYBRID         0.222    -0.566     0.246     0.656
 SUM            1.064    -0.898     0.498     1.478


          ATOMIC ORBITAL ELECTRON POPULATIONS

    Atom      s        px        py        pz   
    1  C   1.17472   0.93156   0.96014   0.98411
    2  C   1.18323   0.83486   0.95488   0.96073
    3  C   1.18702   1.00486   0.96676   0.99259
    4  C   1.17932   0.99362   0.95888   0.98398
    5  C   1.14545   0.93348   0.99377   0.98720
    6  C   1.13769   0.98894   0.99355   0.98570
    7  C   1.19481   0.94576   0.98835   1.01270
    8  C   1.19593   0.95259   0.99133   1.01359
    9  O   1.80698   1.22531   1.41968   1.84614
   10  H   0.92062
   11  H   0.94782
   12  H   0.93365
   13  H   0.93553
   14  H   0.92648
   15  H   0.93774
   16  H   0.94877
   17  H   0.94681
   18  H   0.96057
   19  H   0.96248
   20  H   0.96286
   21  H   0.89725
   22  H   0.89569
   23  H   0.81352
 *******************************************************************************
 ** Site#: 14399           For non-commercial use only        Version 13.159M **
 *******************************************************************************
 ** Cite this work as: MOPAC2012, James J. P. Stewart, Stewart Computational  **
 ** Chemistry, Version 13.159M web: HTTP://OpenMOPAC.net  Days remaining:   6 **
 *******************************************************************************
 **                                                                           **
 **                                MOPAC2012                                  **
 **                                                                           **
 *******************************************************************************

                            PM3 CALCULATION RESULTS


 *******************************************************************************
 *  CALCULATION DONE:                                Mon Jun  2 14:11:59 2014  *
 *  PM3      - The PM3 Hamiltonian to be used
 *  OLDGEO   - PREVIOUS GEOMETRY TO BE USED
 *  PRECISE  - CRITERIA TO BE INCREASED BY 100 TIMES
 *  NOSYM    - POINT-GROUP SYMMETRY SET TO C1
 *  T=       - A TIME OF 172800.0 SECONDS REQUESTED
 *  DUMP=N   - RESTART FILE WRITTEN EVERY  7200.000 SECONDS
 *  THERMO   - THERMODYNAMIC QUANTITIES TO BE CALCULATED
 *******************************************************************************
oldgeo thermo nosym precise  pm3

   ATOM   CHEMICAL          X               Y               Z
  NUMBER   SYMBOL      (ANGSTROMS)     (ANGSTROMS)     (ANGSTROMS)
 
     1       C         -1.14918389  *   0.28858301  *  -0.51568835  *
     2       C         -2.52513360  *   0.12698280  *   1.18787397  *
     3       C         -1.59077148  *  -0.85712923  *   0.42788524  *
     4       C         -2.08988816  *   1.26735925  *   0.23114399  *
     5       C          2.71151013  *   0.14107004  *  -0.55290342  *
     6       C          3.50225009  *  -0.64834784  *   0.46826490  *
     7       C          0.28708451  *   0.65755810  *  -0.48889623  *
     8       C          1.27326379  *  -0.23918712  *  -0.53453481  *
     9       O         -3.89985373  *  -0.12765904  *   1.08081306  *
    10       H         -1.44781438  *   0.12133859  *  -1.57289847  *
    11       H         -2.25770100  *   0.28821042  *   2.25333256  *
    12       H         -0.78400396  *  -1.28626205  *   1.04154460  *
    13       H         -2.10217117  *  -1.69140309  *  -0.07623237  *
    14       H         -2.89599841  *   1.68939124  *  -0.38877688  *
    15       H         -1.58523760  *   2.10834608  *   0.73067635  *
    16       H          2.84134404  *   1.22762444  *  -0.37573347  *
    17       H          3.10781854  *  -0.04590757  *  -1.57141957  *
    18       H          3.14892519  *  -0.45509412  *   1.48937442  *
    19       H          3.42377421  *  -1.72998612  *   0.29560238  *
    20       H          4.56741380  *  -0.38640935  *   0.43374647  *
    21       H          1.05963759  *  -1.31540020  *  -0.56677966  *
    22       H          0.50096703  *   1.73393574  *  -0.45270068  *
    23       H         -4.04136336  *  -0.97806032  *   1.47507261  *
 


          CARTESIAN COORDINATES 

    NO.       ATOM         X         Y         Z

     1         C       -1.1492    0.2886   -0.5157
     2         C       -2.5251    0.1270    1.1879
     3         C       -1.5908   -0.8571    0.4279
     4         C       -2.0899    1.2674    0.2311
     5         C        2.7115    0.1411   -0.5529
     6         C        3.5023   -0.6483    0.4683
     7         C        0.2871    0.6576   -0.4889
     8         C        1.2733   -0.2392   -0.5345
     9         O       -3.8999   -0.1277    1.0808
    10         H       -1.4478    0.1213   -1.5729
    11         H       -2.2577    0.2882    2.2533
    12         H       -0.7840   -1.2863    1.0415
    13         H       -2.1022   -1.6914   -0.0762
    14         H       -2.8960    1.6894   -0.3888
    15         H       -1.5852    2.1083    0.7307
    16         H        2.8413    1.2276   -0.3757
    17         H        3.1078   -0.0459   -1.5714
    18         H        3.1489   -0.4551    1.4894
    19         H        3.4238   -1.7300    0.2956
    20         H        4.5674   -0.3864    0.4337
    21         H        1.0596   -1.3154   -0.5668
    22         H        0.5010    1.7339   -0.4527
    23         H       -4.0414   -0.9781    1.4751

  H: (PM3): J. J. P. STEWART, J. COMP. CHEM. 10, 209 (1989).
  C: (PM3): J. J. P. STEWART, J. COMP. CHEM. 10, 209 (1989).
  O: (PM3): J. J. P. STEWART, J. COMP. CHEM. 10, 209 (1989).

           Empirical Formula: C8 H14 O  =    23 atoms



      MOLECULAR POINT GROUP   :   C1  


      RHF CALCULATION, NO. OF DOUBLY OCCUPIED LEVELS =   26



          HEAT OF FORMATION =     -41.845205 KCALS/MOLE


          INTERNAL COORDINATE DERIVATIVES

   NUMBER  ATOM       BOND         ANGLE      DIHEDRAL

     1       C     -0.005037     0.000884     0.004683
     2       C      0.000322    -0.004352     0.004447
     3       C     -0.004435    -0.002740    -0.007330
     4       C     -0.000319    -0.002519     0.002420
     5       C      0.004919     0.000965     0.005258
     6       C      0.001410    -0.002051    -0.006160
     7       C      0.011207    -0.016492     0.000718
     8       C     -0.011289     0.001753     0.009965
     9       O      0.006823    -0.007734    -0.010295
    10       H      0.002109     0.003157    -0.000360
    11       H      0.004475     0.007098     0.002376
    12       H      0.003609     0.001774     0.013514
    13       H      0.005720     0.003620    -0.011287
    14       H      0.001675     0.002657    -0.001424
    15       H     -0.002805     0.001525    -0.001879
    16       H      0.003009    -0.001679    -0.002612
    17       H     -0.002835     0.004206     0.000690
    18       H      0.002690    -0.000105     0.003731
    19       H     -0.001563     0.001415    -0.000768
    20       H     -0.005465     0.000066     0.003178
    21       H     -0.003540     0.017465    -0.009515
    22       H     -0.005008    -0.011090    -0.001869
    23       H     -0.005672     0.002178     0.002519


          GRADIENT NORM =   0.04816


          TIME FOR SCF CALCULATION =    0.00

          TIME FOR DERIVATIVES     =    0.00

          MOLECULAR WEIGHT =  126.20



          ROTATIONAL CONSTANTS IN CM(-1)

          A =    0.15511901   B =    0.02086905   C =    0.01978684



           PRINCIPAL MOMENTS OF INERTIA IN UNITS OF 10**(-40)*GRAM-CM**2

          A =      180.4600   B =     1341.3533   C =     1414.7165


          ORIENTATION OF MOLECULE IN FORCE CALCULATION

    NO.       ATOM         X         Y         Z

     1          C      -0.1044   -0.4544   -0.9202
     2          C       2.0914   -0.4544   -0.9202
     3          C       0.9887    0.6425   -0.9202
     4          C       0.9925   -1.5487   -0.9344
     5          C      -2.5417    0.5422    1.9072
     6          C      -2.1868    1.5732    2.9571
     7          C      -1.0108   -0.4918    0.2531
     8          C      -1.5982    0.5940    0.7580
     9          O       2.8885   -0.5215   -2.0719
    10          H      -0.7252   -0.4503   -1.8419
    11          H       2.7386   -0.4589   -0.0181
    12          H       0.9908    1.2917   -0.0314
    13          H       0.9794    1.2953   -1.8065
    14          H       0.9856   -2.1914   -1.8283
    15          H       1.0019   -2.2100   -0.0546
    16          H      -2.5655   -0.4688    2.3613
    17          H      -3.5664    0.7230    1.5244
    18          H      -1.1874    1.3961    3.3751
    19          H      -2.1920    2.5913    2.5454
    20          H      -2.9003    1.5522    3.7907
    21          H      -1.4101    1.5890    0.3343
    22          H      -1.1959   -1.4865    0.6796
    23          H       3.3456    0.3074   -2.1240


    FIRST DERIVATIVES WILL BE USED IN THE CALCULATION OF SECOND DERIVATIVES

          ESTIMATED TIME TO COMPLETE CALCULATION =        2.64 SECONDS

    FOR POINT-GROUP C1   THERE ARE   1 UNIQUE SYMMETRY FUNCTIONS.

 STEP:   1 TIME =     0.03 SECS, INTEGRAL =      0.03 TIME LEFT: 172799.96
 STEP:   2 TIME =     0.03 SECS, INTEGRAL =      0.06 TIME LEFT: 172799.93
 STEP:   3 TIME =     0.03 SECS, INTEGRAL =      0.09 TIME LEFT: 172799.90
 STEP:   4 TIME =     0.03 SECS, INTEGRAL =      0.12 TIME LEFT: 172799.87
 STEP:   5 TIME =     0.03 SECS, INTEGRAL =      0.15 TIME LEFT: 172799.84
 STEP:   6 TIME =     0.03 SECS, INTEGRAL =      0.18 TIME LEFT: 172799.81
 STEP:   7 TIME =     0.03 SECS, INTEGRAL =      0.21 TIME LEFT: 172799.78
 STEP:   8 TIME =     0.03 SECS, INTEGRAL =      0.24 TIME LEFT: 172799.75
 STEP:   9 TIME =     0.03 SECS, INTEGRAL =      0.28 TIME LEFT: 172799.71
 STEP:  10 TIME =     0.04 SECS, INTEGRAL =      0.31 TIME LEFT: 172799.68
 STEP:  11 TIME =     0.03 SECS, INTEGRAL =      0.34 TIME LEFT: 172799.65
 STEP:  12 TIME =     0.04 SECS, INTEGRAL =      0.38 TIME LEFT: 172799.61
 STEP:  13 TIME =     0.03 SECS, INTEGRAL =      0.41 TIME LEFT: 172799.58
 STEP:  14 TIME =     0.03 SECS, INTEGRAL =      0.44 TIME LEFT: 172799.55
 STEP:  15 TIME =     0.03 SECS, INTEGRAL =      0.47 TIME LEFT: 172799.52
 STEP:  16 TIME =     0.03 SECS, INTEGRAL =      0.50 TIME LEFT: 172799.49
 STEP:  17 TIME =     0.03 SECS, INTEGRAL =      0.53 TIME LEFT: 172799.46
 STEP:  18 TIME =     0.03 SECS, INTEGRAL =      0.56 TIME LEFT: 172799.43
 STEP:  19 TIME =     0.04 SECS, INTEGRAL =      0.59 TIME LEFT: 172799.40
 STEP:  20 TIME =     0.03 SECS, INTEGRAL =      0.62 TIME LEFT: 172799.37
 STEP:  21 TIME =     0.03 SECS, INTEGRAL =      0.65 TIME LEFT: 172799.34
 STEP:  22 TIME =     0.03 SECS, INTEGRAL =      0.69 TIME LEFT: 172799.30
 STEP:  23 TIME =     0.03 SECS, INTEGRAL =      0.72 TIME LEFT: 172799.27
 STEP:  24 TIME =     0.03 SECS, INTEGRAL =      0.75 TIME LEFT: 172799.24
 STEP:  25 TIME =     0.03 SECS, INTEGRAL =      0.78 TIME LEFT: 172799.21
 STEP:  26 TIME =     0.03 SECS, INTEGRAL =      0.81 TIME LEFT: 172799.18
 STEP:  27 TIME =     0.03 SECS, INTEGRAL =      0.84 TIME LEFT: 172799.15
 STEP:  28 TIME =     0.03 SECS, INTEGRAL =      0.87 TIME LEFT: 172799.12
 STEP:  29 TIME =     0.03 SECS, INTEGRAL =      0.90 TIME LEFT: 172799.09
 STEP:  30 TIME =     0.03 SECS, INTEGRAL =      0.94 TIME LEFT: 172799.06
 STEP:  31 TIME =     0.03 SECS, INTEGRAL =      0.97 TIME LEFT: 172799.02
 STEP:  32 TIME =     0.03 SECS, INTEGRAL =      1.00 TIME LEFT: 172798.99
 STEP:  33 TIME =     0.03 SECS, INTEGRAL =      1.03 TIME LEFT: 172798.96
 STEP:  34 TIME =     0.03 SECS, INTEGRAL =      1.06 TIME LEFT: 172798.93
 STEP:  35 TIME =     0.03 SECS, INTEGRAL =      1.09 TIME LEFT: 172798.90
 STEP:  36 TIME =     0.03 SECS, INTEGRAL =      1.12 TIME LEFT: 172798.87
 STEP:  37 TIME =     0.03 SECS, INTEGRAL =      1.15 TIME LEFT: 172798.84
 STEP:  38 TIME =     0.03 SECS, INTEGRAL =      1.18 TIME LEFT: 172798.81
 STEP:  39 TIME =     0.03 SECS, INTEGRAL =      1.21 TIME LEFT: 172798.78
 STEP:  40 TIME =     0.03 SECS, INTEGRAL =      1.24 TIME LEFT: 172798.75
 STEP:  41 TIME =     0.03 SECS, INTEGRAL =      1.27 TIME LEFT: 172798.72
 STEP:  42 TIME =     0.03 SECS, INTEGRAL =      1.30 TIME LEFT: 172798.69
 STEP:  43 TIME =     0.03 SECS, INTEGRAL =      1.33 TIME LEFT: 172798.66
 STEP:  44 TIME =     0.03 SECS, INTEGRAL =      1.37 TIME LEFT: 172798.63
 STEP:  45 TIME =     0.03 SECS, INTEGRAL =      1.39 TIME LEFT: 172798.60
 STEP:  46 TIME =     0.03 SECS, INTEGRAL =      1.43 TIME LEFT: 172798.56
 STEP:  47 TIME =     0.03 SECS, INTEGRAL =      1.46 TIME LEFT: 172798.53
 STEP:  48 TIME =     0.03 SECS, INTEGRAL =      1.49 TIME LEFT: 172798.50
 STEP:  49 TIME =     0.03 SECS, INTEGRAL =      1.52 TIME LEFT: 172798.47
 STEP:  50 TIME =     0.03 SECS, INTEGRAL =      1.55 TIME LEFT: 172798.44
 STEP:  51 TIME =     0.03 SECS, INTEGRAL =      1.58 TIME LEFT: 172798.41
 STEP:  52 TIME =     0.03 SECS, INTEGRAL =      1.61 TIME LEFT: 172798.38
 STEP:  53 TIME =     0.03 SECS, INTEGRAL =      1.64 TIME LEFT: 172798.35
 STEP:  54 TIME =     0.03 SECS, INTEGRAL =      1.67 TIME LEFT: 172798.32
 STEP:  55 TIME =     0.03 SECS, INTEGRAL =      1.70 TIME LEFT: 172798.29
 STEP:  56 TIME =     0.03 SECS, INTEGRAL =      1.73 TIME LEFT: 172798.26
 STEP:  57 TIME =     0.03 SECS, INTEGRAL =      1.76 TIME LEFT: 172798.23
 STEP:  58 TIME =     0.03 SECS, INTEGRAL =      1.79 TIME LEFT: 172798.20
 STEP:  59 TIME =     0.03 SECS, INTEGRAL =      1.82 TIME LEFT: 172798.17
 STEP:  60 TIME =     0.03 SECS, INTEGRAL =      1.85 TIME LEFT: 172798.14
 STEP:  61 TIME =     0.03 SECS, INTEGRAL =      1.89 TIME LEFT: 172798.10
 STEP:  62 TIME =     0.03 SECS, INTEGRAL =      1.92 TIME LEFT: 172798.07
 STEP:  63 TIME =     0.03 SECS, INTEGRAL =      1.95 TIME LEFT: 172798.04
 STEP:  64 TIME =     0.03 SECS, INTEGRAL =      1.98 TIME LEFT: 172798.01
 STEP:  65 TIME =     0.03 SECS, INTEGRAL =      2.01 TIME LEFT: 172797.98
 STEP:  66 TIME =     0.03 SECS, INTEGRAL =      2.04 TIME LEFT: 172797.95
 STEP:  67 TIME =     0.03 SECS, INTEGRAL =      2.07 TIME LEFT: 172797.92
 STEP:  68 TIME =     0.03 SECS, INTEGRAL =      2.10 TIME LEFT: 172797.89
 STEP:  69 TIME =     0.03 SECS, INTEGRAL =      2.13 TIME LEFT: 172797.86

(To convert to Hartree/Bohr^2, multiply by (10^(-21) x N x a0^2)/(4.184 x 627.51) = 0.0642)


           FORCE MATRIX IN MILLIDYNES/ANGSTROM


                  C  1       C  2       C  3       C  4       C  5       C  6
 ------------------------------------------------------------------------------
     C    1  14.852206
     C    2   1.814228  14.755171
     C    3   3.427388   3.216496  14.221603
     C    4   3.426580   3.399118   1.790298  14.314644
     C    5   0.143771   0.002944   0.009191   0.011386  14.687700
     C    6   0.019062   0.001310   0.001245   0.002512   4.410683  14.349196
     C    7   5.060695   0.041368   0.555226   0.577333   0.825231   0.040393
     C    8   0.815986   0.007694   0.052664   0.048857   4.964126   0.717435
     O    9   0.040066   5.542092   0.751962   0.745301   0.001272   0.001463
     H   10   4.391897   0.027962   0.436076   0.433026   0.018082   0.002001
     H   11   0.027591   4.343110   0.417258   0.416843   0.000444   0.000274
     H   12   0.450438   0.423394   4.684731   0.031294   0.001827   0.000550
     H   13   0.441093   0.467095   4.691388   0.030323   0.001115   0.000377
     H   14   0.440383   0.483752   0.029029   4.697013   0.001520   0.000559
     H   15   0.451900   0.440476   0.031757   4.686658   0.001013   0.000316
     H   16   0.003487   0.000481   0.000413   0.000582   4.440373   0.435054
     H   17   0.019555   0.001234   0.001217   0.000955   4.420230   0.445929
     H   18   0.000881   0.000646   0.000238   0.000211   0.461401   4.744710
     H   19   0.000618   0.000447   0.000219   0.000211   0.464663   4.724714
     H   20   0.003278   0.000493   0.000315   0.000519   0.450080   4.750360
     H   21   0.085356   0.002647   0.017119   0.003259   0.431377   0.025936
     H   22   0.434050   0.005114   0.035601   0.031777   0.087080   0.009076
     H   23   0.008721   0.853076   0.051773   0.101596   0.000507   0.000643


                  C  7       C  8       O  9       H 10       H 11       H 12
 ------------------------------------------------------------------------------
     C    7  18.264982
     C    8  10.673645  18.165604
     O    9   0.007756   0.001788  12.009847
     H   10   0.390643   0.024722   0.003044   4.866078
     H   11   0.003249   0.001003   0.421413   0.001868   4.787391
     H   12   0.017369   0.015676   0.051805   0.031400   0.024547   5.305682
     H   13   0.033201   0.003562   0.030512   0.026971   0.032235   0.543941
     H   14   0.033923   0.005416   0.062671   0.027094   0.029631   0.000688
     H   15   0.027247   0.003240   0.043467   0.031850   0.025396   0.003873
     H   16   0.049964   0.460274   0.000613   0.000708   0.000096   0.000388
     H   17   0.032400   0.408466   0.000857   0.003037   0.000098   0.000303
     H   18   0.002307   0.015868   0.000600   0.000163   0.000097   0.000322
     H   19   0.002250   0.027127   0.000343   0.000218   0.000104   0.000133
     H   20   0.007060   0.052383   0.000567   0.000269   0.000134   0.000152
     H   21   0.471636   4.761152   0.002174   0.010502   0.000657   0.024908
     H   22   4.750663   0.470914   0.002784   0.014535   0.000949   0.003531
     H   23   0.002526   0.000624   8.310875   0.001362   0.050085   0.005869


                  H 13       H 14       H 15       H 16       H 17       H 18
 ------------------------------------------------------------------------------
     H   13   5.316742
     H   14   0.003513   5.323717
     H   15   0.000743   0.547228   5.310630
     H   16   0.000211   0.000083   0.000222   5.051351
     H   17   0.000168   0.000098   0.000277   0.566754   5.018026
     H   18   0.000192   0.000056   0.000133   0.024428   0.049385   5.483359
     H   19   0.000077   0.000100   0.000122   0.047725   0.023856   0.579196
     H   20   0.000162   0.000112   0.000114   0.030229   0.028485   0.574438
     H   21   0.001525   0.000634   0.000702   0.039103   0.017385   0.002661
     H   22   0.004227   0.001941   0.029549   0.030074   0.010285   0.000550
     H   23   0.021108   0.004828   0.010533   0.000278   0.000285   0.000116


                  H 19       H 20       H 21       H 22       H 23
 ------------------------------------------------------------------
     H   19   5.469917
     H   20   0.574059   5.487673
     H   21   0.020041   0.002065   5.143188
     H   22   0.000531   0.001840   0.108091   5.123936
     H   23   0.000208   0.000206   0.000661   0.000812   8.591390


          HEAT OF FORMATION =     -41.845205 KCALS/MOLE

          ZERO POINT ENERGY     127.409 KCAL/MOL


           NORMAL COORDINATE ANALYSIS (Total motion = 1 Angstrom)


   Root No.       1         2         3         4         5         6         7         8

                 1 A       2 A       3 A       4 A       5 A       6 A       7 A       8 A   

                  32.7      68.7      78.7     127.6     148.8     196.1     205.4     302.3
  
           1   -0.0050   -0.0200    0.0002    0.0003   -0.0055    0.0033    0.0039   -0.0027
           2   -0.0117   -0.0045    0.0005   -0.0186   -0.0079    0.0183   -0.0018   -0.0225
           3   -0.0042   -0.0254   -0.0123   -0.0011    0.0046   -0.0103   -0.0004   -0.0139
           4   -0.0050   -0.0200    0.0002    0.0001   -0.0059    0.0037    0.0013   -0.0080
           5    0.0171    0.0043    0.0069    0.0012   -0.0018    0.0050    0.0039   -0.0150
           6    0.0085    0.0161   -0.0044    0.0082   -0.0078    0.0066    0.0071    0.0142
           7   -0.0195   -0.0240   -0.0036   -0.0088   -0.0087    0.0102   -0.0007   -0.0095
           8    0.0026   -0.0001    0.0034   -0.0092   -0.0050    0.0125    0.0033   -0.0207
           9   -0.0256   -0.0211   -0.0311    0.0399   -0.0152    0.0050   -0.0069    0.0095
          10    0.0096   -0.0152    0.0039    0.0095   -0.0031   -0.0024    0.0069   -0.0013
          11    0.0023    0.0000    0.0032   -0.0090   -0.0047    0.0121    0.0012   -0.0238
          12    0.0295   -0.0244    0.0179    0.0051   -0.0262    0.0199    0.0132    0.0072
          13   -0.0104    0.0288    0.0134    0.0082   -0.0048    0.0133    0.0042    0.0396
          14    0.0173   -0.0131   -0.0051    0.0135    0.0107   -0.0279   -0.0045    0.0002
          15   -0.0176    0.0212    0.0045   -0.0084   -0.0011    0.0177   -0.0013   -0.0104
          16    0.0411    0.0240   -0.0405    0.0154   -0.0130    0.0093    0.0001   -0.0133
          17   -0.0328    0.0192   -0.0034    0.0196    0.0057    0.0007   -0.0009   -0.0113
          18    0.0143   -0.0085    0.0204   -0.0162    0.0065   -0.0086   -0.0037    0.0156
          19   -0.0121   -0.0121   -0.0124   -0.0289    0.0178   -0.0095    0.0029    0.0149
          20    0.0017   -0.0101    0.0067   -0.0311   -0.0067    0.0091   -0.0014    0.0271
          21   -0.0094   -0.0188   -0.0225   -0.0242    0.0239   -0.0215   -0.0018   -0.0039
          22   -0.0062    0.0034    0.0429    0.0262    0.0107   -0.0218    0.0033    0.0097
          23    0.0072   -0.0108    0.0126   -0.0156   -0.0044   -0.0036   -0.0016    0.0396
          24   -0.0147    0.0005    0.0290    0.0066    0.0113   -0.0106   -0.0017   -0.0337
          25    0.0025    0.0258    0.0029   -0.0203    0.0150   -0.0093   -0.0515   -0.0198
          26   -0.0011    0.0101   -0.0179    0.0339    0.0096   -0.0194    0.0193    0.0273
          27    0.0148    0.0480   -0.0011   -0.0083    0.0063   -0.0011   -0.0278    0.0040
          28    0.0001   -0.0228    0.0061    0.0227   -0.0279    0.0210    0.0067    0.0022
          29   -0.0426   -0.0054   -0.0203   -0.0105   -0.0065    0.0194   -0.0125   -0.0331
          30   -0.0078   -0.0231   -0.0166   -0.0163    0.0196   -0.0220   -0.0022   -0.0164
          31   -0.0104   -0.0552   -0.0015    0.0160   -0.0211    0.0129   -0.0053   -0.0037
          32    0.0484    0.0052    0.0296   -0.0091   -0.0055    0.0097    0.0131   -0.0212
          33    0.0125    0.0416   -0.0030   -0.0034    0.0033   -0.0002    0.0126    0.0107
          34   -0.0321   -0.0425   -0.0060   -0.0146   -0.0056    0.0062   -0.0081   -0.0270
          35    0.0254    0.0155    0.0223   -0.0415    0.0088    0.0045    0.0163   -0.0304
          36   -0.0422   -0.0324   -0.0448    0.0640   -0.0254    0.0108   -0.0169    0.0172
          37   -0.0231   -0.0098   -0.0028   -0.0113   -0.0156    0.0212    0.0073    0.0013
          38   -0.0202   -0.0157   -0.0153    0.0238   -0.0188    0.0201   -0.0139   -0.0093
          39   -0.0424   -0.0328   -0.0449    0.0644   -0.0254    0.0107   -0.0186    0.0176
          40    0.0232    0.0045    0.0093    0.0191   -0.0066    0.0010    0.0111    0.0129
          41   -0.0203    0.0184   -0.0192   -0.0126    0.0186   -0.0090   -0.0079   -0.0309
          42    0.0456   -0.0378    0.0341    0.0077   -0.0431    0.0351    0.0195    0.0127
          43    0.0130   -0.0292    0.0020    0.0106    0.0033   -0.0125    0.0070   -0.0099
          44    0.0247   -0.0181    0.0255   -0.0046   -0.0275    0.0320    0.0093   -0.0159
          45    0.0462   -0.0380    0.0347    0.0083   -0.0436    0.0353    0.0195    0.0134
          46   -0.0607    0.0670    0.0179   -0.0191   -0.0308    0.0652    0.0094    0.0933
          47    0.0046   -0.0042   -0.0073    0.0188    0.0114   -0.0222   -0.0037   -0.0083
          48   -0.0487    0.0428    0.0000    0.0014   -0.0013    0.0330    0.0009   -0.0238
          49   -0.0012    0.0153    0.0215    0.0178    0.0060   -0.0052    0.0032    0.0252
          50    0.0799   -0.0493   -0.0224    0.0313    0.0276   -0.0716   -0.0102   -0.0457
          51   -0.0124    0.0402   -0.0260   -0.0258   -0.0227    0.0469   -0.0010    0.0059
          52    0.0307    0.0416   -0.0498   -0.0034   -0.0755   -0.0351   -0.0024   -0.0278
          53   -0.0980    0.0606    0.0158   -0.0099   -0.0825   -0.0503   -0.0006   -0.0013
          54    0.0116   -0.0331    0.0506    0.0164    0.1186    0.0760    0.0024    0.0543
          55    0.0959   -0.0215   -0.0497    0.0654    0.1329    0.1145    0.0040   -0.0150
          56   -0.0202    0.0111   -0.0011    0.0126   -0.0052   -0.0198   -0.0026   -0.0045
          57    0.0446   -0.0280    0.0261   -0.0343   -0.0225   -0.0613   -0.0081    0.0336
          58    0.0378    0.0481   -0.0661   -0.0098   -0.1042   -0.0549   -0.0044   -0.0475
          59   -0.0201    0.0116   -0.0232    0.0613    0.1009    0.0964    0.0039   -0.0396
          60    0.0118    0.0119   -0.0019   -0.0368   -0.0691   -0.0611   -0.0074   -0.0137
          61    0.0033    0.0005    0.1032    0.0921    0.0062   -0.0479    0.0026   -0.0390
          62    0.0054   -0.0085    0.0264   -0.0129   -0.0098    0.0010   -0.0014    0.0349
          63   -0.0148    0.0045    0.0883    0.0405   -0.0042   -0.0111   -0.0014   -0.0631
          64   -0.0227   -0.0136   -0.0768   -0.0901    0.0333    0.0032    0.0015    0.0405
          65    0.0041   -0.0129   -0.0046   -0.0396   -0.0030    0.0055   -0.0013    0.0462
          66   -0.0080   -0.0258   -0.0762   -0.0722    0.0386   -0.0233   -0.0021    0.0532
          67   -0.0045    0.0262   -0.0017   -0.0338    0.0172   -0.0128    0.5241   -0.0423
          68    0.0018    0.0113   -0.0167    0.0418    0.0095   -0.0192   -0.2730    0.0409
          69   -0.0007    0.0695   -0.0216   -0.0013    0.0247   -0.0283    0.3885    0.0181


   Root No.       9        10        11        12        13        14        15        16

                 9 A      10 A      11 A      12 A      13 A      14 A      15 A      16 A   

                 335.2     417.4     468.1     501.0     549.5     752.4     813.0     899.7
  
           1    0.0041    0.0001   -0.0097   -0.0191    0.0054    0.0528    0.0015    0.0084
           2   -0.0193    0.0098   -0.0151    0.0158    0.0134    0.0007    0.0000    0.0064
           3    0.0057    0.0134    0.0306   -0.0102    0.0496    0.0228    0.0112    0.0034
           4    0.0217   -0.0040   -0.0056   -0.0156    0.0018   -0.0517   -0.0005    0.0112
           5   -0.0191   -0.0260    0.0193   -0.0082   -0.0051   -0.0011   -0.0002   -0.0037
           6   -0.0281   -0.0001   -0.0249   -0.0362    0.0039   -0.0338   -0.0013    0.0078
           7    0.0127    0.0150   -0.0284   -0.0056    0.0174   -0.0008   -0.0024   -0.0148
           8   -0.0283   -0.0103    0.0013    0.0055    0.0103    0.0443    0.0011   -0.0073
           9   -0.0097   -0.0186    0.0236    0.0092   -0.0100   -0.0037    0.0044   -0.0166
          10    0.0170   -0.0215    0.0074   -0.0356   -0.0131    0.0069   -0.0015   -0.0211
          11   -0.0190   -0.0123    0.0051    0.0081    0.0090   -0.0513   -0.0018    0.0022
          12    0.0014    0.0179   -0.0090    0.0300    0.0036   -0.0035    0.0050    0.0369
          13   -0.0159   -0.0176    0.0060    0.0162    0.0299   -0.0045    0.0265    0.0018
          14    0.0125   -0.0269   -0.0171    0.0061    0.0078    0.0012   -0.0231    0.0009
          15    0.0329   -0.0040   -0.0106   -0.0094   -0.0151    0.0026    0.0129   -0.0033
          16   -0.0071    0.0136    0.0068   -0.0026   -0.0012    0.0002    0.0060    0.0041
          17    0.0157   -0.0115   -0.0139   -0.0011   -0.0040    0.0055   -0.0074    0.0034
          18    0.0325   -0.0344   -0.0216    0.0021    0.0036    0.0067   -0.0018    0.0002
          19   -0.0457    0.0044   -0.0190    0.0077   -0.0301    0.0223   -0.0136    0.0299
          20    0.0148    0.0227    0.0149   -0.0213   -0.0339    0.0108    0.0094    0.0099
          21   -0.0222    0.0114    0.0162    0.0070    0.0105   -0.0178   -0.0122    0.0001
          22   -0.0483    0.0096    0.0080    0.0111   -0.0041   -0.0088    0.0011   -0.0095
          23    0.0093    0.0167    0.0375   -0.0157   -0.0019   -0.0099    0.0038   -0.0126
          24   -0.0033    0.0224   -0.0025   -0.0074   -0.0321   -0.0082    0.0045   -0.0069
          25    0.0466    0.0001    0.0249    0.0361   -0.0035   -0.0104    0.0023    0.0089
          26    0.0268    0.0318   -0.0202    0.0072    0.0057   -0.0011   -0.0002    0.0026
          27   -0.0186   -0.0017   -0.0023   -0.0046   -0.0010    0.0209   -0.0019   -0.0116
          28    0.0226   -0.0110   -0.0187   -0.0141   -0.0050    0.0825    0.0168   -0.0193
          29   -0.0321    0.0083   -0.0245    0.0307    0.0350   -0.0091   -0.0037   -0.0597
          30   -0.0078    0.0203    0.0355   -0.0124    0.0544    0.0014   -0.0001    0.0204
          31    0.0214   -0.0060   -0.0093   -0.0174   -0.0004   -0.0931    0.0006    0.0195
          32   -0.0243   -0.0431    0.0342   -0.0193   -0.0185    0.0087    0.0009    0.0482
          33   -0.0271    0.0013   -0.0211   -0.0329    0.0050   -0.0012   -0.0023    0.0003
          34    0.0251    0.0307   -0.0098    0.0197    0.0538    0.0543    0.0045   -0.0433
          35   -0.0301    0.0258   -0.0353   -0.0444    0.0833    0.0259    0.0193   -0.0798
          36   -0.0087   -0.0460    0.0519    0.0470   -0.0664    0.0119   -0.0097    0.0399
          37   -0.0009    0.0214   -0.0721   -0.0124   -0.0024   -0.0577   -0.0181   -0.0178
          38   -0.0269   -0.0444    0.0356    0.0539   -0.0624    0.0771   -0.0171    0.0604
          39   -0.0087   -0.0456    0.0517    0.0470   -0.0662    0.0212   -0.0095    0.0373
          40    0.0017   -0.0421   -0.0095   -0.0612   -0.0493   -0.0454   -0.0191   -0.0540
          41   -0.0314   -0.0279    0.0239   -0.0779    0.0438   -0.0687    0.0225    0.1254
          42    0.0115    0.0307   -0.0231    0.0962   -0.0220    0.0090   -0.0133   -0.0562
          43    0.0344   -0.0269    0.0440   -0.0285   -0.0010    0.0663    0.0106   -0.0686
          44   -0.0029    0.0048   -0.0119    0.0937   -0.0250   -0.0468   -0.0261   -0.1194
          45    0.0129    0.0315   -0.0232    0.0980   -0.0229    0.0006   -0.0144   -0.0590
          46    0.0097   -0.0086    0.0537    0.0000    0.0723   -0.0017   -0.1542    0.0035
          47    0.0139   -0.0269   -0.0222    0.0061    0.0055    0.0037   -0.0441    0.0029
          48    0.0376   -0.0041   -0.0172   -0.0099   -0.0144    0.0075   -0.0540    0.0006
          49   -0.0310   -0.0179   -0.0065    0.0234    0.0160   -0.0094    0.0778   -0.0036
          50    0.0006   -0.0369   -0.0585    0.0162   -0.0260    0.0048    0.1557    0.0091
          51    0.0679   -0.0059    0.0055   -0.0253    0.0069    0.0180   -0.0529    0.0148
          52   -0.0099    0.0213    0.0070   -0.0065   -0.0113   -0.0008    0.0003   -0.0037
          53    0.0098   -0.0226   -0.0181    0.0073    0.0055    0.0054    0.1108    0.0136
          54    0.0363   -0.0563   -0.0230    0.0144    0.0312    0.0088    0.0540    0.0220
          55    0.0008    0.0287    0.0151   -0.0119   -0.0101    0.0004   -0.0594   -0.0051
          56    0.0152   -0.0235   -0.0188    0.0040    0.0050    0.0071   -0.0429    0.0102
          57    0.0316   -0.0663   -0.0343    0.0154    0.0278    0.0109   -0.0969    0.0179
          58   -0.0091    0.0347    0.0086   -0.0147   -0.0268   -0.0002   -0.0329   -0.0146
          59    0.0225    0.0317    0.0017   -0.0230   -0.0398    0.0043    0.0188   -0.0214
          60    0.0314   -0.0168   -0.0204   -0.0083   -0.0183    0.0068   -0.0344   -0.0154
          61   -0.0498    0.0351    0.0307   -0.0036    0.0296    0.0080   -0.0826   -0.0008
          62    0.0140    0.0307    0.0437   -0.0285   -0.0182   -0.0004    0.0060   -0.0060
          63    0.0076    0.0666    0.0244   -0.0442   -0.0531    0.0207   -0.0284    0.0119
          64   -0.0688   -0.0279   -0.0645    0.0439   -0.0690   -0.0135    0.0122   -0.0538
          65    0.0137    0.0186    0.0236   -0.0195   -0.0364   -0.0054    0.0192   -0.0223
          66   -0.0337   -0.0110    0.0164    0.0264   -0.0137   -0.0712    0.0216   -0.1111
          67    0.0463   -0.0293    0.0480    0.0296   -0.0125   -0.0218    0.0016    0.0030
          68    0.0308    0.0510   -0.0337    0.0141    0.0109    0.0070    0.0003    0.0070
          69    0.0359    0.0351   -0.0079    0.0392    0.0013    0.0384    0.0000    0.0054


   Root No.      17        18        19        20        21        22        23        24

                17 A      18 A      19 A      20 A      21 A      22 A      23 A      24 A   

                 905.8     913.0     922.9     965.3     982.1     998.2    1016.6    1026.0
  
           1    0.0043    0.0141    0.0039    0.0065    0.0011   -0.0024   -0.0105   -0.0051
           2    0.0009    0.0053    0.0013   -0.0096    0.0089    0.0117    0.0336    0.0079
           3    0.0048    0.0025   -0.0004   -0.0051    0.0023    0.0082   -0.0030   -0.0034
           4   -0.0009    0.0117    0.0045    0.0019    0.0037    0.0065   -0.0095   -0.0044
           5   -0.0021   -0.0048   -0.0017    0.0012    0.0407   -0.0120   -0.0314    0.0023
           6   -0.0005    0.0066    0.0029    0.0034   -0.0018   -0.0058   -0.0011   -0.0029
           7   -0.0070   -0.0384   -0.0147   -0.0003    0.0134   -0.0107   -0.0247   -0.0011
           8    0.0081   -0.0006   -0.0003    0.0150   -0.0458   -0.0294   -0.0019   -0.0067
           9    0.0087    0.0406    0.0140    0.0028    0.0042   -0.0048   -0.0040    0.0037
          10   -0.0078   -0.0073   -0.0066   -0.0124   -0.0197    0.0119    0.0359    0.0040
          11   -0.0063   -0.0033    0.0002   -0.0011   -0.0331    0.0305   -0.0037   -0.0068
          12    0.0209   -0.0106    0.0044    0.0066   -0.0027   -0.0021    0.0132    0.0050
          13   -0.0018   -0.0020   -0.0002   -0.0141   -0.0006    0.0018   -0.0045   -0.0119
          14    0.0037    0.0005   -0.0017   -0.0017   -0.0005   -0.0031    0.0086    0.0125
          15   -0.0007   -0.0014   -0.0026    0.0026   -0.0002   -0.0016   -0.0031   -0.0046
          16   -0.0076   -0.0002    0.0090   -0.0181   -0.0032   -0.0085    0.0032    0.0078
          17    0.0033    0.0045    0.0015   -0.0058    0.0005    0.0041   -0.0072   -0.0092
          18   -0.0042    0.0015    0.0022    0.0340    0.0047    0.0121   -0.0018   -0.0042
          19   -0.0221    0.0292    0.0033    0.0039    0.0037    0.0106   -0.0056   -0.0039
          20    0.0003    0.0126    0.0025   -0.0151    0.0017    0.0073   -0.0024   -0.0027
          21   -0.0276   -0.0067   -0.0121    0.0021   -0.0051   -0.0175    0.0042    0.0002
          22    0.0184    0.0018   -0.0276    0.0173    0.0016    0.0012    0.0051    0.0111
          23   -0.0020   -0.0063   -0.0091    0.0122   -0.0008   -0.0050    0.0030    0.0023
          24    0.0184    0.0002   -0.0235   -0.0219   -0.0027   -0.0085    0.0088    0.0133
          25    0.0083    0.0123    0.0058    0.0060   -0.0026   -0.0139    0.0028    0.0007
          26   -0.0001   -0.0039   -0.0009    0.0000    0.0050   -0.0004   -0.0032    0.0002
          27   -0.0085   -0.0130   -0.0061   -0.0073    0.0066    0.0175   -0.0064    0.0007
          28    0.0664    0.0090    0.0125    0.0231    0.0046   -0.0282    0.0028    0.0215
          29   -0.0120    0.0490    0.0059   -0.0223    0.1862   -0.0103    0.1007    0.0316
          30   -0.0392    0.0041   -0.0072   -0.0167    0.0000    0.0234   -0.0111   -0.0216
          31    0.0052    0.0238    0.0117    0.0034    0.0016    0.0121   -0.0075   -0.0001
          32    0.0067   -0.0509   -0.0108   -0.0120    0.2313   -0.0363   -0.0023    0.0225
          33   -0.0060   -0.0052   -0.0035    0.0010    0.0011   -0.0077   -0.0018   -0.0061
          34   -0.0031   -0.1039   -0.0187   -0.0210    0.0789    0.0660    0.0693   -0.0915
          35    0.0412    0.1287    0.0427    0.0250   -0.0315   -0.0520   -0.0065    0.0068
          36   -0.0165   -0.0583   -0.0188   -0.0047   -0.0048    0.0106   -0.0009   -0.0057
          37   -0.0287   -0.0747   -0.0362    0.0071   -0.0592   -0.0942   -0.0860    0.1032
          38   -0.0212   -0.1286   -0.0417    0.0094   -0.0554   -0.0283    0.0050   -0.0159
          39   -0.0140   -0.0584   -0.0178   -0.0017   -0.0044   -0.0012    0.0018   -0.0059
          40   -0.0401   -0.0188   -0.0174    0.0013   -0.0130   -0.1115    0.1543   -0.0960
          41    0.0641   -0.0484    0.0089    0.0144   -0.0335    0.0336    0.0272    0.0102
          42   -0.0328    0.0247   -0.0020   -0.0060    0.0006   -0.0016   -0.0120   -0.0060
          43    0.0000   -0.0353   -0.0148   -0.0562   -0.0482    0.1412   -0.0346    0.1237
          44   -0.0824    0.0423   -0.0107   -0.0234   -0.0200    0.0477   -0.0381   -0.0200
          45   -0.0389    0.0265   -0.0035   -0.0096    0.0053    0.0085   -0.0128   -0.0076
          46    0.0116    0.0008    0.0020    0.0154    0.0012   -0.0019    0.0322    0.0453
          47    0.0212    0.0062   -0.0113   -0.0345   -0.0032   -0.0061   -0.0070   -0.0074
          48    0.0405    0.0109   -0.0245   -0.0709   -0.0065   -0.0106   -0.0348   -0.0437
          49    0.0137   -0.0019   -0.0181   -0.0312    0.0008    0.0133   -0.0262   -0.0531
          50   -0.0485   -0.0057    0.0298   -0.0020   -0.0025   -0.0082    0.0042    0.0081
          51   -0.0640   -0.0040    0.0590    0.0505   -0.0043   -0.0329    0.0523    0.1023
          52    0.0013   -0.0009   -0.0037    0.0216    0.0028    0.0067    0.0004   -0.0017
          53   -0.0705   -0.0102    0.0534    0.0186   -0.0037   -0.0175    0.0244    0.0431
          54   -0.0514   -0.0022    0.0509   -0.0494   -0.0107   -0.0307    0.0159    0.0365
          55    0.0330    0.0071   -0.0225   -0.0006    0.0034    0.0137   -0.0147   -0.0244
          56    0.0203    0.0117   -0.0008   -0.0670   -0.0054   -0.0058   -0.0176   -0.0194
          57    0.0414    0.0205   -0.0055   -0.1272   -0.0109   -0.0141   -0.0292   -0.0313
          58    0.0253    0.0021   -0.0271    0.0743    0.0123    0.0332   -0.0113   -0.0257
          59   -0.0023   -0.0050   -0.0167    0.1738    0.0231    0.0554   -0.0032   -0.0197
          60    0.0227    0.0035   -0.0275    0.1133    0.0179    0.0474   -0.0140   -0.0323
          61   -0.0515   -0.0629    0.2190    0.0578    0.0064    0.0133    0.0027   -0.0101
          62   -0.0083   -0.0028    0.0351   -0.0139   -0.0043   -0.0047   -0.0176   -0.0171
          63   -0.0278   -0.0214    0.1882   -0.0638   -0.0088   -0.0029   -0.0404   -0.0416
          64    0.1253   -0.0612    0.1507   -0.0102    0.0164    0.0519    0.0335    0.0354
          65    0.0202   -0.0131    0.0206   -0.0078   -0.0033   -0.0148   -0.0217   -0.0200
          66    0.0829   -0.1066    0.0946    0.0138   -0.0119   -0.0526   -0.0250   -0.0236
          67    0.0037    0.0156    0.0060    0.0049    0.0334   -0.0188   -0.0306    0.0041
          68    0.0031   -0.0067   -0.0012    0.0006   -0.0194    0.0037    0.0200   -0.0022
          69    0.0021   -0.0183   -0.0047   -0.0049   -0.0528    0.0256    0.0558   -0.0077


   Root No.      25        26        27        28        29        30        31        32

                25 A      26 A      27 A      28 A      29 A      30 A      31 A      32 A   

                1036.6    1052.4    1103.9    1116.2    1123.9    1128.4    1140.7    1153.2
  
           1    0.0010    0.0343    0.0000   -0.0001    0.0014   -0.0013    0.0044    0.0131
           2   -0.0229    0.0084   -0.0061    0.0022   -0.0041    0.0099    0.0184    0.0056
           3   -0.0068    0.0171   -0.0167   -0.0004   -0.0036   -0.0035    0.0045    0.0213
           4    0.0029    0.0403    0.0069   -0.0006    0.0011    0.0035    0.0011   -0.0146
           5    0.0125   -0.0102   -0.0067   -0.0002    0.0104   -0.0031   -0.0317    0.0212
           6   -0.0027    0.0165   -0.0011    0.0003   -0.0232    0.0005   -0.0056   -0.0144
           7    0.0140   -0.0194   -0.0092   -0.0003   -0.0038   -0.0037   -0.0097    0.0032
           8   -0.0013    0.0064   -0.0037    0.0012    0.0149    0.0010   -0.0005   -0.0271
           9    0.0083   -0.0323   -0.0120    0.0034   -0.0098    0.0056    0.0105   -0.0068
          10   -0.0182   -0.0054    0.0013    0.0005   -0.0057    0.0006    0.0057   -0.0075
          11    0.0165   -0.0059    0.0122   -0.0028   -0.0199   -0.0061    0.0093    0.0111
          12   -0.0020   -0.0238    0.0051    0.0002    0.0054   -0.0067   -0.0216   -0.0027
          13   -0.0161   -0.0043    0.0042    0.0422   -0.0026    0.0112    0.0020    0.0115
          14    0.0087    0.0066   -0.0055    0.0091   -0.0026    0.0447   -0.0094    0.0102
          15   -0.0013    0.0006    0.0101    0.0405   -0.0013    0.0124   -0.0028   -0.0027
          16    0.0100    0.0025   -0.0033   -0.0485    0.0012   -0.0034    0.0003   -0.0040
          17   -0.0060   -0.0060   -0.0012   -0.0105    0.0023   -0.0472    0.0115   -0.0017
          18   -0.0072   -0.0047   -0.0057   -0.0430    0.0010   -0.0072    0.0013   -0.0013
          19    0.0057   -0.0208    0.0080    0.0028   -0.0023    0.0008   -0.0055   -0.0050
          20    0.0023   -0.0070   -0.0106    0.0017   -0.0024    0.0112   -0.0037    0.0048
          21   -0.0073   -0.0072    0.0331   -0.0035   -0.0041    0.0054    0.0111    0.0064
          22    0.0135    0.0097   -0.0063    0.0010    0.0037   -0.0178   -0.0032   -0.0130
          23   -0.0011    0.0039    0.0082    0.0019    0.0005   -0.0056    0.0026   -0.0036
          24    0.0128    0.0106   -0.0125   -0.0057   -0.0009    0.0054    0.0033    0.0132
          25   -0.0039   -0.0069   -0.0037    0.0006   -0.0124   -0.0006   -0.0030   -0.0031
          26    0.0010    0.0019   -0.0005    0.0000    0.0014    0.0004   -0.0021    0.0011
          27    0.0068    0.0034    0.0046   -0.0004    0.0432    0.0025    0.0045    0.0074
          28    0.0455    0.0103    0.2316   -0.0419   -0.0619    0.0091    0.0799    0.1088
          29   -0.0956    0.0362    0.1166   -0.0188    0.0683   -0.0761   -0.1557   -0.0284
          30   -0.0393    0.0333   -0.1772    0.0284    0.0407   -0.0113   -0.0484   -0.0441
          31    0.0112    0.0080    0.0172    0.0041    0.3942    0.0314    0.0600   -0.0160
          32   -0.0281   -0.0122   -0.0281    0.0102   -0.0778    0.0424    0.2202   -0.0929
          33   -0.0087    0.0404   -0.0088   -0.0032   -0.3253   -0.0204   -0.0485   -0.0158
          34    0.1382   -0.0915   -0.0086    0.0051   -0.0366    0.0160    0.0073   -0.0668
          35    0.0176   -0.0758   -0.0149    0.0070    0.0079    0.0140    0.0223   -0.0504
          36   -0.0081    0.0311   -0.0054   -0.0006   -0.0066   -0.0039   -0.0065    0.0101
          37   -0.1167   -0.0969   -0.0464    0.0062    0.0016    0.0040    0.0541    0.0352
          38   -0.0303    0.0880    0.0113   -0.0041    0.0201   -0.0089   -0.0203   -0.0269
          39   -0.0111    0.0322   -0.0016   -0.0006   -0.0083   -0.0022   -0.0051   -0.0071
          40   -0.0053   -0.0726   -0.0619   -0.0013    0.0320   -0.0177   -0.0299    0.0876
          41    0.0166   -0.0721    0.0366   -0.0037    0.0033   -0.0188   -0.0243    0.0064
          42   -0.0031    0.0277   -0.0131    0.0010   -0.0137    0.0024    0.0022   -0.0002
          43   -0.0479   -0.0793    0.0454    0.0006   -0.0236   -0.0076   -0.0618   -0.0633
          44    0.0167    0.0579   -0.0058   -0.0026   -0.0444    0.0030    0.0489    0.0186
          45   -0.0015    0.0280   -0.0111    0.0005   -0.0149    0.0000    0.0083    0.0035
          46    0.0264    0.0150   -0.0385   -0.0312   -0.0044    0.0364    0.0036    0.0496
          47    0.0004    0.0028    0.0142   -0.0059   -0.0030    0.1166   -0.0393   -0.0231
          48   -0.0149   -0.0055    0.0527    0.0022   -0.0020    0.1707   -0.0686   -0.0771
          49   -0.0586   -0.0193    0.0126    0.0020   -0.0064    0.0387    0.0050    0.0214
          50    0.0096    0.0029    0.0151    0.2127   -0.0015   -0.0179    0.0000    0.0064
          51    0.1106    0.0382   -0.0035    0.2413    0.0090   -0.0866   -0.0064   -0.0290
          52   -0.0051   -0.0013   -0.0038   -0.0285   -0.0003    0.0098   -0.0013    0.0022
          53    0.0394    0.0109   -0.0196   -0.1942    0.0038    0.0130   -0.0074   -0.0150
          54    0.0441    0.0099   -0.0117   -0.1660    0.0051   -0.0166   -0.0022   -0.0221
          55   -0.0225   -0.0098    0.0030    0.0373    0.0009   -0.0446    0.0127    0.0036
          56   -0.0059   -0.0095    0.0054    0.0152    0.0049   -0.1019    0.0232   -0.0081
          57   -0.0069   -0.0136    0.0119    0.0254    0.0073   -0.1435    0.0306   -0.0178
          58   -0.0337   -0.0121   -0.0018    0.0173   -0.0003   -0.0149    0.0052    0.0049
          59   -0.0411   -0.0141   -0.0123   -0.0305   -0.0003    0.0071   -0.0010    0.0078
          60   -0.0436   -0.0171   -0.0042    0.0115    0.0001   -0.0180    0.0049    0.0045
          61   -0.0257   -0.0189    0.0244    0.0413   -0.0122    0.0633    0.0016   -0.0081
          62   -0.0182   -0.0055    0.0164   -0.0102    0.0059   -0.0336   -0.0014   -0.0017
          63   -0.0430   -0.0240    0.0206   -0.0163    0.0049   -0.0270   -0.0034    0.0190
          64   -0.0019    0.0372   -0.1247    0.0138   -0.0080    0.0034    0.0091    0.0689
          65    0.0058    0.0091    0.0263   -0.0065    0.0089   -0.0013   -0.0151   -0.0406
          66   -0.0006    0.0561    0.0605   -0.0186    0.0198   -0.0256   -0.0076   -0.0652
          67    0.0063    0.0022   -0.0100    0.0007    0.0053    0.0008   -0.0385    0.0164
          68   -0.0058   -0.0043    0.0044   -0.0001   -0.0069   -0.0004    0.0242   -0.0128
          69   -0.0093   -0.0138    0.0160   -0.0005    0.0325    0.0006    0.0698   -0.0285


   Root No.      33        34        35        36        37        38        39        40

                33 A      34 A      35 A      36 A      37 A      38 A      39 A      40 A   

                1155.6    1187.9    1220.8    1233.1    1254.5    1265.4    1341.7    1356.2
  
           1    0.0239   -0.0028   -0.0051    0.0067    0.0029    0.0069    0.0211    0.0037
           2   -0.0118   -0.0182    0.0351    0.0073   -0.0511    0.0171    0.0088    0.0138
           3    0.0167   -0.0063    0.0031   -0.0057    0.0174    0.0190   -0.0124    0.0028
           4   -0.0224    0.0019    0.0010   -0.0039    0.0049    0.0043    0.0026   -0.0280
           5   -0.0090   -0.0112    0.0119    0.0078   -0.0041   -0.0028   -0.0033    0.0559
           6   -0.0200    0.0014    0.0003   -0.0096    0.0156    0.0207   -0.0062    0.0459
           7    0.0039    0.0108   -0.0192   -0.0211   -0.0442   -0.0263   -0.0102    0.0056
           8   -0.0186    0.0113   -0.0113   -0.0083    0.0129   -0.0047   -0.0030   -0.0109
           9    0.0025    0.0009   -0.0006    0.0037   -0.0091   -0.0080    0.0035   -0.0069
          10    0.0020   -0.0020    0.0123    0.0303   -0.0045   -0.0447   -0.0117    0.0081
          11    0.0326    0.0066   -0.0144   -0.0011    0.0140   -0.0037    0.0016   -0.0108
          12    0.0030    0.0017   -0.0009    0.0050   -0.0064   -0.0088    0.0051   -0.0131
          13   -0.0105    0.0164   -0.0029    0.0048   -0.0021    0.0033   -0.0118   -0.0008
          14   -0.0007    0.0287   -0.0067    0.0078    0.0017    0.0008    0.0211    0.0040
          15    0.0012   -0.0184   -0.0121   -0.0013    0.0052   -0.0108    0.0463    0.0065
          16    0.0015   -0.0076   -0.0010   -0.0012    0.0008   -0.0022    0.0101    0.0020
          17   -0.0064   -0.0114   -0.0024    0.0013   -0.0016    0.0004    0.0099    0.0028
          18    0.0009    0.0026    0.0039    0.0003   -0.0016    0.0030    0.0035    0.0020
          19    0.0071    0.0045   -0.0010    0.0054    0.0021    0.0097    0.0028    0.0007
          20   -0.0023   -0.0097   -0.0196    0.0100    0.0060    0.0101   -0.0215   -0.0040
          21   -0.0221   -0.0014    0.0039   -0.0102   -0.0039   -0.0174   -0.0003   -0.0015
          22    0.0188   -0.0071    0.0189   -0.0093   -0.0008    0.0017    0.0095    0.0028
          23   -0.0015   -0.0174    0.0086   -0.0210    0.0090   -0.0212    0.0133    0.0002
          24   -0.0128    0.0115   -0.0194    0.0151   -0.0008    0.0054   -0.0192   -0.0040
          25   -0.0030    0.0000   -0.0003   -0.0025    0.0043    0.0061   -0.0017    0.0170
          26   -0.0034   -0.0019    0.0040    0.0019   -0.0012    0.0012    0.0021   -0.0240
          27    0.0030   -0.0024    0.0038    0.0057   -0.0074   -0.0081    0.0038   -0.0380
          28   -0.0100   -0.0184    0.0190   -0.0243    0.0318    0.0376   -0.0284    0.0080
          29    0.0498    0.0429   -0.0802    0.0074    0.1182   -0.0347   -0.0140   -0.0236
          30    0.0408    0.0046   -0.0140    0.0155   -0.0018   -0.0034    0.0211    0.0002
          31   -0.0301    0.0015   -0.0019   -0.0214    0.0279    0.0349   -0.0115    0.0633
          32    0.0467    0.0493   -0.0514   -0.0452    0.0041    0.0114    0.0032   -0.0641
          33   -0.0144    0.0031    0.0013    0.0026   -0.0018   -0.0030    0.0034   -0.0193
          34   -0.0746   -0.0011    0.0680    0.0700    0.1745    0.0603    0.0228    0.0260
          35   -0.0250    0.0169   -0.0162   -0.0024    0.0085   -0.0251   -0.0078   -0.0682
          36    0.0065   -0.0038    0.0030   -0.0015   -0.0068    0.0076    0.0058    0.0341
          37    0.0532   -0.0380    0.0568    0.0815    0.1801    0.0585    0.0136   -0.0126
          38   -0.0346    0.0117   -0.0137   -0.0195    0.0461    0.0138   -0.0228   -0.0387
          39   -0.0093    0.0021   -0.0039   -0.0067    0.0123    0.0052   -0.0108   -0.0252
          40    0.0461   -0.0125   -0.0254   -0.1026   -0.0316    0.1531    0.0283   -0.0762
          41    0.0539    0.0133   -0.0249    0.0148    0.0014   -0.0199    0.0173   -0.0562
          42   -0.0125   -0.0035    0.0075   -0.0042    0.0038    0.0011   -0.0067    0.0212
          43   -0.0571    0.0182   -0.0382   -0.1024   -0.0394    0.1634    0.0349   -0.0074
          44    0.0424    0.0054   -0.0204   -0.0062    0.0372    0.0164   -0.0031   -0.0027
          45    0.0102    0.0006   -0.0048    0.0017    0.0137    0.0033    0.0002   -0.0056
          46   -0.0382    0.0996   -0.0399    0.0469   -0.0034    0.0190   -0.0605   -0.0198
          47    0.0473    0.0023    0.0417   -0.0287    0.0061    0.0007   -0.0461   -0.0076
          48    0.1074   -0.0786    0.0923   -0.0788    0.0127   -0.0099   -0.0913   -0.0160
          49   -0.0287    0.0058   -0.0261    0.0089    0.0040   -0.0074   -0.0049   -0.0049
          50    0.0031    0.0227    0.0135   -0.0031    0.0007    0.0093   -0.1033   -0.0254
          51    0.0501    0.0103    0.0573   -0.0152   -0.0115    0.0234   -0.0479   -0.0016
          52   -0.0013    0.0061   -0.0011    0.0016    0.0002    0.0002    0.0082    0.0016
          53    0.0155   -0.0065    0.0168   -0.0087   -0.0019    0.0038   -0.0783   -0.0184
          54    0.0166   -0.0294    0.0138   -0.0116   -0.0008   -0.0001   -0.0489   -0.0107
          55   -0.0108   -0.0057   -0.0027    0.0029   -0.0029    0.0033   -0.0372   -0.0093
          56   -0.0096   -0.0330    0.0006   -0.0033   -0.0028   -0.0004   -0.0293   -0.0068
          57   -0.0072   -0.0561    0.0078   -0.0103   -0.0042    0.0000   -0.0760   -0.0175
          58   -0.0046    0.0099    0.0094   -0.0007   -0.0045    0.0078   -0.0635   -0.0125
          59    0.0008    0.0385    0.0259   -0.0034   -0.0068    0.0138   -0.0896   -0.0164
          60   -0.0023    0.0161    0.0158   -0.0011   -0.0064    0.0120   -0.0697   -0.0125
          61   -0.0204   -0.1782   -0.0956    0.0264   -0.0119    0.0043   -0.0248   -0.0056
          62    0.0138    0.0959    0.0787   -0.0479    0.0149   -0.0303    0.0418    0.0061
          63    0.0053    0.1996    0.0908   -0.0270    0.0056   -0.0103    0.0289    0.0059
          64   -0.0300   -0.0334    0.0099   -0.1054    0.0982   -0.0818   -0.0100   -0.0105
          65    0.0423    0.0082   -0.0234    0.0841   -0.0568    0.0750   -0.0140    0.0052
          66    0.0644    0.0291    0.0011    0.1122   -0.1061    0.0896    0.0144    0.0151
          67   -0.0358   -0.0221    0.0380    0.0184   -0.0053    0.0141    0.0123   -0.1394
          68    0.0204    0.0142   -0.0239   -0.0133    0.0055   -0.0051   -0.0080    0.0896
          69    0.0613    0.0387   -0.0674   -0.0349    0.0106   -0.0219   -0.0230    0.2570


   Root No.      41        42        43        44        45        46        47        48

                41 A      42 A      43 A      44 A      45 A      46 A      47 A      48 A   

                1389.2    1400.6    1406.6    1406.7    1411.5    1414.5    1426.7    1457.7
  
           1    0.0295   -0.0051   -0.0013    0.0045   -0.0059   -0.0186   -0.0098    0.0614
           2    0.0047   -0.0013   -0.0045    0.0047   -0.0002    0.0007    0.0011   -0.0018
           3   -0.0237   -0.0013    0.0012   -0.0035    0.0046    0.0153    0.0131   -0.0398
           4    0.0184    0.0447   -0.0073    0.0053    0.0011    0.0007   -0.0158   -0.0410
           5    0.0094    0.0137   -0.0089    0.0087   -0.0001   -0.0008   -0.0050   -0.0082
           6   -0.0173   -0.0356    0.0053   -0.0039   -0.0005    0.0005    0.0117    0.0223
           7   -0.0131   -0.0082    0.0013   -0.0017    0.0013    0.0047    0.0055   -0.0052
           8    0.0001   -0.0047    0.0212   -0.0210   -0.0014   -0.0075   -0.0153   -0.0259
           9    0.0069    0.0060   -0.0009    0.0011   -0.0006   -0.0025   -0.0039    0.0019
          10   -0.0145   -0.0099    0.0024   -0.0028    0.0014    0.0049    0.0060   -0.0046
          11    0.0017    0.0119    0.0113   -0.0133    0.0034    0.0113    0.0207    0.0322
          12    0.0067    0.0046   -0.0007    0.0009   -0.0007   -0.0024   -0.0033    0.0028
          13   -0.0202    0.0187    0.0033    0.0009   -0.0005   -0.0227   -0.0078    0.0163
          14   -0.0084    0.0049    0.0038    0.0033   -0.0018   -0.0181    0.0172   -0.0106
          15    0.0164   -0.0166    0.0000    0.0027   -0.0025    0.0005    0.0324   -0.0304
          16   -0.0043    0.0004   -0.0089   -0.0091   -0.0289    0.0089   -0.0049    0.0012
          17   -0.0117    0.0028    0.0098    0.0084    0.0000    0.0248   -0.0227    0.0092
          18   -0.0148    0.0040   -0.0119   -0.0126    0.0245    0.0174   -0.0250    0.0116
          19   -0.0080   -0.0023    0.0007   -0.0015    0.0023    0.0080    0.0106   -0.0236
          20   -0.0138    0.0069    0.0013   -0.0024    0.0010    0.0013   -0.0033   -0.0056
          21    0.0106    0.0025   -0.0006    0.0018   -0.0027   -0.0099   -0.0119    0.0255
          22   -0.0006   -0.0051   -0.0011    0.0000    0.0017    0.0090    0.0078   -0.0171
          23    0.0137   -0.0053   -0.0007    0.0012   -0.0012   -0.0022   -0.0017    0.0117
          24   -0.0016    0.0073    0.0009   -0.0006   -0.0021   -0.0087   -0.0122    0.0216
          25   -0.0057   -0.0134    0.0019   -0.0013   -0.0003   -0.0003    0.0040    0.0093
          26   -0.0042   -0.0068    0.0034   -0.0032    0.0000    0.0003    0.0024    0.0041
          27    0.0045    0.0122   -0.0004   -0.0002    0.0004    0.0005   -0.0033   -0.0084
          28   -0.0374   -0.0051    0.0029   -0.0058    0.0059    0.0183    0.0119   -0.0491
          29   -0.0055    0.0043    0.0131   -0.0138    0.0008    0.0003   -0.0002    0.0035
          30    0.0214   -0.0023   -0.0014    0.0033   -0.0035   -0.0101   -0.0016    0.0365
          31   -0.0281   -0.0489    0.0073   -0.0059    0.0003    0.0038    0.0196    0.0283
          32   -0.0098   -0.0131    0.0176   -0.0177    0.0006    0.0018    0.0067    0.0101
          33    0.0174    0.0360   -0.0061    0.0047    0.0003   -0.0013   -0.0149   -0.0322
          34    0.0298    0.0034   -0.0002    0.0029   -0.0047   -0.0159   -0.0123    0.0302
          35   -0.0191    0.0417   -0.1045    0.1017    0.0081    0.0367    0.0513    0.0519
          36    0.0176   -0.0266    0.0815   -0.0793   -0.0067   -0.0310   -0.0466   -0.0497
          37    0.0266    0.0413   -0.0037    0.0025    0.0000   -0.0028   -0.0136   -0.0251
          38   -0.0494    0.0150   -0.1004    0.0970    0.0109    0.0476    0.0684    0.0434
          39   -0.0287    0.0168   -0.0810    0.0787    0.0077    0.0352    0.0534    0.0477
          40    0.0218    0.0309   -0.0058    0.0050   -0.0002   -0.0020   -0.0103   -0.0218
          41   -0.0032   -0.0994   -0.0562    0.0710   -0.0228   -0.0709   -0.0904   -0.0542
          42    0.0080    0.0755    0.0430   -0.0538    0.0166    0.0518    0.0702    0.0581
          43    0.0290   -0.0011   -0.0001    0.0023   -0.0043   -0.0129   -0.0067    0.0339
          44   -0.0327   -0.1196   -0.0507    0.0643   -0.0192   -0.0583   -0.0723   -0.0618
          45   -0.0190   -0.0863   -0.0416    0.0523   -0.0158   -0.0487   -0.0648   -0.0611
          46    0.1365   -0.0965   -0.0215   -0.0109   -0.0168    0.1240   -0.0029   -0.0278
          47   -0.0031    0.0061   -0.0002   -0.0016    0.0021    0.0056   -0.0217    0.0178
          48    0.0112   -0.0023   -0.0066   -0.0072    0.0079    0.0357   -0.0502    0.0337
          49    0.0445   -0.0285   -0.0050   -0.0013   -0.0084    0.0267    0.0054   -0.0061
[...]
 T-DIPOLE    0.2492        C  2 --  H 11          +13.2% ( 48.9%)     0.2%
 TRAVEL      0.0932        C  2 --  C  4          +11.7% ( 46.0%)    34.0%
 RED. MASS   1.0988        C  2 --  C  3          +11.6% ( 45.8%)    12.4%
 EFF. MASS   5.5399        C  1 --  C  2          +11.2% ( 45.1%)    63.8%

 VIBRATION   43   43A       ATOM PAIR        ENERGY CONTRIBUTION    RADIAL
 FREQ.      1406.63        C  6 --  H 20          +20.8% ( 44.5%)     0.2%
 T-DIPOLE    0.0848        C  3 --  H 12          +14.8% ( 37.7%)     3.4%
 TRAVEL      0.1511        C  3 --  H 13          +14.1% ( 36.7%)     4.5%
 RED. MASS   0.1882        C  6 --  H 18          +10.9% ( 32.3%)     7.5%
 EFF. MASS   2.0991

 VIBRATION   44   44A       ATOM PAIR        ENERGY CONTRIBUTION    RADIAL
 FREQ.      1406.73        C  6 --  H 20          +19.3% ( 43.3%)     0.3%
 T-DIPOLE    0.0675        C  3 --  H 12          +14.1% ( 37.1%)     3.4%
 TRAVEL      0.1496        C  3 --  H 13          +13.3% ( 35.9%)     4.6%
 RED. MASS   0.1776        C  6 --  H 18          +10.1% ( 31.3%)     8.3%
 EFF. MASS   2.1415

 VIBRATION   45   45A       ATOM PAIR        ENERGY CONTRIBUTION    RADIAL
 FREQ.      1411.50        C  6 --  H 19          +44.1% ( 58.3%)     0.4%
 T-DIPOLE    0.0587        C  6 --  H 18          +33.4% ( 50.8%)     1.9%
 TRAVEL      0.1701        C  6 --  H 20          +13.9% ( 32.8%)    30.2%
 RED. MASS   0.3887        C  5 --  C  6           +5.4% ( 20.5%)    11.5%
 EFF. MASS   1.6518

 VIBRATION   46   46A       ATOM PAIR        ENERGY CONTRIBUTION    RADIAL
 FREQ.      1414.50        C  5 --  H 16          +10.9% ( 39.2%)     5.9%
 T-DIPOLE    0.0348        C  5 --  H 17          +10.5% ( 38.5%)     6.5%
 TRAVEL      0.1080        C  5 --  C  6          +10.3% ( 38.0%)    74.8%
 RED. MASS   0.3318        C  6 --  H 19           +9.9% ( 37.2%)     6.0%
 EFF. MASS   4.0872

 VIBRATION   47   47A       ATOM PAIR        ENERGY CONTRIBUTION    RADIAL
 FREQ.      1426.68        C  5 --  C  6          +12.2% ( 46.9%)    89.8%
 T-DIPOLE    0.1521        C  6 --  H 19           +7.4% ( 36.6%)     3.1%
 TRAVEL      0.0899        C  5 --  C  8           +7.4% ( 36.5%)    73.7%
 RED. MASS   0.5411        C  6 --  H 18           +6.8% ( 35.2%)     2.6%
 EFF. MASS   5.8536

 VIBRATION   48   48A       ATOM PAIR        ENERGY CONTRIBUTION    RADIAL
 FREQ.      1457.65        C  1 --  C  7          +12.9% ( 59.8%)    93.5%
 T-DIPOLE    0.1700        C  1 --  C  2          +12.1% ( 57.9%)    72.9%
 TRAVEL      0.0695        C  1 --  C  4          +10.1% ( 52.9%)    69.0%
 RED. MASS   1.6655        C  1 --  C  3           +9.4% ( 51.0%)    60.8%
 EFF. MASS   9.5745

 VIBRATION   49   49A       ATOM PAIR        ENERGY CONTRIBUTION    RADIAL
 FREQ.      1889.78        C  7 --  C  8          +43.6% ( 97.6%)    96.4%
 T-DIPOLE    0.0531        C  1 --  C  7          +14.5% ( 56.3%)    57.4%
 TRAVEL      0.0549        C  5 --  C  8          +14.0% ( 55.3%)    54.8%
 RED. MASS   5.3688        C  7 --  H 22          +13.3% ( 53.9%)     3.4%
 EFF. MASS  11.8199        C  8 --  H 21          +13.1% ( 53.5%)     3.6%

 VIBRATION   50   50A       ATOM PAIR        ENERGY CONTRIBUTION    RADIAL
 FREQ.      2913.71        C  2 --  H 11          +95.0% ( 99.8%)    99.9%
 T-DIPOLE    0.0573        C  2 --  C  4           +1.1% ( 10.8%)    16.9%
 TRAVEL      0.1259        C  2 --  C  3           +1.1% ( 10.8%)    16.4%
 RED. MASS   0.9206        C  2 --  O  9           +1.1% ( 10.8%)    10.0%
 EFF. MASS   1.4595

 VIBRATION   51   51A       ATOM PAIR        ENERGY CONTRIBUTION    RADIAL
 FREQ.      2937.97        C  1 --  H 10          +95.2% ( 99.7%)   100.0%
 T-DIPOLE    0.1175        C  1 --  C  3           +1.0% ( 10.4%)    13.6%
 TRAVEL      0.1260        C  1 --  C  4           +1.0% ( 10.4%)    13.7%
 RED. MASS   0.9177        C  1 --  C  2           +1.0% ( 10.4%)    33.9%
 EFF. MASS   1.4449

 VIBRATION   52   52A       ATOM PAIR        ENERGY CONTRIBUTION    RADIAL
 FREQ.      2944.80        C  5 --  H 17          +52.2% ( 75.1%)    96.8%
 T-DIPOLE    0.0192        C  5 --  H 16          +45.0% ( 69.7%)    96.1%
 TRAVEL      0.1218        C  5 --  C  6           +1.2% ( 11.2%)     0.0%
 RED. MASS   0.5164        C  5 --  C  8           +1.2% ( 11.1%)     0.2%
 EFF. MASS   1.5436

 VIBRATION   53   53A       ATOM PAIR        ENERGY CONTRIBUTION    RADIAL
 FREQ.      3024.03        C  5 --  H 16          +50.6% ( 70.2%)    98.1%
 T-DIPOLE    0.0400        C  5 --  H 17          +44.3% ( 65.7%)    97.3%
 TRAVEL      0.1315        C  7 --  H 22           +1.7% ( 13.0%)    99.9%
 RED. MASS   0.4521        C  8 --  H 21           +1.5% ( 12.0%)    99.7%
 EFF. MASS   1.2887

 VIBRATION   54   54A       ATOM PAIR        ENERGY CONTRIBUTION    RADIAL
 FREQ.      3031.10        C  7 --  H 22          +94.0% ( 98.2%)   100.0%
 T-DIPOLE    0.2920        C  8 --  H 21           +1.5% ( 12.6%)    99.0%
 TRAVEL      0.1221        C  1 --  C  7           +1.3% ( 11.6%)    14.5%
 RED. MASS   0.8671        C  7 --  C  8           +1.3% ( 11.6%)    39.5%
 EFF. MASS   1.4932

 VIBRATION   55   55A       ATOM PAIR        ENERGY CONTRIBUTION    RADIAL
 FREQ.      3036.50        C  8 --  H 21          +55.0% ( 76.1%)   100.0%
 T-DIPOLE    0.1571        C  3 --  H 12          +16.4% ( 41.6%)    97.3%
 TRAVEL      0.1205        C  3 --  H 13          +14.1% ( 38.6%)    96.5%
 RED. MASS   0.3655        C  4 --  H 15           +4.9% ( 22.7%)    97.1%
 EFF. MASS   1.5283

 VIBRATION   56   56A       ATOM PAIR        ENERGY CONTRIBUTION    RADIAL
 FREQ.      3038.03        C  8 --  H 21          +33.1% ( 59.3%)   100.0%
 T-DIPOLE    0.1595        C  4 --  H 15          +20.4% ( 46.6%)    97.1%
 TRAVEL      0.1202        C  4 --  H 14          +18.6% ( 44.6%)    96.7%
 RED. MASS   0.2279        C  3 --  H 12          +12.0% ( 35.8%)    96.9%
 EFF. MASS   1.5352        C  3 --  H 13          +11.9% ( 35.5%)    96.9%

 VIBRATION   57   57A       ATOM PAIR        ENERGY CONTRIBUTION    RADIAL
 FREQ.      3039.97        C  4 --  H 15          +25.3% ( 52.4%)    97.1%
 T-DIPOLE    0.1725        C  4 --  H 14          +23.3% ( 50.2%)    96.7%
 TRAVEL      0.1197        C  3 --  H 12          +22.3% ( 49.1%)    97.0%
 RED. MASS   0.2359        C  3 --  H 13          +20.9% ( 47.5%)    96.7%
 EFF. MASS   1.5486

 VIBRATION   58   58A       ATOM PAIR        ENERGY CONTRIBUTION    RADIAL
 FREQ.      3081.10        C  6 --  H 19          +63.4% ( 82.1%)    98.6%
 T-DIPOLE    0.0098        C  6 --  H 18          +29.7% ( 56.2%)    92.7%
 TRAVEL      0.1207        C  6 --  H 20           +5.7% ( 24.6%)    58.6%
 RED. MASS   0.5209        C  5 --  C  6           +1.0% ( 10.2%)     0.0%
 EFF. MASS   1.5010

 VIBRATION   59   59A       ATOM PAIR        ENERGY CONTRIBUTION    RADIAL
 FREQ.      3085.89        C  6 --  H 20          +58.9% ( 79.1%)    98.3%
 T-DIPOLE    0.0097        C  6 --  H 18          +35.3% ( 61.3%)    94.3%
 TRAVEL      0.1205        C  6 --  H 19           +4.4% ( 21.7%)    50.1%
 RED. MASS   0.5013        C  5 --  C  6           +1.0% ( 10.3%)     0.0%
 EFF. MASS   1.5041

 VIBRATION   60   60A       ATOM PAIR        ENERGY CONTRIBUTION    RADIAL
 FREQ.      3099.64        C  3 --  H 13          +41.2% ( 63.6%)    97.4%
 T-DIPOLE    0.1615        C  3 --  H 12          +37.8% ( 60.9%)    96.9%
 TRAVEL      0.1312        C  4 --  H 14          +10.1% ( 31.5%)    97.6%
 RED. MASS   0.3319        C  4 --  H 15           +9.2% ( 30.0%)    97.1%
 EFF. MASS   1.2635

 VIBRATION   61   61A       ATOM PAIR        ENERGY CONTRIBUTION    RADIAL
 FREQ.      3103.13        C  4 --  H 14          +41.3% ( 63.8%)    97.3%
 T-DIPOLE    0.0879        C  4 --  H 15          +37.4% ( 60.7%)    96.7%
 TRAVEL      0.1294        C  3 --  H 13          +10.0% ( 31.4%)    97.0%
 RED. MASS   0.3323        C  3 --  H 12           +9.2% ( 30.1%)    96.5%
 EFF. MASS   1.2972

 VIBRATION   62   62A       ATOM PAIR        ENERGY CONTRIBUTION    RADIAL
 FREQ.      3182.96        C  6 --  H 20          +34.5% ( 56.5%)    97.3%
 T-DIPOLE    0.0204        C  6 --  H 18          +34.3% ( 56.3%)    97.3%
 TRAVEL      0.1366        C  6 --  H 19          +30.9% ( 53.5%)    96.7%
 RED. MASS   0.3277        C  5 --  C  6           +0.3% (  5.1%)    99.8%
 EFF. MASS   1.1360

 VIBRATION   63   63A       ATOM PAIR        ENERGY CONTRIBUTION    RADIAL
 FREQ.      3904.29        O  9 --  H 23          +99.6% (100.0%)   100.0%
 T-DIPOLE    0.1961        C  2 --  O  9           +0.4% (  6.2%)     6.6%
 TRAVEL      0.1117
 RED. MASS   0.9481
 EFF. MASS   1.3849

 SYMMETRY NUMBER FOR POINT-GROUP C1  =  1


          SYSTEM IS A GROUND STATE


    NULL



          MOLECULE IS NOT LINEAR

          THERE ARE 63 GENUINE VIBRATIONS IN THIS SYSTEM
          THIS THERMODYNAMICS CALCULATION IS LIMITED TO
          MOLECULES WHICH HAVE NO INTERNAL ROTATIONS




                    CALCULATED THERMODYNAMIC PROPERTIES
                                          *
   TEMP. (K)   PARTITION FUNCTION   H.O.F.    ENTHALPY  HEAT CAPACITY ENTROPY
                                   KCAL/MOL   CAL/MOLE    CAL/K/MOL  CAL/K/MOL


 298.00  VIB.     0.2568D+04                  4745.8735    31.4781    31.5269
         ROT.     0.6601D+06                   888.2813     2.9808    29.6098
         INT.     0.1695D+10                  5634.1548    34.4589    61.1367
         TRA.     0.1371D+28                  1480.4688     4.9680    40.4094
         TOT.                      -41.845    7114.6236    39.4269   101.5461

 200.00  VIB.     0.1778D+03                  2217.0811    20.5954    21.3808
         ROT.     0.3630D+06                   596.1620     2.9808    28.4211
         INT.     0.6455D+08                  2813.2431    23.5762    49.8019
         TRA.     0.7536D+27                   993.6033     4.9680    38.4282
         TOT.                      -45.153    3806.8463    28.5443    88.2301

 210.00  VIB.     0.2348D+03                  2427.8550    21.5652    22.4090
         ROT.     0.3905D+06                   625.9700     2.9808    28.5666
         INT.     0.9170D+08                  3053.8251    24.5460    50.9755
         TRA.     0.8108D+27                  1043.2834     4.9680    38.6706
         TOT.                      -44.863    4097.1085    29.5140    89.6461

 220.00  VIB.     0.3095D+03                  2648.5048    22.5707    23.4353
         ROT.     0.4187D+06                   655.7781     2.9808    28.7052
         INT.     0.1296D+09                  3304.2829    25.5515    52.1405
         TRA.     0.8694D+27                  1092.9636     4.9680    38.9017
         TOT.                      -44.563    4397.2465    30.5196    91.0422

 230.00  VIB.     0.4073D+03                  2879.3892    23.6121    24.4614
         ROT.     0.4476D+06                   685.5862     2.9808    28.8377
         INT.     0.1823D+09                  3564.9754    26.5929    53.2991
         TRA.     0.9293D+27                  1142.6437     4.9680    39.1226
         TOT.                      -44.252    4707.6191    31.5609    92.4217

 240.00  VIB.     0.5353D+03                  3120.8623    24.6882    25.4889
         ROT.     0.4771D+06                   715.3943     2.9808    28.9646
         INT.     0.2554D+09                  3836.2566    27.6690    54.4535
         TRA.     0.9906D+27                  1192.3239     4.9680    39.3340
         TOT.                      -43.931    5028.5805    32.6370    93.7875

 250.00  VIB.     0.7027D+03                  3373.2629    25.7972    26.5191
         ROT.     0.5073D+06                   745.2024     2.9808    29.0863
         INT.     0.3565D+09                  4118.4653    28.7780    55.6054
         TRA.     0.1053D+28                  1242.0041     4.9680    39.5368
         TOT.                      -43.599    5360.4694    33.7460    95.1422

 260.00  VIB.     0.9216D+03                  3636.9061    26.9362    27.5530
         ROT.     0.5380D+06                   775.0105     2.9808    29.2032
         INT.     0.4958D+09                  4411.9167    29.9170    56.7562
         TRA.     0.1117D+28                  1291.6842     4.9680    39.7317
         TOT.                      -43.256    5703.6009    34.8851    96.4879

 270.00  VIB.     0.1208D+04                  3912.0771    28.1021    28.5914
         ROT.     0.5693D+06                   804.8186     2.9808    29.3157
         INT.     0.6876D+09                  4716.8957    31.0829    57.9071
         TRA.     0.1182D+28                  1341.3644     4.9680    39.9191
         TOT.                      -42.902    6058.2601    36.0510    97.8262

 280.00  VIB.     0.1582D+04                  4199.0264    29.2913    29.6348
         ROT.     0.6012D+06                   834.6267     2.9808    29.4241
         INT.     0.9510D+09                  5033.6531    32.2721    59.0589
         TRA.     0.1248D+28                  1391.0445     4.9680    40.0998
         TOT.                      -42.535    6424.6977    37.2401    99.1587

 290.00  VIB.     0.2071D+04                  4497.9676    30.4999    30.6837
         ROT.     0.6337D+06                   864.4348     2.9808    29.5287
         INT.     0.1312D+10                  5362.4024    33.4807    60.2124
         TRA.     0.1316D+28                  1440.7247     4.9680    40.2742
         TOT.                      -42.157    6803.1271    38.4487   100.4866

 300.00  VIB.     0.2710D+04                  4809.0755    31.7240    31.7383
         ROT.     0.6668D+06                   894.2429     2.9808    29.6297
         INT.     0.1807D+10                  5703.3184    34.7048    61.3680
         TRA.     0.1384D+28                  1490.4049     4.9680    40.4426
         TOT.                      -41.766    7193.7233    39.6728   101.8106

 310.00  VIB.     0.3545D+04                  5132.4863    32.9598    32.7987
         ROT.     0.7004D+06                   924.0510     2.9808    29.7275
         INT.     0.2483D+10                  6056.5373    35.9406    62.5261
         TRA.     0.1454D+28                  1540.0850     4.9680    40.6055
         TOT.                      -41.363    7596.6224    40.9086   103.1316

 320.00  VIB.     0.4638D+04                  5468.2985    34.2036    33.8647
         ROT.     0.7346D+06                   953.8591     2.9808    29.8221
         INT.     0.3407D+10                  6422.1576    37.1845    63.6868
         TRA.     0.1525D+28                  1589.7652     4.9680    40.7632
         TOT.                      -40.948    8011.9228    42.1525   104.4500

 330.00  VIB.     0.6069D+04                  5816.5741    35.4519    34.9363
         ROT.     0.7693D+06                   983.6672     2.9808    29.9138
         INT.     0.4668D+10                  6800.2413    38.4327    64.8501
         TRA.     0.1597D+28                  1639.4454     4.9680    40.9161
         TOT.                      -40.520    8439.6867    43.4007   105.7662

 340.00  VIB.     0.7940D+04                  6177.3407    36.7013    36.0132
         ROT.     0.8045D+06                  1013.4753     2.9808    30.0028
         INT.     0.6388D+10                  7190.8160    39.6821    66.0160
         TRA.     0.1670D+28                  1689.1255     4.9680    41.0644
         TOT.                      -40.080    8879.9416    44.6502   107.0804

 350.00  VIB.     0.1039D+05                  6550.5943    37.9488    37.0951
         ROT.     0.8403D+06                  1043.2834     2.9808    30.0892
         INT.     0.8731D+10                  7593.8778    40.9296    67.1843
         TRA.     0.1745D+28                  1738.8057     4.9680    41.2084
         TOT.                      -39.627    9332.6834    45.8977   108.3927

 360.00  VIB.     0.1360D+05                  6936.3017    39.1916    38.1816
         ROT.     0.8765D+06                  1073.0915     2.9808    30.1732
         INT.     0.1192D+11                  8009.3932    42.1724    68.3548
         TRA.     0.1820D+28                  1788.4859     4.9680    41.3484
         TOT.                      -39.162    9797.8790    47.1405   109.7032

 370.00  VIB.     0.1781D+05                  7334.4030    40.4272    39.2723
         ROT.     0.9133D+06                  1102.8996     2.9808    30.2549
         INT.     0.1626D+11                  8437.3026    43.4081    69.5271
         TRA.     0.1896D+28                  1838.1660     4.9680    41.4845
         TOT.                      -38.684   10275.4687    48.3761   111.0116

 380.00  VIB.     0.2332D+05                  7744.8152    41.6535    40.3667
         ROT.     0.9506D+06                  1132.7077     2.9808    30.3344
         INT.     0.2217D+11                  8877.5229    44.6343    70.7011
         TRA.     0.1974D+28                  1887.8462     4.9680    41.6170
         TOT.                      -38.194   10765.3691    49.6023   112.3180

 390.00  VIB.     0.3055D+05                  8167.4342    42.8683    41.4644
         ROT.     0.9883D+06                  1162.5158     2.9808    30.4118
         INT.     0.3020D+11                  9329.9500    45.8491    71.8762
         TRA.     0.2052D+28                  1937.5263     4.9680    41.7460
         TOT.                      -37.692   11267.4763    50.8171   113.6222

 400.00  VIB.     0.4004D+05                  8602.1379    44.0701    42.5649
         ROT.     0.1027D+07                  1192.3239     2.9808    30.4873
         INT.     0.4110D+11                  9794.4618    47.0509    73.0522
         TRA.     0.2131D+28                  1987.2065     4.9680    41.8718
         TOT.                      -37.178   11781.6683    52.0190   114.9240

   *: NOTE: HEATS OF FORMATION ARE RELATIVE TO THE
            ELEMENTS IN THEIR STANDARD STATE AT 298K
              (=  Standard Enthalpy of Formation).

            Hvib:  Zero-point energy is not included.
                   frequencies of less than zero cm-1 are not included.
            Hrot = (3/2)RT
            Htra = (3/2)RT + pV = (5/2)RT

            Heat capacity is Cp, not Cv

           For more information, see: HTTP://OpenMOPAC.net/Manual/thermochemistry.html


           FORCE CONSTANT IN CARTESIAN COORDINATES (Millidynes/A)

    ATOM   CHEMICAL       X               Y               Z
   NUMBER   SYMBOL  FORCE CONSTANT  FORCE CONSTANT  FORCE CONSTANT

      1       C       10.002641        6.380540        8.899359
      2       C        9.672090        6.295431        9.179726
      3       C        5.859889        9.596857        8.705032
      4       C        5.968732        9.673012        8.699338
      5       C        8.331784        8.442305        8.636912
      6       C        8.268241        8.200848        8.382051
      7       C        6.614561       13.015784        7.671395
      8       C        6.441938       13.007279        7.691146
      9       O        4.536202        7.715378        4.881968
     10       H        2.018284        0.648468        3.447368
     11       H        2.184814        0.644694        3.230567
     12       H        0.680165        2.238232        3.693701
     13       H        0.681532        2.273889        3.676953
     14       H        0.686326        2.234915        3.730262
     15       H        0.687372        2.301270        3.639298
     16       H        0.699518        4.219432        1.477081
     17       H        4.238368        0.831215        1.205784
     18       H        4.604275        0.853239        1.322290
     19       H        0.673200        4.661965        1.446900
     20       H        2.746723        0.703766        3.338917
     21       H        0.660493        4.283747        1.262968
     22       H        0.661716        4.272495        1.254112
     23       H        2.312941        6.477854        0.690273



 TOTAL CPU TIME:             3.31 SECONDS

 == MOPAC DONE ==
