 *******************************************************************************
 ** Site#: 14399           For non-commercial use only        Version 13.159M **
 *******************************************************************************
 ** Cite this work as: MOPAC2012, James J. P. Stewart, Stewart Computational  **
 ** Chemistry, Version 13.159M web: HTTP://OpenMOPAC.net  Days remaining:   6 **
 *******************************************************************************
 **                                                                           **
 **                                MOPAC2012                                  **
 **                                                                           **
 *******************************************************************************

                            PM3 CALCULATION RESULTS


 *******************************************************************************
 *  CALCULATION DONE:                                Mon Jun  2 11:10:32 2014  *
 *  PM3      - The PM3 Hamiltonian to be used
 *  PRECISE  - CRITERIA TO BE INCREASED BY 100 TIMES
 *  NOSYM    - POINT-GROUP SYMMETRY SET TO C1
 *  T=       - A TIME OF 172800.0 SECONDS REQUESTED
 *  DUMP=N   - RESTART FILE WRITTEN EVERY  7200.000 SECONDS
 *******************************************************************************
pm3  precise nosym
 InChI=1S/C10H14/c1-3-8-7(2)9-5-4-6-10(8)9/h3-5,7-10H,1,6H2,2H3

   ATOM   CHEMICAL          X               Y               Z
  NUMBER   SYMBOL      (ANGSTROMS)     (ANGSTROMS)     (ANGSTROMS)
 
     1       C          0.32760000  *  -1.24060000  *  -0.17990000  *
     2       C         -0.32140000  *   0.74620000  *  -0.72210000  *
     3       C          0.83420000  *  -0.13110000  *  -1.09870000  *
     4       C         -0.74240000  *  -0.23460000  *   0.37760000  *
     5       C          1.47770000  *  -1.60360000  *   0.76670000  *
     6       C         -0.02790000  *   2.17040000  *  -0.24420000  *
     7       C          2.18980000  *   0.19000000  *  -0.55480000  *
     8       C          2.53500000  *  -0.60720000  *   0.44440000  *
     9       C         -2.16550000  *  -0.71570000  *   0.28540000  *
    10       C         -3.19200000  *   0.08430000  *   0.58140000  *
    11       H         -0.08610000  *  -2.10980000  *  -0.74540000  *
    12       H         -1.05190000  *   0.78210000  *  -1.56720000  *
    13       H          0.86720000  *  -0.42250000  *  -2.17470000  *
    14       H         -0.50330000  *   0.11830000  *   1.41000000  *
    15       H          1.86440000  *  -2.62480000  *   0.54690000  *
    16       H          1.18500000  *  -1.54870000  *   1.83980000  *
    17       H          0.66140000  *   2.19210000  *   0.63060000  *
    18       H          0.42850000  *   2.76000000  *  -1.07110000  *
    19       H         -0.97750000  *   2.66830000  *   0.05550000  *
    20       H          3.49030000  *  -0.54240000  *   0.96140000  *
    21       H          2.82740000  *   0.98420000  *  -0.93790000  *
    22       H         -2.37400000  *  -1.74280000  *  -0.01090000  *
    23       H         -4.21230000  *  -0.28840000  *   0.51540000  *
    24       H         -3.03450000  *   1.11610000  *   0.89190000  *
 


          CARTESIAN COORDINATES 

    NO.       ATOM         X         Y         Z

     1         C        0.3276   -1.2406   -0.1799
     2         C       -0.3214    0.7462   -0.7221
     3         C        0.8342   -0.1311   -1.0987
     4         C       -0.7424   -0.2346    0.3776
     5         C        1.4777   -1.6036    0.7667
     6         C       -0.0279    2.1704   -0.2442
     7         C        2.1898    0.1900   -0.5548
     8         C        2.5350   -0.6072    0.4444
     9         C       -2.1655   -0.7157    0.2854
    10         C       -3.1920    0.0843    0.5814
    11         H       -0.0861   -2.1098   -0.7454
    12         H       -1.0519    0.7821   -1.5672
    13         H        0.8672   -0.4225   -2.1747
    14         H       -0.5033    0.1183    1.4100
    15         H        1.8644   -2.6248    0.5469
    16         H        1.1850   -1.5487    1.8398
    17         H        0.6614    2.1921    0.6306
    18         H        0.4285    2.7600   -1.0711
    19         H       -0.9775    2.6683    0.0555
    20         H        3.4903   -0.5424    0.9614
    21         H        2.8274    0.9842   -0.9379
    22         H       -2.3740   -1.7428   -0.0109
    23         H       -4.2123   -0.2884    0.5154
    24         H       -3.0345    1.1161    0.8919

  H: (PM3): J. J. P. STEWART, J. COMP. CHEM. 10, 209 (1989).
  C: (PM3): J. J. P. STEWART, J. COMP. CHEM. 10, 209 (1989).

           Empirical Formula: C10 H14  =    24 atoms



      MOLECULAR POINT GROUP   :   C1  


      RHF CALCULATION, NO. OF DOUBLY OCCUPIED LEVELS =   27

      Geometry optimization using EF

          DIAGONAL MATRIX USED AS START HESSIAN

 CYCLE:     1 TIME:   0.011 TIME LEFT:  2.00D  GRAD.:   109.236 HEAT: 34.83617
 CYCLE:     2 TIME:   0.015 TIME LEFT:  2.00D  GRAD.:   130.818 HEAT: 34.46335
 CYCLE:     3 TIME:   0.015 TIME LEFT:  2.00D  GRAD.:    65.229 HEAT: 31.90500
 CYCLE:     4 TIME:   0.018 TIME LEFT:  2.00D  GRAD.:    31.439 HEAT: 31.03550
 CYCLE:     5 TIME:   0.009 TIME LEFT:  2.00D  GRAD.:    39.829 HEAT: 30.79363
 CYCLE:     6 TIME:   0.008 TIME LEFT:  2.00D  GRAD.:    27.081 HEAT: 30.34729
 CYCLE:     7 TIME:   0.015 TIME LEFT:  2.00D  GRAD.:    19.185 HEAT: 30.13600
 CYCLE:     8 TIME:   0.009 TIME LEFT:  2.00D  GRAD.:    26.491 HEAT: 30.06304
 CYCLE:     9 TIME:   0.008 TIME LEFT:  2.00D  GRAD.:    22.833 HEAT: 29.92716
 CYCLE:    10 TIME:   0.014 TIME LEFT:  2.00D  GRAD.:    11.206 HEAT: 29.81792
 CYCLE:    11 TIME:   0.014 TIME LEFT:  2.00D  GRAD.:     8.188 HEAT: 29.78799
 CYCLE:    12 TIME:   0.008 TIME LEFT:  2.00D  GRAD.:    10.073 HEAT: 29.78111
 CYCLE:    13 TIME:   0.008 TIME LEFT:  2.00D  GRAD.:     7.377 HEAT: 29.75469
 CYCLE:    14 TIME:   0.014 TIME LEFT:  2.00D  GRAD.:     6.395 HEAT: 29.74311
 CYCLE:    15 TIME:   0.008 TIME LEFT:  2.00D  GRAD.:     6.566 HEAT: 29.73490
 CYCLE:    16 TIME:   0.008 TIME LEFT:  2.00D  GRAD.:     5.124 HEAT: 29.72214
 CYCLE:    17 TIME:   0.008 TIME LEFT:  2.00D  GRAD.:     3.940 HEAT: 29.70702
 CYCLE:    18 TIME:   0.008 TIME LEFT:  2.00D  GRAD.:     4.812 HEAT: 29.68805
 CYCLE:    19 TIME:   0.008 TIME LEFT:  2.00D  GRAD.:     7.630 HEAT: 29.67434
 CYCLE:    20 TIME:   0.014 TIME LEFT:  2.00D  GRAD.:     8.561 HEAT: 29.66958
 CYCLE:    21 TIME:   0.014 TIME LEFT:  2.00D  GRAD.:     4.584 HEAT: 29.64983
 CYCLE:    22 TIME:   0.008 TIME LEFT:  2.00D  GRAD.:     4.820 HEAT: 29.64067
 CYCLE:    23 TIME:   0.008 TIME LEFT:  2.00D  GRAD.:     4.669 HEAT: 29.62613
 CYCLE:    24 TIME:   0.008 TIME LEFT:  2.00D  GRAD.:     4.762 HEAT: 29.60533
 CYCLE:    25 TIME:   0.008 TIME LEFT:  2.00D  GRAD.:     5.502 HEAT: 29.58295
 CYCLE:    26 TIME:   0.008 TIME LEFT:  2.00D  GRAD.:     4.173 HEAT: 29.55750
 CYCLE:    27 TIME:   0.008 TIME LEFT:  2.00D  GRAD.:     4.924 HEAT: 29.54552
 CYCLE:    28 TIME:   0.007 TIME LEFT:  2.00D  GRAD.:     3.248 HEAT: 29.53480
 CYCLE:    29 TIME:   0.008 TIME LEFT:  2.00D  GRAD.:     3.643 HEAT: 29.52281
 CYCLE:    30 TIME:   0.008 TIME LEFT:  2.00D  GRAD.:     3.619 HEAT: 29.50533
 CYCLE:    31 TIME:   0.008 TIME LEFT:  2.00D  GRAD.:     3.830 HEAT: 29.47914
 CYCLE:    32 TIME:   0.008 TIME LEFT:  2.00D  GRAD.:     4.864 HEAT: 29.46317
 CYCLE:    33 TIME:   0.008 TIME LEFT:  2.00D  GRAD.:     3.778 HEAT: 29.44322
 CYCLE:    34 TIME:   0.008 TIME LEFT:  2.00D  GRAD.:     3.789 HEAT: 29.42530
 CYCLE:    35 TIME:   0.008 TIME LEFT:  2.00D  GRAD.:     3.336 HEAT: 29.41452
 CYCLE:    36 TIME:   0.008 TIME LEFT:  2.00D  GRAD.:     3.350 HEAT: 29.40245
 CYCLE:    37 TIME:   0.008 TIME LEFT:  2.00D  GRAD.:     2.513 HEAT: 29.38557
 CYCLE:    38 TIME:   0.008 TIME LEFT:  2.00D  GRAD.:     2.523 HEAT: 29.37363
 CYCLE:    39 TIME:   0.008 TIME LEFT:  2.00D  GRAD.:     2.710 HEAT: 29.35875
 CYCLE:    40 TIME:   0.008 TIME LEFT:  2.00D  GRAD.:     2.354 HEAT: 29.34370
 CYCLE:    41 TIME:   0.008 TIME LEFT:  2.00D  GRAD.:     1.905 HEAT: 29.33564
 CYCLE:    42 TIME:   0.008 TIME LEFT:  2.00D  GRAD.:     1.704 HEAT: 29.33003
 CYCLE:    43 TIME:   0.008 TIME LEFT:  2.00D  GRAD.:     1.548 HEAT: 29.32488
 CYCLE:    44 TIME:   0.008 TIME LEFT:  2.00D  GRAD.:     1.118 HEAT: 29.32135
 CYCLE:    45 TIME:   0.008 TIME LEFT:  2.00D  GRAD.:     1.062 HEAT: 29.31909
 CYCLE:    46 TIME:   0.008 TIME LEFT:  2.00D  GRAD.:     0.894 HEAT: 29.31710
 CYCLE:    47 TIME:   0.008 TIME LEFT:  2.00D  GRAD.:     0.880 HEAT: 29.31501
 CYCLE:    48 TIME:   0.008 TIME LEFT:  2.00D  GRAD.:     0.686 HEAT: 29.31366
 CYCLE:    49 TIME:   0.008 TIME LEFT:  2.00D  GRAD.:     0.587 HEAT: 29.31269
 CYCLE:    50 TIME:   0.008 TIME LEFT:  2.00D  GRAD.:     0.526 HEAT: 29.31188
 CYCLE:    51 TIME:   0.008 TIME LEFT:  2.00D  GRAD.:     0.546 HEAT: 29.31114
 CYCLE:    52 TIME:   0.008 TIME LEFT:  2.00D  GRAD.:     0.620 HEAT: 29.31005
 CYCLE:    53 TIME:   0.008 TIME LEFT:  2.00D  GRAD.:     0.684 HEAT: 29.30870
 CYCLE:    54 TIME:   0.008 TIME LEFT:  2.00D  GRAD.:     0.646 HEAT: 29.30749
 CYCLE:    55 TIME:   0.008 TIME LEFT:  2.00D  GRAD.:     0.515 HEAT: 29.30643
 CYCLE:    56 TIME:   0.008 TIME LEFT:  2.00D  GRAD.:     0.406 HEAT: 29.30573
 CYCLE:    57 TIME:   0.008 TIME LEFT:  2.00D  GRAD.:     0.319 HEAT: 29.30529
 CYCLE:    58 TIME:   0.008 TIME LEFT:  2.00D  GRAD.:     0.270 HEAT: 29.30500
 CYCLE:    59 TIME:   0.008 TIME LEFT:  2.00D  GRAD.:     0.269 HEAT: 29.30478
 CYCLE:    60 TIME:   0.008 TIME LEFT:  2.00D  GRAD.:     0.287 HEAT: 29.30449
 CYCLE:    61 TIME:   0.008 TIME LEFT:  2.00D  GRAD.:     0.287 HEAT: 29.30417
 CYCLE:    62 TIME:   0.008 TIME LEFT:  2.00D  GRAD.:     0.343 HEAT: 29.30376
 CYCLE:    63 TIME:   0.008 TIME LEFT:  2.00D  GRAD.:     0.325 HEAT: 29.30351
 CYCLE:    64 TIME:   0.008 TIME LEFT:  2.00D  GRAD.:     0.393 HEAT: 29.30296
 CYCLE:    65 TIME:   0.008 TIME LEFT:  2.00D  GRAD.:     0.355 HEAT: 29.30265
 CYCLE:    66 TIME:   0.008 TIME LEFT:  2.00D  GRAD.:     0.386 HEAT: 29.30181
 CYCLE:    67 TIME:   0.008 TIME LEFT:  2.00D  GRAD.:     0.387 HEAT: 29.30148
 CYCLE:    68 TIME:   0.008 TIME LEFT:  2.00D  GRAD.:     0.943 HEAT: 29.29894
 CYCLE:    69 TIME:   0.008 TIME LEFT:  2.00D  GRAD.:     0.999 HEAT: 29.29735
 CYCLE:    70 TIME:   0.009 TIME LEFT:  2.00D  GRAD.:     3.630 HEAT: 29.29314
 CYCLE:    71 TIME:   0.008 TIME LEFT:  2.00D  GRAD.:     1.712 HEAT: 29.28636
 CYCLE:    72 TIME:   0.008 TIME LEFT:  2.00D  GRAD.:     1.733 HEAT: 29.27937
 CYCLE:    73 TIME:   0.008 TIME LEFT:  2.00D  GRAD.:     6.043 HEAT: 29.27796
 CYCLE:    74 TIME:   0.008 TIME LEFT:  2.00D  GRAD.:     1.849 HEAT: 29.26595
 CYCLE:    75 TIME:   0.008 TIME LEFT:  2.00D  GRAD.:     1.779 HEAT: 29.25877
 CYCLE:    76 TIME:   0.008 TIME LEFT:  2.00D  GRAD.:     3.325 HEAT: 29.24270
 CYCLE:    77 TIME:   0.008 TIME LEFT:  2.00D  GRAD.:     2.278 HEAT: 29.23647
 CYCLE:    78 TIME:   0.008 TIME LEFT:  2.00D  GRAD.:     1.453 HEAT: 29.22851
 CYCLE:    79 TIME:   0.008 TIME LEFT:  2.00D  GRAD.:     3.085 HEAT: 29.22356
 CYCLE:    80 TIME:   0.008 TIME LEFT:  2.00D  GRAD.:     2.389 HEAT: 29.21677
 CYCLE:    81 TIME:   0.008 TIME LEFT:  2.00D  GRAD.:     4.271 HEAT: 29.21580
 CYCLE:    82 TIME:   0.008 TIME LEFT:  2.00D  GRAD.:     1.589 HEAT: 29.20746
 CYCLE:    83 TIME:   0.008 TIME LEFT:  2.00D  GRAD.:     1.881 HEAT: 29.20436
 CYCLE:    84 TIME:   0.008 TIME LEFT:  2.00D  GRAD.:     1.802 HEAT: 29.20058
 CYCLE:    85 TIME:   0.008 TIME LEFT:  2.00D  GRAD.:     2.061 HEAT: 29.19613
 CYCLE:    86 TIME:   0.008 TIME LEFT:  2.00D  GRAD.:     0.925 HEAT: 29.19414
 CYCLE:    87 TIME:   0.008 TIME LEFT:  2.00D  GRAD.:     0.701 HEAT: 29.19225
 CYCLE:    88 TIME:   0.008 TIME LEFT:  2.00D  GRAD.:     0.618 HEAT: 29.19145
 CYCLE:    89 TIME:   0.008 TIME LEFT:  2.00D  GRAD.:     0.667 HEAT: 29.19030
 CYCLE:    90 TIME:   0.008 TIME LEFT:  2.00D  GRAD.:     0.683 HEAT: 29.18975
 CYCLE:    91 TIME:   0.008 TIME LEFT:  2.00D  GRAD.:     0.691 HEAT: 29.18887
 CYCLE:    92 TIME:   0.008 TIME LEFT:  2.00D  GRAD.:     0.480 HEAT: 29.18850
 CYCLE:    93 TIME:   0.008 TIME LEFT:  2.00D  GRAD.:     0.447 HEAT: 29.18800
 CYCLE:    94 TIME:   0.008 TIME LEFT:  2.00D  GRAD.:     0.543 HEAT: 29.18749
 CYCLE:    95 TIME:   0.008 TIME LEFT:  2.00D  GRAD.:     0.556 HEAT: 29.18693
 CYCLE:    96 TIME:   0.008 TIME LEFT:  2.00D  GRAD.:     0.600 HEAT: 29.18600
 CYCLE:    97 TIME:   0.008 TIME LEFT:  2.00D  GRAD.:     0.635 HEAT: 29.18531
 CYCLE:    98 TIME:   0.008 TIME LEFT:  2.00D  GRAD.:     1.000 HEAT: 29.18377
 CYCLE:    99 TIME:   0.008 TIME LEFT:  2.00D  GRAD.:     0.991 HEAT: 29.18278
 CYCLE:   100 TIME:   0.008 TIME LEFT:  2.00D  GRAD.:     0.896 HEAT: 29.18146
 CYCLE:   101 TIME:   0.008 TIME LEFT:  2.00D  GRAD.:     0.475 HEAT: 29.18089
 CYCLE:   102 TIME:   0.008 TIME LEFT:  2.00D  GRAD.:     0.457 HEAT: 29.18033
 CYCLE:   103 TIME:   0.008 TIME LEFT:  2.00D  GRAD.:     0.326 HEAT: 29.18018
 CYCLE:   104 TIME:   0.008 TIME LEFT:  2.00D  GRAD.:     0.435 HEAT: 29.18010
 CYCLE:   105 TIME:   0.008 TIME LEFT:  2.00D  GRAD.:     0.192 HEAT: 29.17990
 CYCLE:   106 TIME:   0.007 TIME LEFT:  2.00D  GRAD.:     0.131 HEAT: 29.17984
 CYCLE:   107 TIME:   0.008 TIME LEFT:  2.00D  GRAD.:     0.139 HEAT: 29.17976
 CYCLE:   108 TIME:   0.007 TIME LEFT:  2.00D  GRAD.:     0.157 HEAT: 29.17971
 CYCLE:   109 TIME:   0.008 TIME LEFT:  2.00D  GRAD.:     0.218 HEAT: 29.17971
 CYCLE:   110 TIME:   0.008 TIME LEFT:  2.00D  GRAD.:     0.148 HEAT: 29.17964
 CYCLE:   111 TIME:   0.008 TIME LEFT:  2.00D  GRAD.:     0.135 HEAT: 29.17958
 CYCLE:   112 TIME:   0.008 TIME LEFT:  2.00D  GRAD.:     0.141 HEAT: 29.17952
 CYCLE:   113 TIME:   0.008 TIME LEFT:  2.00D  GRAD.:     0.171 HEAT: 29.17939
 CYCLE:   114 TIME:   0.008 TIME LEFT:  2.00D  GRAD.:     0.149 HEAT: 29.17927
 CYCLE:   115 TIME:   0.008 TIME LEFT:  2.00D  GRAD.:     0.082 HEAT: 29.17919
 CYCLE:   116 TIME:   0.007 TIME LEFT:  2.00D  GRAD.:     0.056 HEAT: 29.17917
 CYCLE:   117 TIME:   0.008 TIME LEFT:  2.00D  GRAD.:     0.271 HEAT: 29.17930
 CYCLE:   118 TIME:   0.008 TIME LEFT:  2.00D  GRAD.:     0.040 HEAT: 29.17914

     RMS GRADIENT =  0.04032  IS LESS THAN CUTOFF =  0.05000



 -------------------------------------------------------------------------------
pm3  precise nosym
 InChI=1S/C10H14/c1-3-8-7(2)9-5-4-6-10(8)9/h3-5,7-10H,1,6H2,2H3



     GEOMETRY OPTIMISED USING EIGENVECTOR FOLLOWING (EF).     
     SCF FIELD WAS ACHIEVED                                   


                              PM3 CALCULATION
                                                       MOPAC2012 (Version: 13.159M)
                                                       Mon Jun  2 11:10:33 2014
                                                       No. of days left =   6




          FINAL HEAT OF FORMATION =         29.17914 KCAL/MOL =     122.08553 KJ/MOL


          TOTAL ENERGY            =      -1399.79633 EV
          ELECTRONIC ENERGY       =      -8056.18792 EV  POINT GROUP:     C1  
          CORE-CORE REPULSION     =       6656.39159 EV
          COSMO AREA              =        183.34 SQUARE ANGSTROMS
          COSMO VOLUME            =        192.74 CUBIC ANGSTROMS

          GRADIENT NORM           =          0.04032
          IONIZATION POTENTIAL    =          9.610839 EV
          HOMO LUMO ENERGIES (EV) =         -9.611  1.063
          NO. OF FILLED LEVELS    =         27
          MOLECULAR WEIGHT        =        134.221

          MOLECULAR DIMENSIONS (Angstroms)

            Atom       Atom       Distance
            H    23    H    20     7.80462
            H    18    H    15     5.51003
            H    14    H    13     3.75174


          SCF CALCULATIONS        =        128
          COMPUTATION TIME        =          1.009 SECONDS




   ATOM   CHEMICAL          X               Y               Z
  NUMBER   SYMBOL      (ANGSTROMS)     (ANGSTROMS)     (ANGSTROMS)
 
     1       C          0.30101591  *  -1.24077626  *  -0.11115614  *
     2       C         -0.35324325  *   0.80137212  *  -0.61501664  *
     3       C          0.76696877  *  -0.14518875  *  -1.12353516  *
     4       C         -0.76358425  *  -0.26097447  *   0.45046867  *
     5       C          1.50177204  *  -1.52309751  *   0.79380192  *
     6       C          0.06990404  *   2.13323868  *  -0.05804460  *
     7       C          2.16794082  *   0.17373319  *  -0.71452966  *
     8       C          2.56805554  *  -0.58350530  *   0.31567105  *
     9       C         -2.16243541  *  -0.75078593  *   0.38891328  *
    10       C         -3.21141075  *   0.05172449  *   0.24952079  *
    11       H         -0.12320152  *  -2.16069260  *  -0.55527484  *
    12       H         -1.14358350  *   0.95219763  *  -1.38296014  *
    13       H          0.69840076  *  -0.39707831  *  -2.19812744  *
    14       H         -0.54995186  *   0.06674685  *   1.49253644  *
    15       H          1.84228495  *  -2.57168650  *   0.71205944  *
    16       H          1.27148172  *  -1.35414358  *   1.86248197  *
    17       H          0.86717820  *   2.03133341  *   0.69108982  *
    18       H          0.44761741  *   2.79167965  *  -0.85071135  *
    19       H         -0.77730446  *   2.63873025  *   0.42393191  *
    20       H          3.54818514  *  -0.56049361  *   0.79148784  *
    21       H          2.75177624  *   0.93530180  *  -1.23037954  *
    22       H         -2.28990962  *  -1.83598254  *   0.48752081  *
    23       H         -4.23206802  *  -0.31680159  *   0.22547716  *
    24       H         -3.12234072  *   1.13073511  *   0.15032109  *

           Empirical Formula: C10 H14  =    24 atoms



      MOLECULAR POINT GROUP   :   C1  


                  EIGENVALUES  
 -42.74499 -34.89536 -32.03927 -28.87810 -27.25575 -23.73487 -21.66453 -19.69716
 -18.97166 -17.85921 -17.15799 -16.97890 -15.57368 -15.02307 -14.62963 -14.43036
 -13.82862 -13.51235 -12.97838 -12.78963 -12.27701 -12.11918 -11.94860 -11.66713
 -11.20293 -10.09203  -9.61084   1.06322   1.16114   3.15228   3.27460   3.36152
   3.49722   3.59767   3.69007   3.74461   3.91840   3.96942   4.07850   4.15398
   4.18701   4.24931   4.40412   4.43748   4.57128   4.75068   4.86474   4.92986
   5.24525   5.35140   5.70020   5.75496   5.89727   5.99021


              NET ATOMIC CHARGES AND DIPOLE CONTRIBUTIONS

  ATOM NO.   TYPE          CHARGE      No. of ELECS.   s-Pop       p-Pop       
    1          C          -0.098048        4.0980     1.20091     2.89714
    2          C          -0.073718        4.0737     1.19022     2.88350
    3          C          -0.062625        4.0626     1.18736     2.87527
    4          C          -0.063637        4.0636     1.18425     2.87939
    5          C          -0.058128        4.0581     1.15335     2.90478
    6          C          -0.105443        4.1054     1.13660     2.96884
    7          C          -0.141709        4.1417     1.19875     2.94296
    8          C          -0.150338        4.1503     1.20446     2.94588
    9          C          -0.125691        4.1257     1.19344     2.93225
   10          C          -0.171404        4.1714     1.18167     2.98974
   11          H           0.080792        0.9192     0.91921
   12          H           0.074071        0.9259     0.92593
   13          H           0.079812        0.9202     0.92019
   14          H           0.086314        0.9137     0.91369
   15          H           0.055674        0.9443     0.94433
   16          H           0.061197        0.9388     0.93880
   17          H           0.047068        0.9529     0.95293
   18          H           0.040451        0.9595     0.95955
   19          H           0.040295        0.9597     0.95971
   20          H           0.109215        0.8908     0.89079
   21          H           0.113087        0.8869     0.88691
   22          H           0.098403        0.9016     0.90160
   23          H           0.080320        0.9197     0.91968
   24          H           0.084043        0.9160     0.91596
 DIPOLE           X         Y         Z       TOTAL
 POINT-CHG.     0.115    -0.035     0.101     0.157
 HYBRID         0.005     0.008     0.032     0.034
 SUM            0.121    -0.026     0.133     0.182


          ATOMIC ORBITAL ELECTRON POPULATIONS

    Atom      s        px        py        pz   
    1  C   1.20091   0.95703   0.96941   0.97070
    2  C   1.19022   0.97297   0.93674   0.97379
    3  C   1.18736   0.92860   0.96428   0.98239
    4  C   1.18425   0.92807   0.96249   0.98882
    5  C   1.15335   0.93890   0.98184   0.98404
    6  C   1.13660   1.00718   0.95794   1.00372
    7  C   1.19875   0.96584   0.99582   0.98130
    8  C   1.20446   0.98329   0.98513   0.97746
    9  C   1.19344   0.94900   0.98859   0.99466
   10  C   1.18167   0.97439   0.99623   1.01912
   11  H   0.91921
   12  H   0.92593
   13  H   0.92019
   14  H   0.91369
   15  H   0.94433
   16  H   0.93880
   17  H   0.95293
   18  H   0.95955
   19  H   0.95971
   20  H   0.89079
   21  H   0.88691
   22  H   0.90160
   23  H   0.91968
   24  H   0.91596
 *******************************************************************************
 ** Site#: 14399           For non-commercial use only        Version 13.159M **
 *******************************************************************************
 ** Cite this work as: MOPAC2012, James J. P. Stewart, Stewart Computational  **
 ** Chemistry, Version 13.159M web: HTTP://OpenMOPAC.net  Days remaining:   6 **
 *******************************************************************************
 **                                                                           **
 **                                MOPAC2012                                  **
 **                                                                           **
 *******************************************************************************

                            PM3 CALCULATION RESULTS


 *******************************************************************************
 *  CALCULATION DONE:                                Mon Jun  2 11:10:33 2014  *
 *  PM3      - The PM3 Hamiltonian to be used
 *  OLDGEO   - PREVIOUS GEOMETRY TO BE USED
 *  PRECISE  - CRITERIA TO BE INCREASED BY 100 TIMES
 *  NOSYM    - POINT-GROUP SYMMETRY SET TO C1
 *  T=       - A TIME OF 172800.0 SECONDS REQUESTED
 *  DUMP=N   - RESTART FILE WRITTEN EVERY  7200.000 SECONDS
 *  THERMO   - THERMODYNAMIC QUANTITIES TO BE CALCULATED
 *******************************************************************************
oldgeo thermo nosym precise  pm3

   ATOM   CHEMICAL          X               Y               Z
  NUMBER   SYMBOL      (ANGSTROMS)     (ANGSTROMS)     (ANGSTROMS)
 
     1       C          0.30101591  *  -1.24077626  *  -0.11115614  *
     2       C         -0.35324325  *   0.80137212  *  -0.61501664  *
     3       C          0.76696877  *  -0.14518875  *  -1.12353516  *
     4       C         -0.76358425  *  -0.26097447  *   0.45046867  *
     5       C          1.50177204  *  -1.52309751  *   0.79380192  *
     6       C          0.06990404  *   2.13323868  *  -0.05804460  *
     7       C          2.16794082  *   0.17373319  *  -0.71452966  *
     8       C          2.56805554  *  -0.58350530  *   0.31567105  *
     9       C         -2.16243541  *  -0.75078593  *   0.38891328  *
    10       C         -3.21141075  *   0.05172449  *   0.24952079  *
    11       H         -0.12320152  *  -2.16069260  *  -0.55527484  *
    12       H         -1.14358350  *   0.95219763  *  -1.38296014  *
    13       H          0.69840076  *  -0.39707831  *  -2.19812744  *
    14       H         -0.54995186  *   0.06674685  *   1.49253644  *
    15       H          1.84228495  *  -2.57168650  *   0.71205944  *
    16       H          1.27148172  *  -1.35414358  *   1.86248197  *
    17       H          0.86717820  *   2.03133341  *   0.69108982  *
    18       H          0.44761741  *   2.79167965  *  -0.85071135  *
    19       H         -0.77730446  *   2.63873025  *   0.42393191  *
    20       H          3.54818514  *  -0.56049361  *   0.79148784  *
    21       H          2.75177624  *   0.93530180  *  -1.23037954  *
    22       H         -2.28990962  *  -1.83598254  *   0.48752081  *
    23       H         -4.23206802  *  -0.31680159  *   0.22547716  *
    24       H         -3.12234072  *   1.13073511  *   0.15032109  *
 


          CARTESIAN COORDINATES 

    NO.       ATOM         X         Y         Z

     1         C        0.3010   -1.2408   -0.1112
     2         C       -0.3532    0.8014   -0.6150
     3         C        0.7670   -0.1452   -1.1235
     4         C       -0.7636   -0.2610    0.4505
     5         C        1.5018   -1.5231    0.7938
     6         C        0.0699    2.1332   -0.0580
     7         C        2.1679    0.1737   -0.7145
     8         C        2.5681   -0.5835    0.3157
     9         C       -2.1624   -0.7508    0.3889
    10         C       -3.2114    0.0517    0.2495
    11         H       -0.1232   -2.1607   -0.5553
    12         H       -1.1436    0.9522   -1.3830
    13         H        0.6984   -0.3971   -2.1981
    14         H       -0.5500    0.0667    1.4925
    15         H        1.8423   -2.5717    0.7121
    16         H        1.2715   -1.3541    1.8625
    17         H        0.8672    2.0313    0.6911
    18         H        0.4476    2.7917   -0.8507
    19         H       -0.7773    2.6387    0.4239
    20         H        3.5482   -0.5605    0.7915
    21         H        2.7518    0.9353   -1.2304
    22         H       -2.2899   -1.8360    0.4875
    23         H       -4.2321   -0.3168    0.2255
    24         H       -3.1223    1.1307    0.1503

  H: (PM3): J. J. P. STEWART, J. COMP. CHEM. 10, 209 (1989).
  C: (PM3): J. J. P. STEWART, J. COMP. CHEM. 10, 209 (1989).

           Empirical Formula: C10 H14  =    24 atoms



      MOLECULAR POINT GROUP   :   C1  


      RHF CALCULATION, NO. OF DOUBLY OCCUPIED LEVELS =   27



          HEAT OF FORMATION =      29.179143 KCALS/MOLE


          INTERNAL COORDINATE DERIVATIVES

   NUMBER  ATOM       BOND         ANGLE      DIHEDRAL

     1       C      0.001276    -0.000582    -0.001614
     2       C      0.004371    -0.005950     0.001240
     3       C      0.003281    -0.005052    -0.001942
     4       C      0.004916    -0.000052     0.000939
     5       C     -0.004662     0.005855    -0.002383
     6       C     -0.001063     0.001228     0.001253
     7       C     -0.002891    -0.001778     0.004259
     8       C     -0.002672     0.004764     0.003666
     9       C      0.001527    -0.000975    -0.003680
    10       C     -0.002855     0.004089     0.006117
    11       H     -0.000515    -0.007368     0.001726
    12       H      0.007207     0.001582    -0.001569
    13       H      0.002411    -0.006611     0.004195
    14       H     -0.000399    -0.000128    -0.002204
    15       H     -0.008950     0.003185     0.001078
    16       H      0.004134    -0.005804     0.006911
    17       H     -0.005594     0.002346    -0.004462
    18       H     -0.004013     0.000232     0.004462
    19       H      0.006150    -0.006089     0.003929
    20       H      0.007271    -0.006656    -0.001347
    21       H     -0.002478     0.006787    -0.007250
    22       H     -0.008337     0.007088    -0.004490
    23       H     -0.009607     0.002982    -0.003488
    24       H      0.011491     0.006908    -0.005346


          GRADIENT NORM =   0.03961


          TIME FOR SCF CALCULATION =    0.01

          TIME FOR DERIVATIVES     =    0.01

          MOLECULAR WEIGHT =  134.22



          ROTATIONAL CONSTANTS IN CM(-1)

          A =    0.08008419   B =    0.03586441   C =    0.02844156



           PRINCIPAL MOMENTS OF INERTIA IN UNITS OF 10**(-40)*GRAM-CM**2

          A =      349.5418   B =      780.5168   C =      984.2206


          ORIENTATION OF MOLECULE IN FORCE CALCULATION

    NO.       ATOM         X         Y         Z

     1          C      -1.0980    0.1489    0.3293
     2          C       1.1047    0.1489    0.3293
     3          C       0.0108    1.2501    0.3293
     4          C      -0.0020   -0.9468    0.2458
     5          C      -1.9234    0.3752   -0.9388
     6          C       2.0864    0.1524   -0.8106
     7          C      -0.2032    1.9996   -0.9451
     8          C      -1.2597    1.5323   -1.6235
     9          C      -0.0265   -1.9447    1.3431
    10          C       1.0609   -2.5569    1.7975
    11          H      -1.7233    0.0920    1.2400
    12          H       1.6550    0.1164    1.2954
    13          H       0.0435    1.9255    1.2043
    14          H       0.0000   -1.4904   -0.7256
    15          H      -2.9780    0.6131   -0.7075
    16          H      -1.9428   -0.5171   -1.5924
    17          H       1.5838    0.2058   -1.7862
    18          H       2.7660    1.0118   -0.7450
    19          H       2.6964   -0.7604   -0.7998
    20          H      -1.6383    1.9137   -2.5715
    21          H       0.4474    2.8234   -1.2367
    22          H      -1.0172   -2.1713    1.7562
    23          H       1.0279   -3.3001    2.5879
    24          H       2.0575   -2.3580    1.4110


    FIRST DERIVATIVES WILL BE USED IN THE CALCULATION OF SECOND DERIVATIVES

          ESTIMATED TIME TO COMPLETE CALCULATION =        3.31 SECONDS

    FOR POINT-GROUP C1   THERE ARE   1 UNIQUE SYMMETRY FUNCTIONS.

 STEP:   1 TIME =     0.04 SECS, INTEGRAL =      0.04 TIME LEFT: 172799.95
 STEP:   2 TIME =     0.04 SECS, INTEGRAL =      0.07 TIME LEFT: 172799.92
 STEP:   3 TIME =     0.04 SECS, INTEGRAL =      0.11 TIME LEFT: 172799.88
 STEP:   4 TIME =     0.04 SECS, INTEGRAL =      0.14 TIME LEFT: 172799.85
 STEP:   5 TIME =     0.04 SECS, INTEGRAL =      0.18 TIME LEFT: 172799.81
 STEP:   6 TIME =     0.04 SECS, INTEGRAL =      0.21 TIME LEFT: 172799.78
 STEP:   7 TIME =     0.04 SECS, INTEGRAL =      0.25 TIME LEFT: 172799.74
 STEP:   8 TIME =     0.04 SECS, INTEGRAL =      0.28 TIME LEFT: 172799.70
 STEP:   9 TIME =     0.04 SECS, INTEGRAL =      0.32 TIME LEFT: 172799.67
 STEP:  10 TIME =     0.04 SECS, INTEGRAL =      0.36 TIME LEFT: 172799.63
 STEP:  11 TIME =     0.04 SECS, INTEGRAL =      0.39 TIME LEFT: 172799.60
 STEP:  12 TIME =     0.04 SECS, INTEGRAL =      0.43 TIME LEFT: 172799.56
 STEP:  13 TIME =     0.04 SECS, INTEGRAL =      0.46 TIME LEFT: 172799.53
 STEP:  14 TIME =     0.04 SECS, INTEGRAL =      0.50 TIME LEFT: 172799.49
 STEP:  15 TIME =     0.04 SECS, INTEGRAL =      0.53 TIME LEFT: 172799.45
 STEP:  16 TIME =     0.04 SECS, INTEGRAL =      0.57 TIME LEFT: 172799.42
 STEP:  17 TIME =     0.03 SECS, INTEGRAL =      0.60 TIME LEFT: 172799.38
 STEP:  18 TIME =     0.04 SECS, INTEGRAL =      0.64 TIME LEFT: 172799.35
 STEP:  19 TIME =     0.04 SECS, INTEGRAL =      0.68 TIME LEFT: 172799.31
 STEP:  20 TIME =     0.04 SECS, INTEGRAL =      0.71 TIME LEFT: 172799.28
 STEP:  21 TIME =     0.04 SECS, INTEGRAL =      0.75 TIME LEFT: 172799.24
 STEP:  22 TIME =     0.04 SECS, INTEGRAL =      0.78 TIME LEFT: 172799.21
 STEP:  23 TIME =     0.04 SECS, INTEGRAL =      0.82 TIME LEFT: 172799.17
 STEP:  24 TIME =     0.04 SECS, INTEGRAL =      0.85 TIME LEFT: 172799.13
 STEP:  25 TIME =     0.04 SECS, INTEGRAL =      0.89 TIME LEFT: 172799.10
 STEP:  26 TIME =     0.04 SECS, INTEGRAL =      0.93 TIME LEFT: 172799.06
 STEP:  27 TIME =     0.04 SECS, INTEGRAL =      0.96 TIME LEFT: 172799.03
 STEP:  28 TIME =     0.03 SECS, INTEGRAL =      1.00 TIME LEFT: 172798.99
 STEP:  29 TIME =     0.04 SECS, INTEGRAL =      1.03 TIME LEFT: 172798.96
 STEP:  30 TIME =     0.04 SECS, INTEGRAL =      1.07 TIME LEFT: 172798.92
 STEP:  31 TIME =     0.04 SECS, INTEGRAL =      1.11 TIME LEFT: 172798.88
 STEP:  32 TIME =     0.04 SECS, INTEGRAL =      1.14 TIME LEFT: 172798.85
 STEP:  33 TIME =     0.04 SECS, INTEGRAL =      1.18 TIME LEFT: 172798.81
 STEP:  34 TIME =     0.04 SECS, INTEGRAL =      1.21 TIME LEFT: 172798.77
 STEP:  35 TIME =     0.04 SECS, INTEGRAL =      1.25 TIME LEFT: 172798.74
 STEP:  36 TIME =     0.04 SECS, INTEGRAL =      1.29 TIME LEFT: 172798.70
 STEP:  37 TIME =     0.04 SECS, INTEGRAL =      1.32 TIME LEFT: 172798.67
 STEP:  38 TIME =     0.04 SECS, INTEGRAL =      1.36 TIME LEFT: 172798.63
 STEP:  39 TIME =     0.04 SECS, INTEGRAL =      1.40 TIME LEFT: 172798.59
 STEP:  40 TIME =     0.04 SECS, INTEGRAL =      1.44 TIME LEFT: 172798.55
 STEP:  41 TIME =     0.04 SECS, INTEGRAL =      1.47 TIME LEFT: 172798.52
 STEP:  42 TIME =     0.03 SECS, INTEGRAL =      1.51 TIME LEFT: 172798.48
 STEP:  43 TIME =     0.03 SECS, INTEGRAL =      1.54 TIME LEFT: 172798.45
 STEP:  44 TIME =     0.04 SECS, INTEGRAL =      1.58 TIME LEFT: 172798.41
 STEP:  45 TIME =     0.04 SECS, INTEGRAL =      1.61 TIME LEFT: 172798.38
 STEP:  46 TIME =     0.04 SECS, INTEGRAL =      1.65 TIME LEFT: 172798.34
 STEP:  47 TIME =     0.04 SECS, INTEGRAL =      1.69 TIME LEFT: 172798.30
 STEP:  48 TIME =     0.04 SECS, INTEGRAL =      1.72 TIME LEFT: 172798.27
 STEP:  49 TIME =     0.04 SECS, INTEGRAL =      1.76 TIME LEFT: 172798.23
 STEP:  50 TIME =     0.04 SECS, INTEGRAL =      1.80 TIME LEFT: 172798.19
 STEP:  51 TIME =     0.03 SECS, INTEGRAL =      1.83 TIME LEFT: 172798.16
 STEP:  52 TIME =     0.04 SECS, INTEGRAL =      1.87 TIME LEFT: 172798.12
 STEP:  53 TIME =     0.03 SECS, INTEGRAL =      1.90 TIME LEFT: 172798.09
 STEP:  54 TIME =     0.04 SECS, INTEGRAL =      1.94 TIME LEFT: 172798.05
 STEP:  55 TIME =     0.04 SECS, INTEGRAL =      1.97 TIME LEFT: 172798.01
 STEP:  56 TIME =     0.04 SECS, INTEGRAL =      2.01 TIME LEFT: 172797.98
 STEP:  57 TIME =     0.04 SECS, INTEGRAL =      2.05 TIME LEFT: 172797.94
 STEP:  58 TIME =     0.04 SECS, INTEGRAL =      2.08 TIME LEFT: 172797.91
 STEP:  59 TIME =     0.04 SECS, INTEGRAL =      2.12 TIME LEFT: 172797.87
 STEP:  60 TIME =     0.04 SECS, INTEGRAL =      2.15 TIME LEFT: 172797.83
 STEP:  61 TIME =     0.04 SECS, INTEGRAL =      2.19 TIME LEFT: 172797.80
 STEP:  62 TIME =     0.04 SECS, INTEGRAL =      2.23 TIME LEFT: 172797.76
 STEP:  63 TIME =     0.04 SECS, INTEGRAL =      2.26 TIME LEFT: 172797.73
 STEP:  64 TIME =     0.04 SECS, INTEGRAL =      2.30 TIME LEFT: 172797.69
 STEP:  65 TIME =     0.04 SECS, INTEGRAL =      2.34 TIME LEFT: 172797.65
 STEP:  66 TIME =     0.04 SECS, INTEGRAL =      2.37 TIME LEFT: 172797.62
 STEP:  67 TIME =     0.04 SECS, INTEGRAL =      2.41 TIME LEFT: 172797.57
 STEP:  68 TIME =     0.04 SECS, INTEGRAL =      2.45 TIME LEFT: 172797.54
 STEP:  69 TIME =     0.04 SECS, INTEGRAL =      2.49 TIME LEFT: 172797.50
 STEP:  70 TIME =     0.03 SECS, INTEGRAL =      2.52 TIME LEFT: 172797.47
 STEP:  71 TIME =     0.04 SECS, INTEGRAL =      2.56 TIME LEFT: 172797.43
 STEP:  72 TIME =     0.04 SECS, INTEGRAL =      2.60 TIME LEFT: 172797.39

(To convert to Hartree/Bohr^2, multiply by (10^(-21) x N x a0^2)/(4.184 x 627.51) = 0.0642)


           FORCE MATRIX IN MILLIDYNES/ANGSTROM


                  C  1       C  2       C  3       C  4       C  5       C  6
 ------------------------------------------------------------------------------
     C    1  14.426102
     C    2   1.753202  14.360380
     C    3   3.032744   3.247487  14.796440
     C    4   3.311899   3.090165   1.777123  14.691610
     C    5   3.876542   0.044634   0.701673   0.499439  14.679468
     C    6   0.040357   4.656552   0.514102   0.540485   0.006091  14.511657
     C    7   0.842310   0.529501   4.734803   0.044955   1.125956   0.049825
     C    8   0.906636   0.041775   1.183240   0.029972   4.583470   0.013053
     C    9   0.570641   0.545553   0.040481   5.059312   0.035632   0.032838
     C   10   0.047773   0.051055   0.006324   0.829550   0.006511   0.006029
     H   11   4.556169   0.028131   0.419821   0.435001   0.424163   0.002475
     H   12   0.024696   4.373118   0.428116   0.437770   0.001475   0.420466
     H   13   0.410639   0.428368   4.549900   0.031037   0.030963   0.028824
     H   14   0.440034   0.442151   0.024768   4.329755   0.031625   0.030562
     H   15   0.437272   0.005540   0.023079   0.032357   4.521042   0.000748
     H   16   0.443834   0.002699   0.034307   0.033187   4.493009   0.000760
     H   17   0.001968   0.468971   0.016957   0.018396   0.001345   4.708825
     H   18   0.003663   0.451698   0.010263   0.047039   0.001003   4.745880
     H   19   0.003551   0.454490   0.048173   0.013817   0.000983   4.730310
     H   20   0.042742   0.017058   0.115829   0.003279   0.410703   0.001536
     H   21   0.041193   0.006399   0.415092   0.002584   0.113054   0.005399
     H   22   0.032049   0.034382   0.002665   0.435446   0.001718   0.004488
     H   23   0.009670   0.007575   0.001659   0.132731   0.001221   0.000591
     H   24   0.004194   0.017802   0.001673   0.099329   0.001002   0.004581


                  C  7       C  8       C  9       C 10       H 11       H 12
 ------------------------------------------------------------------------------
     C    7  18.288304
     C    8  10.472261  18.236096
     C    9   0.002787   0.003276  18.268890
     C   10   0.002335   0.002011  11.054715  18.013620
     H   11   0.034272   0.033836   0.032990   0.002966   5.065919
     H   12   0.035098   0.005150   0.027718   0.014444   0.002351   4.868936
     H   13   0.415208   0.040050   0.003307   0.001121   0.015824   0.030859
     H   14   0.003187   0.002383   0.390567   0.025652   0.029016   0.030658
     H   15   0.037754   0.429462   0.003746   0.001240   0.032798   0.000406
     H   16   0.038362   0.431977   0.002204   0.000801   0.020003   0.000448
     H   17   0.015030   0.007216   0.001449   0.001122   0.000614   0.044164
     H   18   0.002832   0.001529   0.005924   0.000918   0.000557   0.031167
     H   19   0.006028   0.000495   0.001765   0.003113   0.000647   0.030777
     H   20   0.447526   5.013992   0.001020   0.000814   0.003978   0.002088
     H   21   5.022451   0.448640   0.000886   0.000476   0.003592   0.001099
     H   22   0.001289   0.001149   4.779283   0.455447   0.029689   0.002838
     H   23   0.000503   0.000507   0.463544   5.114505   0.000657   0.001090
     H   24   0.000988   0.000526   0.493038   5.057696   0.000803   0.021504


                  H 13       H 14       H 15       H 16       H 17       H 18
 ------------------------------------------------------------------------------
     H   13   5.052131
     H   14   0.000836   4.819766
     H   15   0.001083   0.002475   5.122979
     H   16   0.004516   0.027709   0.566159   5.106009
     H   17   0.001477   0.019684   0.000410   0.000513   5.440015
     H   18   0.001654   0.003136   0.000321   0.000227   0.573605   5.471489
     H   19   0.004940   0.005689   0.000187   0.000296   0.562757   0.560620
     H   20   0.013225   0.000704   0.014616   0.014213   0.000909   0.000529
     H   21   0.014390   0.000637   0.015779   0.014803   0.004153   0.003391
     H   22   0.000833   0.014530   0.000412   0.000567   0.000473   0.001037
     H   23   0.000265   0.014740   0.000190   0.000185   0.000391   0.000213
     H   24   0.000452   0.011813   0.000138   0.000260   0.000649   0.000714


                  H 19       H 20       H 21       H 22       H 23       H 24
 ------------------------------------------------------------------------------
     H   19   5.447898
     H   20   0.000411   5.408950
     H   21   0.000859   0.047100   5.418805
     H   22   0.000353   0.000343   0.000368   5.145529
     H   23   0.000474   0.000141   0.000336   0.079256   5.500396
     H   24   0.009161   0.000283   0.000300   0.119169   0.416538   5.445022


          HEAT OF FORMATION =      29.179143 KCALS/MOLE

          ZERO POINT ENERGY     132.410 KCAL/MOL


           NORMAL COORDINATE ANALYSIS (Total motion = 1 Angstrom)


   Root No.       1         2         3         4         5         6         7         8

                 1 A       2 A       3 A       4 A       5 A       6 A       7 A       8 A   

                  78.1     115.2     172.6     179.4     199.8     258.3     339.7     357.3
  
           1    0.0012   -0.0069   -0.0206    0.0052   -0.0082   -0.0056    0.0022    0.0010
           2   -0.0164    0.0003    0.0010   -0.0014    0.0063   -0.0174    0.0030    0.0135
           3   -0.0133   -0.0060   -0.0053   -0.0020    0.0186   -0.0140    0.0161    0.0108
           4    0.0016   -0.0067   -0.0203    0.0052   -0.0080   -0.0021    0.0058   -0.0017
           5   -0.0139    0.0057   -0.0141    0.0057    0.0045   -0.0199   -0.0094   -0.0196
           6   -0.0167    0.0046    0.0082   -0.0013    0.0072   -0.0104   -0.0207    0.0035
           7   -0.0003   -0.0096   -0.0106    0.0010   -0.0067   -0.0014    0.0082    0.0182
           8   -0.0154    0.0033   -0.0068    0.0031    0.0049   -0.0232   -0.0016   -0.0041
           9    0.0117    0.0074    0.0047   -0.0043    0.0230   -0.0013    0.0181   -0.0104
          10    0.0026   -0.0044   -0.0266    0.0083   -0.0089   -0.0043   -0.0104   -0.0198
          11   -0.0155    0.0019   -0.0054    0.0026    0.0059   -0.0196    0.0062   -0.0050
          12   -0.0083    0.0228   -0.0018   -0.0003    0.0051   -0.0181   -0.0239    0.0152
          13    0.0174    0.0208   -0.0083    0.0024    0.0021   -0.0222    0.0113    0.0172
          14   -0.0029   -0.0112    0.0182   -0.0099    0.0056    0.0209   -0.0296   -0.0150
          15   -0.0220   -0.0271   -0.0117   -0.0012    0.0119    0.0038    0.0101   -0.0049
          16   -0.0230   -0.0252   -0.0038    0.0071   -0.0396    0.0141    0.0272   -0.0043
          17   -0.0012   -0.0030   -0.0439    0.0001    0.0324    0.0340   -0.0053    0.0250
          18   -0.0385   -0.0118    0.0237    0.0000   -0.0215    0.0040   -0.0035    0.0025
          19   -0.0013   -0.0012    0.0094   -0.0107    0.0254    0.0139   -0.0160    0.0168
          20    0.0171    0.0122   -0.0005    0.0042   -0.0195   -0.0184    0.0045   -0.0141
          21    0.0314    0.0116    0.0062   -0.0021    0.0027   -0.0008    0.0286   -0.0177
          22    0.0078    0.0157    0.0109   -0.0110    0.0487    0.0014    0.0127   -0.0143
          23    0.0234    0.0030    0.0121   -0.0009   -0.0395    0.0066   -0.0336    0.0126
          24    0.0130   -0.0082   -0.0043    0.0016   -0.0194    0.0018    0.0087    0.0123
          25   -0.0015    0.0090    0.0121    0.0007   -0.0037    0.0032   -0.0283   -0.0208
          26   -0.0036    0.0246   -0.0045    0.0053   -0.0123    0.0189    0.0303   -0.0127
          27    0.0029    0.0443   -0.0002    0.0023   -0.0126    0.0206   -0.0086    0.0082
          28   -0.0016    0.0085    0.0506   -0.0078    0.0038    0.0015   -0.0198    0.0022
          29    0.0271   -0.0317    0.0462   -0.0064    0.0061    0.0045    0.0367    0.0125
          30    0.0443   -0.0294   -0.0213    0.0063   -0.0058    0.0058   -0.0257   -0.0124
          31   -0.0117   -0.0273   -0.0274    0.0062   -0.0101   -0.0009    0.0052   -0.0010
          32   -0.0250    0.0072    0.0000   -0.0007   -0.0004   -0.0272    0.0011    0.0420
          33   -0.0227   -0.0196   -0.0104   -0.0012    0.0163   -0.0106    0.0179    0.0103
          34    0.0216    0.0070   -0.0312    0.0035    0.0110   -0.0084    0.0032   -0.0018
          35   -0.0204    0.0119   -0.0149    0.0046   -0.0074   -0.0369   -0.0306   -0.0287
          36   -0.0284   -0.0035    0.0152   -0.0004   -0.0050   -0.0067   -0.0188    0.0034
          37    0.0000   -0.0160   -0.0117   -0.0004   -0.0073   -0.0043    0.0307    0.0343
          38   -0.0384   -0.0044   -0.0105    0.0033    0.0096   -0.0273   -0.0178    0.0120
          39    0.0295    0.0135    0.0077   -0.0043    0.0182    0.0019    0.0294   -0.0233
          40    0.0025   -0.0007   -0.0315    0.0142   -0.0144   -0.0046   -0.0251   -0.0329
          41   -0.0254   -0.0192   -0.0044    0.0020    0.0171   -0.0322    0.0069   -0.0063
          42   -0.0026    0.0345   -0.0023    0.0002   -0.0017   -0.0088   -0.0238    0.0155
          43    0.0092    0.0101   -0.0064   -0.0009    0.0135   -0.0081    0.0052   -0.0039
          44   -0.0277   -0.0332    0.0330   -0.0246    0.0633    0.0593   -0.0375   -0.0832
          45   -0.0341   -0.0540   -0.0177   -0.0015    0.0061    0.0309   -0.0103   -0.0360
          46    0.0447    0.0556   -0.0170    0.0146   -0.0413   -0.0701    0.0285    0.0911
          47    0.0114   -0.0095    0.0211   -0.0089   -0.0140    0.0274   -0.0423   -0.0097
          48   -0.0424   -0.0308   -0.0151   -0.0032    0.0404   -0.0025    0.0258   -0.0167
          49   -0.0450   -0.0415    0.0139    0.0165   -0.0682    0.0291    0.0498   -0.0079
          50    0.0039   -0.0091   -0.0134    0.2414    0.0808    0.0636   -0.0121    0.0503
          51   -0.0270   -0.0039    0.0165    0.0081   -0.0049   -0.0019   -0.0148    0.0055
          52   -0.0257   -0.0227    0.0349    0.1679   -0.0241   -0.0034    0.0208   -0.0245
          53    0.0016   -0.0037   -0.0762   -0.1372    0.0191    0.0449   -0.0011    0.0395
          54   -0.0472   -0.0294    0.0416    0.1303   -0.0071    0.0500    0.0100    0.0328
          55   -0.0185   -0.0267   -0.0460   -0.1620   -0.0545    0.0317    0.0338    0.0168
          56    0.0017   -0.0042   -0.0726   -0.1145    0.0223    0.0459   -0.0012    0.0396
          57   -0.0594   -0.0157    0.0272   -0.1376   -0.0783   -0.0225    0.0140   -0.0327
          58    0.0093    0.0256    0.0237   -0.0195    0.0901    0.0073    0.0287   -0.0482
          59    0.0440    0.0045    0.0179    0.0010   -0.0770    0.0165   -0.0547    0.0395
          60    0.0207   -0.0115   -0.0071    0.0057   -0.0509    0.0035   -0.0061    0.0366
          61   -0.0082   -0.0079    0.0216   -0.0205    0.0395    0.0350   -0.0460    0.0278
          62    0.0317    0.0234   -0.0071    0.0117   -0.0319   -0.0356    0.0321   -0.0292
          63    0.0571    0.0283    0.0147   -0.0028   -0.0012   -0.0023    0.0400   -0.0358
          64   -0.0083    0.0266    0.0277   -0.0020   -0.0057    0.0137   -0.0230   -0.0161
          65   -0.0224    0.0904   -0.0397    0.0165   -0.0435    0.0710    0.0615   -0.0366
          66   -0.0233    0.1222    0.0160    0.0025   -0.0348    0.0745    0.0204    0.0042
          67   -0.0100    0.0269    0.1051   -0.0192    0.0092    0.0086    0.0055    0.0413
          68    0.0370   -0.0202    0.0481   -0.0037   -0.0087    0.0437    0.0632   -0.0014
          69    0.0534   -0.0179   -0.0176    0.0084   -0.0195    0.0430   -0.0006   -0.0244
          70    0.0063   -0.0101    0.0327   -0.0045    0.0054   -0.0075   -0.0337   -0.0103
          71    0.0426   -0.0921    0.0896   -0.0199    0.0374   -0.0496    0.0181    0.0532
          72    0.0731   -0.1086   -0.0469    0.0082    0.0146   -0.0452   -0.0724   -0.0253


   Root No.       9        10        11        12        13        14        15        16

                 9 A      10 A      11 A      12 A      13 A      14 A      15 A      16 A   

                 426.5     493.0     535.8     627.4     672.8     748.5     764.7     819.7
  
           1    0.0084   -0.0230   -0.0216   -0.0061   -0.0133   -0.0146   -0.0164    0.0306
           2   -0.0175    0.0159   -0.0076    0.0213    0.0219   -0.0007   -0.0112    0.0182
           3   -0.0131    0.0214    0.0016   -0.0165    0.0010   -0.0294    0.0342   -0.0154
           4    0.0139   -0.0208    0.0096    0.0206    0.0304   -0.0104    0.0062   -0.0173
           5    0.0179    0.0021    0.0198   -0.0295    0.0056    0.0203    0.0017    0.0107
           6    0.0333   -0.0178   -0.0254    0.0244    0.0142   -0.0077    0.0044   -0.0157
           7   -0.0031   -0.0103   -0.0191    0.0297    0.0070    0.0190   -0.0169    0.0116
           8   -0.0047    0.0069   -0.0098   -0.0115   -0.0044    0.0117   -0.0299    0.0330
           9    0.0136    0.0138    0.0127    0.0063    0.0148   -0.0221   -0.0105    0.0448
          10    0.0264   -0.0178    0.0028   -0.0059   -0.0014   -0.0140   -0.0005   -0.0043
          11    0.0099    0.0125    0.0162    0.0196    0.0143    0.0092    0.0097   -0.0094
          12   -0.0152   -0.0231    0.0256   -0.0005    0.0230    0.0096    0.0090   -0.0129
          13   -0.0042    0.0043   -0.0142   -0.0247   -0.0216   -0.0326    0.0313    0.0158
          14   -0.0091   -0.0078    0.0016   -0.0032    0.0081   -0.0387    0.0055   -0.0045
          15    0.0004   -0.0015   -0.0095   -0.0216   -0.0219   -0.0129    0.0054   -0.0191
          16   -0.0236    0.0006    0.0332   -0.0050    0.0207   -0.0026    0.0041   -0.0080
          17   -0.0106   -0.0034    0.0010   -0.0035    0.0015    0.0062    0.0006    0.0046
          18    0.0017    0.0015   -0.0221    0.0067   -0.0138   -0.0015   -0.0025   -0.0008
          19    0.0219    0.0176    0.0098   -0.0142   -0.0155    0.0443    0.0060   -0.0119
          20   -0.0325   -0.0178   -0.0222   -0.0148   -0.0191    0.0174   -0.0235   -0.0347
          21   -0.0050   -0.0016    0.0098    0.0130    0.0119   -0.0009   -0.0134    0.0088
          22   -0.0116   -0.0003   -0.0001   -0.0076   -0.0098    0.0279    0.0091   -0.0101
          23    0.0059    0.0032    0.0047   -0.0109    0.0010   -0.0299    0.0024   -0.0053
          24    0.0202    0.0129    0.0081   -0.0052   -0.0130    0.0537   -0.0294   -0.0170
          25   -0.0101    0.0388   -0.0080    0.0207   -0.0076    0.0000    0.0037   -0.0036
          26    0.0229    0.0146    0.0084    0.0319   -0.0371   -0.0109    0.0096   -0.0087
          27   -0.0136   -0.0246    0.0189   -0.0010   -0.0164   -0.0031   -0.0102    0.0096
          28   -0.0127    0.0063   -0.0039    0.0040    0.0038    0.0026   -0.0030    0.0014
          29    0.0210   -0.0140   -0.0020    0.0003   -0.0038   -0.0046    0.0062   -0.0068
          30   -0.0156    0.0167   -0.0065   -0.0029    0.0066    0.0032   -0.0057    0.0071
          31    0.0091   -0.0247   -0.0388   -0.0140   -0.0323   -0.0082   -0.0297    0.0097
          32   -0.0425    0.0135   -0.0158    0.0436    0.0428    0.0476   -0.0184   -0.0010
          33   -0.0132    0.0184   -0.0108   -0.0212   -0.0118   -0.0224    0.0248   -0.0315
          34    0.0190   -0.0257    0.0318    0.0229    0.0516   -0.0114    0.0095   -0.0077
          35    0.0229   -0.0216    0.0412   -0.0614    0.0096    0.0361    0.0237   -0.0362
          36    0.0288   -0.0146   -0.0370    0.0222    0.0008   -0.0065    0.0029   -0.0220
          37   -0.0412    0.0064   -0.0295    0.0525    0.0146   -0.0040   -0.0261    0.0363
          38    0.0074    0.0141   -0.0195   -0.0162   -0.0034    0.0051   -0.0036    0.0442
          39    0.0053    0.0069    0.0204    0.0089    0.0141   -0.0156   -0.0303    0.0349
          40    0.0669   -0.0524    0.0027   -0.0172    0.0016   -0.0026   -0.0155   -0.0190
          41    0.0196    0.0278   -0.0032    0.0149    0.0552    0.0098    0.0321   -0.0304
          42   -0.0206   -0.0319    0.0360    0.0017   -0.0001    0.0089   -0.0041   -0.0005
          43   -0.0073   -0.0193   -0.0186   -0.0230   -0.0283   -0.0172    0.0467    0.0415
          44   -0.0352   -0.0684   -0.0065    0.0097   -0.0006    0.0322    0.0810    0.0560
          45    0.0112   -0.0539   -0.0224   -0.0244   -0.0447   -0.0019    0.0012    0.0441
          46    0.0101    0.0838    0.0001   -0.0375   -0.0024   -0.1131   -0.0182   -0.0699
          47    0.0055   -0.0072    0.0103   -0.0124    0.0020   -0.0356   -0.0176   -0.0201
          48   -0.0206   -0.0080   -0.0220   -0.0084   -0.0143   -0.0135    0.0418    0.0084
          49   -0.0654    0.0290    0.0639   -0.0475   -0.0069    0.0174   -0.0056    0.0463
          50   -0.0266   -0.0089   -0.0071    0.0129   -0.0007   -0.0039    0.0000   -0.0150
          51    0.0212   -0.0129   -0.0372    0.0285   -0.0002   -0.0120    0.0022   -0.0282
          52   -0.0059    0.0036    0.0488   -0.0280    0.0267    0.0106    0.0067    0.0113
          53   -0.0217   -0.0068   -0.0111    0.0150   -0.0009   -0.0041   -0.0008   -0.0121
          54   -0.0508    0.0154   -0.0181    0.0041   -0.0419   -0.0033   -0.0121    0.0141
          55   -0.0417   -0.0040    0.0200    0.0199    0.0206   -0.0178    0.0028   -0.0316
          56   -0.0229   -0.0066   -0.0084    0.0137    0.0012   -0.0038   -0.0002   -0.0120
          57   -0.0024    0.0261    0.0085   -0.0464   -0.0329    0.0285   -0.0074    0.0633
          58   -0.0278   -0.0002    0.0174    0.0030    0.0233   -0.0489   -0.1376   -0.0722
          59    0.0336    0.0099    0.0174    0.0177    0.0141    0.0669    0.1415    0.1019
          60    0.0378    0.0156    0.0065    0.0017   -0.0213    0.1237    0.0853    0.0508
          61    0.0597    0.0564    0.0538   -0.0554   -0.0110   -0.0499   -0.0889   -0.0200
          62   -0.0720   -0.0573   -0.0607    0.0226   -0.0228    0.0998    0.0987   -0.0355
          63   -0.0327   -0.0267   -0.0008    0.0260    0.0110    0.0203    0.1213   -0.0106
          64   -0.0131    0.0402   -0.0162    0.0159   -0.0001    0.0040    0.0022   -0.0019
          65    0.0503    0.0384   -0.0417    0.0043   -0.0094   -0.0179    0.0114   -0.0076
          66   -0.0062   -0.0042   -0.0289   -0.0269    0.0161    0.0027   -0.0119    0.0140
          67   -0.0081   -0.0714    0.0021   -0.0625    0.0478    0.0086   -0.0337    0.0383
          68    0.0398    0.0217   -0.0911   -0.0808    0.1346    0.0299    0.0175   -0.0204
          69    0.0015    0.0489   -0.0905   -0.0809    0.1386    0.0363    0.0037   -0.0042
          70   -0.0179    0.0333   -0.0011    0.0332   -0.0176    0.0000    0.0053   -0.0091
          71    0.0031   -0.0941    0.0781    0.0194   -0.0794   -0.0234   -0.0187    0.0225
          72   -0.0388    0.0491    0.0409    0.0844   -0.0882   -0.0130    0.0051   -0.0073


   Root No.      17        18        19        20        21        22        23        24

                17 A      18 A      19 A      20 A      21 A      22 A      23 A      24 A   

                 875.1     903.1     919.2     936.0     953.1     959.2     985.1    1009.6
  
           1   -0.0031   -0.0021   -0.0096   -0.0065    0.0096   -0.0269    0.0023   -0.0054
           2    0.0098   -0.0019    0.0039    0.0037   -0.0072   -0.0349   -0.0020    0.0068
           3    0.0050    0.0026    0.0007    0.0080   -0.0106    0.0203    0.0000   -0.0129
           4   -0.0046   -0.0181    0.0006   -0.0047   -0.0017    0.0005    0.0006    0.0109
           5    0.0147   -0.0091   -0.0203   -0.0047   -0.0007    0.0058    0.0000   -0.0082
           6   -0.0034   -0.0164    0.0052   -0.0041    0.0010    0.0010   -0.0002    0.0086
           7    0.0114    0.0098   -0.0180    0.0002    0.0007    0.0301   -0.0025    0.0034
           8   -0.0085   -0.0056    0.0286   -0.0073    0.0129    0.0103   -0.0031   -0.0163
           9   -0.0038   -0.0048    0.0189   -0.0087    0.0132    0.0054   -0.0017    0.0050
          10    0.0117    0.0312    0.0158    0.0173   -0.0066   -0.0036   -0.0068   -0.0030
          11   -0.0151    0.0128    0.0053    0.0066    0.0012    0.0055    0.0171    0.0082
          12   -0.0211    0.0205   -0.0096    0.0068    0.0163    0.0004   -0.0030    0.0023
          13   -0.0247   -0.0061   -0.0118    0.0024   -0.0031    0.0103    0.0152    0.0071
          14    0.0191    0.0046    0.0070   -0.0085    0.0109    0.0071   -0.0108    0.0096
          15    0.0065   -0.0016    0.0042   -0.0072    0.0066   -0.0101   -0.0048    0.0106
          16   -0.0067   -0.0268    0.0110   -0.0117   -0.0023    0.0010   -0.0028   -0.0142
          17    0.0103   -0.0092   -0.0199   -0.0093   -0.0051    0.0096   -0.0042    0.0154
          18    0.0037    0.0035   -0.0079   -0.0001   -0.0079    0.0036   -0.0009   -0.0048
          19    0.0066   -0.0014    0.0096   -0.0068    0.0112   -0.0045    0.0119    0.0017
          20   -0.0192   -0.0089    0.0105    0.0066   -0.0154    0.0050   -0.0186    0.0143
          21    0.0015    0.0048   -0.0159    0.0084   -0.0116   -0.0089   -0.0077   -0.0120
          22    0.0053   -0.0008    0.0074    0.0008   -0.0046   -0.0059   -0.0152   -0.0006
          23   -0.0040    0.0020   -0.0101    0.0020    0.0005   -0.0020    0.0158   -0.0072
          24   -0.0053   -0.0018   -0.0006    0.0003    0.0023    0.0085    0.0124   -0.0012
          25   -0.0022    0.0039    0.0010   -0.0014   -0.0079   -0.0009    0.0099    0.0027
          26   -0.0063    0.0149   -0.0011   -0.0161   -0.0105   -0.0011    0.0048   -0.0005
          27    0.0061    0.0019    0.0054   -0.0184   -0.0070   -0.0004   -0.0046   -0.0033
          28   -0.0023   -0.0025   -0.0026   -0.0039    0.0053   -0.0022   -0.0072   -0.0006
          29   -0.0077    0.0044   -0.0078   -0.0072    0.0077   -0.0008   -0.0121   -0.0019
          30    0.0097   -0.0044    0.0116   -0.0017   -0.0190    0.0015    0.0187    0.0069
          31    0.0334    0.0009   -0.0179   -0.0099   -0.0023   -0.0829   -0.0182   -0.0354
          32    0.0157   -0.0102   -0.0687    0.0334   -0.0367   -0.1444    0.0160    0.0189
          33    0.0292    0.0031   -0.0100    0.0070   -0.0199   -0.0272   -0.0123   -0.0321
          34   -0.0134    0.0163    0.0017    0.0139    0.0277    0.0040    0.0000    0.0747
          35    0.0271    0.0163   -0.0580    0.0411   -0.0085   -0.0304   -0.0055   -0.0793
          36    0.0024   -0.0323    0.0025   -0.0123   -0.0163   -0.0008   -0.0001   -0.0290
          37    0.0407    0.0789   -0.0472    0.0406   -0.0351    0.1581   -0.0324   -0.0651
          38    0.0114   -0.0090    0.0327   -0.0117    0.0191    0.0398    0.0109   -0.1017
          39   -0.0193   -0.0052    0.0150   -0.0066    0.0090   -0.0252   -0.0117    0.0734
          40    0.0362    0.0783    0.0431    0.0479    0.0143    0.0053   -0.0680    0.0093
          41   -0.0096   -0.0095    0.0127    0.0512   -0.0153    0.0203    0.0660    0.0310
          42   -0.0230    0.0321   -0.0140   -0.0192    0.0256   -0.0081   -0.0317   -0.0112
          43   -0.0571   -0.0097   -0.0273    0.0111   -0.0097    0.0149    0.0363    0.0004
          44   -0.0615   -0.0030   -0.0119    0.0380   -0.0493    0.0654   -0.0089    0.0035
          45   -0.0704   -0.0120   -0.0484   -0.0117    0.0350   -0.0457    0.0940   -0.0129
          46    0.0878    0.0093    0.0330   -0.0337    0.0314   -0.0107   -0.0483    0.0305
          47    0.0125    0.0053   -0.0029   -0.0245    0.0457    0.0450    0.0346   -0.0012
          48    0.0082   -0.0026    0.0142    0.0176   -0.0431   -0.0605   -0.0630    0.0231
          49   -0.0002    0.0762   -0.0039    0.0356    0.0479   -0.0163    0.0092    0.0706
          50   -0.0175    0.0167    0.0235    0.0162    0.0077   -0.0140    0.0063   -0.0247
          51   -0.0011   -0.0453    0.0014   -0.0220   -0.0316    0.0108   -0.0062   -0.0479
          52    0.0266   -0.0664   -0.0428   -0.0452   -0.0190    0.0296   -0.0170    0.0286
          53   -0.0149    0.0147    0.0205    0.0132    0.0055   -0.0108    0.0055   -0.0198
          54   -0.0298    0.1237    0.0393    0.0717    0.0444   -0.0417    0.0237    0.0050
          55   -0.0456    0.0023    0.0745    0.0182    0.0171   -0.0293    0.0103   -0.0628
          56   -0.0161    0.0109    0.0229    0.0114    0.0078   -0.0111    0.0048   -0.0190
          57    0.0526    0.0440   -0.0897   -0.0004    0.0036    0.0262   -0.0063    0.1074
          58    0.0303    0.0248   -0.0572    0.0002    0.0202   -0.0047    0.0686   -0.0846
          59    0.0135    0.0053    0.0223    0.0209   -0.0375   -0.0405   -0.0747   -0.0602
          60   -0.0081   -0.0107    0.0376    0.0083   -0.0231   -0.0088   -0.0572    0.0101
          61   -0.0699   -0.0095   -0.0318    0.0490   -0.0813   -0.0496   -0.0505   -0.0086
          62    0.0666    0.0029    0.0378   -0.0453    0.0716    0.0110    0.0555    0.0074
          63    0.0734    0.0198   -0.0320   -0.0144    0.0285   -0.0928    0.0628   -0.0517
          64   -0.0039   -0.0297   -0.0099    0.0132    0.0221    0.0053   -0.0076   -0.0004
          65    0.0383   -0.0651    0.0106    0.1538    0.0214    0.0074    0.0326    0.0157
          66    0.0256   -0.1236   -0.0158    0.1094    0.0840    0.0203   -0.0324   -0.0025
          67    0.0590   -0.0048    0.0716    0.0298   -0.0892    0.0079    0.0988    0.0278
          68   -0.0388    0.0374   -0.0249   -0.0006    0.0428   -0.0046   -0.0336   -0.0162
          69   -0.0179    0.0254   -0.0025    0.0049    0.0118   -0.0018    0.0013   -0.0055
          70   -0.0207   -0.0141   -0.0280    0.0004    0.0485   -0.0047   -0.0464   -0.0102
          71    0.0577   -0.0589    0.0313    0.1118   -0.0066    0.0131    0.0464    0.0070
          72   -0.0082   -0.0667   -0.0387    0.0684    0.0912    0.0017   -0.0585   -0.0159


   Root No.      25        26        27        28        29        30        31        32

                25 A      26 A      27 A      28 A      29 A      30 A      31 A      32 A   

                1024.3    1038.4    1053.6    1066.6    1073.7    1084.5    1100.6    1114.2
  
           1    0.0008   -0.0093   -0.0005   -0.0067   -0.0040   -0.0103    0.0084   -0.0066
           2    0.0021    0.0153    0.0104    0.0075    0.0059    0.0039    0.0023   -0.0020
           3   -0.0074    0.0008   -0.0151   -0.0220    0.0096   -0.0034   -0.0100   -0.0137
           4   -0.0025   -0.0056   -0.0065   -0.0084   -0.0132   -0.0080    0.0088   -0.0062
           5   -0.0036   -0.0086    0.0149    0.0035   -0.0157   -0.0026   -0.0062   -0.0049
           6   -0.0094    0.0032   -0.0086   -0.0100   -0.0140    0.0107    0.0070    0.0066
           7   -0.0006   -0.0077    0.0058    0.0031   -0.0163   -0.0028   -0.0026    0.0083
           8   -0.0028    0.0025   -0.0088   -0.0001    0.0040   -0.0013    0.0025   -0.0054
           9    0.0011    0.0054    0.0024    0.0014    0.0069   -0.0027   -0.0064   -0.0127
          10    0.0034    0.0110   -0.0044   -0.0055    0.0274   -0.0080    0.0042   -0.0098
          11    0.0072   -0.0095   -0.0084    0.0132   -0.0024   -0.0008    0.0013    0.0066
          12    0.0029   -0.0042   -0.0046    0.0060    0.0175   -0.0105    0.0074    0.0089
          13    0.0009    0.0102    0.0214   -0.0009   -0.0015    0.0089   -0.0032    0.0123
          14    0.0047   -0.0132    0.0205   -0.0043   -0.0007    0.0019    0.0076    0.0106
          15    0.0059   -0.0067    0.0053    0.0161   -0.0060    0.0030    0.0023    0.0172
          16    0.0028    0.0058    0.0040    0.0055    0.0086    0.0056   -0.0042    0.0034
          17    0.0039    0.0058   -0.0122   -0.0004    0.0091    0.0014    0.0032    0.0039
          18    0.0106   -0.0056    0.0059    0.0077    0.0087   -0.0135   -0.0050   -0.0110
          19    0.0008    0.0134   -0.0027    0.0075    0.0044   -0.0052   -0.0056   -0.0126
          20    0.0000   -0.0080   -0.0157    0.0019    0.0006    0.0001    0.0020   -0.0070
          21   -0.0011   -0.0104    0.0058   -0.0038   -0.0063    0.0076    0.0102    0.0166
          22    0.0019   -0.0221   -0.0073    0.0010    0.0021    0.0034    0.0011    0.0060
          23   -0.0043    0.0258   -0.0145    0.0079   -0.0046   -0.0082   -0.0096   -0.0086
          24   -0.0021    0.0193    0.0186   -0.0139    0.0015    0.0001    0.0066    0.0034
          25    0.0103   -0.0032    0.0013   -0.0011    0.0009   -0.0037    0.0043    0.0071
          26    0.0231   -0.0004   -0.0014   -0.0076   -0.0084    0.0052   -0.0026    0.0012
          27    0.0091    0.0047   -0.0027   -0.0063   -0.0148    0.0158   -0.0124   -0.0123
          28   -0.0106    0.0028    0.0010    0.0012    0.0021    0.0026   -0.0014   -0.0016
          29   -0.0419    0.0000    0.0022    0.0036    0.0120   -0.0073    0.0032   -0.0008
          30   -0.0308   -0.0078    0.0035    0.0076    0.0018   -0.0057    0.0039    0.0053
          31   -0.0139   -0.0327   -0.0453   -0.0700   -0.0052   -0.0022   -0.0300   -0.0702
          32   -0.0146    0.0164    0.0596   -0.0775    0.0955    0.0706   -0.0425    0.0090
          33   -0.0183   -0.0163   -0.0440   -0.0709    0.0149    0.0064   -0.0406   -0.0568
          34   -0.0194   -0.0133   -0.0301   -0.0240   -0.0346   -0.0395    0.0110   -0.0581
          35   -0.0103   -0.0541    0.1286    0.0101   -0.0732   -0.0440   -0.0082   -0.0248
          36    0.0009    0.0060    0.0080   -0.0004   -0.0026    0.0266    0.0059    0.0356
          37    0.0082   -0.0153   -0.0023    0.1050    0.0277    0.0285   -0.0082   -0.0620
          38   -0.0347    0.0348   -0.0523   -0.0522   -0.0201    0.0557    0.1261    0.0597
          39    0.0254   -0.0196    0.0381    0.0378    0.0238   -0.0482   -0.1033   -0.0618
          40   -0.0494    0.0876    0.0181    0.0431    0.0265    0.1520   -0.0981    0.0532
          41   -0.0699   -0.0441   -0.0288    0.0030   -0.0711    0.0747   -0.0756   -0.0430
          42    0.0469    0.0162    0.0070    0.0114    0.0573   -0.0534    0.0515    0.0373
          43   -0.0022    0.0170    0.0206   -0.0042    0.0065    0.0165   -0.0120    0.0127
          44   -0.0174    0.0958    0.0734   -0.0848   -0.0088   -0.0071    0.0263   -0.0265
          45    0.0141   -0.0804   -0.0541    0.0890    0.0411    0.0473   -0.0558    0.0542
          46    0.0165   -0.0334    0.0420    0.0076   -0.0227   -0.0021    0.0197    0.0427
          47    0.0077   -0.1123    0.0312   -0.0520    0.0611    0.0557    0.0131   -0.0084
          48    0.0008    0.1316   -0.0090    0.0789   -0.0875   -0.0687   -0.0070    0.0435
          49   -0.0491    0.0055   -0.0379   -0.0449   -0.0540    0.0301    0.0287    0.0238
          50   -0.0057   -0.0119    0.0221    0.0018   -0.0166   -0.0042   -0.0043   -0.0050
          51    0.0359   -0.0068    0.0281    0.0324    0.0381   -0.0272   -0.0210   -0.0221
          52    0.0136    0.0278   -0.0331    0.0040    0.0379    0.0158    0.0030    0.0157
          53   -0.0027   -0.0103    0.0171    0.0027   -0.0109   -0.0059   -0.0038   -0.0056
          54   -0.0319   -0.0354    0.0203   -0.0248   -0.0649   -0.0208    0.0141   -0.0159
          55   -0.0126   -0.0117    0.0414    0.0052   -0.0229    0.0060   -0.0121   -0.0024
          56   -0.0061   -0.0069    0.0145    0.0000   -0.0128    0.0008   -0.0024   -0.0004
          57   -0.0048    0.0096   -0.0617   -0.0251    0.0010   -0.0058    0.0258    0.0037
          58   -0.0267    0.0578   -0.0655   -0.0360   -0.0215   -0.0672   -0.0869    0.0894
          59   -0.0085   -0.0702   -0.0878   -0.0182   -0.0140   -0.0518   -0.0819    0.0938
          60    0.0076   -0.0510    0.0124   -0.0094    0.0067    0.0108    0.0128    0.0133
          61    0.0005   -0.0245   -0.0448    0.0537   -0.0149    0.0436    0.0835   -0.0500
          62    0.0007    0.0376   -0.0002   -0.0001    0.0148   -0.0206   -0.0297   -0.0150
          63    0.0008    0.0336   -0.0370    0.0902   -0.0083    0.0583    0.1179   -0.0855
          64   -0.0183   -0.0058   -0.0011    0.0106   -0.0271    0.0068   -0.0085   -0.0064
          65   -0.0102   -0.0070    0.0024    0.0058    0.0909   -0.0563    0.0472    0.0424
          66   -0.0784   -0.0059   -0.0065    0.0290   -0.0280    0.0062   -0.0155   -0.0226
          67    0.0640   -0.0181   -0.0041    0.0053   -0.0193    0.0041    0.0046    0.0191
          68    0.1481    0.0188   -0.0127   -0.0214   -0.0156    0.0180   -0.0095   -0.0088
          69    0.1497    0.0094   -0.0109   -0.0154   -0.0265    0.0196   -0.0088   -0.0023
          70    0.0027    0.0155   -0.0033   -0.0040   -0.0015    0.0150   -0.0104   -0.0122
          71    0.1603   -0.0010   -0.0137   -0.0182   -0.0165    0.0049    0.0020    0.0091
          72    0.1042    0.0251   -0.0150   -0.0172   -0.0225    0.0324   -0.0206   -0.0188


   Root No.      33        34        35        36        37        38        39        40

                33 A      34 A      35 A      36 A      37 A      38 A      39 A      40 A   

                1140.5    1145.6    1164.1    1185.0    1206.8    1215.0    1234.3    1237.4
  
           1   -0.0109    0.0225   -0.0041   -0.0035   -0.0090    0.0088    0.0070    0.0130
           2    0.0205    0.0252    0.0076   -0.0317    0.0253   -0.0189    0.0208   -0.0189
           3    0.0099   -0.0074   -0.0048    0.0010    0.0221   -0.0286   -0.0001    0.0026
           4    0.0115   -0.0086    0.0067   -0.0019    0.0196    0.0078    0.0045   -0.0018
           5   -0.0150   -0.0267    0.0029    0.0274    0.0329    0.0178    0.0127   -0.0223
           6    0.0217   -0.0172   -0.0287   -0.0053   -0.0006    0.0154    0.0131    0.0039
           7   -0.0180   -0.0195   -0.0119    0.0230    0.0035   -0.0505   -0.0127    0.0010
           8   -0.0043   -0.0076   -0.0030    0.0093   -0.0116   -0.0074    0.0014    0.0259
           9    0.0146   -0.0131   -0.0078    0.0051   -0.0122    0.0005   -0.0135    0.0005
          10    0.0106    0.0335   -0.0011    0.0100    0.0262    0.0016   -0.0231   -0.0014
          11   -0.0334    0.0097    0.0004   -0.0164   -0.0007    0.0080   -0.0050   -0.0047
          12   -0.0169    0.0088   -0.0098    0.0007   -0.0223    0.0020   -0.0055    0.0035
          13   -0.0029    0.0022    0.0079   -0.0063    0.0014    0.0061    0.0062   -0.0024
          14   -0.0051    0.0093    0.0036    0.0017   -0.0049    0.0075   -0.0055   -0.0070
          15   -0.0033   -0.0006    0.0067    0.0099   -0.0018    0.0114    0.0069    0.0208
          16   -0.0018   -0.0007   -0.0033   -0.0007   -0.0088   -0.0004   -0.0002    0.0009
          17    0.0034    0.0094   -0.0027   -0.0085   -0.0102   -0.0052   -0.0025    0.0061
          18   -0.0088    0.0035    0.0364    0.0022   -0.0035   -0.0064   -0.0024   -0.0012
          19    0.0070   -0.0024   -0.0054   -0.0007   -0.0026    0.0032   -0.0058   -0.0057
          20    0.0128   -0.0067   -0.0028    0.0020    0.0034   -0.0033    0.0003    0.0025
          21   -0.0078    0.0063    0.0058   -0.0018   -0.0048   -0.0016   -0.0121   -0.0187
          22    0.0053   -0.0002    0.0019    0.0002   -0.0024    0.0030   -0.0094   -0.0114
          23    0.0023   -0.0142   -0.0082    0.0063   -0.0073   -0.0022   -0.0158   -0.0096
          24   -0.0017    0.0169    0.0090   -0.0111    0.0039    0.0093    0.0109   -0.0007
          25    0.0000   -0.0132   -0.0044   -0.0083   -0.0085    0.0006   -0.0056    0.0098
          26    0.0041   -0.0077   -0.0015   -0.0070   -0.0036    0.0019   -0.0071    0.0099
          27    0.0084    0.0191    0.0042    0.0181    0.0023   -0.0035    0.0096   -0.0098
          28    0.0035    0.0074   -0.0005    0.0131   -0.0053   -0.0044    0.0145   -0.0107
          29    0.0004    0.0039   -0.0009    0.0024    0.0014   -0.0006   -0.0015   -0.0007
          30   -0.0058   -0.0074    0.0003   -0.0080   -0.0009    0.0015   -0.0014    0.0021
          31   -0.1090   -0.0391   -0.0474   -0.0980   -0.1004    0.0468    0.0148   -0.0817
          32    0.0299   -0.0875    0.0265    0.1168   -0.0102    0.1014   -0.0868    0.0760
          33   -0.0576   -0.0595   -0.0341   -0.0565   -0.0441    0.0051   -0.0003   -0.0581
          34    0.0656   -0.0891    0.2276   -0.0139   -0.0674    0.0104    0.0412    0.0092
          35    0.1507    0.0076   -0.0520   -0.0835   -0.1129   -0.0939   -0.0288    0.0543
          36   -0.0047    0.0301   -0.1598   -0.0014    0.0472    0.0111   -0.0098   -0.0004
          37    0.0744   -0.0101   -0.0323   -0.0309   -0.0240    0.2064    0.0452    0.0041
          38    0.0400   -0.0033    0.0837    0.0118   -0.0449    0.0031   -0.0606   -0.0374
          39   -0.0233   -0.0178   -0.0772    0.0057    0.0154   -0.0193    0.0326    0.0499
          40   -0.0426   -0.0881    0.0512   -0.0713   -0.0348   -0.0814    0.0422    0.0127
          41   -0.0255    0.1726    0.0130    0.0780   -0.0943    0.0064   -0.0203    0.0114
          42   -0.0214   -0.0863   -0.0183   -0.0546    0.0339    0.0025    0.0050   -0.0079
          43    0.0008   -0.0003    0.0113   -0.0199    0.0069    0.0042    0.0152   -0.0096
          44   -0.0652    0.0184    0.0033   -0.0226   -0.0032    0.0216    0.0531    0.0508
          45    0.0860   -0.0234    0.0216   -0.0210    0.0266   -0.0201   -0.0201   -0.0732
          46   -0.0366    0.0197    0.0154    0.0034   -0.0236    0.0455    0.0187    0.0178
          47   -0.0025    0.0103    0.0120   -0.0215    0.0311   -0.0165    0.0391    0.0358
          48   -0.0063   -0.0026   -0.0036    0.0385   -0.0485    0.0433   -0.0511   -0.0371
          49    0.0468   -0.0257   -0.0925   -0.0095    0.0059    0.0274    0.0209    0.0084
          50   -0.0009   -0.0129    0.0014    0.0082    0.0075    0.0010    0.0027   -0.0052
          51   -0.0328    0.0141    0.0827    0.0073   -0.0087   -0.0199   -0.0131   -0.0059
          52    0.0123    0.0208   -0.0170   -0.0237   -0.0444   -0.0061    0.0001    0.0194
          53   -0.0072   -0.0075    0.0099    0.0084    0.0120   -0.0013   -0.0015   -0.0069
          54    0.0038   -0.0337    0.0043    0.0233    0.0633    0.0159    0.0022   -0.0218
          55   -0.0032   -0.0355   -0.0119    0.0194    0.0074    0.0195    0.0149   -0.0107
          56    0.0013   -0.0134   -0.0084    0.0058    0.0026    0.0070    0.0066   -0.0026
          57    0.0206    0.0277    0.0002   -0.0233    0.0023   -0.0154   -0.0130    0.0121
          58    0.0029    0.0313    0.0369   -0.0076    0.0305    0.0239    0.0718    0.0747
          59    0.0090    0.0166    0.0284    0.0046    0.0243    0.0182    0.0591    0.0758
          60    0.0019    0.0183    0.0113   -0.0095    0.0040    0.0106    0.0100   -0.0005
          61   -0.0235   -0.0196   -0.0044    0.0205    0.0181   -0.0384    0.0344    0.0542
          62    0.0222   -0.0035   -0.0076   -0.0032   -0.0040    0.0127   -0.0072   -0.0054
          63   -0.0508   -0.0181   -0.0034    0.0269    0.0206   -0.0450    0.0578    0.0895
          64   -0.0238   -0.0123    0.0182   -0.0752    0.0500    0.0248   -0.0775    0.0495
          65    0.0117   -0.0191   -0.0445    0.0821   -0.0958   -0.0352    0.1049   -0.0583
          66   -0.0445    0.0162    0.0337   -0.0895    0.0893    0.0323   -0.0953    0.0437
          67   -0.0224   -0.0295    0.0074   -0.0223    0.0073    0.0114    0.0170   -0.0129
          68    0.0073    0.0115   -0.0019    0.0092   -0.0002   -0.0010   -0.0033    0.0013
          69   -0.0008   -0.0003    0.0007   -0.0027   -0.0006    0.0020   -0.0013    0.0019
          70    0.0088    0.0268    0.0044    0.0324    0.0008   -0.0067    0.0349   -0.0313
          71   -0.0007   -0.0259   -0.0076   -0.0211   -0.0076    0.0043   -0.0319    0.0334
          72    0.0083    0.0289    0.0089    0.0288    0.0108   -0.0022    0.0309   -0.0301


   Root No.      41        42        43        44        45        46        47        48

                41 A      42 A      43 A      44 A      45 A      46 A      47 A      48 A   

                1291.9    1307.1    1332.6    1356.3    1390.7    1395.4    1404.7    1409.0
  
           1    0.0510    0.0235    0.0251    0.0017   -0.0043    0.0001   -0.0093    0.0116
           2    0.0083   -0.0129   -0.0001    0.0269    0.0095   -0.0003    0.0040   -0.0046
           3    0.0245    0.0111    0.0140   -0.0253   -0.0104   -0.0003   -0.0082    0.0126
           4   -0.0006    0.0332   -0.0354   -0.0117   -0.0122    0.0056   -0.0117    0.0086
           5    0.0216   -0.0103    0.0068    0.0083    0.0112   -0.0004    0.0024   -0.0054
           6   -0.0061   -0.0197    0.0133   -0.0021   -0.0025   -0.0071    0.0086   -0.0013
           7   -0.0137   -0.0153    0.0051    0.0033    0.0135    0.0009    0.0027   -0.0075
           8   -0.0236   -0.0029   -0.0118   -0.0287   -0.0312   -0.0038   -0.0019    0.0165
           9    0.0035    0.0099   -0.0048    0.0157    0.0360    0.0053    0.0022   -0.0198
          10   -0.0286   -0.0225    0.0048    0.0024    0.0041   -0.0006    0.0049   -0.0035
          11   -0.0243    0.0150   -0.0051    0.0061   -0.0207    0.0021   -0.0102    0.0087
          12    0.0211   -0.0034    0.0085    0.0001    0.0193   -0.0003    0.0076   -0.0094
          13   -0.0152   -0.0079   -0.0055   -0.0038   -0.0184   -0.0051    0.0226   -0.0241
          14    0.0074   -0.0025    0.0050   -0.0626   -0.0145   -0.0034    0.0148   -0.0162
          15   -0.0187    0.0006   -0.0074    0.0747   -0.0037   -0.0016    0.0059   -0.0055
          16    0.0013   -0.0012   -0.0041   -0.0004    0.0146   -0.0337    0.0160   -0.0081
          17   -0.0043    0.0014   -0.0002   -0.0020   -0.0055   -0.0075   -0.0205   -0.0154
          18    0.0010   -0.0032    0.0095    0.0030   -0.0091   -0.0180   -0.0139    0.0149
          19    0.0051    0.0046    0.0005    0.0063    0.0004    0.0008   -0.0043    0.0054
          20    0.0079    0.0031    0.0017   -0.0005    0.0223    0.0028    0.0012   -0.0113
          21   -0.0029   -0.0024    0.0021    0.0137   -0.0243   -0.0029   -0.0058    0.0192
          22    0.0036    0.0035    0.0018    0.0161   -0.0079   -0.0005   -0.0052    0.0104
          23   -0.0011    0.0064    0.0002    0.0439   -0.0067    0.0000   -0.0091    0.0153
          24    0.0040   -0.0034    0.0001   -0.0382   -0.0020   -0.0007    0.0053   -0.0070
          25    0.0228   -0.0100   -0.0043   -0.0003    0.0052   -0.0005    0.0024   -0.0024
          26    0.0080    0.0032    0.0152   -0.0043    0.0110   -0.0009    0.0045   -0.0041
          27   -0.0085   -0.0034   -0.0151    0.0026   -0.0116    0.0008   -0.0048    0.0047
          28   -0.0045   -0.0007   -0.0151    0.0038   -0.0114    0.0008   -0.0048    0.0044
          29   -0.0029    0.0008    0.0057   -0.0015    0.0043   -0.0003    0.0019   -0.0018
          30    0.0027   -0.0002   -0.0033    0.0013   -0.0027    0.0002   -0.0013    0.0011
          31   -0.0599   -0.0375   -0.0350   -0.0008    0.0254   -0.0001    0.0273   -0.0410
          32   -0.0341    0.0332   -0.0041   -0.0353   -0.0112    0.0026   -0.0099    0.0061
          33   -0.0551   -0.0271   -0.0289   -0.0305    0.0091    0.0000    0.0160   -0.0231
          34   -0.0189   -0.0636    0.0428   -0.0035   -0.0179   -0.0143    0.0142    0.0037
          35   -0.0643    0.0377   -0.0121   -0.0028   -0.0023    0.0009   -0.0122   -0.0049
          36    0.0007    0.0372   -0.0331   -0.0072    0.0011    0.0037   -0.0064    0.0011
          37    0.0142    0.0124   -0.0063    0.0011   -0.0084   -0.0038    0.0029    0.0011
          38    0.0065    0.0233   -0.0135    0.0420    0.0512    0.0096   -0.0002   -0.0245
          39   -0.0203   -0.0122   -0.0024   -0.0388   -0.0260   -0.0051    0.0010    0.0115
          40    0.0813    0.0653   -0.0116   -0.0072   -0.0144    0.0057   -0.0145    0.0080
          41    0.0455   -0.0168    0.0001    0.0009    0.0367    0.0032    0.0089   -0.0182
          42   -0.0178    0.0146    0.0053    0.0042   -0.0133   -0.0009   -0.0026    0.0054
          43   -0.0313   -0.0203   -0.0193   -0.0363    0.0405    0.0092   -0.0268    0.0239
          44   -0.0381   -0.0129   -0.0282    0.0416    0.1157    0.0266   -0.0918    0.0877
          45   -0.0335   -0.0385   -0.0257   -0.1616    0.0817    0.0203   -0.0664    0.0638
          46   -0.0439   -0.0254   -0.0340   -0.0793    0.1483    0.0354   -0.1207    0.1151
          47   -0.0120   -0.0009   -0.0040    0.0859   -0.0004   -0.0016    0.0076   -0.0084
          48    0.0057   -0.0032    0.0026   -0.1313   -0.0112   -0.0011    0.0050   -0.0052
          49   -0.0085   -0.0560    0.0704    0.0099   -0.0334   -0.1197   -0.0264    0.0736
          50    0.0072    0.0042   -0.0070    0.0017    0.0339    0.0948    0.2014    0.1596
          51    0.0064    0.0293   -0.0351   -0.0035    0.0190    0.0559    0.0218   -0.0261
          52   -0.0111   -0.0402    0.0543    0.0068   -0.0441    0.2118   -0.0699   -0.0428
[...]
 TRAVEL      0.0845        C  2 --  C  3           +8.5% ( 42.1%)    58.8%
 RED. MASS   0.7932        C  3 --  H 13           +8.4% ( 41.9%)     1.1%
 EFF. MASS   6.7870

 VIBRATION   46   46A       ATOM PAIR        ENERGY CONTRIBUTION    RADIAL
 FREQ.      1395.37        C  6 --  H 19          +48.3% ( 61.6%)     0.6%
 T-DIPOLE    0.0531        C  6 --  H 18          +30.6% ( 49.0%)     5.0%
 TRAVEL      0.1686        C  6 --  H 17          +10.9% ( 29.3%)    33.3%
 RED. MASS   0.4159        C  2 --  C  6           +5.9% ( 21.5%)    17.7%
 EFF. MASS   1.6994

 VIBRATION   47   47A       ATOM PAIR        ENERGY CONTRIBUTION    RADIAL
 FREQ.      1404.74        C  6 --  H 17          +21.9% ( 50.2%)     0.1%
 T-DIPOLE    0.0705        C  6 --  H 19          +11.4% ( 36.3%)    14.7%
 TRAVEL      0.1232        C  5 --  H 16          +10.5% ( 34.8%)     5.5%
 RED. MASS   0.2761        C  6 --  H 18          +10.3% ( 34.5%)     1.6%
 EFF. MASS   3.1641

 VIBRATION   48   48A       ATOM PAIR        ENERGY CONTRIBUTION    RADIAL
 FREQ.      1408.96        C  6 --  H 17          +13.1% ( 43.3%)     1.7%
 T-DIPOLE    0.0579        C  6 --  H 18          +10.5% ( 38.8%)     5.3%
 TRAVEL      0.1046        C  5 --  H 16           +8.6% ( 35.2%)     6.0%
 RED. MASS   0.3052        C  5 --  H 15           +8.0% ( 33.9%)     7.5%
 EFF. MASS   4.3752

 VIBRATION   49   49A       ATOM PAIR        ENERGY CONTRIBUTION    RADIAL
 FREQ.      1416.36        C  3 --  C  7          +12.1% ( 54.0%)    97.0%
 T-DIPOLE    0.0673        C  3 --  C  4          +10.1% ( 49.4%)    59.8%
 TRAVEL      0.0756        C  3 --  H 13           +6.8% ( 40.5%)     0.9%
 RED. MASS   1.0230        C  2 --  C  3           +6.5% ( 39.6%)     8.9%
 EFF. MASS   8.3332

 VIBRATION   50   50A       ATOM PAIR        ENERGY CONTRIBUTION    RADIAL
 FREQ.      1456.75        C  2 --  C  4          +12.6% ( 60.5%)    56.2%
 T-DIPOLE    0.1225        C  2 --  C  6          +11.4% ( 57.5%)    95.3%
 TRAVEL      0.0680        C  4 --  C  9           +8.6% ( 49.9%)    92.6%
 RED. MASS   1.8525        C  1 --  C  4           +8.3% ( 49.3%)    51.9%
 EFF. MASS   9.9985

 VIBRATION   51   51A       ATOM PAIR        ENERGY CONTRIBUTION    RADIAL
 FREQ.      1819.54        C  7 --  C  8          +45.8% (100.1%)   100.0%
 T-DIPOLE    0.1105        C  5 --  C  8          +14.0% ( 55.4%)    26.0%
 TRAVEL      0.0558        C  3 --  C  7          +13.8% ( 55.0%)    25.4%
 RED. MASS   5.3946        C  8 --  H 20          +13.1% ( 53.5%)     9.6%
 EFF. MASS  11.8820        C  7 --  H 21          +12.8% ( 53.0%)     9.8%

 VIBRATION   52   52A       ATOM PAIR        ENERGY CONTRIBUTION    RADIAL
 FREQ.      1860.95        C  9 --  C 10          +44.8% ( 99.1%)    98.8%
 T-DIPOLE    0.2567        C  4 --  C  9          +17.0% ( 61.1%)    57.1%
 TRAVEL      0.0554        C  9 --  H 22          +15.4% ( 58.2%)     3.7%
 RED. MASS   5.2999        C 10 --  H 24          +10.8% ( 48.6%)    10.2%
 EFF. MASS  11.8224        C 10 --  H 23          +10.5% ( 48.0%)    13.1%

 VIBRATION   53   53A       ATOM PAIR        ENERGY CONTRIBUTION    RADIAL
 FREQ.      2920.64        C  4 --  H 14          +88.9% ( 96.4%)   100.0%
 T-DIPOLE    0.1086        C  2 --  H 12           +6.7% ( 26.4%)   100.0%
 TRAVEL      0.1265        C  2 --  C  4           +1.1% ( 10.6%)    15.7%
 RED. MASS   0.8048        C  1 --  C  4           +1.0% ( 10.0%)    15.9%
 EFF. MASS   1.4427

 VIBRATION   54   54A       ATOM PAIR        ENERGY CONTRIBUTION    RADIAL
 FREQ.      2934.67        C  2 --  H 12          +88.6% ( 96.1%)   100.0%
 T-DIPOLE    0.1146        C  4 --  H 14           +6.6% ( 26.2%)    99.9%
 TRAVEL      0.1262        C  2 --  C  6           +1.0% ( 10.1%)     9.7%
 RED. MASS   0.7986        C  2 --  C  3           +1.0% ( 10.1%)     9.8%
 EFF. MASS   1.4426

 VIBRATION   55   55A       ATOM PAIR        ENERGY CONTRIBUTION    RADIAL
 FREQ.      2972.84        C  5 --  H 16          +50.1% ( 73.5%)    97.0%
 T-DIPOLE    0.0352        C  5 --  H 15          +44.2% ( 69.0%)    96.2%
 TRAVEL      0.1214        C  1 --  H 11           +3.1% ( 18.3%)    99.9%
 RED. MASS   0.4860        C  1 --  C  5           +1.2% ( 11.2%)     0.5%
 EFF. MASS   1.5402

 VIBRATION   56   56A       ATOM PAIR        ENERGY CONTRIBUTION    RADIAL
 FREQ.      2994.24        C  3 --  H 13          +60.7% ( 79.8%)   100.0%
 T-DIPOLE    0.1021        C  1 --  H 11          +33.0% ( 58.8%)   100.0%
 TRAVEL      0.1244        C  1 --  C  3           +1.1% ( 10.8%)     0.7%
 RED. MASS   0.4864        C  5 --  H 16           +1.0% ( 10.4%)    98.5%
 EFF. MASS   1.4560

 VIBRATION   57   57A       ATOM PAIR        ENERGY CONTRIBUTION    RADIAL
 FREQ.      3000.80        C  1 --  H 11          +59.0% ( 78.5%)   100.0%
 T-DIPOLE    0.1861        C  3 --  H 13          +34.3% ( 59.8%)   100.0%
 TRAVEL      0.1245        C  5 --  H 16           +1.5% ( 12.5%)    99.0%
 RED. MASS   0.4741        C  1 --  C  3           +1.1% ( 10.5%)    92.3%
 EFF. MASS   1.4497

 VIBRATION   58   58A       ATOM PAIR        ENERGY CONTRIBUTION    RADIAL
 FREQ.      3037.82        C  9 --  H 22          +96.3% ( 99.5%)   100.0%
 T-DIPOLE    0.2394        C  9 --  C 10           +1.4% ( 12.1%)    30.8%
 TRAVEL      0.1214        C  4 --  C  9           +1.4% ( 11.8%)    14.2%
 RED. MASS   0.9134        C 10 --  H 23           +0.8% (  9.2%)    94.9%
 EFF. MASS   1.5051

 VIBRATION   59   59A       ATOM PAIR        ENERGY CONTRIBUTION    RADIAL
 FREQ.      3050.06        C  5 --  H 15          +53.3% ( 72.0%)    98.0%
 T-DIPOLE    0.0897        C  5 --  H 16          +45.0% ( 66.2%)    96.9%
 TRAVEL      0.1312        C  1 --  C  5           +0.7% (  8.3%)    41.3%
 RED. MASS   0.4841        C  5 --  C  8           +0.7% (  8.2%)    31.0%
 EFF. MASS   1.2838

 VIBRATION   60   60A       ATOM PAIR        ENERGY CONTRIBUTION    RADIAL
 FREQ.      3074.43        C  6 --  H 17          +66.4% ( 84.1%)    99.0%
 T-DIPOLE    0.0401        C  6 --  H 19          +21.0% ( 47.3%)    88.2%
 TRAVEL      0.1207        C  6 --  H 18          +11.4% ( 34.9%)    76.8%
 RED. MASS   0.5267        C  2 --  C  6           +1.0% ( 10.4%)     0.0%
 EFF. MASS   1.5061

 VIBRATION   61   61A       ATOM PAIR        ENERGY CONTRIBUTION    RADIAL
 FREQ.      3081.61        C  6 --  H 18          +50.3% ( 73.2%)    97.5%
 T-DIPOLE    0.0195        C  6 --  H 19          +46.7% ( 70.5%)    96.5%
 TRAVEL      0.1205        C  6 --  H 17           +1.9% ( 14.1%)    18.4%
 RED. MASS   0.5022        C  2 --  C  6           +1.0% ( 10.4%)     0.0%
 EFF. MASS   1.5080

 VIBRATION   62   62A       ATOM PAIR        ENERGY CONTRIBUTION    RADIAL
 FREQ.      3114.63        C  8 --  H 20          +57.8% ( 77.2%)   100.0%
 T-DIPOLE    0.3631        C  7 --  H 21          +39.6% ( 63.9%)   100.0%
 TRAVEL      0.1216        C  7 --  C  8           +1.1% ( 10.8%)     0.8%
 RED. MASS   0.4810        C  5 --  C  8           +0.9% (  9.5%)    26.1%
 EFF. MASS   1.4643

 VIBRATION   63   63A       ATOM PAIR        ENERGY CONTRIBUTION    RADIAL
 FREQ.      3129.97        C 10 --  H 24          +96.6% ( 99.7%)   100.0%
 T-DIPOLE    0.2090        C 10 --  H 23           +1.9% ( 14.0%)    35.3%
 TRAVEL      0.1195        C  9 --  C 10           +1.4% ( 11.9%)    35.5%
 RED. MASS   0.9201
 EFF. MASS   1.5082

 VIBRATION   64   64A       ATOM PAIR        ENERGY CONTRIBUTION    RADIAL
 FREQ.      3133.72        C  7 --  H 21          +56.8% ( 76.8%)    99.9%
 T-DIPOLE    0.3511        C  8 --  H 20          +38.7% ( 63.4%)    99.9%
 TRAVEL      0.1144        C  7 --  C  8           +2.4% ( 15.9%)    99.1%
 RED. MASS   0.4824        C  3 --  C  7           +1.1% ( 10.6%)    20.5%
 EFF. MASS   1.6443

 VIBRATION   65   65A       ATOM PAIR        ENERGY CONTRIBUTION    RADIAL
 FREQ.      3148.19        C 10 --  H 23          +96.1% ( 99.1%)    99.9%
 T-DIPOLE    0.2511        C 10 --  H 24           +1.6% ( 12.6%)     0.0%
 TRAVEL      0.1197        C  9 --  C 10           +1.5% ( 12.5%)    57.4%
 RED. MASS   0.9012        C  9 --  H 22           +0.7% (  8.6%)    95.2%
 EFF. MASS   1.4955

 VIBRATION   66   66A       ATOM PAIR        ENERGY CONTRIBUTION    RADIAL
 FREQ.      3173.20        C  6 --  H 18          +38.0% ( 59.3%)    97.7%
 T-DIPOLE    0.0271        C  6 --  H 19          +31.2% ( 53.8%)    96.7%
 TRAVEL      0.1367        C  6 --  H 17          +30.5% ( 53.2%)    96.5%
 RED. MASS   0.3295        C  2 --  C  6           +0.3% (  5.2%)    99.2%
 EFF. MASS   1.1371

 SYMMETRY NUMBER FOR POINT-GROUP C1  =  1


          SYSTEM IS A GROUND STATE


    NULL



          MOLECULE IS NOT LINEAR

          THERE ARE 66 GENUINE VIBRATIONS IN THIS SYSTEM
          THIS THERMODYNAMICS CALCULATION IS LIMITED TO
          MOLECULES WHICH HAVE NO INTERNAL ROTATIONS




                    CALCULATED THERMODYNAMIC PROPERTIES
                                          *
   TEMP. (K)   PARTITION FUNCTION   H.O.F.    ENTHALPY  HEAT CAPACITY ENTROPY
                                   KCAL/MOL   CAL/MOLE    CAL/K/MOL  CAL/K/MOL


 298.00  VIB.     0.1487D+03                  4078.9467    31.0862    23.6270
         ROT.     0.5846D+06                   888.2813     2.9808    29.3682
         INT.     0.8690D+08                  4967.2280    34.0670    52.9952
         TRA.     0.1503D+28                  1480.4688     4.9680    40.5931
         TOT.                       29.179    6447.6968    39.0350    93.5882

 200.00  VIB.     0.1705D+02                  1677.0425    18.4077    14.0212
         ROT.     0.3214D+06                   596.1620     2.9808    28.1795
         INT.     0.5480D+07                  2273.2044    21.3885    42.2006
         TRA.     0.8266D+27                   993.6033     4.9680    38.6119
         TOT.                       25.998    3266.8077    26.3565    80.8126

 210.00  VIB.     0.2108D+02                  1866.8001    19.5509    14.9468
         ROT.     0.3458D+06                   625.9700     2.9808    28.3249
         INT.     0.7288D+07                  2492.7701    22.5317    43.2717
         TRA.     0.8893D+27                  1043.2834     4.9680    38.8543
         TOT.                       26.267    3536.0535    27.4997    82.1260

 220.00  VIB.     0.2611D+02                  2068.1986    20.7357    15.8835
         ROT.     0.3708D+06                   655.7781     2.9808    28.4636
         INT.     0.9680D+07                  2723.9767    23.7165    44.3470
         TRA.     0.9536D+27                  1092.9636     4.9680    39.0854
         TOT.                       26.548    3816.9403    28.6845    83.4325

 230.00  VIB.     0.3240D+02                  2281.6472    21.9605    16.8321
         ROT.     0.3964D+06                   685.5862     2.9808    28.5961
         INT.     0.1284D+08                  2967.2335    24.9414    45.4282
         TRA.     0.1019D+28                  1142.6437     4.9680    39.3063
         TOT.                       26.841    4109.8772    29.9094    84.7344

 240.00  VIB.     0.4030D+02                  2507.5346    23.2229    17.7932
         ROT.     0.4225D+06                   715.3943     2.9808    28.7229
         INT.     0.1702D+08                  3222.9290    26.2037    46.5162
         TRA.     0.1087D+28                  1192.3239     4.9680    39.5177
         TOT.                       27.147    4415.2529    31.1718    86.0339

 250.00  VIB.     0.5022D+02                  2746.2197    24.5195    18.7674
         ROT.     0.4492D+06                   745.2024     2.9808    28.8446
         INT.     0.2256D+08                  3491.4222    27.5003    47.6121
         TRA.     0.1155D+28                  1242.0041     4.9680    39.7205
         TOT.                       27.465    4733.4262    32.4683    87.3326

 260.00  VIB.     0.6271D+02                  2998.0249    25.8462    19.7549
         ROT.     0.4764D+06                   775.0105     2.9808    28.9615
         INT.     0.2987D+08                  3773.0354    28.8271    48.7164
         TRA.     0.1225D+28                  1291.6842     4.9680    39.9154
         TOT.                       27.796    5064.7196    33.7951    88.6318

 270.00  VIB.     0.7847D+02                  3263.2311    27.1990    20.7556
         ROT.     0.5041D+06                   804.8186     2.9808    29.0740
         INT.     0.3956D+08                  4068.0498    30.1798    49.8296
         TRA.     0.1297D+28                  1341.3644     4.9680    40.1029
         TOT.                       28.141    5409.4142    35.1478    89.9325

 280.00  VIB.     0.9839D+02                  3542.0756    28.5731    21.7695
         ROT.     0.5324D+06                   834.6267     2.9808    29.1824
         INT.     0.5239D+08                  4376.7023    31.5539    50.9520
         TRA.     0.1369D+28                  1391.0445     4.9680    40.2835
         TOT.                       28.499    5767.7469    36.5219    91.2355

 290.00  VIB.     0.1236D+03                  3834.7499    29.9642    22.7964
         ROT.     0.5612D+06                   864.4348     2.9808    29.2870
         INT.     0.6938D+08                  4699.1847    32.9450    52.0835
         TRA.     0.1443D+28                  1440.7247     4.9680    40.4579
         TOT.                       28.871    6139.9094    37.9130    92.5413

 300.00  VIB.     0.1557D+03                  4141.4005    31.3676    23.8359
         ROT.     0.5905D+06                   894.2429     2.9808    29.3881
         INT.     0.9193D+08                  5035.6434    34.3485    53.2240
         TRA.     0.1518D+28                  1490.4049     4.9680    40.6263
         TOT.                       29.257    6526.0483    39.3165    93.8503

 310.00  VIB.     0.1965D+03                  4462.1298    32.7792    24.8874
         ROT.     0.6202D+06                   924.0510     2.9808    29.4858
         INT.     0.1219D+09                  5386.1808    35.7600    54.3733
         TRA.     0.1595D+28                  1540.0850     4.9680    40.7892
         TOT.                       29.658    6926.2658    40.7280    95.1625

 320.00  VIB.     0.2484D+03                  4796.9981    34.1948    25.9505
         ROT.     0.6505D+06                   953.8591     2.9808    29.5805
         INT.     0.1616D+09                  5750.8572    37.1756    55.5309
         TRA.     0.1673D+28                  1589.7652     4.9680    40.9469
         TOT.                       30.072    7340.6224    42.1436    96.4779

 330.00  VIB.     0.3148D+03                  5146.0261    35.6105    27.0244
         ROT.     0.6812D+06                   983.6672     2.9808    29.6722
         INT.     0.2144D+09                  6129.6933    38.5914    56.6966
         TRA.     0.1752D+28                  1639.4454     4.9680    41.0998
         TOT.                       30.501    7769.1387    43.5594    97.7964

 340.00  VIB.     0.3997D+03                  5509.1979    37.0230    28.1084
         ROT.     0.7124D+06                  1013.4753     2.9808    29.7612
         INT.     0.2848D+09                  6522.6732    40.0038    57.8696
         TRA.     0.1832D+28                  1689.1255     4.9680    41.2481
         TOT.                       30.943    8211.7987    44.9718    99.1177

 350.00  VIB.     0.5086D+03                  5886.4641    38.4289    29.2019
         ROT.     0.7441D+06                  1043.2834     2.9808    29.8476
         INT.     0.3784D+09                  6929.7475    41.4097    59.0495
         TRA.     0.1914D+28                  1738.8057     4.9680    41.3921
         TOT.                       31.400    8668.5532    46.3777   100.4417

 360.00  VIB.     0.6483D+03                  6277.7451    39.8255    30.3041
         ROT.     0.7762D+06                  1073.0915     2.9808    29.9316
         INT.     0.5032D+09                  7350.8367    42.8063    60.2357
         TRA.     0.1996D+28                  1788.4859     4.9680    41.5321
         TOT.                       31.871    9139.3225    47.7743   101.7678

 370.00  VIB.     0.8281D+03                  6682.9348    41.2102    31.4142
         ROT.     0.8087D+06                  1102.8996     2.9808    30.0132
         INT.     0.6697D+09                  7785.8344    44.1911    61.4274
         TRA.     0.2080D+28                  1838.1660     4.9680    41.6682
         TOT.                       32.355    9624.0004    49.1591   103.0956

 380.00  VIB.     0.1060D+04                  7101.9032    42.5809    32.5315
         ROT.     0.8417D+06                  1132.7077     2.9808    30.0927
         INT.     0.8919D+09                  8234.6109    45.5617    62.6242
         TRA.     0.2165D+28                  1887.8462     4.9680    41.8007
         TOT.                       32.854   10122.4570    50.5297   104.4249

 390.00  VIB.     0.1358D+04                  7534.4999    43.9356    33.6551
         ROT.     0.8752D+06                  1162.5158     2.9808    30.1701
         INT.     0.1189D+10                  8697.0157    46.9164    63.8252
         TRA.     0.2251D+28                  1937.5263     4.9680    41.9297
         TOT.                       33.366   10634.5421    51.8845   105.7550

 400.00  VIB.     0.1744D+04                  7980.5574    45.2728    34.7843
         ROT.     0.9091D+06                  1192.3239     2.9808    30.2456
         INT.     0.1586D+10                  9172.8813    48.2536    65.0299
         TRA.     0.2338D+28                  1987.2065     4.9680    42.0555
         TOT.                       33.892   11160.0878    53.2216   107.0854

   *: NOTE: HEATS OF FORMATION ARE RELATIVE TO THE
            ELEMENTS IN THEIR STANDARD STATE AT 298K
              (=  Standard Enthalpy of Formation).

            Hvib:  Zero-point energy is not included.
                   frequencies of less than zero cm-1 are not included.
            Hrot = (3/2)RT
            Htra = (3/2)RT + pV = (5/2)RT

            Heat capacity is Cp, not Cv

           For more information, see: HTTP://OpenMOPAC.net/Manual/thermochemistry.html


           FORCE CONSTANT IN CARTESIAN COORDINATES (Millidynes/A)

    ATOM   CHEMICAL       X               Y               Z
   NUMBER   SYMBOL  FORCE CONSTANT  FORCE CONSTANT  FORCE CONSTANT

      1       C        9.102651        6.496434        8.955223
      2       C        9.565267        6.023008        8.849587
      3       C        6.329581        9.297082        9.494910
      4       C        6.236005        9.837073        8.915165
      5       C        9.047522        8.524946        7.727765
      6       C        8.440735        8.347596        8.345139
      7       C       10.782356        8.237009        8.476145
      8       C       10.099910        6.806389       10.371852
      9       C       13.266353        7.198869        6.846729
     10       C       13.052090        6.846047        6.599194
     11       H        2.135828        0.683512        3.568494
     12       H        1.773232        0.688671        3.749730
     13       H        0.651905        2.330326        3.329461
     14       H        0.663458        1.725115        3.704853
     15       H        4.587188        0.881275        0.915913
     16       H        0.688476        3.486003        2.196130
     17       H        1.761101        0.678278        4.303957
     18       H        2.417138        3.600057        0.729437
     19       H        2.065023        3.961672        0.694670
     20       H        1.135621        1.147928        4.136402
     21       H        2.222596        3.225159        0.964429
     22       H        4.257492        0.758296        1.187460
     23       H        0.694386        2.735422        3.054950
     24       H        4.626694        0.680965        1.128777



 TOTAL CPU TIME:             3.64 SECONDS

 == MOPAC DONE ==
