 *******************************************************************************
 ** Site#: 14399           For non-commercial use only        Version 13.159M **
 *******************************************************************************
 ** Cite this work as: MOPAC2012, James J. P. Stewart, Stewart Computational  **
 ** Chemistry, Version 13.159M web: HTTP://OpenMOPAC.net  Days remaining:   6 **
 *******************************************************************************
 **                                                                           **
 **                                MOPAC2012                                  **
 **                                                                           **
 *******************************************************************************

                            PM3 CALCULATION RESULTS


 *******************************************************************************
 *  CALCULATION DONE:                                Mon Jun  2 14:11:17 2014  *
 *  PM3      - The PM3 Hamiltonian to be used
 *  PRECISE  - CRITERIA TO BE INCREASED BY 100 TIMES
 *  NOSYM    - POINT-GROUP SYMMETRY SET TO C1
 *  T=       - A TIME OF 172800.0 SECONDS REQUESTED
 *  DUMP=N   - RESTART FILE WRITTEN EVERY  7200.000 SECONDS
 *******************************************************************************
pm3  precise nosym
 InChI=1S/C7H12O/c1-2-3-4-7-5-6-8-7/h3-4,7H,2,5-6H2,1H3

   ATOM   CHEMICAL          X               Y               Z
  NUMBER   SYMBOL      (ANGSTROMS)     (ANGSTROMS)     (ANGSTROMS)
 
     1       C          1.54270000  *  -0.52170000  *   0.63180000  *
     2       C          2.09210000  *   0.71990000  *  -0.13440000  *
     3       C         -2.25080000  *  -0.84210000  *  -0.13540000  *
     4       C          2.75700000  *   1.00290000  *   1.19670000  *
     5       C         -2.89790000  *   0.22150000  *  -1.01290000  *
     6       C          0.04790000  *  -0.55260000  *   0.78630000  *
     7       C         -0.75400000  *  -0.80530000  *  -0.25600000  *
     8       O          2.19950000  *  -0.12060000  *   1.85160000  *
     9       H          1.95500000  *  -1.49010000  *   0.26070000  *
    10       H          2.81280000  *   0.44920000  *  -0.93970000  *
    11       H          1.32800000  *   1.48370000  *  -0.41040000  *
    12       H         -2.60400000  *  -1.84850000  *  -0.45650000  *
    13       H         -2.59540000  *  -0.69500000  *   0.91510000  *
    14       H          2.40860000  *   1.95180000  *   1.66730000  *
    15       H          3.86920000  *   0.93120000  *   1.15630000  *
    16       H         -2.57520000  *   1.24090000  *  -0.69960000  *
    17       H         -2.63470000  *   0.07010000  *  -2.08500000  *
    18       H         -4.00610000  *   0.16480000  *  -0.91970000  *
    19       H         -0.31810000  *  -0.99180000  *  -1.23780000  *
    20       H         -0.37660000  *  -0.36860000  *   1.77290000  *
 


          CARTESIAN COORDINATES 

    NO.       ATOM         X         Y         Z

     1         C        1.5427   -0.5217    0.6318
     2         C        2.0921    0.7199   -0.1344
     3         C       -2.2508   -0.8421   -0.1354
     4         C        2.7570    1.0029    1.1967
     5         C       -2.8979    0.2215   -1.0129
     6         C        0.0479   -0.5526    0.7863
     7         C       -0.7540   -0.8053   -0.2560
     8         O        2.1995   -0.1206    1.8516
     9         H        1.9550   -1.4901    0.2607
    10         H        2.8128    0.4492   -0.9397
    11         H        1.3280    1.4837   -0.4104
    12         H       -2.6040   -1.8485   -0.4565
    13         H       -2.5954   -0.6950    0.9151
    14         H        2.4086    1.9518    1.6673
    15         H        3.8692    0.9312    1.1563
    16         H       -2.5752    1.2409   -0.6996
    17         H       -2.6347    0.0701   -2.0850
    18         H       -4.0061    0.1648   -0.9197
    19         H       -0.3181   -0.9918   -1.2378
    20         H       -0.3766   -0.3686    1.7729

  H: (PM3): J. J. P. STEWART, J. COMP. CHEM. 10, 209 (1989).
  C: (PM3): J. J. P. STEWART, J. COMP. CHEM. 10, 209 (1989).
  O: (PM3): J. J. P. STEWART, J. COMP. CHEM. 10, 209 (1989).

           Empirical Formula: C7 H12 O  =    20 atoms



      MOLECULAR POINT GROUP   :   C1  


      RHF CALCULATION, NO. OF DOUBLY OCCUPIED LEVELS =   23

      Geometry optimization using EF

          DIAGONAL MATRIX USED AS START HESSIAN

 CYCLE:     1 TIME:   0.009 TIME LEFT:  2.00D  GRAD.:    99.033 HEAT:-18.13551
 CYCLE:     2 TIME:   0.011 TIME LEFT:  2.00D  GRAD.:   123.975 HEAT:-18.40453
 CYCLE:     3 TIME:   0.011 TIME LEFT:  2.00D  GRAD.:    72.171 HEAT:-21.05261
 CYCLE:     4 TIME:   0.010 TIME LEFT:  2.00D  GRAD.:    29.894 HEAT:-22.07883
 CYCLE:     5 TIME:   0.009 TIME LEFT:  2.00D  GRAD.:    27.854 HEAT:-22.47224
 CYCLE:     6 TIME:   0.006 TIME LEFT:  2.00D  GRAD.:    25.897 HEAT:-22.89493
 CYCLE:     7 TIME:   0.010 TIME LEFT:  2.00D  GRAD.:    21.613 HEAT:-23.09311
 CYCLE:     8 TIME:   0.009 TIME LEFT:  2.00D  GRAD.:    14.656 HEAT:-23.21556
 CYCLE:     9 TIME:   0.009 TIME LEFT:  2.00D  GRAD.:     9.380 HEAT:-23.28173
 CYCLE:    10 TIME:   0.005 TIME LEFT:  2.00D  GRAD.:    14.195 HEAT:-23.30100
 CYCLE:    11 TIME:   0.010 TIME LEFT:  2.00D  GRAD.:     8.805 HEAT:-23.33964
 CYCLE:    12 TIME:   0.010 TIME LEFT:  2.00D  GRAD.:     6.489 HEAT:-23.35694
 CYCLE:    13 TIME:   0.005 TIME LEFT:  2.00D  GRAD.:     3.696 HEAT:-23.37284
 CYCLE:    14 TIME:   0.010 TIME LEFT:  2.00D  GRAD.:     4.727 HEAT:-23.37914
 CYCLE:    15 TIME:   0.005 TIME LEFT:  2.00D  GRAD.:     3.152 HEAT:-23.38795
 CYCLE:    16 TIME:   0.009 TIME LEFT:  2.00D  GRAD.:     4.595 HEAT:-23.38762
 CYCLE:    17 TIME:   0.005 TIME LEFT:  2.00D  GRAD.:     3.621 HEAT:-23.39157
 CYCLE:    18 TIME:   0.005 TIME LEFT:  2.00D  GRAD.:     5.924 HEAT:-23.38493
 CYCLE:    19 TIME:   0.005 TIME LEFT:  2.00D  GRAD.:     2.612 HEAT:-23.39448
 CYCLE:    20 TIME:   0.006 TIME LEFT:  2.00D  GRAD.:     3.588 HEAT:-23.39288
 CYCLE:    21 TIME:   0.005 TIME LEFT:  2.00D  GRAD.:     1.407 HEAT:-23.39716
 CYCLE:    22 TIME:   0.005 TIME LEFT:  2.00D  GRAD.:     2.098 HEAT:-23.39701
 CYCLE:    23 TIME:   0.005 TIME LEFT:  2.00D  GRAD.:     0.777 HEAT:-23.39868
 CYCLE:    24 TIME:   0.005 TIME LEFT:  2.00D  GRAD.:     1.057 HEAT:-23.39962
 CYCLE:    25 TIME:   0.005 TIME LEFT:  2.00D  GRAD.:     1.537 HEAT:-23.40131
 CYCLE:    26 TIME:   0.005 TIME LEFT:  2.00D  GRAD.:     1.739 HEAT:-23.40276
 CYCLE:    27 TIME:   0.005 TIME LEFT:  2.00D  GRAD.:     0.889 HEAT:-23.40398
 CYCLE:    28 TIME:   0.005 TIME LEFT:  2.00D  GRAD.:     0.805 HEAT:-23.40456
 CYCLE:    29 TIME:   0.009 TIME LEFT:  2.00D  GRAD.:     0.677 HEAT:-23.40535
 CYCLE:    30 TIME:   0.009 TIME LEFT:  2.00D  GRAD.:     0.933 HEAT:-23.40678
 CYCLE:    31 TIME:   0.006 TIME LEFT:  2.00D  GRAD.:     0.690 HEAT:-23.40745
 CYCLE:    32 TIME:   0.005 TIME LEFT:  2.00D  GRAD.:     0.675 HEAT:-23.40814
 CYCLE:    33 TIME:   0.006 TIME LEFT:  2.00D  GRAD.:     1.327 HEAT:-23.41000
 CYCLE:    34 TIME:   0.005 TIME LEFT:  2.00D  GRAD.:     1.158 HEAT:-23.41111
 CYCLE:    35 TIME:   0.006 TIME LEFT:  2.00D  GRAD.:     0.952 HEAT:-23.41260
 CYCLE:    36 TIME:   0.006 TIME LEFT:  2.00D  GRAD.:     1.242 HEAT:-23.41549
 CYCLE:    37 TIME:   0.005 TIME LEFT:  2.00D  GRAD.:     1.442 HEAT:-23.41772
 CYCLE:    38 TIME:   0.005 TIME LEFT:  2.00D  GRAD.:     1.549 HEAT:-23.42205
 CYCLE:    39 TIME:   0.005 TIME LEFT:  2.00D  GRAD.:     1.514 HEAT:-23.42773
 CYCLE:    40 TIME:   0.005 TIME LEFT:  2.00D  GRAD.:     1.284 HEAT:-23.43080
 CYCLE:    41 TIME:   0.005 TIME LEFT:  2.00D  GRAD.:     1.149 HEAT:-23.43486
 CYCLE:    42 TIME:   0.005 TIME LEFT:  2.00D  GRAD.:     1.028 HEAT:-23.43667
 CYCLE:    43 TIME:   0.005 TIME LEFT:  2.00D  GRAD.:     1.008 HEAT:-23.43974
 CYCLE:    44 TIME:   0.005 TIME LEFT:  2.00D  GRAD.:     1.101 HEAT:-23.44178
 CYCLE:    45 TIME:   0.006 TIME LEFT:  2.00D  GRAD.:     0.893 HEAT:-23.44332
 CYCLE:    46 TIME:   0.005 TIME LEFT:  2.00D  GRAD.:     0.646 HEAT:-23.44446
 CYCLE:    47 TIME:   0.005 TIME LEFT:  2.00D  GRAD.:     0.509 HEAT:-23.44537
 CYCLE:    48 TIME:   0.005 TIME LEFT:  2.00D  GRAD.:     0.464 HEAT:-23.44601
 CYCLE:    49 TIME:   0.005 TIME LEFT:  2.00D  GRAD.:     0.345 HEAT:-23.44627
 CYCLE:    50 TIME:   0.005 TIME LEFT:  2.00D  GRAD.:     0.340 HEAT:-23.44652
 CYCLE:    51 TIME:   0.005 TIME LEFT:  2.00D  GRAD.:     0.398 HEAT:-23.44680
 CYCLE:    52 TIME:   0.005 TIME LEFT:  2.00D  GRAD.:     0.506 HEAT:-23.44728
 CYCLE:    53 TIME:   0.005 TIME LEFT:  2.00D  GRAD.:     0.518 HEAT:-23.44775
 CYCLE:    54 TIME:   0.005 TIME LEFT:  2.00D  GRAD.:     0.507 HEAT:-23.44832
 CYCLE:    55 TIME:   0.005 TIME LEFT:  2.00D  GRAD.:     0.520 HEAT:-23.44897
 CYCLE:    56 TIME:   0.005 TIME LEFT:  2.00D  GRAD.:     0.464 HEAT:-23.44949
 CYCLE:    57 TIME:   0.005 TIME LEFT:  2.00D  GRAD.:     0.358 HEAT:-23.44984
 CYCLE:    58 TIME:   0.005 TIME LEFT:  2.00D  GRAD.:     0.305 HEAT:-23.45003
 CYCLE:    59 TIME:   0.005 TIME LEFT:  2.00D  GRAD.:     0.338 HEAT:-23.45026
 CYCLE:    60 TIME:   0.005 TIME LEFT:  2.00D  GRAD.:     0.396 HEAT:-23.45057
 CYCLE:    61 TIME:   0.005 TIME LEFT:  2.00D  GRAD.:     0.344 HEAT:-23.45084
 CYCLE:    62 TIME:   0.006 TIME LEFT:  2.00D  GRAD.:     0.300 HEAT:-23.45108
 CYCLE:    63 TIME:   0.005 TIME LEFT:  2.00D  GRAD.:     0.285 HEAT:-23.45119
 CYCLE:    64 TIME:   0.005 TIME LEFT:  2.00D  GRAD.:     0.417 HEAT:-23.45153
 CYCLE:    65 TIME:   0.005 TIME LEFT:  2.00D  GRAD.:     0.273 HEAT:-23.45170
 CYCLE:    66 TIME:   0.005 TIME LEFT:  2.00D  GRAD.:     0.155 HEAT:-23.45187
 CYCLE:    67 TIME:   0.005 TIME LEFT:  2.00D  GRAD.:     0.108 HEAT:-23.45190
 CYCLE:    68 TIME:   0.005 TIME LEFT:  2.00D  GRAD.:     0.065 HEAT:-23.45193
 CYCLE:    69 TIME:   0.005 TIME LEFT:  2.00D  GRAD.:     0.083 HEAT:-23.45194
 CYCLE:    70 TIME:   0.005 TIME LEFT:  2.00D  GRAD.:     0.074 HEAT:-23.45195
 CYCLE:    71 TIME:   0.005 TIME LEFT:  2.00D  GRAD.:     0.082 HEAT:-23.45196
 CYCLE:    72 TIME:   0.005 TIME LEFT:  2.00D  GRAD.:     0.071 HEAT:-23.45198
 CYCLE:    73 TIME:   0.005 TIME LEFT:  2.00D  GRAD.:     0.122 HEAT:-23.45203
 CYCLE:    74 TIME:   0.005 TIME LEFT:  2.00D  GRAD.:     0.145 HEAT:-23.45208
 CYCLE:    75 TIME:   0.005 TIME LEFT:  2.00D  GRAD.:     0.154 HEAT:-23.45218
 CYCLE:    76 TIME:   0.005 TIME LEFT:  2.00D  GRAD.:     0.197 HEAT:-23.45229
 CYCLE:    77 TIME:   0.005 TIME LEFT:  2.00D  GRAD.:     0.225 HEAT:-23.45248
 CYCLE:    78 TIME:   0.005 TIME LEFT:  2.00D  GRAD.:     0.298 HEAT:-23.45275
 CYCLE:    79 TIME:   0.005 TIME LEFT:  2.00D  GRAD.:     0.308 HEAT:-23.45296
 CYCLE:    80 TIME:   0.006 TIME LEFT:  2.00D  GRAD.:     1.748 HEAT:-23.44898
 CYCLE:    81 TIME:   0.009 TIME LEFT:  2.00D  GRAD.:     0.448 HEAT:-23.45349
 CYCLE:    82 TIME:   0.006 TIME LEFT:  2.00D  GRAD.:     0.302 HEAT:-23.45370
 CYCLE:    83 TIME:   0.006 TIME LEFT:  2.00D  GRAD.:     0.225 HEAT:-23.45405
 CYCLE:    84 TIME:   0.006 TIME LEFT:  2.00D  GRAD.:     0.205 HEAT:-23.45421
 CYCLE:    85 TIME:   0.005 TIME LEFT:  2.00D  GRAD.:     0.171 HEAT:-23.45432
 CYCLE:    86 TIME:   0.005 TIME LEFT:  2.00D  GRAD.:     0.174 HEAT:-23.45442
 CYCLE:    87 TIME:   0.005 TIME LEFT:  2.00D  GRAD.:     0.180 HEAT:-23.45450
 CYCLE:    88 TIME:   0.005 TIME LEFT:  2.00D  GRAD.:     0.225 HEAT:-23.45465
 CYCLE:    89 TIME:   0.005 TIME LEFT:  2.00D  GRAD.:     0.276 HEAT:-23.45481
 CYCLE:    90 TIME:   0.005 TIME LEFT:  2.00D  GRAD.:     0.397 HEAT:-23.45515
 CYCLE:    91 TIME:   0.005 TIME LEFT:  2.00D  GRAD.:     0.479 HEAT:-23.45544
 CYCLE:    92 TIME:   0.006 TIME LEFT:  2.00D  GRAD.:     1.264 HEAT:-23.45590
 CYCLE:    93 TIME:   0.006 TIME LEFT:  2.00D  GRAD.:     0.770 HEAT:-23.45723
 CYCLE:    94 TIME:   0.005 TIME LEFT:  2.00D  GRAD.:     0.526 HEAT:-23.45799
 CYCLE:    95 TIME:   0.006 TIME LEFT:  2.00D  GRAD.:     1.144 HEAT:-23.46005
 CYCLE:    96 TIME:   0.005 TIME LEFT:  2.00D  GRAD.:     1.198 HEAT:-23.46108
 CYCLE:    97 TIME:   0.006 TIME LEFT:  2.00D  GRAD.:     0.894 HEAT:-23.46432
 CYCLE:    98 TIME:   0.005 TIME LEFT:  2.00D  GRAD.:     0.538 HEAT:-23.46533
 CYCLE:    99 TIME:   0.006 TIME LEFT:  2.00D  GRAD.:     2.041 HEAT:-23.46491
 CYCLE:   100 TIME:   0.005 TIME LEFT:  2.00D  GRAD.:     0.528 HEAT:-23.46681
 CYCLE:   101 TIME:   0.005 TIME LEFT:  2.00D  GRAD.:     0.427 HEAT:-23.46752
 CYCLE:   102 TIME:   0.006 TIME LEFT:  2.00D  GRAD.:     0.891 HEAT:-23.46852
 CYCLE:   103 TIME:   0.005 TIME LEFT:  2.00D  GRAD.:     0.717 HEAT:-23.46927
 CYCLE:   104 TIME:   0.006 TIME LEFT:  2.00D  GRAD.:     0.638 HEAT:-23.47025
 CYCLE:   105 TIME:   0.006 TIME LEFT:  2.00D  GRAD.:     1.061 HEAT:-23.47041
 CYCLE:   106 TIME:   0.005 TIME LEFT:  2.00D  GRAD.:     0.635 HEAT:-23.47116
 CYCLE:   107 TIME:   0.005 TIME LEFT:  2.00D  GRAD.:     0.352 HEAT:-23.47164
 CYCLE:   108 TIME:   0.006 TIME LEFT:  2.00D  GRAD.:     0.742 HEAT:-23.47242
 CYCLE:   109 TIME:   0.005 TIME LEFT:  2.00D  GRAD.:     0.288 HEAT:-23.47305
 CYCLE:   110 TIME:   0.006 TIME LEFT:  2.00D  GRAD.:     0.497 HEAT:-23.47389
 CYCLE:   111 TIME:   0.005 TIME LEFT:  2.00D  GRAD.:     0.569 HEAT:-23.47433
 CYCLE:   112 TIME:   0.005 TIME LEFT:  2.00D  GRAD.:     0.617 HEAT:-23.47498
 CYCLE:   113 TIME:   0.006 TIME LEFT:  2.00D  GRAD.:     0.925 HEAT:-23.47481
 CYCLE:   114 TIME:   0.005 TIME LEFT:  2.00D  GRAD.:     0.520 HEAT:-23.47579
 CYCLE:   115 TIME:   0.005 TIME LEFT:  2.00D  GRAD.:     0.454 HEAT:-23.47615
 CYCLE:   116 TIME:   0.005 TIME LEFT:  2.00D  GRAD.:     0.528 HEAT:-23.47658
 CYCLE:   117 TIME:   0.005 TIME LEFT:  2.00D  GRAD.:     0.408 HEAT:-23.47688
 CYCLE:   118 TIME:   0.005 TIME LEFT:  2.00D  GRAD.:     0.441 HEAT:-23.47720
 CYCLE:   119 TIME:   0.005 TIME LEFT:  2.00D  GRAD.:     0.756 HEAT:-23.47880
 CYCLE:   120 TIME:   0.005 TIME LEFT:  2.00D  GRAD.:     0.724 HEAT:-23.47964
 CYCLE:   121 TIME:   0.006 TIME LEFT:  2.00D  GRAD.:     0.903 HEAT:-23.48162
 CYCLE:   122 TIME:   0.005 TIME LEFT:  2.00D  GRAD.:     1.117 HEAT:-23.48246
 CYCLE:   123 TIME:   0.005 TIME LEFT:  2.00D  GRAD.:     0.564 HEAT:-23.48347
 CYCLE:   124 TIME:   0.006 TIME LEFT:  2.00D  GRAD.:     0.444 HEAT:-23.48375
 CYCLE:   125 TIME:   0.006 TIME LEFT:  2.00D  GRAD.:     0.238 HEAT:-23.48390
 CYCLE:   126 TIME:   0.005 TIME LEFT:  2.00D  GRAD.:     0.230 HEAT:-23.48396
 CYCLE:   127 TIME:   0.005 TIME LEFT:  2.00D  GRAD.:     0.276 HEAT:-23.48405
 CYCLE:   128 TIME:   0.005 TIME LEFT:  2.00D  GRAD.:     0.673 HEAT:-23.48371
 CYCLE:   129 TIME:   0.005 TIME LEFT:  2.00D  GRAD.:     0.314 HEAT:-23.48413
 CYCLE:   130 TIME:   0.005 TIME LEFT:  2.00D  GRAD.:     0.216 HEAT:-23.48418
 CYCLE:   131 TIME:   0.005 TIME LEFT:  2.00D  GRAD.:     0.079 HEAT:-23.48424
 CYCLE:   132 TIME:   0.005 TIME LEFT:  2.00D  GRAD.:     0.066 HEAT:-23.48433
 CYCLE:   133 TIME:   0.006 TIME LEFT:  2.00D  GRAD.:     0.230 HEAT:-23.48452
 CYCLE:   134 TIME:   0.005 TIME LEFT:  2.00D  GRAD.:     0.090 HEAT:-23.48454
 CYCLE:   135 TIME:   0.005 TIME LEFT:  2.00D  GRAD.:     0.145 HEAT:-23.48447
 CYCLE:   136 TIME:   0.005 TIME LEFT:  2.00D  GRAD.:     0.028 HEAT:-23.48454

     RMS GRADIENT =  0.02779  IS LESS THAN CUTOFF =  0.05000



 -------------------------------------------------------------------------------
pm3  precise nosym
 InChI=1S/C7H12O/c1-2-3-4-7-5-6-8-7/h3-4,7H,2,5-6H2,1H3



     GEOMETRY OPTIMISED USING EIGENVECTOR FOLLOWING (EF).     
     SCF FIELD WAS ACHIEVED                                   


                              PM3 CALCULATION
                                                       MOPAC2012 (Version: 13.159M)
                                                       Mon Jun  2 14:11:18 2014
                                                       No. of days left =   6




          FINAL HEAT OF FORMATION =        -23.48454 KCAL/MOL =     -98.25932 KJ/MOL


          TOTAL ENERGY            =      -1307.41837 EV
          ELECTRONIC ENERGY       =      -6047.51067 EV  POINT GROUP:     C1  
          CORE-CORE REPULSION     =       4740.09229 EV
          COSMO AREA              =        169.17 SQUARE ANGSTROMS
          COSMO VOLUME            =        160.70 CUBIC ANGSTROMS

          GRADIENT NORM           =          0.02779
          IONIZATION POTENTIAL    =          9.918274 EV
          HOMO LUMO ENERGIES (EV) =         -9.918  0.866
          NO. OF FILLED LEVELS    =         23
          MOLECULAR WEIGHT        =        112.171

          MOLECULAR DIMENSIONS (Angstroms)

            Atom       Atom       Distance
            H    18    H    15     8.43304
            H    20    H    10     3.45558
            H     9    H    14     3.24686


          SCF CALCULATIONS        =        147
          COMPUTATION TIME        =          0.800 SECONDS




   ATOM   CHEMICAL          X               Y               Z
  NUMBER   SYMBOL      (ANGSTROMS)     (ANGSTROMS)     (ANGSTROMS)
 
     1       C          1.51289379  *  -0.45290540  *   0.51070136  *
     2       C          2.13208164  *   0.87203551  *  -0.01400426  *
     3       C         -2.29402673  *  -0.73196277  *  -0.03387277  *
     4       C          2.89957018  *   0.91441684  *   1.32225376  *
     5       C         -2.99021244  *  -0.00091505  *  -1.16170620  *
     6       C          0.04211520  *  -0.42330178  *   0.73662215  *
     7       C         -0.81923408  *  -0.74810890  *  -0.22846635  *
     8       O          2.27873509  *  -0.32460411  *   1.75057669  *
     9       H          1.82966745  *  -1.37108519  *  -0.02705974  *
    10       H          2.74884796  *   0.77917085  *  -0.91885182  *
    11       H          1.42027869  *   1.69312109  *  -0.18196932  *
    12       H         -2.64832479  *  -1.78131889  *   0.01873973  *
    13       H         -2.56477295  *  -0.27524790  *   0.93922218  *
    14       H          2.65156445  *   1.73877504  *   2.00638377  *
    15       H          3.99259494  *   0.80804994  *   1.26660869  *
    16       H         -2.67967486  *   1.05063338  *  -1.21351394  *
    17       H         -2.77040289  *  -0.45419100  *  -2.13750222  *
    18       H         -4.07965931  *  -0.01581109  *  -1.03036019  *
    19       H         -0.46850090  *  -1.05207237  *  -1.22308059  *
    20       H         -0.29804289  *  -0.12292849  *   1.73614159  *

           Empirical Formula: C7 H12 O  =    20 atoms



      MOLECULAR POINT GROUP   :   C1  


                  EIGENVALUES  
 -40.69203 -36.77872 -30.99310 -29.00349 -25.40252 -22.36138 -20.25892 -19.53374
 -17.53176 -17.21668 -16.49288 -15.40060 -15.24888 -14.45902 -13.66329 -13.29327
 -13.05149 -12.89680 -12.36244 -12.20919 -12.02527 -10.64745  -9.91827   0.86580
   2.82986   2.99832   3.14524   3.48913   3.54987   3.71875   3.81540   3.86392
   3.95932   4.04960   4.15994   4.23032   4.52670   4.60831   4.75565   4.81769
   4.87048   5.07149   5.59491   5.83706


              NET ATOMIC CHARGES AND DIPOLE CONTRIBUTIONS

  ATOM NO.   TYPE          CHARGE      No. of ELECS.   s-Pop       p-Pop       
    1          C           0.104369        3.8956     1.17393     2.72170
    2          C          -0.162574        4.1626     1.18563     2.97694
    3          C          -0.063629        4.0636     1.14597     2.91766
    4          C           0.057972        3.9420     1.16485     2.77718
    5          C          -0.105826        4.1058     1.13760     2.96823
    6          C          -0.169625        4.1696     1.19995     2.96968
    7          C          -0.135680        4.1357     1.19580     2.93988
    8          O          -0.273976        6.2740     1.88429     4.38969
    9          H           0.071518        0.9285     0.92848
   10          H           0.065953        0.9340     0.93405
   11          H           0.072096        0.9279     0.92790
   12          H           0.055627        0.9444     0.94437
   13          H           0.053877        0.9461     0.94612
   14          H           0.048058        0.9519     0.95194
   15          H           0.047852        0.9521     0.95215
   16          H           0.039339        0.9607     0.96066
   17          H           0.037831        0.9622     0.96217
   18          H           0.038234        0.9618     0.96177
   19          H           0.099773        0.9002     0.90023
   20          H           0.118810        0.8812     0.88119
 DIPOLE           X         Y         Z       TOTAL
 POINT-CHG.    -0.381     0.771    -1.282     1.544
 HYBRID        -0.011     0.157    -0.222     0.273
 SUM           -0.393     0.929    -1.505     1.811


          ATOMIC ORBITAL ELECTRON POPULATIONS

    Atom      s        px        py        pz   
    1  C   1.17393   0.89855   0.95846   0.86469
    2  C   1.18563   1.00522   0.98868   0.98305
    3  C   1.14597   0.93054   1.00199   0.98514
    4  C   1.16485   0.96309   0.88729   0.92679
    5  C   1.13760   0.99370   0.99798   0.97654
    6  C   1.19995   0.95354   1.01804   0.99810
    7  C   1.19580   0.95843   0.99611   0.98535
    8  O   1.88429   1.61245   1.40779   1.36945
    9  H   0.92848
   10  H   0.93405
   11  H   0.92790
   12  H   0.94437
   13  H   0.94612
   14  H   0.95194
   15  H   0.95215
   16  H   0.96066
   17  H   0.96217
   18  H   0.96177
   19  H   0.90023
   20  H   0.88119
 *******************************************************************************
 ** Site#: 14399           For non-commercial use only        Version 13.159M **
 *******************************************************************************
 ** Cite this work as: MOPAC2012, James J. P. Stewart, Stewart Computational  **
 ** Chemistry, Version 13.159M web: HTTP://OpenMOPAC.net  Days remaining:   6 **
 *******************************************************************************
 **                                                                           **
 **                                MOPAC2012                                  **
 **                                                                           **
 *******************************************************************************

                            PM3 CALCULATION RESULTS


 *******************************************************************************
 *  CALCULATION DONE:                                Mon Jun  2 14:11:18 2014  *
 *  PM3      - The PM3 Hamiltonian to be used
 *  OLDGEO   - PREVIOUS GEOMETRY TO BE USED
 *  PRECISE  - CRITERIA TO BE INCREASED BY 100 TIMES
 *  NOSYM    - POINT-GROUP SYMMETRY SET TO C1
 *  T=       - A TIME OF 172800.0 SECONDS REQUESTED
 *  DUMP=N   - RESTART FILE WRITTEN EVERY  7200.000 SECONDS
 *  THERMO   - THERMODYNAMIC QUANTITIES TO BE CALCULATED
 *******************************************************************************
oldgeo thermo nosym precise  pm3

   ATOM   CHEMICAL          X               Y               Z
  NUMBER   SYMBOL      (ANGSTROMS)     (ANGSTROMS)     (ANGSTROMS)
 
     1       C          1.51289379  *  -0.45290540  *   0.51070136  *
     2       C          2.13208164  *   0.87203551  *  -0.01400426  *
     3       C         -2.29402673  *  -0.73196277  *  -0.03387277  *
     4       C          2.89957018  *   0.91441684  *   1.32225376  *
     5       C         -2.99021244  *  -0.00091505  *  -1.16170620  *
     6       C          0.04211520  *  -0.42330178  *   0.73662215  *
     7       C         -0.81923408  *  -0.74810890  *  -0.22846635  *
     8       O          2.27873509  *  -0.32460411  *   1.75057669  *
     9       H          1.82966745  *  -1.37108519  *  -0.02705974  *
    10       H          2.74884796  *   0.77917085  *  -0.91885182  *
    11       H          1.42027869  *   1.69312109  *  -0.18196932  *
    12       H         -2.64832479  *  -1.78131889  *   0.01873973  *
    13       H         -2.56477295  *  -0.27524790  *   0.93922218  *
    14       H          2.65156445  *   1.73877504  *   2.00638377  *
    15       H          3.99259494  *   0.80804994  *   1.26660869  *
    16       H         -2.67967486  *   1.05063338  *  -1.21351394  *
    17       H         -2.77040289  *  -0.45419100  *  -2.13750222  *
    18       H         -4.07965931  *  -0.01581109  *  -1.03036019  *
    19       H         -0.46850090  *  -1.05207237  *  -1.22308059  *
    20       H         -0.29804289  *  -0.12292849  *   1.73614159  *
 


          CARTESIAN COORDINATES 

    NO.       ATOM         X         Y         Z

     1         C        1.5129   -0.4529    0.5107
     2         C        2.1321    0.8720   -0.0140
     3         C       -2.2940   -0.7320   -0.0339
     4         C        2.8996    0.9144    1.3223
     5         C       -2.9902   -0.0009   -1.1617
     6         C        0.0421   -0.4233    0.7366
     7         C       -0.8192   -0.7481   -0.2285
     8         O        2.2787   -0.3246    1.7506
     9         H        1.8297   -1.3711   -0.0271
    10         H        2.7488    0.7792   -0.9189
    11         H        1.4203    1.6931   -0.1820
    12         H       -2.6483   -1.7813    0.0187
    13         H       -2.5648   -0.2752    0.9392
    14         H        2.6516    1.7388    2.0064
    15         H        3.9926    0.8080    1.2666
    16         H       -2.6797    1.0506   -1.2135
    17         H       -2.7704   -0.4542   -2.1375
    18         H       -4.0797   -0.0158   -1.0304
    19         H       -0.4685   -1.0521   -1.2231
    20         H       -0.2980   -0.1229    1.7361

  H: (PM3): J. J. P. STEWART, J. COMP. CHEM. 10, 209 (1989).
  C: (PM3): J. J. P. STEWART, J. COMP. CHEM. 10, 209 (1989).
  O: (PM3): J. J. P. STEWART, J. COMP. CHEM. 10, 209 (1989).

           Empirical Formula: C7 H12 O  =    20 atoms



      MOLECULAR POINT GROUP   :   C1  


      RHF CALCULATION, NO. OF DOUBLY OCCUPIED LEVELS =   23



          HEAT OF FORMATION =     -23.484540 KCALS/MOLE


          INTERNAL COORDINATE DERIVATIVES

   NUMBER  ATOM       BOND         ANGLE      DIHEDRAL

     1       C      0.000864     0.000117     0.001659
     2       C      0.001126     0.000326     0.003026
     3       C     -0.003229     0.004809     0.000700
     4       C     -0.000847    -0.000462     0.001992
     5       C     -0.011672    -0.006777     0.002011
     6       C     -0.002355     0.003369    -0.001418
     7       C      0.000591    -0.002636    -0.000751
     8       O      0.001847     0.003349    -0.003122
     9       H     -0.000374    -0.000615    -0.001578
    10       H     -0.000535     0.000942     0.000994
    11       H     -0.001945    -0.001990     0.000347
    12       H      0.006841     0.002715     0.006266
    13       H      0.004137     0.003024    -0.006519
    14       H     -0.002606     0.000063    -0.003897
    15       H      0.003053    -0.001120     0.000858
    16       H      0.005093    -0.007627     0.001506
    17       H      0.005528     0.001531    -0.006118
    18       H     -0.006853     0.003050     0.001485
    19       H     -0.000302    -0.000179     0.006257
    20       H      0.001638    -0.001887    -0.003697


          GRADIENT NORM =   0.02781


          TIME FOR SCF CALCULATION =    0.00

          TIME FOR DERIVATIVES     =    0.00

          MOLECULAR WEIGHT =  112.17



          ROTATIONAL CONSTANTS IN CM(-1)

          A =    0.20652530   B =    0.02775408   C =    0.02620532



           PRINCIPAL MOMENTS OF INERTIA IN UNITS OF 10**(-40)*GRAM-CM**2

          A =      135.5416   B =     1008.6004   C =     1068.2096


          ORIENTATION OF MOLECULE IN FORCE CALCULATION

    NO.       ATOM         X         Y         Z

     1          C       0.1112   -1.2012   -0.2049
     2          C       1.6650   -1.2012   -0.2049
     3          C      -1.4599    2.3200   -0.2049
     4          C       1.5557   -2.2897    0.8811
     5          C      -0.7331    3.5135   -0.7867
     6          C      -0.5259    0.0674    0.2422
     7          C      -0.8203    1.0423   -0.6191
     8          O       0.1071   -2.2329    0.8322
     9          H      -0.3639   -1.5997   -1.1258
    10          H       2.1371   -1.5100   -1.1481
    11          H       2.1382   -0.2595    0.1088
    12          H      -2.5137    2.3079   -0.5497
    13          H      -1.5070    2.4050    0.8993
    14          H       1.9288   -2.0262    1.8814
    15          H       1.9194   -3.2921    0.6128
    16          H       0.3048    3.5656   -0.4334
    17          H      -0.7025    3.4763   -1.8838
    18          H      -1.2243    4.4530   -0.5033
    19          H      -0.6038    0.9376   -1.6900
    20          H      -0.7429    0.1600    1.3142


    FIRST DERIVATIVES WILL BE USED IN THE CALCULATION OF SECOND DERIVATIVES

          ESTIMATED TIME TO COMPLETE CALCULATION =        1.69 SECONDS

    FOR POINT-GROUP C1   THERE ARE   1 UNIQUE SYMMETRY FUNCTIONS.

 STEP:   1 TIME =     0.02 SECS, INTEGRAL =      0.02 TIME LEFT: 172799.97
 STEP:   2 TIME =     0.02 SECS, INTEGRAL =      0.05 TIME LEFT: 172799.95
 STEP:   3 TIME =     0.02 SECS, INTEGRAL =      0.07 TIME LEFT: 172799.92
 STEP:   4 TIME =     0.02 SECS, INTEGRAL =      0.10 TIME LEFT: 172799.90
 STEP:   5 TIME =     0.02 SECS, INTEGRAL =      0.12 TIME LEFT: 172799.87
 STEP:   6 TIME =     0.02 SECS, INTEGRAL =      0.14 TIME LEFT: 172799.85
 STEP:   7 TIME =     0.02 SECS, INTEGRAL =      0.17 TIME LEFT: 172799.83
 STEP:   8 TIME =     0.02 SECS, INTEGRAL =      0.19 TIME LEFT: 172799.80
 STEP:   9 TIME =     0.02 SECS, INTEGRAL =      0.21 TIME LEFT: 172799.78
 STEP:  10 TIME =     0.03 SECS, INTEGRAL =      0.24 TIME LEFT: 172799.75
 STEP:  11 TIME =     0.02 SECS, INTEGRAL =      0.27 TIME LEFT: 172799.73
 STEP:  12 TIME =     0.02 SECS, INTEGRAL =      0.29 TIME LEFT: 172799.70
 STEP:  13 TIME =     0.02 SECS, INTEGRAL =      0.32 TIME LEFT: 172799.68
 STEP:  14 TIME =     0.02 SECS, INTEGRAL =      0.34 TIME LEFT: 172799.65
 STEP:  15 TIME =     0.02 SECS, INTEGRAL =      0.36 TIME LEFT: 172799.63
 STEP:  16 TIME =     0.02 SECS, INTEGRAL =      0.39 TIME LEFT: 172799.61
 STEP:  17 TIME =     0.02 SECS, INTEGRAL =      0.41 TIME LEFT: 172799.58
 STEP:  18 TIME =     0.02 SECS, INTEGRAL =      0.43 TIME LEFT: 172799.56
 STEP:  19 TIME =     0.03 SECS, INTEGRAL =      0.46 TIME LEFT: 172799.53
 STEP:  20 TIME =     0.02 SECS, INTEGRAL =      0.48 TIME LEFT: 172799.51
 STEP:  21 TIME =     0.02 SECS, INTEGRAL =      0.51 TIME LEFT: 172799.49
 STEP:  22 TIME =     0.02 SECS, INTEGRAL =      0.53 TIME LEFT: 172799.46
 STEP:  23 TIME =     0.02 SECS, INTEGRAL =      0.56 TIME LEFT: 172799.44
 STEP:  24 TIME =     0.02 SECS, INTEGRAL =      0.58 TIME LEFT: 172799.41
 STEP:  25 TIME =     0.02 SECS, INTEGRAL =      0.60 TIME LEFT: 172799.39
 STEP:  26 TIME =     0.02 SECS, INTEGRAL =      0.63 TIME LEFT: 172799.37
 STEP:  27 TIME =     0.02 SECS, INTEGRAL =      0.65 TIME LEFT: 172799.34
 STEP:  28 TIME =     0.02 SECS, INTEGRAL =      0.67 TIME LEFT: 172799.32
 STEP:  29 TIME =     0.02 SECS, INTEGRAL =      0.70 TIME LEFT: 172799.29
 STEP:  30 TIME =     0.02 SECS, INTEGRAL =      0.72 TIME LEFT: 172799.27
 STEP:  31 TIME =     0.02 SECS, INTEGRAL =      0.74 TIME LEFT: 172799.25
 STEP:  32 TIME =     0.02 SECS, INTEGRAL =      0.77 TIME LEFT: 172799.22
 STEP:  33 TIME =     0.02 SECS, INTEGRAL =      0.79 TIME LEFT: 172799.20
 STEP:  34 TIME =     0.02 SECS, INTEGRAL =      0.81 TIME LEFT: 172799.18
 STEP:  35 TIME =     0.02 SECS, INTEGRAL =      0.84 TIME LEFT: 172799.15
 STEP:  36 TIME =     0.02 SECS, INTEGRAL =      0.86 TIME LEFT: 172799.13
 STEP:  37 TIME =     0.02 SECS, INTEGRAL =      0.89 TIME LEFT: 172799.11
 STEP:  38 TIME =     0.02 SECS, INTEGRAL =      0.91 TIME LEFT: 172799.08
 STEP:  39 TIME =     0.02 SECS, INTEGRAL =      0.93 TIME LEFT: 172799.06
 STEP:  40 TIME =     0.02 SECS, INTEGRAL =      0.96 TIME LEFT: 172799.04
 STEP:  41 TIME =     0.02 SECS, INTEGRAL =      0.98 TIME LEFT: 172799.01
 STEP:  42 TIME =     0.03 SECS, INTEGRAL =      1.01 TIME LEFT: 172798.99
 STEP:  43 TIME =     0.03 SECS, INTEGRAL =      1.04 TIME LEFT: 172798.96
 STEP:  44 TIME =     0.03 SECS, INTEGRAL =      1.06 TIME LEFT: 172798.93
 STEP:  45 TIME =     0.03 SECS, INTEGRAL =      1.09 TIME LEFT: 172798.91
 STEP:  46 TIME =     0.02 SECS, INTEGRAL =      1.11 TIME LEFT: 172798.88
 STEP:  47 TIME =     0.03 SECS, INTEGRAL =      1.14 TIME LEFT: 172798.85
 STEP:  48 TIME =     0.02 SECS, INTEGRAL =      1.16 TIME LEFT: 172798.83
 STEP:  49 TIME =     0.03 SECS, INTEGRAL =      1.19 TIME LEFT: 172798.80
 STEP:  50 TIME =     0.03 SECS, INTEGRAL =      1.22 TIME LEFT: 172798.78
 STEP:  51 TIME =     0.03 SECS, INTEGRAL =      1.24 TIME LEFT: 172798.75
 STEP:  52 TIME =     0.02 SECS, INTEGRAL =      1.27 TIME LEFT: 172798.73
 STEP:  53 TIME =     0.02 SECS, INTEGRAL =      1.29 TIME LEFT: 172798.70
 STEP:  54 TIME =     0.02 SECS, INTEGRAL =      1.31 TIME LEFT: 172798.68
 STEP:  55 TIME =     0.02 SECS, INTEGRAL =      1.34 TIME LEFT: 172798.65
 STEP:  56 TIME =     0.02 SECS, INTEGRAL =      1.36 TIME LEFT: 172798.63
 STEP:  57 TIME =     0.02 SECS, INTEGRAL =      1.39 TIME LEFT: 172798.61
 STEP:  58 TIME =     0.02 SECS, INTEGRAL =      1.41 TIME LEFT: 172798.58
 STEP:  59 TIME =     0.03 SECS, INTEGRAL =      1.44 TIME LEFT: 172798.56
 STEP:  60 TIME =     0.02 SECS, INTEGRAL =      1.46 TIME LEFT: 172798.53

(To convert to Hartree/Bohr^2, multiply by (10^(-21) x N x a0^2)/(4.184 x 627.51) = 0.0642)


           FORCE MATRIX IN MILLIDYNES/ANGSTROM


                  C  1       C  2       C  3       C  4       C  5       C  6
 ------------------------------------------------------------------------------
     C    1  14.826745
     C    2   3.254764  14.427715
     C    3   0.144853   0.016979  14.688544
     C    4   2.312774   3.684630   0.004070  14.724379
     C    5   0.018925   0.003135   4.411765   0.001319  14.349618
     C    6   4.876551   0.546778   0.826192   0.070562   0.041273  18.256913
     C    7   0.840689   0.025470   4.967573   0.009135   0.717330  10.682150
     O    8   3.922476   2.120372   0.013002   4.359497   0.002933   0.745216
     H    9   4.383511   0.419947   0.010308   0.055839   0.001123   0.422799
     H   10   0.436339   4.747625   0.002220   0.439314   0.000514   0.033354
     H   11   0.447915   4.734955   0.001150   0.441244   0.000611   0.018100
     H   12   0.019595   0.001798   4.422094   0.001368   0.445767   0.035219
     H   13   0.003592   0.000284   4.445086   0.000377   0.434519   0.048401
     H   14   0.057212   0.433740   0.000547   4.673358   0.000289   0.001733
     H   15   0.058418   0.432025   0.000560   4.672644   0.000279   0.013382
     H   16   0.001359   0.000288   0.460936   0.000318   4.744653   0.002392
     H   17   0.001250   0.000298   0.464746   0.000341   4.725768   0.002192
     H   18   0.003148   0.000610   0.449936   0.000528   4.752233   0.007343
     H   19   0.089118   0.011651   0.432091   0.001342   0.026085   0.470965
     H   20   0.462387   0.017048   0.087520   0.006425   0.009103   4.785971


                  C  7       O  8       H  9       H 10       H 11       H 12
 ------------------------------------------------------------------------------
     C    7  18.189384
     O    8   0.058151   8.853479
     H    9   0.033419   0.334612   4.770082
     H   10   0.001414   0.051257   0.021400   5.370602
     H   11   0.004767   0.046572   0.032969   0.548674   5.358405
     H   12   0.406546   0.003073   0.001633   0.000184   0.000294   5.018859
     H   13   0.460662   0.001340   0.000617   0.000139   0.000269   0.566060
     H   14   0.000873   0.357992   0.010721   0.034921   0.019503   0.000144
     H   15   0.001947   0.358891   0.001938   0.019155   0.034370   0.000138
     H   16   0.016061   0.000663   0.000188   0.000081   0.000228   0.049141
     H   17   0.027792   0.000709   0.000172   0.000078   0.000127   0.023843
     H   18   0.052799   0.001083   0.000183   0.000141   0.000206   0.028648
     H   19   4.766832   0.006185   0.016533   0.002023   0.000867   0.017299
     H   20   0.467772   0.052578   0.027499   0.001800   0.003386   0.010793


                  H 13       H 14       H 15       H 16       H 17       H 18
 ------------------------------------------------------------------------------
     H   13   5.054475
     H   14   0.000080   5.140619
     H   15   0.000125   0.496567   5.140763
     H   16   0.024632   0.000098   0.000120   5.483044
     H   17   0.047806   0.000086   0.000088   0.578496   5.469685
     H   18   0.030311   0.000084   0.000115   0.574142   0.573847   5.488719
     H   19   0.039261   0.000350   0.000226   0.002624   0.020172   0.002059
     H   20   0.029956   0.001118   0.001348   0.000534   0.000607   0.001716


                  H 19       H 20
 ------------------------------
     H   19   5.146679
     H   20   0.106779   5.165410


          HEAT OF FORMATION =     -23.484540 KCALS/MOLE

          ZERO POINT ENERGY     108.958 KCAL/MOL


           NORMAL COORDINATE ANALYSIS (Total motion = 1 Angstrom)


   Root No.       1         2         3         4         5         6         7         8

                 1 A       2 A       3 A       4 A       5 A       6 A       7 A       8 A   

                  24.4      66.6     109.4     130.2     171.5     247.8     330.9     372.0
  
           1   -0.0186   -0.0153   -0.0088    0.0014    0.0032   -0.0025    0.0251    0.0125
           2   -0.0118   -0.0166   -0.0019   -0.0134    0.0037    0.0109    0.0192   -0.0114
           3    0.0047    0.0016   -0.0062   -0.0229    0.0102    0.0057   -0.0170    0.0104
           4   -0.0186   -0.0155   -0.0082    0.0016    0.0031   -0.0033    0.0282    0.0185
           5    0.0081    0.0063    0.0425   -0.0201    0.0036   -0.0098   -0.0221   -0.0357
           6   -0.0253   -0.0055    0.0167   -0.0153    0.0100   -0.0176   -0.0119    0.0029
           7   -0.0091    0.0288    0.0150    0.0109   -0.0089   -0.0220   -0.0267   -0.0121
           8   -0.0077    0.0021    0.0066   -0.0061   -0.0031    0.0000    0.0037    0.0498
           9   -0.0238    0.0099    0.0195    0.0193   -0.0154   -0.0244    0.0227   -0.0124
          10    0.0163    0.0057    0.0062   -0.0079    0.0036   -0.0035   -0.0071    0.0253
          11    0.0273    0.0090    0.0269    0.0340   -0.0199    0.0163   -0.0053   -0.0201
          12   -0.0026   -0.0008    0.0021    0.0382   -0.0136    0.0089    0.0029    0.0173
          13    0.0369   -0.0277    0.0365   -0.0074   -0.0005    0.0010    0.0113    0.0034
          14   -0.0063    0.0217   -0.0259    0.0036    0.0026   -0.0057   -0.0347    0.0513
          15    0.0364   -0.0197   -0.0222    0.0176    0.0073   -0.0082   -0.0100   -0.0082
          16   -0.0286   -0.0359   -0.0286    0.0132   -0.0091    0.0187   -0.0278   -0.0343
          17   -0.0126   -0.0261   -0.0167   -0.0060    0.0024    0.0113   -0.0118   -0.0103
          18   -0.0074   -0.0011    0.0081   -0.0276   -0.0062    0.0449   -0.0054   -0.0131
          19   -0.0002    0.0593   -0.0298   -0.0018    0.0041    0.0208   -0.0037   -0.0483
          20   -0.0073    0.0162   -0.0131   -0.0017    0.0019    0.0043    0.0164    0.0130
          21   -0.0111    0.0139    0.0128   -0.0170   -0.0118    0.0362    0.0224    0.0094
          22    0.0147    0.0046    0.0050   -0.0073    0.0039   -0.0042   -0.0030    0.0263
          23    0.0073   -0.0143   -0.0206    0.0058    0.0097   -0.0223    0.0399   -0.0372
          24    0.0238    0.0040   -0.0257   -0.0030    0.0169   -0.0308    0.0006   -0.0041
          25   -0.0316   -0.0145    0.0117   -0.0017    0.0080   -0.0241    0.0383    0.0209
          26   -0.0345   -0.0253    0.0041   -0.0214   -0.0058    0.0455    0.0175   -0.0165
          27    0.0213    0.0050   -0.0190   -0.0172    0.0114    0.0019   -0.0242    0.0078
          28   -0.0329   -0.0153    0.0151    0.0025    0.0047   -0.0274    0.0172   -0.0025
          29   -0.0037    0.0094    0.0675   -0.0728    0.0275   -0.0465   -0.0559   -0.0642
          30   -0.0285   -0.0065    0.0202    0.0023    0.0032   -0.0182   -0.0069    0.0008
          31   -0.0247   -0.0281   -0.0402    0.0063    0.0013    0.0201    0.0611    0.0426
          32    0.0202    0.0147    0.0527   -0.0066   -0.0032   -0.0098   -0.0342   -0.0405
          33   -0.0524   -0.0118    0.0349   -0.0635    0.0337   -0.0547   -0.0282   -0.0226
          34    0.0097    0.0217    0.0032    0.0001   -0.0039    0.0003   -0.0247   -0.0099
          35    0.0104   -0.0386    0.0357   -0.0002   -0.0005   -0.0220    0.0090    0.0780
          36   -0.0816    0.0323    0.0556    0.0521   -0.0303   -0.0923    0.0183   -0.0209
          37   -0.0684    0.0492    0.0560    0.0447   -0.0248   -0.0932   -0.0287   -0.0179
          38   -0.0260    0.0134    0.0216   -0.0225   -0.0131    0.0195    0.0184    0.0601
          39   -0.0249    0.0099    0.0200    0.0222   -0.0151   -0.0295    0.0207   -0.0140
          40    0.0318    0.0050   -0.0223   -0.0390    0.0293   -0.0377   -0.0001    0.0084
          41    0.0512    0.0191    0.0288    0.0964   -0.0550    0.0618   -0.0044    0.0064
          42   -0.0147   -0.0032    0.0123    0.0337   -0.0142    0.0102   -0.0001    0.0174
          43    0.0245    0.0206    0.0449    0.0170   -0.0218    0.0304   -0.0411    0.0452
          44    0.0270    0.0137    0.0419    0.0258   -0.0201    0.0172   -0.0215   -0.0208
          45    0.0095    0.0020   -0.0013    0.1037   -0.0485    0.0539    0.0173    0.0465
          46    0.0177   -0.0195    0.0572    0.0155    0.0505    0.0130    0.0120    0.0024
          47   -0.0237    0.0599   -0.0702   -0.0251   -0.1087   -0.0533   -0.0628    0.0456
          48    0.0955   -0.0493   -0.0765   -0.0455   -0.1263   -0.0363   -0.0068   -0.0051
          49    0.0981   -0.0571   -0.0221   -0.0769   -0.1504   -0.0317    0.0167    0.0062
          50    0.0111    0.0146   -0.0312    0.0431    0.1095    0.0266   -0.0753    0.0602
          51    0.0375   -0.0204   -0.0237    0.0145   -0.0002   -0.0102   -0.0091   -0.0082
          52    0.0315   -0.0517    0.0924    0.0246    0.1056    0.0418    0.0459    0.0077
          53   -0.0054    0.0073   -0.0035    0.0006    0.0096    0.0025   -0.0062    0.0527
          54    0.0241   -0.0134   -0.0001    0.0831    0.1677    0.0349   -0.0475   -0.0031
          55    0.0331    0.1590   -0.0462   -0.0276    0.0270    0.0471    0.0691   -0.0563
          56   -0.0016    0.0593   -0.0184    0.0089    0.0089   -0.0122    0.0620    0.0160
          57   -0.0049    0.0298    0.0097   -0.0227   -0.0075    0.0422    0.0319    0.0069
          58   -0.0607   -0.1345   -0.0194    0.0323   -0.0334    0.0187   -0.1093   -0.0478
          59   -0.0180   -0.0700   -0.0227   -0.0015    0.0017    0.0008   -0.0686   -0.0236
          60   -0.0134   -0.0172    0.0101   -0.0234   -0.0109    0.0446   -0.0165   -0.0146


   Root No.       9        10        11        12        13        14        15        16

                 9 A      10 A      11 A      12 A      13 A      14 A      15 A      16 A   

                 493.9     512.6     810.2     824.7     840.0     906.7     920.8     933.2
  
           1   -0.0140    0.0012   -0.0009   -0.0262    0.0204   -0.0088   -0.0038   -0.0148
           2   -0.0298   -0.0367   -0.0050    0.0084   -0.0014   -0.0020   -0.0018   -0.0194
           3   -0.0077   -0.0486   -0.0084   -0.0216    0.0233    0.0049    0.0011    0.0193
           4   -0.0194    0.0023   -0.0030   -0.0178    0.0211    0.0158    0.0063    0.0461
           5    0.0030    0.0072   -0.0072   -0.0309    0.0037    0.0034    0.0010    0.0020
           6    0.0097   -0.0008   -0.0047    0.0056   -0.0245    0.0034    0.0004   -0.0171
           7   -0.0421    0.0018   -0.0218    0.0112    0.0020   -0.0016   -0.0009   -0.0036
           8    0.0208    0.0134    0.0019   -0.0041    0.0015    0.0025   -0.0012    0.0041
           9    0.0222   -0.0124   -0.0247    0.0056    0.0064   -0.0032    0.0023    0.0029
          10    0.0095   -0.0091    0.0013    0.0217   -0.0181   -0.0029   -0.0020   -0.0178
          11   -0.0038    0.0053   -0.0041   -0.0256   -0.0012   -0.0007    0.0007    0.0162
          12    0.0033   -0.0028   -0.0003    0.0105   -0.0289   -0.0105   -0.0027    0.0013
          13    0.0025    0.0009   -0.0034    0.0000    0.0025   -0.0104    0.0085   -0.0033
          14   -0.0199    0.0247    0.0047   -0.0073    0.0029   -0.0010    0.0006    0.0063
          15   -0.0059   -0.0071   -0.0057    0.0039    0.0008   -0.0038    0.0033    0.0049
          16    0.0362    0.0189    0.0131   -0.0201    0.0096   -0.0421   -0.0169   -0.0086
          17    0.0142   -0.0423    0.0043    0.0146   -0.0038   -0.0162   -0.0065    0.0060
          18   -0.0407    0.0049    0.0132    0.0107   -0.0058   -0.0069    0.0000    0.0101
          19    0.0178   -0.0062   -0.0044    0.0047   -0.0062    0.0285   -0.0332    0.0071
          20    0.0479   -0.0124   -0.0056    0.0063   -0.0043    0.0150   -0.0161   -0.0014
          21    0.0033    0.0503    0.0023   -0.0049   -0.0012    0.0059   -0.0073   -0.0085
          22    0.0068   -0.0069    0.0024    0.0299   -0.0216    0.0004    0.0011    0.0080
          23   -0.0268    0.0297    0.0031    0.0269   -0.0143    0.0024    0.0009    0.0000
          24    0.0137    0.0160    0.0002   -0.0205    0.0183    0.0015   -0.0006   -0.0175
          25   -0.0267    0.0164   -0.0247   -0.0773    0.0322    0.0444    0.0018   -0.1304
          26   -0.0526   -0.0574   -0.0004    0.0208   -0.0210   -0.0288   -0.0159   -0.1236
          27    0.0106   -0.0457    0.0025   -0.0002    0.0265   -0.0114    0.0052    0.1318
          28    0.0132    0.0703    0.0396    0.0505    0.0349   -0.0265    0.0024    0.1525
          29    0.0370    0.0402    0.0408    0.0761    0.1494    0.0053   -0.0022   -0.0159
          30    0.0160    0.0240    0.0034    0.0110   -0.0615   -0.0194   -0.0006    0.0450
          31   -0.0663   -0.0606   -0.0468   -0.0900    0.0169    0.0781    0.0194   -0.0283
          32    0.0207    0.0283    0.0008   -0.0321   -0.0340   -0.0332   -0.0068    0.0381
          33    0.0322    0.0357    0.0445    0.1299    0.1116    0.0152    0.0027   -0.0107
          34   -0.0323    0.0224   -0.0728    0.0256    0.0123   -0.0088    0.0017   -0.0036
          35    0.0095   -0.0009    0.0186   -0.0154    0.0160   -0.0921    0.0789    0.0121
          36   -0.0065   -0.0782    0.1432   -0.0422   -0.0280    0.0257   -0.0106    0.0025
          37   -0.0725   -0.0638    0.1504   -0.0382   -0.0326    0.0230   -0.0117   -0.0085
          38    0.0294    0.0416    0.0171   -0.0151   -0.0043    0.0439   -0.0402   -0.0119
          39    0.0188   -0.0188   -0.0147    0.0036    0.0044   -0.0045    0.0046    0.0039
          40    0.0153    0.0113    0.0013    0.0073   -0.0457   -0.0350   -0.0140   -0.0279
          41   -0.0065   -0.0190    0.0293    0.0589    0.1714    0.0313    0.0029   -0.0462
          42    0.0021   -0.0048   -0.0080   -0.0021   -0.0609   -0.0065    0.0010    0.0185
          43    0.0283   -0.0374    0.0003    0.0161    0.0152    0.0148    0.0005   -0.1239
          44    0.0059    0.0004   -0.0130   -0.0573   -0.0240   -0.0031    0.0004   -0.0126
          45   -0.0091   -0.0247    0.0351    0.1264    0.1228    0.0256    0.0025   -0.0283
          46    0.0047    0.0022   -0.0238    0.0064    0.0081   -0.0232    0.0188    0.0022
          47   -0.0691    0.0315   -0.0713    0.0214    0.0249   -0.0859    0.0668   -0.0133
          48   -0.0034   -0.0134    0.0737   -0.0219   -0.0212    0.0533   -0.0421   -0.0082
          49    0.0081   -0.0065    0.0751   -0.0268   -0.0186    0.0468   -0.0362   -0.0121
          50   -0.0666    0.0413    0.0770   -0.0286   -0.0170    0.0281   -0.0238   -0.0381
          51   -0.0051   -0.0077   -0.0032    0.0031    0.0002   -0.0016    0.0014    0.0053
          52    0.0568   -0.0063    0.0298   -0.0171   -0.0055    0.0400   -0.0284    0.0287
          53    0.0196    0.0168    0.0117   -0.0142    0.0023    0.0211   -0.0142    0.0322
          54   -0.0483    0.0090    0.0290   -0.0033   -0.0103    0.0058   -0.0080   -0.0292
          55    0.0211   -0.0407    0.0831   -0.0262   -0.0046   -0.0708    0.3030   -0.0116
          56    0.0985   -0.0320    0.0001   -0.0164    0.0092   -0.0235    0.1157   -0.0295
          57   -0.0015    0.0439    0.0198   -0.0089   -0.0022   -0.0103    0.0478   -0.0088
          58    0.0535    0.0857   -0.0205    0.0116   -0.0431    0.1671    0.2279   -0.0248
          59    0.0165   -0.0748   -0.0276    0.0358   -0.0149    0.0857    0.1002    0.0439
          60   -0.0367    0.0217    0.0093    0.0148   -0.0152    0.0264    0.0403    0.0037


   Root No.      17        18        19        20        21        22        23        24

                17 A      18 A      19 A      20 A      21 A      22 A      23 A      24 A   

                 954.5     968.1     971.9     995.9    1024.9    1038.0    1087.9    1115.2
  
           1   -0.0004   -0.0006   -0.0146    0.0082   -0.0222    0.0249    0.0142   -0.0060
           2    0.0055   -0.0033    0.0008    0.0222   -0.0052   -0.0054    0.0023   -0.0109
           3   -0.0106   -0.0071   -0.0144   -0.0301   -0.0142    0.0160    0.0000   -0.0021
           4    0.0059   -0.0024    0.0212   -0.0107    0.0075   -0.0045    0.0031    0.0025
           5   -0.0163   -0.0075   -0.0217    0.0226    0.0008    0.0063   -0.0290    0.0014
           6    0.0008    0.0027   -0.0005   -0.0284    0.0183   -0.0183   -0.0424    0.0014
           7    0.0013   -0.0105    0.0056    0.0003   -0.0148   -0.0131    0.0000    0.0459
           8    0.0009    0.0045   -0.0009    0.0000    0.0045    0.0077    0.0021    0.0276
           9   -0.0004    0.0004   -0.0029   -0.0043   -0.0170   -0.0130   -0.0016    0.0100
          10    0.0053    0.0071   -0.0011   -0.0562   -0.0042    0.0101    0.0025    0.0024
          11    0.0269   -0.0027    0.0099   -0.0111    0.0145   -0.0224    0.0287    0.0004
          12    0.0021   -0.0084   -0.0263    0.0080   -0.0088    0.0115    0.0458   -0.0011
          13   -0.0023   -0.0103    0.0046   -0.0011    0.0073    0.0058   -0.0010   -0.0523
          14   -0.0005    0.0303   -0.0183   -0.0005   -0.0119   -0.0154   -0.0026   -0.0277
          15    0.0031    0.0160   -0.0027    0.0045    0.0090    0.0067    0.0013   -0.0062
          16   -0.0167   -0.0020   -0.0110   -0.0086    0.0019   -0.0182   -0.0106    0.0061
          17    0.0073   -0.0026    0.0173    0.0069    0.0005   -0.0039   -0.0033    0.0046
          18    0.0089    0.0146    0.0086    0.0069    0.0024    0.0021    0.0000    0.0055
          19    0.0053    0.0139   -0.0030    0.0049    0.0173    0.0228    0.0046   -0.0021
          20    0.0043   -0.0166    0.0134    0.0049    0.0111    0.0142    0.0025   -0.0076
          21   -0.0061   -0.0164    0.0013   -0.0048    0.0055    0.0044   -0.0006   -0.0074
          22   -0.0150   -0.0078   -0.0076    0.0656    0.0083   -0.0155   -0.0087    0.0008
          23   -0.0279    0.0056   -0.0088   -0.0332   -0.0025    0.0066   -0.0074    0.0022
          24    0.0097    0.0072    0.0255    0.0387    0.0012   -0.0060    0.0006   -0.0009
          25    0.0681    0.0310   -0.0101    0.0515   -0.0169    0.0777   -0.0210    0.0355
          26    0.1033    0.0372    0.0530    0.1063   -0.0393   -0.0277    0.0541   -0.0071
          27   -0.0910   -0.0429   -0.0390   -0.0924   -0.0021   -0.0017   -0.0052   -0.0266
          28    0.1026    0.0152    0.1533    0.0203   -0.0557    0.0230   -0.0253   -0.0148
          29   -0.0227   -0.0143   -0.0597    0.0116   -0.0098    0.0193    0.1826    0.0047
          30    0.0520    0.0130    0.0779   -0.0088   -0.0108   -0.0089   -0.1234   -0.0088
          31   -0.0468   -0.0130   -0.0299   -0.0320    0.1324   -0.1248    0.0011    0.0110
          32    0.0089   -0.0009    0.0012    0.0340   -0.0768    0.0900   -0.0831   -0.0017
          33    0.0139   -0.0011    0.0116   -0.0321    0.0571   -0.0848    0.1331   -0.0039
          34    0.0013   -0.0153    0.0059   -0.0024   -0.0339   -0.0291   -0.0011    0.0792
          35   -0.0052    0.0418    0.0011    0.0134    0.1469    0.1251    0.0126    0.2530
          36   -0.0003    0.0162   -0.0058    0.0034    0.0340    0.0292    0.0008   -0.1030
          37   -0.0001   -0.0028    0.0062    0.0090    0.0397    0.0295    0.0027   -0.0351
          38   -0.0097   -0.0772    0.0164   -0.0290   -0.0636   -0.0271    0.0036    0.0412
          39    0.0004    0.0062   -0.0035   -0.0016   -0.0083   -0.0071   -0.0015    0.0054
          40    0.2595   -0.0394   -0.0988   -0.1816    0.0190   -0.0047    0.0111   -0.0105
          41    0.0543    0.0016   -0.0029   -0.0374    0.0189   -0.0116   -0.1516   -0.0022
          42   -0.0949    0.0074    0.0115    0.0562   -0.0175    0.0136    0.0886    0.0041
          43   -0.1486    0.1004    0.1695   -0.1631   -0.0275    0.0235    0.0203   -0.0126
          44   -0.0248    0.0316    0.0786   -0.0542    0.0063   -0.0232    0.0818   -0.0066
          45   -0.0076   -0.0190   -0.0696    0.0424   -0.0071    0.0313   -0.1373    0.0064
          46   -0.0002    0.0094   -0.0006    0.0029    0.0163    0.0106   -0.0010   -0.0833
          47   -0.0089   -0.0460    0.0312    0.0006    0.0646    0.0531   -0.0008   -0.1832
          48   -0.0018   -0.0293    0.0030   -0.0083   -0.0353   -0.0230    0.0006    0.1109
          49   -0.0065   -0.0366    0.0003   -0.0133   -0.0423   -0.0319   -0.0033    0.0397
          50   -0.0191   -0.1290    0.0370   -0.0262   -0.0317   -0.0150   -0.0038    0.0196
          51    0.0033    0.0174   -0.0037    0.0044    0.0074    0.0053    0.0013   -0.0030
          52    0.0089    0.1133   -0.0602    0.0049   -0.0486   -0.0531   -0.0044    0.0103
          53    0.0086    0.1293   -0.0658    0.0069   -0.0405   -0.0495   -0.0047   -0.0076
          54   -0.0095   -0.1104    0.0479   -0.0112    0.0111    0.0226    0.0024    0.0334
          55   -0.0045    0.0212   -0.0166   -0.0080   -0.0324   -0.0481   -0.0121    0.0423
          56   -0.0129   -0.0837    0.0150   -0.0201   -0.0591   -0.0476   -0.0022   -0.0276
          57   -0.0066   -0.0080   -0.0018   -0.0054    0.0027   -0.0033   -0.0036    0.0036
          58    0.0257   -0.0018   -0.0184    0.0222    0.0045    0.0445    0.0194   -0.0334
          59    0.0365   -0.0031    0.0275   -0.0160   -0.0471    0.0344    0.0211    0.0280
          60    0.0145    0.0147    0.0060    0.0144    0.0075    0.0117    0.0037   -0.0051


   Root No.      25        26        27        28        29        30        31        32

                25 A      26 A      27 A      28 A      29 A      30 A      31 A      32 A   

                1120.5    1125.5    1144.7    1172.2    1183.6    1203.5    1238.6    1252.6
  
           1   -0.0272   -0.0155   -0.0008    0.0261   -0.0028    0.0083    0.0158   -0.0181
           2   -0.0323   -0.0250    0.0021    0.0179   -0.0008   -0.0006   -0.0068   -0.0082
           3    0.0159   -0.0034    0.0125    0.0148    0.0361   -0.0237    0.0019    0.0314
           4    0.0188    0.0073    0.0171   -0.0360   -0.0146   -0.0071   -0.0157   -0.0340
           5    0.0006    0.0005    0.0110   -0.0167   -0.0282    0.0183    0.0075    0.0405
           6    0.0032   -0.0004    0.0060    0.0059    0.0080   -0.0101   -0.0040   -0.0485
           7   -0.0213    0.0024    0.0085   -0.0189    0.0130    0.0021    0.0077   -0.0006
           8   -0.0107    0.0148    0.0112    0.0032   -0.0053   -0.0159    0.0035    0.0044
           9    0.0215   -0.0157   -0.0286    0.0148   -0.0246   -0.0144   -0.0106    0.0009
          10    0.0141    0.0072    0.0068   -0.0185    0.0056   -0.0146   -0.0100    0.0185
          11    0.0043    0.0020   -0.0075    0.0166    0.0263   -0.0160   -0.0025   -0.0126
          12   -0.0054   -0.0001   -0.0014   -0.0131   -0.0194    0.0134    0.0014    0.0145
          13    0.0121    0.0009   -0.0098    0.0044   -0.0068   -0.0037   -0.0010    0.0002
          14    0.0121   -0.0115   -0.0116    0.0006   -0.0009    0.0039    0.0012   -0.0013
          15   -0.0194    0.0258    0.0256    0.0012    0.0087    0.0069   -0.0025    0.0002
          16    0.0087    0.0080    0.0037    0.0034    0.0068   -0.0017    0.0080    0.0067
          17   -0.0123    0.0147   -0.0300   -0.0267   -0.0074   -0.0041   -0.0150   -0.0020
          18    0.0055    0.0086   -0.0253   -0.0084   -0.0070    0.0247   -0.0273   -0.0085
          19    0.0131   -0.0097    0.0018    0.0224   -0.0082    0.0079   -0.0136   -0.0015
          20   -0.0151   -0.0032   -0.0024   -0.0272    0.0090   -0.0131    0.0154    0.0012
          21   -0.0069   -0.0032    0.0097   -0.0111    0.0179    0.0042    0.0408   -0.0037
          22    0.0001    0.0006   -0.0081    0.0177    0.0103    0.0012    0.0061   -0.0075
          23    0.0121    0.0042    0.0016    0.0051    0.0095   -0.0024    0.0026    0.0068
          24   -0.0049   -0.0027    0.0041   -0.0076   -0.0125    0.0035   -0.0025   -0.0069
          25    0.0209    0.1080   -0.2152   -0.0016    0.1066   -0.0112   -0.0377    0.0670
          26    0.1434   -0.0398    0.2361   -0.0019   -0.0088   -0.0576    0.0437    0.0407
          27   -0.0905   -0.0638    0.0210    0.0390   -0.0166    0.0119    0.0058   -0.0366
          28   -0.0235   -0.0288   -0.0061    0.0303    0.0089    0.0207    0.0181    0.1835
          29    0.0224    0.0209    0.0040   -0.0625   -0.0222   -0.0125   -0.0318   -0.0842
          30   -0.0249   -0.0260   -0.0024    0.0559    0.0196    0.0129    0.0262    0.1010
          31    0.0068    0.0168    0.0000   -0.0281   -0.0663    0.0581    0.0268    0.1482
          32    0.0124   -0.0031    0.0333   -0.0415   -0.0131   -0.0202   -0.0253   -0.0963
          33   -0.0172   -0.0078   -0.0325    0.0687    0.0396    0.0062    0.0293    0.0876
          34   -0.0238   -0.0039    0.0020   -0.0236    0.0115   -0.0032    0.0068    0.0007
          35    0.0588   -0.0828    0.0202    0.0729   -0.0003    0.0587   -0.0328   -0.0082
          36    0.0232    0.0090   -0.0073    0.0229   -0.0169   -0.0011   -0.0027   -0.0024
          37   -0.0539    0.0395    0.0662   -0.0401    0.0610    0.0295    0.0338   -0.0010
          38   -0.0254    0.1755    0.1129    0.1833   -0.0788    0.0189   -0.1499    0.0081
          39    0.0223   -0.0265   -0.0355    0.0010   -0.0189   -0.0171    0.0034    0.0002
          40   -0.0554   -0.0255   -0.0013   -0.0120   -0.0787    0.0653    0.0136    0.0121
          41   -0.0161   -0.0153    0.0074    0.0416    0.0113    0.0020    0.0183   -0.0836
          42    0.0240    0.0158   -0.0018   -0.0242    0.0115   -0.0181   -0.0131    0.0383
          43   -0.0552   -0.0293   -0.0009   -0.0072   -0.0726    0.0626    0.0128    0.0149
          44   -0.0267   -0.0132   -0.0181    0.0342    0.0073    0.0105    0.0102   -0.0330
          45    0.0237    0.0103    0.0286   -0.0564   -0.0394    0.0082   -0.0141    0.0755
          46    0.0061    0.0152    0.0011    0.0065   -0.0029    0.0025   -0.0042   -0.0004
          47    0.0380    0.0244   -0.0130    0.0375   -0.0272   -0.0011   -0.0223   -0.0008
          48   -0.0044   -0.0241   -0.0090   -0.0095   -0.0001   -0.0099    0.0083    0.0016
          49    0.0392   -0.0591   -0.0550   -0.0009   -0.0185   -0.0100   -0.0003   -0.0020
          50    0.0825   -0.0826   -0.0926    0.0246   -0.0485   -0.0208   -0.0175   -0.0017
          51   -0.0208    0.0263    0.0263    0.0006    0.0088    0.0057   -0.0010    0.0004
          52    0.0004   -0.0201   -0.0051   -0.0056    0.0105    0.0209   -0.0061   -0.0048
          53    0.0001   -0.0134    0.0023   -0.0024    0.0141    0.0275   -0.0075   -0.0052
          54    0.0080   -0.0047   -0.0148    0.0044   -0.0181   -0.0280    0.0091    0.0041
          55   -0.0296    0.0448   -0.0247    0.0034   -0.0556   -0.0971    0.0361    0.0113
          56    0.0565   -0.0359    0.0495   -0.0460    0.1431    0.2370   -0.1144   -0.0155
          57   -0.0222    0.0110   -0.0025   -0.0131   -0.0054   -0.0422    0.0671   -0.0001
          58   -0.0511   -0.0749    0.0450    0.0025    0.0166   -0.0529   -0.0925    0.0310
          59    0.0967    0.0905   -0.0427    0.0642   -0.0412    0.1239    0.2484   -0.0913
          60   -0.0164   -0.0160   -0.0169   -0.0181   -0.0003    0.0040   -0.0740    0.0047


   Root No.      33        34        35        36        37        38        39        40

                33 A      34 A      35 A      36 A      37 A      38 A      39 A      40 A   

                1297.4    1333.9    1371.3    1393.3    1406.8    1411.0    1412.0    1423.6
  
           1    0.0382    0.0269    0.0180    0.0139    0.0030   -0.0076   -0.0104   -0.0001
           2    0.0147   -0.0294   -0.0289   -0.0156   -0.0047    0.0129    0.0184    0.0074
           3   -0.0396   -0.0031   -0.0014    0.0018    0.0006   -0.0013   -0.0020    0.0009
           4   -0.0232   -0.0113   -0.0107    0.0076    0.0018   -0.0059   -0.0091   -0.0157
           5    0.0025    0.0052    0.0060    0.0050    0.0021   -0.0068   -0.0103   -0.0142
           6    0.0059    0.0021   -0.0004   -0.0027   -0.0015    0.0051    0.0079    0.0132
           7    0.0005    0.0016   -0.0075   -0.0183    0.0078   -0.0124   -0.0238    0.0075
           8   -0.0083    0.0528   -0.0092    0.0220    0.0013    0.0051    0.0119    0.0395
           9    0.0006   -0.0021    0.0080    0.0127   -0.0069    0.0079    0.0154   -0.0084
          10    0.0774   -0.0007    0.0101   -0.0178   -0.0020    0.0040    0.0053   -0.0039
          11    0.0265   -0.0023   -0.0155    0.0152    0.0008   -0.0007   -0.0003    0.0080
          12   -0.0286    0.0006    0.0141   -0.0154   -0.0010    0.0010    0.0008   -0.0078
          13   -0.0008    0.0100   -0.0097   -0.0057   -0.0212   -0.0119    0.0175   -0.0183
          14    0.0012    0.0001   -0.0123   -0.0116   -0.0118    0.0267    0.0049   -0.0364
          15    0.0002   -0.0065    0.0062    0.0035   -0.0258   -0.0005   -0.0164    0.0166
          16   -0.0110   -0.0050   -0.0098   -0.0023   -0.0011    0.0039    0.0056    0.0052
          17    0.0045   -0.0012    0.0154   -0.0008    0.0022   -0.0078   -0.0118   -0.0117
          18    0.0097    0.0247    0.0081    0.0103    0.0010   -0.0008   -0.0007    0.0025
          19    0.0029    0.0047   -0.0038    0.0029   -0.0017    0.0043    0.0071    0.0029
          20   -0.0010   -0.0103    0.0132   -0.0026    0.0023   -0.0087   -0.0130   -0.0109
          21    0.0017   -0.0237   -0.0053   -0.0112    0.0003   -0.0018   -0.0032   -0.0037
          22   -0.0380    0.0009   -0.0010    0.0035    0.0004   -0.0005   -0.0006    0.0027
          23   -0.0199    0.0057    0.0048    0.0020    0.0006   -0.0013   -0.0018    0.0006
          24    0.0200   -0.0027   -0.0029   -0.0009   -0.0003    0.0008    0.0010   -0.0008
          25   -0.0827   -0.0386   -0.0268   -0.0098   -0.0024    0.0065    0.0086   -0.0005
          26   -0.0500    0.0323    0.0304    0.0161    0.0048   -0.0135   -0.0192   -0.0058
          27    0.0530    0.0040   -0.0048    0.0008   -0.0007    0.0029    0.0047    0.0072
          28   -0.0141   -0.0169    0.0152   -0.0741   -0.0153    0.0446    0.0661    0.0732
          29   -0.0438   -0.0246    0.0061   -0.0842   -0.0202    0.0611    0.0915    0.1115
          30    0.0240    0.0093    0.0106   -0.0081   -0.0012    0.0036    0.0055    0.0079
          31    0.0196    0.0171    0.0424   -0.0619   -0.0118    0.0351    0.0527    0.0666
          32   -0.0293   -0.0171   -0.0174    0.0043    0.0001   -0.0006   -0.0011   -0.0050
          33    0.0408    0.0232   -0.0074    0.0847    0.0202   -0.0612   -0.0917   -0.1119
          34    0.0000   -0.0225    0.0331    0.0385   -0.0126    0.0112    0.0347   -0.0121
          35    0.0146   -0.0839    0.0012   -0.0357   -0.0035   -0.0016   -0.0170   -0.0440
          36    0.0011    0.0617   -0.0932   -0.1252    0.0421   -0.0507   -0.1268    0.0438
          37   -0.0015   -0.0701    0.0939    0.1297   -0.0467    0.0517    0.1339   -0.0421
          38    0.0109   -0.0832    0.0123   -0.0325   -0.0012    0.0000   -0.0174   -0.0560
          39   -0.0007    0.0099    0.0035    0.0131   -0.0060    0.0069    0.0136    0.0003
          40   -0.1525   -0.0216   -0.0522    0.0471    0.0037   -0.0066   -0.0084    0.0095
          41   -0.0846    0.0591    0.1402   -0.1020   -0.0048    0.0034    0.0013   -0.0421
          42    0.0818   -0.0119   -0.0133   -0.0018   -0.0013    0.0036    0.0053    0.0031
          43   -0.1551   -0.0234   -0.0543    0.0474    0.0037   -0.0063   -0.0079    0.0101
          44   -0.0854    0.0079    0.0107    0.0000    0.0009   -0.0026   -0.0038   -0.0027
          45    0.0916   -0.0529   -0.1358    0.1033    0.0052   -0.0045   -0.0029    0.0413
          46    0.0013   -0.0122    0.0116    0.0100   -0.0505    0.0562   -0.0442    0.0140
          47    0.0062   -0.0620    0.0576    0.0312    0.2263   -0.0794    0.0148    0.0815
          48   -0.0047    0.0481   -0.0479   -0.0372    0.0871   -0.1611    0.1404   -0.0693
          49    0.0053   -0.0484    0.0509    0.0406    0.0598    0.2045   -0.1316    0.0576
          50    0.0073   -0.0578    0.0561    0.0309   -0.1627   -0.1380   -0.0282    0.1058
          51   -0.0004   -0.0008    0.0003    0.0001    0.0000    0.0097   -0.0086    0.0037
          52    0.0103   -0.0823    0.0513    0.0108    0.2270   -0.0793    0.0061    0.0577
          53    0.0100   -0.0721    0.0352    0.0005    0.0386   -0.0716   -0.0108    0.0365
          54   -0.0075    0.0531   -0.0288   -0.0014    0.2553    0.1323    0.0333   -0.0612
          55   -0.0120   -0.0099    0.0028   -0.0009   -0.0020   -0.0016   -0.0023   -0.0024
          56    0.0093    0.0476   -0.0140    0.0043    0.0094    0.0069    0.0053    0.0154
          57   -0.0018   -0.0341   -0.0015   -0.0134   -0.0009   -0.0049   -0.0071   -0.0077
          58   -0.0164    0.0029    0.0095    0.0009    0.0010   -0.0029   -0.0053   -0.0072
          59    0.0723   -0.0150   -0.0199   -0.0016   -0.0038    0.0083    0.0149    0.0107
          60    0.0021    0.0293    0.0158    0.0121    0.0020   -0.0036   -0.0052   -0.0018


   Root No.      41        42        43        44        45        46        47        48

                41 A      42 A      43 A      44 A      45 A      46 A      47 A      48 A   

                1447.0    1887.5    2913.0    2945.6    3003.9    3024.9    3038.0    3043.4
  
           1   -0.0386   -0.0146   -0.0310   -0.0001   -0.0001    0.0000   -0.0002   -0.0005
           2    0.0491    0.0318   -0.0257    0.0000   -0.0003   -0.0001    0.0004   -0.0005
           3   -0.0063    0.0002   -0.0585    0.0000   -0.0004    0.0000   -0.0002   -0.0012
           4    0.0262   -0.0011   -0.0006    0.0000    0.0001    0.0000   -0.0001   -0.0001
           5    0.0131   -0.0007    0.0023    0.0000    0.0054    0.0000   -0.0002    0.0003
           6   -0.0192   -0.0003    0.0017    0.0000    0.0054    0.0000   -0.0001    0.0002
           7   -0.0064    0.0142   -0.0001   -0.0334    0.0000    0.0285    0.0025   -0.0016
           8    0.0380   -0.0351    0.0000   -0.0031    0.0000   -0.0022   -0.0003    0.0006
           9    0.0000   -0.0019    0.0000   -0.0455    0.0000   -0.0221   -0.0054    0.0025
          10    0.0238    0.0029    0.0006    0.0000   -0.0003    0.0000    0.0000   -0.0002
          11   -0.0212   -0.0009   -0.0001    0.0000   -0.0392    0.0000    0.0001    0.0001
          12    0.0223    0.0015    0.0007    0.0000   -0.0393    0.0000    0.0000   -0.0001
          13   -0.0068    0.0003    0.0000    0.0015    0.0000   -0.0019   -0.0006    0.0004
          14   -0.0167   -0.0022    0.0000    0.0001    0.0000    0.0026    0.0004   -0.0004
          15    0.0059   -0.0001    0.0000    0.0022    0.0000    0.0016   -0.0001   -0.0004
          16    0.0156    0.0706   -0.0004    0.0002    0.0000    0.0003    0.0030    0.0103
          17   -0.0251   -0.2026    0.0000   -0.0005    0.0000    0.0004   -0.0041   -0.0008
          18   -0.0069    0.1229    0.0017   -0.0005    0.0000   -0.0024   -0.0072   -0.0609
          19    0.0092   -0.0694    0.0000   -0.0006    0.0000   -0.0008    0.0102   -0.0005
          20   -0.0258    0.2049   -0.0002    0.0005    0.0000   -0.0003   -0.0027   -0.0037
          21    0.0012   -0.1227   -0.0003    0.0022   -0.0001    0.0060   -0.0571    0.0130
          22   -0.0096   -0.0025    0.0001    0.0000    0.0000    0.0000    0.0000    0.0002
          23   -0.0081    0.0027    0.0002    0.0000    0.0004    0.0000   -0.0001   -0.0004
          24    0.0063    0.0004    0.0006    0.0000    0.0004    0.0000    0.0000   -0.0001
          25    0.0342    0.0090    0.3699    0.0001    0.0005    0.0002    0.0002    0.0061
          26   -0.0472   -0.0237    0.3156    0.0001    0.0009    0.0003    0.0020    0.0087
          27   -0.0029    0.0131    0.6889    0.0001    0.0021    0.0006    0.0006    0.0130
          28   -0.0459    0.0048    0.0051    0.0000    0.0259    0.0000   -0.0004    0.0011
          29   -0.0964    0.0019   -0.0057    0.0000   -0.0183    0.0000    0.0002   -0.0007
          30   -0.0105    0.0030   -0.0204    0.0000   -0.0472   -0.0001    0.0009   -0.0024
          31   -0.0769   -0.0046   -0.0059    0.0001   -0.0267   -0.0001    0.0010   -0.0009
          32    0.0181    0.0019   -0.0201    0.0001   -0.0485   -0.0003    0.0020   -0.0021
          33    0.0977   -0.0006   -0.0063    0.0001   -0.0191   -0.0001    0.0006   -0.0007
          34   -0.0007    0.0087    0.0000    0.4286    0.0000   -0.3564   -0.0297    0.0187
          35   -0.0344   -0.0051    0.0001    0.0060    0.0000   -0.0071   -0.0019    0.0007
          36   -0.0100   -0.0082    0.0000    0.1354    0.0000   -0.1447   -0.0156    0.0088
          37    0.0162   -0.0151    0.0000   -0.0248    0.0000    0.0092   -0.0013   -0.0007
          38   -0.0491    0.0445    0.0000    0.0322    0.0000    0.0315    0.0096   -0.0019
          39    0.0064   -0.0105    0.0002    0.4088    0.0001    0.4126    0.0763   -0.0405
          40   -0.0355   -0.0008    0.0002    0.0000    0.1342   -0.0001    0.0002    0.0010
          41    0.0911    0.0011    0.0006    0.0000    0.0911   -0.0001    0.0002    0.0009
          42    0.0093    0.0030    0.0000    0.0000    0.3750   -0.0002    0.0005    0.0030
          43   -0.0350   -0.0011    0.0036    0.0000   -0.1305    0.0000    0.0003    0.0009
          44   -0.0053   -0.0018   -0.0110    0.0000    0.3752    0.0002   -0.0011   -0.0030
          45   -0.0947   -0.0012   -0.0027    0.0000    0.0927    0.0001   -0.0003   -0.0009
          46    0.0046    0.0006    0.0001   -0.0197    0.0000    0.0107    0.0044   -0.0017
          47    0.0327   -0.0012    0.0000    0.0025    0.0000    0.0009    0.0004   -0.0003
          48   -0.0250    0.0014    0.0000   -0.0088    0.0000    0.0049    0.0014   -0.0007
          49    0.0223   -0.0013    0.0000   -0.0012    0.0000   -0.0009   -0.0004    0.0002
          50    0.0363   -0.0025    0.0000   -0.0043    0.0000   -0.0006   -0.0013    0.0004
          51    0.0015   -0.0008    0.0001   -0.0208    0.0001   -0.0163    0.0017    0.0039
          52    0.0130    0.0053    0.0000   -0.0001    0.0000    0.0171    0.0042   -0.0032
          53    0.0024   -0.0010    0.0000    0.0007    0.0000   -0.0257   -0.0076    0.0056
          54   -0.0110   -0.0036    0.0000    0.0006    0.0000   -0.0102   -0.0028    0.0019
          55   -0.0026    0.0532    0.0002    0.0031   -0.0001    0.0136   -0.1331    0.0239
          56    0.0191   -0.0847   -0.0015   -0.0004    0.0001   -0.0055    0.0666   -0.0148
          57   -0.0057   -0.1119    0.0019   -0.0264    0.0007   -0.0668    0.6561   -0.1103
          58   -0.0146   -0.0553    0.0008   -0.0006   -0.0001   -0.0045   -0.0225   -0.1403
          59    0.0249    0.0844    0.0010   -0.0003    0.0000    0.0013    0.0075    0.0643
          60   -0.0180    0.1146   -0.0201    0.0064   -0.0004    0.0220    0.1169    0.6853


   Root No.      49        50        51        52        53        54

                49 A      50 A      51 A      52 A      53 A      54 A   

                3048.6    3055.0    3081.1    3086.0    3118.5    3183.0
  
           1   -0.0012   -0.0008    0.0000    0.0000    0.0008    0.0000
           2    0.0006   -0.0009    0.0000    0.0000    0.0002    0.0000
           3   -0.0010   -0.0016    0.0000    0.0000   -0.0004    0.0000
           4    0.0003   -0.0008    0.0000    0.0000    0.0315    0.0000
           5   -0.0002   -0.0375    0.0000    0.0000    0.0199    0.0000
           6    0.0005   -0.0367    0.0000    0.0000   -0.0224    0.0000
           7    0.0000    0.0000   -0.0007    0.0024    0.0000    0.0001
           8    0.0000    0.0000   -0.0002   -0.0002    0.0000    0.0005
           9    0.0000    0.0000   -0.0026   -0.0010    0.0000    0.0000
          10    0.0244    0.0000    0.0000    0.0000    0.0005    0.0000
          11   -0.0256   -0.0054    0.0000    0.0000    0.0003    0.0000
          12    0.0253   -0.0053    0.0000    0.0000   -0.0005    0.0000
          13    0.0000    0.0000   -0.0183    0.0403    0.0000    0.0118
          14    0.0000    0.0000   -0.0106   -0.0286    0.0000    0.0201
          15    0.0000    0.0000   -0.0465   -0.0094    0.0000   -0.0083
          16    0.0001   -0.0003    0.0000    0.0000    0.0000    0.0000
          17   -0.0001    0.0001    0.0000    0.0000    0.0001    0.0000
          18   -0.0004   -0.0002    0.0002    0.0003    0.0000    0.0000
          19    0.0000    0.0000   -0.0001    0.0001    0.0000    0.0000
          20    0.0000    0.0000    0.0002    0.0004    0.0000   -0.0001
          21    0.0000    0.0002    0.0003   -0.0005   -0.0001    0.0002
          22   -0.0004    0.0000    0.0000    0.0000   -0.0007    0.0000
          23    0.0001    0.0000    0.0000    0.0000   -0.0004    0.0000
          24   -0.0001   -0.0001    0.0000    0.0000    0.0004    0.0000
          25    0.0022    0.0124   -0.0001    0.0000    0.0006    0.0000
          26    0.0021    0.0074   -0.0001    0.0000    0.0006    0.0000
          27    0.0041    0.0160   -0.0001    0.0000    0.0005    0.0000
          28    0.0011   -0.1720    0.0001   -0.0001   -0.1963    0.0000
          29   -0.0007    0.1002   -0.0001    0.0000    0.1553    0.0000
          30   -0.0012    0.3318   -0.0002    0.0001    0.4191    0.0000
          31   -0.0001    0.1829   -0.0001   -0.0001   -0.1854    0.0000
          32   -0.0012    0.3516   -0.0002   -0.0001   -0.3944    0.0001
          33    0.0000    0.1098   -0.0001   -0.0001   -0.1502    0.0000
          34    0.0003   -0.0001    0.0105   -0.0293    0.0002    0.0023
          35    0.0000    0.0000    0.0019   -0.0034    0.0000    0.0007
          36    0.0001    0.0000    0.0005   -0.0104    0.0001    0.0005
          37    0.0000    0.0000   -0.0028    0.0012    0.0000    0.0005
          38    0.0000    0.0000   -0.0009    0.0002    0.0000    0.0006
          39   -0.0003   -0.0002    0.0281    0.0222    0.0000   -0.0031
          40   -0.1405    0.0170    0.0000    0.0000    0.0004    0.0000
          41   -0.1312    0.0091    0.0000    0.0000    0.0000    0.0000
          42   -0.4286    0.0515    0.0000    0.0000    0.0003    0.0000
          43   -0.1364   -0.0172    0.0000    0.0000   -0.0001    0.0000
          44    0.4296    0.0535   -0.0001   -0.0001    0.0014    0.0000
          45    0.1332    0.0099    0.0000    0.0000    0.0003    0.0000
          46    0.0000    0.0002    0.3043   -0.3085    0.0001   -0.3054
          47    0.0000    0.0000    0.0032   -0.0237    0.0000    0.0004
          48    0.0000    0.0001    0.0876   -0.1223    0.0000   -0.1145
          49    0.0000    0.0000   -0.0165    0.0192    0.0000    0.0010
          50    0.0000    0.0000    0.0209   -0.0081    0.0000    0.0260
          51    0.0001    0.0002    0.4592    0.1147    0.0000    0.3102
          52   -0.0001   -0.0001   -0.0684   -0.1927    0.0001    0.1601
          53    0.0001    0.0001    0.1014    0.3723   -0.0002   -0.2716
          54    0.0000    0.0000    0.0102    0.1196   -0.0001   -0.0939
          55   -0.0001    0.0004    0.0006   -0.0007   -0.0002    0.0005
          56    0.0000   -0.0003    0.0007    0.0010    0.0000    0.0002
          57    0.0005   -0.0022   -0.0042    0.0041    0.0008   -0.0023
          58   -0.0009   -0.0006    0.0005    0.0006   -0.0001    0.0000
          59    0.0004    0.0005   -0.0003   -0.0003    0.0000    0.0000
          60    0.0039    0.0020   -0.0021   -0.0026    0.0004   -0.0001


           MASS-WEIGHTED COORDINATE ANALYSIS (NORMAL COORDINATES)


   Root No.       1         2         3         4         5         6         7         8

                 1 A       2 A       3 A       4 A       5 A       6 A       7 A       8 A   

                  24.4      66.6     109.4     130.2     171.5     247.8     330.9     372.0
  
           1   -0.1637   -0.1211   -0.0733    0.0132    0.0289   -0.0217    0.2106    0.0903
           2   -0.1040   -0.1309   -0.0156   -0.1257    0.0342    0.0964    0.1610   -0.0826
           3    0.0417    0.0129   -0.0515   -0.2145    0.0935    0.0504   -0.1432    0.0756
           4   -0.1640   -0.1221   -0.0677    0.0146    0.0283   -0.0296    0.2367    0.1344
           5    0.0717    0.0497    0.3529   -0.1879    0.0332   -0.0870   -0.1855   -0.2587
           6   -0.2224   -0.0437    0.1384   -0.1428    0.0918   -0.1560   -0.1003    0.0207
           7   -0.0800    0.2270    0.1249    0.1015   -0.0814   -0.1945   -0.2241   -0.0876
           8   -0.0675    0.0163    0.0548   -0.0571   -0.0284   -0.0001    0.0309    0.3611
           9   -0.2094    0.0783    0.1622    0.1802   -0.1411   -0.2157    0.1907   -0.0902
          10    0.1438    0.0448    0.0518   -0.0738    0.0332   -0.0307   -0.0599    0.1835
          11    0.2404    0.0710    0.2234    0.3176   -0.1825    0.1440   -0.0445   -0.1456
          12   -0.0228   -0.0065    0.0174    0.3569   -0.1245    0.0788    0.0244    0.1257
          13    0.3248   -0.2182    0.3033   -0.0689   -0.0043    0.0090    0.0949    0.0247
          14   -0.0551    0.1709   -0.2150    0.0337    0.0237   -0.0502   -0.2912    0.3718
          15    0.3204   -0.1557   -0.1844    0.1650    0.0671   -0.0726   -0.0842   -0.0598
          16   -0.2519   -0.2834   -0.2376    0.1233   -0.0836    0.1650   -0.2334   -0.2487
          17   -0.1113   -0.2059   -0.1387   -0.0562    0.0217    0.0998   -0.0987   -0.0747
          18   -0.0653   -0.0089    0.0671   -0.2579   -0.0565    0.3969   -0.0457   -0.0948
          19   -0.0016    0.4678   -0.2470   -0.0171    0.0378    0.1836   -0.0311   -0.3499
          20   -0.0646    0.1274   -0.1086   -0.0156    0.0172    0.0377    0.1377    0.0943
          21   -0.0977    0.1096    0.1060   -0.1590   -0.1080    0.3201    0.1880    0.0681
          22    0.1490    0.0417    0.0475   -0.0790    0.0409   -0.0428   -0.0291    0.2200
          23    0.0738   -0.1298   -0.1969    0.0622    0.1029   -0.2279    0.3870   -0.3111
          24    0.2421    0.0368   -0.2466   -0.0322    0.1786   -0.3139    0.0054   -0.0344
          25   -0.0805   -0.0332    0.0280   -0.0046    0.0213   -0.0618    0.0932    0.0438
          26   -0.0881   -0.0579    0.0100   -0.0579   -0.0155    0.1164    0.0426   -0.0346
          27    0.0543    0.0115   -0.0457   -0.0466    0.0303    0.0048   -0.0588    0.0163
          28   -0.0838   -0.0349    0.0364    0.0069    0.0125   -0.0702    0.0419   -0.0053
          29   -0.0095    0.0215    0.1623   -0.1973    0.0729   -0.1190   -0.1360   -0.1349
[...]
 EFF. MASS   5.0406

 VIBRATION   33   33A       ATOM PAIR        ENERGY CONTRIBUTION    RADIAL
 FREQ.      1297.43        C  4 --  H 15          +16.1% ( 58.8%)     0.3%
 T-DIPOLE    0.4654        C  4 --  H 14          +15.7% ( 58.1%)     0.2%
 TRAVEL      0.0817        C  4 --  O  8          +15.5% ( 57.7%)    69.5%
 RED. MASS   1.8219        C  1 --  C  4          +12.2% ( 51.2%)    38.7%
 EFF. MASS   7.7861

 VIBRATION   34   34A       ATOM PAIR        ENERGY CONTRIBUTION    RADIAL
 FREQ.      1333.92        C  3 --  H 13          +12.8% ( 51.3%)     0.0%
 T-DIPOLE    0.2125        C  3 --  C  7          +12.5% ( 50.7%)    85.0%
 TRAVEL      0.0881        C  3 --  H 12          +12.5% ( 50.7%)     0.1%
 RED. MASS   1.0264        C  1 --  C  6           +8.6% ( 42.1%)    82.0%
 EFF. MASS   6.5195

 VIBRATION   35   35A       ATOM PAIR        ENERGY CONTRIBUTION    RADIAL
 FREQ.      1371.35        C  4 --  H 14          +11.9% ( 42.6%)     3.2%
 T-DIPOLE    0.4033        C  4 --  H 15          +11.3% ( 41.5%)     4.0%
 TRAVEL      0.1111        C  1 --  C  6          +10.5% ( 40.0%)    97.6%
 RED. MASS   0.3241        C  1 --  C  4           +7.0% ( 32.6%)     3.9%
 EFF. MASS   3.9849

 VIBRATION   36   36A       ATOM PAIR        ENERGY CONTRIBUTION    RADIAL
 FREQ.      1393.33        C  3 --  H 12          +12.3% ( 41.3%)     3.5%
 T-DIPOLE    0.0762        C  3 --  H 13          +12.2% ( 41.2%)     4.5%
 TRAVEL      0.1147        C  4 --  H 15           +9.6% ( 36.5%)     5.3%
 RED. MASS   0.2871        C  4 --  H 14           +9.4% ( 36.1%)     5.7%
 EFF. MASS   3.6755

 VIBRATION   37   37A       ATOM PAIR        ENERGY CONTRIBUTION    RADIAL
 FREQ.      1406.80        C  5 --  H 18          +49.5% ( 61.7%)     0.2%
 T-DIPOLE    0.0448        C  5 --  H 16          +26.1% ( 44.8%)     8.0%
 TRAVEL      0.1705        C  5 --  H 17          +13.8% ( 32.6%)    16.3%
 RED. MASS   0.3988        C  3 --  C  5           +5.6% ( 20.7%)    21.0%
 EFF. MASS   1.6482

 VIBRATION   38   38A       ATOM PAIR        ENERGY CONTRIBUTION    RADIAL
 FREQ.      1410.99        C  5 --  H 17          +32.5% ( 54.1%)     0.0%
 T-DIPOLE    0.0554        C  5 --  H 16          +19.9% ( 42.4%)     1.7%
 TRAVEL      0.1497        C  5 --  H 18          +15.8% ( 37.8%)    17.0%
 RED. MASS   0.2847        C  3 --  C  5           +5.3% ( 21.9%)    78.0%
 EFF. MASS   2.1323

 VIBRATION   39   39A       ATOM PAIR        ENERGY CONTRIBUTION    RADIAL
 FREQ.      1412.01        C  3 --  H 13          +12.3% ( 38.9%)     5.5%
 T-DIPOLE    0.1683        C  5 --  H 16          +11.9% ( 38.3%)     2.5%
 TRAVEL      0.1181        C  3 --  H 12          +11.7% ( 38.0%)     6.0%
 RED. MASS   0.2495        C  5 --  H 17          +10.0% ( 35.2%)     6.5%
 EFF. MASS   3.4234

 VIBRATION   40   40A       ATOM PAIR        ENERGY CONTRIBUTION    RADIAL
 FREQ.      1423.60        C  3 --  C  5          +16.0% ( 51.4%)    95.0%
 T-DIPOLE    0.1399        C  5 --  H 17          +11.6% ( 43.7%)     3.4%
 TRAVEL      0.0953        C  5 --  H 16          +10.6% ( 41.8%)     2.7%
 RED. MASS   0.6750        C  5 --  H 18           +9.1% ( 38.8%)     5.3%
 EFF. MASS   5.2185

 VIBRATION   41   41A       ATOM PAIR        ENERGY CONTRIBUTION    RADIAL
 FREQ.      1446.99        C  1 --  C  6          +11.4% ( 53.3%)    88.9%
 T-DIPOLE    0.2910        C  1 --  C  4          +11.3% ( 53.1%)    91.0%
 TRAVEL      0.0743        C  1 --  C  2          +10.0% ( 49.8%)    74.2%
 RED. MASS   1.1766        C  1 --  H  9           +8.0% ( 44.8%)     0.1%
 EFF. MASS   8.4393

 VIBRATION   42   42A       ATOM PAIR        ENERGY CONTRIBUTION    RADIAL
 FREQ.      1887.53        C  6 --  C  7          +43.9% ( 97.9%)    96.6%
 T-DIPOLE    0.4760        C  3 --  C  7          +14.3% ( 55.9%)    54.9%
 TRAVEL      0.0550        C  1 --  C  6          +14.0% ( 55.3%)    51.5%
 RED. MASS   5.3934        C  7 --  H 19          +13.4% ( 54.0%)     3.6%
 EFF. MASS  11.8076        C  6 --  H 20          +13.2% ( 53.7%)     3.9%

 VIBRATION   43   43A       ATOM PAIR        ENERGY CONTRIBUTION    RADIAL
 FREQ.      2912.98        C  1 --  H  9          +95.3% ( 99.9%)   100.0%
 T-DIPOLE    0.0489        C  1 --  C  6           +1.1% ( 10.9%)    13.8%
 TRAVEL      0.1257        C  1 --  C  2           +1.1% ( 10.8%)    17.3%
 RED. MASS   0.9259        C  1 --  C  4           +1.1% ( 10.8%)    29.4%
 EFF. MASS   1.4657

 VIBRATION   44   44A       ATOM PAIR        ENERGY CONTRIBUTION    RADIAL
 FREQ.      2945.56        C  3 --  H 12          +52.6% ( 75.3%)    96.9%
 T-DIPOLE    0.0317        C  3 --  H 13          +44.6% ( 69.4%)    96.0%
 TRAVEL      0.1218        C  3 --  C  5           +1.2% ( 11.2%)     0.0%
 RED. MASS   0.5171        C  3 --  C  7           +1.1% ( 11.1%)     0.2%
 EFF. MASS   1.5436

 VIBRATION   45   45A       ATOM PAIR        ENERGY CONTRIBUTION    RADIAL
 FREQ.      3003.91        C  4 --  H 14          +47.3% ( 71.7%)    96.5%
 T-DIPOLE    0.0424        C  4 --  H 15          +47.1% ( 71.6%)    96.5%
 TRAVEL      0.1191        C  2 --  C  4           +1.3% ( 11.7%)     0.0%
 RED. MASS   0.5072        C  4 --  O  8           +1.2% ( 11.4%)     0.0%
 EFF. MASS   1.5815

 VIBRATION   46   46A       ATOM PAIR        ENERGY CONTRIBUTION    RADIAL
 FREQ.      3024.88        C  3 --  H 13          +52.0% ( 71.1%)    98.1%
 T-DIPOLE    0.0580        C  3 --  H 12          +44.4% ( 65.8%)    97.2%
 TRAVEL      0.1318        C  7 --  H 19           +1.5% ( 12.3%)    99.8%
 RED. MASS   0.4663        C  3 --  C  7           +0.7% (  8.1%)    29.5%
 EFF. MASS   1.2837

 VIBRATION   47   47A       ATOM PAIR        ENERGY CONTRIBUTION    RADIAL
 FREQ.      3038.00        C  7 --  H 19          +93.3% ( 97.7%)   100.0%
 T-DIPOLE    0.2981        C  6 --  H 20           +2.8% ( 17.0%)    99.5%
 TRAVEL      0.1224        C  3 --  C  7           +1.2% ( 11.3%)    14.3%
 RED. MASS   0.8507        C  6 --  C  7           +1.2% ( 11.2%)    39.5%
 EFF. MASS   1.4804

 VIBRATION   48   48A       ATOM PAIR        ENERGY CONTRIBUTION    RADIAL
 FREQ.      3043.42        C  6 --  H 20          +93.8% ( 98.4%)   100.0%
 T-DIPOLE    0.3012        C  7 --  H 19           +2.6% ( 16.3%)    99.2%
 TRAVEL      0.1199        C  6 --  C  7           +1.8% ( 13.5%)    40.4%
 RED. MASS   0.8729        C  1 --  C  6           +1.4% ( 11.8%)    14.2%
 EFF. MASS   1.5414

 VIBRATION   49   49A       ATOM PAIR        ENERGY CONTRIBUTION    RADIAL
 FREQ.      3048.64        C  4 --  H 15          +48.9% ( 69.6%)    97.0%
 T-DIPOLE    0.0302        C  4 --  H 14          +48.8% ( 69.5%)    97.0%
 TRAVEL      0.1307        C  1 --  C  4           +0.8% (  8.8%)    97.8%
 RED. MASS   0.4843        C  4 --  O  8           +0.8% (  8.7%)    36.9%
 EFF. MASS   1.2948

 VIBRATION   50   50A       ATOM PAIR        ENERGY CONTRIBUTION    RADIAL
 FREQ.      3054.97        C  2 --  H 11          +50.0% ( 73.6%)    97.2%
 T-DIPOLE    0.1520        C  2 --  H 10          +44.7% ( 69.6%)    96.6%
 TRAVEL      0.1197        C  2 --  O  8           +1.1% ( 10.9%)     0.0%
 RED. MASS   0.4992        C  1 --  C  2           +1.1% ( 10.9%)     0.0%
 EFF. MASS   1.5399

 VIBRATION   51   51A       ATOM PAIR        ENERGY CONTRIBUTION    RADIAL
 FREQ.      3081.13        C  5 --  H 17          +63.0% ( 81.9%)    98.6%
 T-DIPOLE    0.0058        C  5 --  H 16          +30.5% ( 57.0%)    93.0%
 TRAVEL      0.1207        C  5 --  H 18           +5.2% ( 23.6%)    56.1%
 RED. MASS   0.5206        C  3 --  C  5           +1.0% ( 10.2%)     0.0%
 EFF. MASS   1.5012

 VIBRATION   52   52A       ATOM PAIR        ENERGY CONTRIBUTION    RADIAL
 FREQ.      3086.00        C  5 --  H 18          +59.1% ( 79.3%)    98.4%
 T-DIPOLE    0.0083        C  5 --  H 16          +34.6% ( 60.7%)    94.0%
 TRAVEL      0.1205        C  5 --  H 17           +4.9% ( 22.8%)    53.2%
 RED. MASS   0.4997        C  3 --  C  5           +1.0% ( 10.3%)     0.0%
 EFF. MASS   1.5042

 VIBRATION   53   53A       ATOM PAIR        ENERGY CONTRIBUTION    RADIAL
 FREQ.      3118.53        C  2 --  H 10          +51.9% ( 71.5%)    97.4%
 T-DIPOLE    0.1408        C  2 --  H 11          +46.0% ( 67.3%)    96.6%
 TRAVEL      0.1297        C  2 --  O  8           +0.7% (  8.4%)    99.9%
 RED. MASS   0.4857        C  2 --  C  4           +0.7% (  8.3%)    54.3%
 EFF. MASS   1.2847

 VIBRATION   54   54A       ATOM PAIR        ENERGY CONTRIBUTION    RADIAL
 FREQ.      3182.99        C  5 --  H 18          +34.8% ( 56.7%)    97.4%
 T-DIPOLE    0.0243        C  5 --  H 16          +34.1% ( 56.2%)    97.3%
 TRAVEL      0.1366        C  5 --  H 17          +30.8% ( 53.4%)    96.7%
 RED. MASS   0.3277        C  3 --  C  5           +0.3% (  5.1%)    99.8%
 EFF. MASS   1.1361

 SYMMETRY NUMBER FOR POINT-GROUP C1  =  1


          SYSTEM IS A GROUND STATE


    NULL



          MOLECULE IS NOT LINEAR

          THERE ARE 54 GENUINE VIBRATIONS IN THIS SYSTEM
          THIS THERMODYNAMICS CALCULATION IS LIMITED TO
          MOLECULES WHICH HAVE NO INTERNAL ROTATIONS




                    CALCULATED THERMODYNAMIC PROPERTIES
                                          *
   TEMP. (K)   PARTITION FUNCTION   H.O.F.    ENTHALPY  HEAT CAPACITY ENTROPY
                                   KCAL/MOL   CAL/MOLE    CAL/K/MOL  CAL/K/MOL


 298.00  VIB.     0.9536D+03                  3892.7759    25.9915    26.6958
         ROT.     0.4311D+06                   888.2813     2.9808    28.7630
         INT.     0.4111D+09                  4781.0572    28.9723    55.4588
         TRA.     0.1149D+28                  1480.4688     4.9680    40.0581
         TOT.                      -23.485    6261.5260    33.9403    95.5169

 200.00  VIB.     0.1066D+03                  1826.7493    16.6405    18.4126
         ROT.     0.2370D+06                   596.1620     2.9808    27.5743
         INT.     0.2527D+08                  2422.9113    19.6213    45.9868
         TRA.     0.6315D+27                   993.6033     4.9680    38.0770
         TOT.                      -26.330    3416.5145    24.5893    84.0638

 210.00  VIB.     0.1340D+03                  1997.1763    17.4512    19.2439
         ROT.     0.2550D+06                   625.9700     2.9808    27.7197
         INT.     0.3418D+08                  2623.1463    20.4320    46.9636
         TRA.     0.6794D+27                  1043.2834     4.9680    38.3194
         TOT.                      -26.080    3666.4297    25.4000    85.2830

 220.00  VIB.     0.1682D+03                  2175.8984    18.2995    20.0752
         ROT.     0.2734D+06                   655.7781     2.9808    27.8584
         INT.     0.4599D+08                  2831.6765    21.2803    47.9336
         TRA.     0.7285D+27                  1092.9636     4.9680    38.5505
         TOT.                      -25.821    3924.6401    26.2483    86.4841

 230.00  VIB.     0.2107D+03                  2363.2900    19.1849    20.9080
         ROT.     0.2923D+06                   685.5862     2.9808    27.9909
         INT.     0.6160D+08                  3048.8762    22.1657    48.8989
         TRA.     0.7788D+27                  1142.6437     4.9680    38.7713
         TOT.                      -25.555    4191.5199    27.1337    87.6702

 240.00  VIB.     0.2637D+03                  2559.7141    20.1057    21.7439
         ROT.     0.3116D+06                   715.3943     2.9808    28.1177
         INT.     0.8216D+08                  3275.1085    23.0865    49.8616
         TRA.     0.8301D+27                  1192.3239     4.9680    38.9828
         TOT.                      -25.279    4467.4324    28.0545    88.8444

 250.00  VIB.     0.3296D+03                  2765.5135    21.0595    22.5838
         ROT.     0.3312D+06                   745.2024     2.9808    28.2394
         INT.     0.1092D+09                  3510.7160    24.0403    50.8233
         TRA.     0.8825D+27                  1242.0041     4.9680    39.1856
         TOT.                      -24.993    4752.7200    29.0083    90.0089

 260.00  VIB.     0.4117D+03                  2981.0034    22.0432    23.4289
         ROT.     0.3513D+06                   775.0105     2.9808    28.3563
         INT.     0.1446D+09                  3756.0139    25.0240    51.7852
         TRA.     0.9360D+27                  1291.6842     4.9680    39.3804
         TOT.                      -24.698    5047.6981    29.9920    91.1657

 270.00  VIB.     0.5138D+03                  3206.4663    23.0535    24.2797
         ROT.     0.3718D+06                   804.8186     2.9808    28.4688
         INT.     0.1910D+09                  4011.2849    26.0343    52.7485
         TRA.     0.9905D+27                  1341.3644     4.9680    39.5679
         TOT.                      -24.393    5352.6493    31.0023    92.3164

 280.00  VIB.     0.6410D+03                  3442.1491    24.0866    25.1367
         ROT.     0.3926D+06                   834.6267     2.9808    28.5772
         INT.     0.2517D+09                  4276.7759    27.0674    53.7139
         TRA.     0.1046D+28                  1391.0445     4.9680    39.7486
         TOT.                      -24.078    5667.8204    32.0354    93.4625

 290.00  VIB.     0.7993D+03                  3688.2611    25.1387    26.0002
         ROT.     0.4138D+06                   864.4348     2.9808    28.6818
         INT.     0.3308D+09                  4552.6959    28.1195    54.6820
         TRA.     0.1103D+28                  1440.7247     4.9680    39.9229
         TOT.                      -23.753    5993.4207    33.0875    94.6050

 300.00  VIB.     0.9967D+03                  3944.9733    26.2060    26.8704
         ROT.     0.4354D+06                   894.2429     2.9808    28.7829
         INT.     0.4340D+09                  4839.2162    29.1868    55.6533
         TRA.     0.1160D+28                  1490.4049     4.9680    40.0914
         TOT.                      -23.416    6329.6211    34.1548    95.7447

 310.00  VIB.     0.1243D+04                  4212.4191    27.2848    27.7472
         ROT.     0.4574D+06                   924.0510     2.9808    28.8806
         INT.     0.5684D+09                  5136.4701    30.2656    56.6279
         TRA.     0.1219D+28                  1540.0850     4.9680    40.2543
         TOT.                      -23.070    6676.5551    35.2336    96.8821

 320.00  VIB.     0.1549D+04                  4490.6956    28.3716    28.6306
         ROT.     0.4797D+06                   953.8591     2.9808    28.9753
         INT.     0.7432D+09                  5444.5547    31.3524    57.6059
         TRA.     0.1278D+28                  1589.7652     4.9680    40.4120
         TOT.                      -22.712    7034.3199    36.3204    98.0179

 330.00  VIB.     0.1932D+04                  4779.8654    29.4629    29.5204
         ROT.     0.5024D+06                   983.6672     2.9808    29.0670
         INT.     0.9706D+09                  5763.5327    32.4437    58.5874
         TRA.     0.1338D+28                  1639.4454     4.9680    40.5649
         TOT.                      -22.343    7402.9780    37.4117    99.1523

 340.00  VIB.     0.2410D+04                  5079.9590    30.5558    30.4162
         ROT.     0.5254D+06                  1013.4753     2.9808    29.1560
         INT.     0.1266D+10                  6093.4343    33.5366    59.5722
         TRA.     0.1400D+28                  1689.1255     4.9680    40.7132
         TOT.                      -21.964    7782.5599    38.5046   100.2853

 350.00  VIB.     0.3007D+04                  5390.9771    31.6474    31.3177
         ROT.     0.5487D+06                  1043.2834     2.9808    29.2424
         INT.     0.1650D+10                  6434.2605    34.6282    60.5600
         TRA.     0.1462D+28                  1738.8057     4.9680    40.8572
         TOT.                      -21.573    8173.0662    39.5962   101.4172

 360.00  VIB.     0.3753D+04                  5712.8933    32.7350    32.2245
         ROT.     0.5724D+06                  1073.0915     2.9808    29.3264
         INT.     0.2148D+10                  6785.9849    35.7159    61.5508
         TRA.     0.1525D+28                  1788.4859     4.9680    40.9971
         TOT.                      -21.172    8574.4707    40.6839   102.5480

 370.00  VIB.     0.4686D+04                  6045.6574    33.8166    33.1361
         ROT.     0.5964D+06                  1102.8996     2.9808    29.4080
         INT.     0.2795D+10                  7148.5571    36.7974    62.5442
         TRA.     0.1589D+28                  1838.1660     4.9680    41.1333
         TOT.                      -20.759    8986.7231    41.7654   103.6774

 380.00  VIB.     0.5853D+04                  6389.1974    34.8899    34.0522
         ROT.     0.6207D+06                  1132.7077     2.9808    29.4875
         INT.     0.3633D+10                  7521.9051    37.8707    63.5397
         TRA.     0.1654D+28                  1887.8462     4.9680    41.2658
         TOT.                      -20.336    9409.7513    42.8387   104.8055

 390.00  VIB.     0.7315D+04                  6743.4226    35.9533    34.9723
         ROT.     0.6454D+06                  1162.5158     2.9808    29.5650
         INT.     0.4721D+10                  7905.9384    38.9341    64.5372
         TRA.     0.1720D+28                  1937.5263     4.9680    41.3948
         TOT.                      -19.903    9843.4647    43.9022   105.9320

 400.00  VIB.     0.9145D+04                  7108.2258    37.0053    35.8958
         ROT.     0.6704D+06                  1192.3239     2.9808    29.6404
         INT.     0.6131D+10                  8300.5497    39.9861    65.5362
         TRA.     0.1786D+28                  1987.2065     4.9680    41.5206
         TOT.                      -19.458   10287.7562    44.9541   107.0568

   *: NOTE: HEATS OF FORMATION ARE RELATIVE TO THE
            ELEMENTS IN THEIR STANDARD STATE AT 298K
              (=  Standard Enthalpy of Formation).

            Hvib:  Zero-point energy is not included.
                   frequencies of less than zero cm-1 are not included.
            Hrot = (3/2)RT
            Htra = (3/2)RT + pV = (5/2)RT

            Heat capacity is Cp, not Cv

           For more information, see: HTTP://OpenMOPAC.net/Manual/thermochemistry.html


           FORCE CONSTANT IN CARTESIAN COORDINATES (Millidynes/A)

    ATOM   CHEMICAL       X               Y               Z
   NUMBER   SYMBOL  FORCE CONSTANT  FORCE CONSTANT  FORCE CONSTANT

      1       C        8.162120        8.673902        8.365582
      2       C        7.852994        8.289596        8.260951
      3       C        8.147378        8.802642        8.462442
      4       C        7.773782        8.648758        8.602545
      5       C        8.223372        8.420933        8.207603
      6       C        4.080114       11.624312       11.561987
      7       C        3.950074       11.810553       11.417145
      8       O        6.271166        3.682849        3.369560
      9       H        1.441900        1.229912        3.315920
     10       H        1.507803        1.087960        4.059820
     11       H        1.513633        4.028468        1.100544
     12       H        4.452445        0.669938        1.150691
     13       H        0.688205        0.787319        4.922693
     14       H        1.050098        0.966170        4.342040
     15       H        1.026075        4.356754        0.975204
     16       H        4.866923        0.702403        1.211001
     17       H        0.684052        0.731874        5.365567
     18       H        1.704961        4.062939        1.023132
     19       H        0.596771        0.759052        4.854531
     20       H        0.600643        0.762661        4.875134



 TOTAL CPU TIME:             2.28 SECONDS

 == MOPAC DONE ==
