 *******************************************************************************
 ** Site#: 14399           For non-commercial use only        Version 13.159M **
 *******************************************************************************
 ** Cite this work as: MOPAC2012, James J. P. Stewart, Stewart Computational  **
 ** Chemistry, Version 13.159M web: HTTP://OpenMOPAC.net  Days remaining:   5 **
 *******************************************************************************
 **                                                                           **
 **                                MOPAC2012                                  **
 **                                                                           **
 *******************************************************************************

                            PM3 CALCULATION RESULTS


 *******************************************************************************
 *  CALCULATION DONE:                                Tue Jun  3 11:51:49 2014  *
 *  PM3      - The PM3 Hamiltonian to be used
 *  PRECISE  - CRITERIA TO BE INCREASED BY 100 TIMES
 *  NOSYM    - POINT-GROUP SYMMETRY SET TO C1
 *  T=       - A TIME OF 172800.0 SECONDS REQUESTED
 *  DUMP=N   - RESTART FILE WRITTEN EVERY  7200.000 SECONDS
 *******************************************************************************
pm3  precise nosym
 InChI=1S/C6H10/c1-2-3-6-4-5-6/h2,6H,1,3-5H2

   ATOM   CHEMICAL          X               Y               Z
  NUMBER   SYMBOL      (ANGSTROMS)     (ANGSTROMS)     (ANGSTROMS)
 
     1       C         -0.60800000  *  -0.29380000  *   0.37290000  *
     2       C         -2.12640000  *  -0.31460000  *  -0.17030000  *
     3       C         -1.34720000  *   0.91850000  *  -0.00770000  *
     4       C          0.42500000  *  -0.85090000  *  -0.60850000  *
     5       C          1.81960000  *  -0.45860000  *  -0.21670000  *
     6       C          2.25480000  *   0.80230000  *  -0.28250000  *
     7       H         -0.52130000  *  -0.52210000  *   1.46010000  *
     8       H         -1.05380000  *   1.41060000  *  -0.96360000  *
     9       H         -2.26840000  *  -0.64890000  *  -1.22350000  *
    10       H         -1.66130000  *   1.55120000  *   0.85340000  *
    11       H         -2.89240000  *  -0.49650000  *   0.61730000  *
    12       H          0.34710000  *  -1.96150000  *  -0.57540000  *
    13       H          0.23940000  *  -0.55300000  *  -1.66730000  *
    14       H          2.50850000  *  -1.23480000  *   0.11440000  *
    15       H          3.27740000  *   1.04260000  *   0.00220000  *
    16       H          1.60710000  *   1.60950000  *  -0.62040000  *
 


          CARTESIAN COORDINATES 

    NO.       ATOM         X         Y         Z

     1         C       -0.6080   -0.2938    0.3729
     2         C       -2.1264   -0.3146   -0.1703
     3         C       -1.3472    0.9185   -0.0077
     4         C        0.4250   -0.8509   -0.6085
     5         C        1.8196   -0.4586   -0.2167
     6         C        2.2548    0.8023   -0.2825
     7         H       -0.5213   -0.5221    1.4601
     8         H       -1.0538    1.4106   -0.9636
     9         H       -2.2684   -0.6489   -1.2235
    10         H       -1.6613    1.5512    0.8534
    11         H       -2.8924   -0.4965    0.6173
    12         H        0.3471   -1.9615   -0.5754
    13         H        0.2394   -0.5530   -1.6673
    14         H        2.5085   -1.2348    0.1144
    15         H        3.2774    1.0426    0.0022
    16         H        1.6071    1.6095   -0.6204

  H: (PM3): J. J. P. STEWART, J. COMP. CHEM. 10, 209 (1989).
  C: (PM3): J. J. P. STEWART, J. COMP. CHEM. 10, 209 (1989).

           Empirical Formula: C6 H10  =    16 atoms



      MOLECULAR POINT GROUP   :   C1  


      RHF CALCULATION, NO. OF DOUBLY OCCUPIED LEVELS =   17

      Geometry optimization using EF

          DIAGONAL MATRIX USED AS START HESSIAN

 CYCLE:     1 TIME:   0.004 TIME LEFT:  2.00D  GRAD.:   104.065 HEAT: 40.47942
 CYCLE:     2 TIME:   0.006 TIME LEFT:  2.00D  GRAD.:   100.429 HEAT: 35.88402
 CYCLE:     3 TIME:   0.003 TIME LEFT:  2.00D  GRAD.:   124.596 HEAT: 34.74211
 CYCLE:     4 TIME:   0.006 TIME LEFT:  2.00D  GRAD.:    70.878 HEAT: 32.20755
 CYCLE:     5 TIME:   0.003 TIME LEFT:  2.00D  GRAD.:    83.362 HEAT: 32.19744
 CYCLE:     6 TIME:   0.003 TIME LEFT:  2.00D  GRAD.:    75.306 HEAT: 31.62991
 CYCLE:     7 TIME:   0.006 TIME LEFT:  2.00D  GRAD.:    44.098 HEAT: 30.50967
 CYCLE:     8 TIME:   0.006 TIME LEFT:  2.00D  GRAD.:    16.205 HEAT: 30.03677
 CYCLE:     9 TIME:   0.006 TIME LEFT:  2.00D  GRAD.:    17.578 HEAT: 29.95985
 CYCLE:    10 TIME:   0.003 TIME LEFT:  2.00D  GRAD.:    11.695 HEAT: 29.83341
 CYCLE:    11 TIME:   0.006 TIME LEFT:  2.00D  GRAD.:    11.125 HEAT: 29.79044
 CYCLE:    12 TIME:   0.003 TIME LEFT:  2.00D  GRAD.:    12.339 HEAT: 29.75334
 CYCLE:    13 TIME:   0.003 TIME LEFT:  2.00D  GRAD.:    12.617 HEAT: 29.73290
 CYCLE:    14 TIME:   0.003 TIME LEFT:  2.00D  GRAD.:    10.175 HEAT: 29.70159
 CYCLE:    15 TIME:   0.006 TIME LEFT:  2.00D  GRAD.:     6.029 HEAT: 29.67420
 CYCLE:    16 TIME:   0.003 TIME LEFT:  2.00D  GRAD.:     6.863 HEAT: 29.65898
 CYCLE:    17 TIME:   0.003 TIME LEFT:  2.00D  GRAD.:     4.320 HEAT: 29.63401
 CYCLE:    18 TIME:   0.003 TIME LEFT:  2.00D  GRAD.:     4.833 HEAT: 29.61148
 CYCLE:    19 TIME:   0.003 TIME LEFT:  2.00D  GRAD.:     5.360 HEAT: 29.58281
 CYCLE:    20 TIME:   0.003 TIME LEFT:  2.00D  GRAD.:     5.688 HEAT: 29.56923
 CYCLE:    21 TIME:   0.003 TIME LEFT:  2.00D  GRAD.:     2.863 HEAT: 29.54983
 CYCLE:    22 TIME:   0.003 TIME LEFT:  2.00D  GRAD.:     3.402 HEAT: 29.53533
 CYCLE:    23 TIME:   0.003 TIME LEFT:  2.00D  GRAD.:     3.348 HEAT: 29.51986
 CYCLE:    24 TIME:   0.003 TIME LEFT:  2.00D  GRAD.:     2.985 HEAT: 29.50882
 CYCLE:    25 TIME:   0.003 TIME LEFT:  2.00D  GRAD.:     2.272 HEAT: 29.50027
 CYCLE:    26 TIME:   0.003 TIME LEFT:  2.00D  GRAD.:     2.894 HEAT: 29.49149
 CYCLE:    27 TIME:   0.003 TIME LEFT:  2.00D  GRAD.:     2.319 HEAT: 29.48524
 CYCLE:    28 TIME:   0.003 TIME LEFT:  2.00D  GRAD.:     1.542 HEAT: 29.48080
 CYCLE:    29 TIME:   0.003 TIME LEFT:  2.00D  GRAD.:     1.894 HEAT: 29.47549
 CYCLE:    30 TIME:   0.003 TIME LEFT:  2.00D  GRAD.:     2.121 HEAT: 29.47075
 CYCLE:    31 TIME:   0.003 TIME LEFT:  2.00D  GRAD.:     1.887 HEAT: 29.46286
 CYCLE:    32 TIME:   0.003 TIME LEFT:  2.00D  GRAD.:     1.456 HEAT: 29.45642
 CYCLE:    33 TIME:   0.003 TIME LEFT:  2.00D  GRAD.:     1.455 HEAT: 29.45164
 CYCLE:    34 TIME:   0.003 TIME LEFT:  2.00D  GRAD.:     1.768 HEAT: 29.44731
 CYCLE:    35 TIME:   0.003 TIME LEFT:  2.00D  GRAD.:     2.182 HEAT: 29.43968
 CYCLE:    36 TIME:   0.003 TIME LEFT:  2.00D  GRAD.:     2.750 HEAT: 29.42619
 CYCLE:    37 TIME:   0.003 TIME LEFT:  2.00D  GRAD.:     3.356 HEAT: 29.40459
 CYCLE:    38 TIME:   0.003 TIME LEFT:  2.00D  GRAD.:     4.413 HEAT: 29.38040
 CYCLE:    39 TIME:   0.003 TIME LEFT:  2.00D  GRAD.:     3.657 HEAT: 29.34831
 CYCLE:    40 TIME:   0.003 TIME LEFT:  2.00D  GRAD.:     6.565 HEAT: 29.31780
 CYCLE:    41 TIME:   0.003 TIME LEFT:  2.00D  GRAD.:     5.842 HEAT: 29.26867
 CYCLE:    42 TIME:   0.003 TIME LEFT:  2.00D  GRAD.:     6.318 HEAT: 29.20911
 CYCLE:    43 TIME:   0.003 TIME LEFT:  2.00D  GRAD.:     4.749 HEAT: 29.14798
 CYCLE:    44 TIME:   0.003 TIME LEFT:  2.00D  GRAD.:     8.508 HEAT: 29.12974
 CYCLE:    45 TIME:   0.003 TIME LEFT:  2.00D  GRAD.:     5.923 HEAT: 29.09199
 CYCLE:    46 TIME:   0.003 TIME LEFT:  2.00D  GRAD.:     4.300 HEAT: 29.05637
 CYCLE:    47 TIME:   0.003 TIME LEFT:  2.00D  GRAD.:     8.562 HEAT: 29.00895
 CYCLE:    48 TIME:   0.003 TIME LEFT:  2.00D  GRAD.:     7.897 HEAT: 28.95008
 CYCLE:    49 TIME:   0.003 TIME LEFT:  2.00D  GRAD.:     3.527 HEAT: 28.87842
 CYCLE:    50 TIME:   0.006 TIME LEFT:  2.00D  GRAD.:     4.460 HEAT: 28.84691
 CYCLE:    51 TIME:   0.003 TIME LEFT:  2.00D  GRAD.:     3.205 HEAT: 28.82415
 CYCLE:    52 TIME:   0.006 TIME LEFT:  2.00D  GRAD.:     6.080 HEAT: 28.81267
 CYCLE:    53 TIME:   0.003 TIME LEFT:  2.00D  GRAD.:     3.607 HEAT: 28.80014
 CYCLE:    54 TIME:   0.003 TIME LEFT:  2.00D  GRAD.:     2.428 HEAT: 28.79052
 CYCLE:    55 TIME:   0.003 TIME LEFT:  2.00D  GRAD.:     3.350 HEAT: 28.77816
 CYCLE:    56 TIME:   0.003 TIME LEFT:  2.00D  GRAD.:     2.163 HEAT: 28.76824
 CYCLE:    57 TIME:   0.003 TIME LEFT:  2.00D  GRAD.:     2.101 HEAT: 28.76035
 CYCLE:    58 TIME:   0.003 TIME LEFT:  2.00D  GRAD.:     2.409 HEAT: 28.75151
 CYCLE:    59 TIME:   0.003 TIME LEFT:  2.00D  GRAD.:     2.810 HEAT: 28.74144
 CYCLE:    60 TIME:   0.003 TIME LEFT:  2.00D  GRAD.:     3.376 HEAT: 28.72384
 CYCLE:    61 TIME:   0.003 TIME LEFT:  2.00D  GRAD.:     3.253 HEAT: 28.71334
 CYCLE:    62 TIME:   0.003 TIME LEFT:  2.00D  GRAD.:     4.334 HEAT: 28.69650
 CYCLE:    63 TIME:   0.003 TIME LEFT:  2.00D  GRAD.:     2.386 HEAT: 28.68720
 CYCLE:    64 TIME:   0.003 TIME LEFT:  2.00D  GRAD.:     1.759 HEAT: 28.67684
 CYCLE:    65 TIME:   0.003 TIME LEFT:  2.00D  GRAD.:     2.385 HEAT: 28.65851
 CYCLE:    66 TIME:   0.003 TIME LEFT:  2.00D  GRAD.:     2.303 HEAT: 28.65149
 CYCLE:    67 TIME:   0.003 TIME LEFT:  2.00D  GRAD.:     1.888 HEAT: 28.64437
 CYCLE:    68 TIME:   0.003 TIME LEFT:  2.00D  GRAD.:     2.915 HEAT: 28.63794
 CYCLE:    69 TIME:   0.003 TIME LEFT:  2.00D  GRAD.:     2.757 HEAT: 28.62798
 CYCLE:    70 TIME:   0.003 TIME LEFT:  2.00D  GRAD.:     2.385 HEAT: 28.61044
 CYCLE:    71 TIME:   0.003 TIME LEFT:  2.00D  GRAD.:     2.270 HEAT: 28.60089
 CYCLE:    72 TIME:   0.003 TIME LEFT:  2.00D  GRAD.:     3.665 HEAT: 28.60305
 CYCLE:    73 TIME:   0.003 TIME LEFT:  2.00D  GRAD.:     1.416 HEAT: 28.59412
 CYCLE:    74 TIME:   0.003 TIME LEFT:  2.00D  GRAD.:     1.340 HEAT: 28.59083
 CYCLE:    75 TIME:   0.003 TIME LEFT:  2.00D  GRAD.:     1.700 HEAT: 28.57995
 CYCLE:    76 TIME:   0.003 TIME LEFT:  2.00D  GRAD.:     1.119 HEAT: 28.57715
 CYCLE:    77 TIME:   0.003 TIME LEFT:  2.00D  GRAD.:     0.889 HEAT: 28.57508
 CYCLE:    78 TIME:   0.003 TIME LEFT:  2.00D  GRAD.:     0.915 HEAT: 28.57181
 CYCLE:    79 TIME:   0.003 TIME LEFT:  2.00D  GRAD.:     1.574 HEAT: 28.56745
 CYCLE:    80 TIME:   0.003 TIME LEFT:  2.00D  GRAD.:     1.725 HEAT: 28.56270
 CYCLE:    81 TIME:   0.003 TIME LEFT:  2.00D  GRAD.:     1.791 HEAT: 28.55843
 CYCLE:    82 TIME:   0.003 TIME LEFT:  2.00D  GRAD.:     3.854 HEAT: 28.55496
 CYCLE:    83 TIME:   0.003 TIME LEFT:  2.00D  GRAD.:     2.284 HEAT: 28.54900
 CYCLE:    84 TIME:   0.003 TIME LEFT:  2.00D  GRAD.:     1.300 HEAT: 28.54264
 CYCLE:    85 TIME:   0.003 TIME LEFT:  2.00D  GRAD.:     1.623 HEAT: 28.53569
 CYCLE:    86 TIME:   0.003 TIME LEFT:  2.00D  GRAD.:     1.173 HEAT: 28.53252
 CYCLE:    87 TIME:   0.003 TIME LEFT:  2.00D  GRAD.:     1.699 HEAT: 28.52945
 CYCLE:    88 TIME:   0.003 TIME LEFT:  2.00D  GRAD.:     1.754 HEAT: 28.52625
 CYCLE:    89 TIME:   0.003 TIME LEFT:  2.00D  GRAD.:     2.134 HEAT: 28.52207
 CYCLE:    90 TIME:   0.003 TIME LEFT:  2.00D  GRAD.:     1.687 HEAT: 28.51992
 CYCLE:    91 TIME:   0.003 TIME LEFT:  2.00D  GRAD.:     1.398 HEAT: 28.51588
 CYCLE:    92 TIME:   0.003 TIME LEFT:  2.00D  GRAD.:     1.199 HEAT: 28.51344
 CYCLE:    93 TIME:   0.003 TIME LEFT:  2.00D  GRAD.:     1.989 HEAT: 28.50563
 CYCLE:    94 TIME:   0.003 TIME LEFT:  2.00D  GRAD.:     2.811 HEAT: 28.49577
 CYCLE:    95 TIME:   0.006 TIME LEFT:  2.00D  GRAD.:     2.070 HEAT: 28.48316
 CYCLE:    96 TIME:   0.003 TIME LEFT:  2.00D  GRAD.:     3.232 HEAT: 28.48158
 CYCLE:    97 TIME:   0.003 TIME LEFT:  2.00D  GRAD.:     1.888 HEAT: 28.47683
 CYCLE:    98 TIME:   0.003 TIME LEFT:  2.00D  GRAD.:     1.614 HEAT: 28.47420
 CYCLE:    99 TIME:   0.003 TIME LEFT:  2.00D  GRAD.:     1.274 HEAT: 28.47102
 CYCLE:   100 TIME:   0.003 TIME LEFT:  2.00D  GRAD.:     1.568 HEAT: 28.46637
 CYCLE:   101 TIME:   0.003 TIME LEFT:  2.00D  GRAD.:     0.983 HEAT: 28.46307
 CYCLE:   102 TIME:   0.003 TIME LEFT:  2.00D  GRAD.:     0.771 HEAT: 28.46134
 CYCLE:   103 TIME:   0.003 TIME LEFT:  2.00D  GRAD.:     0.425 HEAT: 28.46097
 CYCLE:   104 TIME:   0.003 TIME LEFT:  2.00D  GRAD.:     0.365 HEAT: 28.46067
 CYCLE:   105 TIME:   0.003 TIME LEFT:  2.00D  GRAD.:     0.318 HEAT: 28.46045
 CYCLE:   106 TIME:   0.003 TIME LEFT:  2.00D  GRAD.:     0.295 HEAT: 28.46028
 CYCLE:   107 TIME:   0.003 TIME LEFT:  2.00D  GRAD.:     0.205 HEAT: 28.46017
 CYCLE:   108 TIME:   0.003 TIME LEFT:  2.00D  GRAD.:     0.111 HEAT: 28.46013
 CYCLE:   109 TIME:   0.003 TIME LEFT:  2.00D  GRAD.:     0.057 HEAT: 28.46010
 CYCLE:   110 TIME:   0.003 TIME LEFT:  2.00D  GRAD.:     0.029 HEAT: 28.46010

     RMS GRADIENT =  0.02919  IS LESS THAN CUTOFF =  0.05000



 -------------------------------------------------------------------------------
pm3  precise nosym
 InChI=1S/C6H10/c1-2-3-6-4-5-6/h2,6H,1,3-5H2



     GEOMETRY OPTIMISED USING EIGENVECTOR FOLLOWING (EF).     
     SCF FIELD WAS ACHIEVED                                   


                              PM3 CALCULATION
                                                       MOPAC2012 (Version: 13.159M)
                                                       Tue Jun  3 11:51:49 2014
                                                       No. of days left =   5




          FINAL HEAT OF FORMATION =         28.46010 KCAL/MOL =     119.07705 KJ/MOL


          TOTAL ENERGY            =       -863.93514 EV
          ELECTRONIC ENERGY       =      -3711.49713 EV  POINT GROUP:     C1  
          CORE-CORE REPULSION     =       2847.56200 EV
          COSMO AREA              =        140.71 SQUARE ANGSTROMS
          COSMO VOLUME            =        130.47 CUBIC ANGSTROMS

          GRADIENT NORM           =          0.02919
          IONIZATION POTENTIAL    =         10.123701 EV
          HOMO LUMO ENERGIES (EV) =        -10.124  1.167
          NO. OF FILLED LEVELS    =         17
          MOLECULAR WEIGHT        =         82.145

          MOLECULAR DIMENSIONS (Angstroms)

            Atom       Atom       Distance
            H    15    H    11     6.73031
            H    12    H    10     4.03711
            H    14    H    16     2.88472


          SCF CALCULATIONS        =        121
          COMPUTATION TIME        =          0.387 SECONDS




   ATOM   CHEMICAL          X               Y               Z
  NUMBER   SYMBOL      (ANGSTROMS)     (ANGSTROMS)     (ANGSTROMS)
 
     1       C         -0.72714099  *  -0.40264229  *   0.32677451  *
     2       C         -2.12973349  *  -0.40014832  *  -0.21590243  *
     3       C         -1.51567212  *   0.87676443  *   0.26824310  *
     4       C          0.42421413  *  -0.61780268  *  -0.61919265  *
     5       C          1.71422516  *  -0.19994364  *  -0.00409965  *
     6       C          2.60453352  *   0.55893355  *  -0.63204568  *
     7       H         -0.54847533  *  -0.86075808  *   1.31725689  *
     8       H         -1.23936900  *   1.65578749  *  -0.45158724  *
     9       H         -2.30006699  *  -0.55041358  *  -1.28814048  *
    10       H         -1.86987468  *   1.34068073  *   1.19485720  *
    11       H         -2.93500548  *  -0.87453168  *   0.35487892  *
    12       H          0.48638586  *  -1.69533234  *  -0.87372162  *
    13       H          0.24708300  *  -0.08942140  *  -1.57831821  *
    14       H          1.89953927  *  -0.56337605  *   1.01411741  *
    15       H          3.54924243  *   0.84708743  *  -0.18145247  *
    16       H          2.45637905  *   0.94505136  *  -1.63695788  *

           Empirical Formula: C6 H10  =    16 atoms



      MOLECULAR POINT GROUP   :   C1  


                  EIGENVALUES  
 -39.89447 -33.83915 -26.77748 -22.20591 -20.44870 -19.86197 -17.08816 -16.61939
 -15.45077 -14.94814 -13.67998 -12.53419 -12.30947 -12.27596 -11.61311 -11.23216
 -10.12370   1.16739   2.93463   3.17340   3.33238   3.50078   3.62426   3.93669
   3.97581   4.08274   4.30918   4.47243   4.90713   4.94162   4.95298   5.03738
   5.62195   5.88505


              NET ATOMIC CHARGES AND DIPOLE CONTRIBUTIONS

  ATOM NO.   TYPE          CHARGE      No. of ELECS.   s-Pop       p-Pop       
    1          C          -0.132824        4.1328     1.17525     2.95758
    2          C          -0.153368        4.1534     1.16129     2.99208
    3          C          -0.149828        4.1498     1.16139     2.98844
    4          C          -0.039855        4.0399     1.14237     2.89748
    5          C          -0.132993        4.1330     1.19499     2.93801
    6          C          -0.168570        4.1686     1.18250     2.98607
    7          H           0.094401        0.9056     0.90560
    8          H           0.080100        0.9199     0.91990
    9          H           0.078540        0.9215     0.92146
   10          H           0.076257        0.9237     0.92374
   11          H           0.076395        0.9236     0.92361
   12          H           0.057967        0.9420     0.94203
   13          H           0.056280        0.9437     0.94372
   14          H           0.097011        0.9030     0.90299
   15          H           0.079236        0.9208     0.92076
   16          H           0.081250        0.9187     0.91875
 DIPOLE           X         Y         Z       TOTAL
 POINT-CHG.    -0.120    -0.144    -0.009     0.188
 HYBRID        -0.007     0.021     0.003     0.022
 SUM           -0.127    -0.124    -0.007     0.177


          ATOMIC ORBITAL ELECTRON POPULATIONS

    Atom      s        px        py        pz   
    1  C   1.17525   0.93043   1.02128   1.00587
    2  C   1.16129   0.96167   1.01729   1.01311
    3  C   1.16139   1.04157   0.91711   1.02976
    4  C   1.14237   0.92353   1.00769   0.96627
    5  C   1.19499   0.96005   0.98595   0.99201
    6  C   1.18250   0.98844   0.99630   1.00132
    7  H   0.90560
    8  H   0.91990
    9  H   0.92146
   10  H   0.92374
   11  H   0.92361
   12  H   0.94203
   13  H   0.94372
   14  H   0.90299
   15  H   0.92076
   16  H   0.91875
 *******************************************************************************
 ** Site#: 14399           For non-commercial use only        Version 13.159M **
 *******************************************************************************
 ** Cite this work as: MOPAC2012, James J. P. Stewart, Stewart Computational  **
 ** Chemistry, Version 13.159M web: HTTP://OpenMOPAC.net  Days remaining:   5 **
 *******************************************************************************
 **                                                                           **
 **                                MOPAC2012                                  **
 **                                                                           **
 *******************************************************************************

                            PM3 CALCULATION RESULTS


 *******************************************************************************
 *  CALCULATION DONE:                                Tue Jun  3 11:51:49 2014  *
 *  PM3      - The PM3 Hamiltonian to be used
 *  OLDGEO   - PREVIOUS GEOMETRY TO BE USED
 *  PRECISE  - CRITERIA TO BE INCREASED BY 100 TIMES
 *  NOSYM    - POINT-GROUP SYMMETRY SET TO C1
 *  T=       - A TIME OF 172800.0 SECONDS REQUESTED
 *  DUMP=N   - RESTART FILE WRITTEN EVERY  7200.000 SECONDS
 *  THERMO   - THERMODYNAMIC QUANTITIES TO BE CALCULATED
 *******************************************************************************
oldgeo thermo nosym precise  pm3

   ATOM   CHEMICAL          X               Y               Z
  NUMBER   SYMBOL      (ANGSTROMS)     (ANGSTROMS)     (ANGSTROMS)
 
     1       C         -0.72714099  *  -0.40264229  *   0.32677451  *
     2       C         -2.12973349  *  -0.40014832  *  -0.21590243  *
     3       C         -1.51567212  *   0.87676443  *   0.26824310  *
     4       C          0.42421413  *  -0.61780268  *  -0.61919265  *
     5       C          1.71422516  *  -0.19994364  *  -0.00409965  *
     6       C          2.60453352  *   0.55893355  *  -0.63204568  *
     7       H         -0.54847533  *  -0.86075808  *   1.31725689  *
     8       H         -1.23936900  *   1.65578749  *  -0.45158724  *
     9       H         -2.30006699  *  -0.55041358  *  -1.28814048  *
    10       H         -1.86987468  *   1.34068073  *   1.19485720  *
    11       H         -2.93500548  *  -0.87453168  *   0.35487892  *
    12       H          0.48638586  *  -1.69533234  *  -0.87372162  *
    13       H          0.24708300  *  -0.08942140  *  -1.57831821  *
    14       H          1.89953927  *  -0.56337605  *   1.01411741  *
    15       H          3.54924243  *   0.84708743  *  -0.18145247  *
    16       H          2.45637905  *   0.94505136  *  -1.63695788  *
 


          CARTESIAN COORDINATES 

    NO.       ATOM         X         Y         Z

     1         C       -0.7271   -0.4026    0.3268
     2         C       -2.1297   -0.4001   -0.2159
     3         C       -1.5157    0.8768    0.2682
     4         C        0.4242   -0.6178   -0.6192
     5         C        1.7142   -0.1999   -0.0041
     6         C        2.6045    0.5589   -0.6320
     7         H       -0.5485   -0.8608    1.3173
     8         H       -1.2394    1.6558   -0.4516
     9         H       -2.3001   -0.5504   -1.2881
    10         H       -1.8699    1.3407    1.1949
    11         H       -2.9350   -0.8745    0.3549
    12         H        0.4864   -1.6953   -0.8737
    13         H        0.2471   -0.0894   -1.5783
    14         H        1.8995   -0.5634    1.0141
    15         H        3.5492    0.8471   -0.1815
    16         H        2.4564    0.9451   -1.6370

  H: (PM3): J. J. P. STEWART, J. COMP. CHEM. 10, 209 (1989).
  C: (PM3): J. J. P. STEWART, J. COMP. CHEM. 10, 209 (1989).

           Empirical Formula: C6 H10  =    16 atoms



      MOLECULAR POINT GROUP   :   C1  


      RHF CALCULATION, NO. OF DOUBLY OCCUPIED LEVELS =   17



          HEAT OF FORMATION =      28.460097 KCALS/MOLE


          INTERNAL COORDINATE DERIVATIVES

   NUMBER  ATOM       BOND         ANGLE      DIHEDRAL

     1       C      0.001996     0.000299     0.002292
     2       C     -0.002556     0.002651     0.000733
     3       C      0.001355    -0.007352    -0.007167
     4       C     -0.004424     0.003453     0.002177
     5       C     -0.004363     0.000106    -0.012862
     6       C      0.002742    -0.000009     0.009581
     7       H      0.000285     0.002919     0.004301
     8       H     -0.003445     0.000379     0.005587
     9       H      0.001678     0.000104     0.000810
    10       H      0.003038     0.000537    -0.004234
    11       H      0.001223    -0.000107    -0.002316
    12       H      0.000415    -0.000554    -0.003048
    13       H     -0.005137    -0.000405    -0.001941
    14       H      0.009785    -0.001442     0.010045
    15       H      0.000598     0.000480     0.001849
    16       H     -0.003191    -0.001058    -0.005809


          GRADIENT NORM =   0.02910


          TIME FOR SCF CALCULATION =    0.00

          TIME FOR DERIVATIVES     =    0.00

          MOLECULAR WEIGHT =   82.14



          ROTATIONAL CONSTANTS IN CM(-1)

          A =    0.32793774   B =    0.06209079   C =    0.05881586



           PRINCIPAL MOMENTS OF INERTIA IN UNITS OF 10**(-40)*GRAM-CM**2

          A =       85.3600   B =      450.8362   C =      475.9392


          ORIENTATION OF MOLECULE IN FORCE CALCULATION

    NO.       ATOM         X         Y         Z

     1          C       0.5516   -0.2433   -0.7849
     2          C       2.0555   -0.2433   -0.7849
     3          C       1.3102    1.0554   -0.7849
     4          C      -0.1812   -0.6836    0.4544
     5          C      -1.6056   -0.2509    0.4224
     6          C      -2.2081    0.3364    1.4495
     7          H       0.0268   -0.5412   -1.7116
     8          H       1.3136    1.6856    0.1119
     9          H       2.6010   -0.5583    0.1120
    10          H       1.3070    1.6876   -1.6791
    11          H       2.5997   -0.5654   -1.6789
    12          H      -0.1492   -1.7902    0.5193
    13          H       0.3309   -0.3115    1.3653
    14          H      -2.1464   -0.4514   -0.5106
    15          H      -3.2512    0.6357    1.4227
    16          H      -1.7066    0.5591    2.3875


    FIRST DERIVATIVES WILL BE USED IN THE CALCULATION OF SECOND DERIVATIVES

          ESTIMATED TIME TO COMPLETE CALCULATION =        0.82 SECONDS

    FOR POINT-GROUP C1   THERE ARE   1 UNIQUE SYMMETRY FUNCTIONS.

 STEP:   1 TIME =     0.01 SECS, INTEGRAL =      0.01 TIME LEFT: 172799.98
 STEP:   2 TIME =     0.01 SECS, INTEGRAL =      0.03 TIME LEFT: 172799.97
 STEP:   3 TIME =     0.01 SECS, INTEGRAL =      0.04 TIME LEFT: 172799.95
 STEP:   4 TIME =     0.01 SECS, INTEGRAL =      0.06 TIME LEFT: 172799.94
 STEP:   5 TIME =     0.01 SECS, INTEGRAL =      0.07 TIME LEFT: 172799.93
 STEP:   6 TIME =     0.01 SECS, INTEGRAL =      0.08 TIME LEFT: 172799.91
 STEP:   7 TIME =     0.01 SECS, INTEGRAL =      0.10 TIME LEFT: 172799.90
 STEP:   8 TIME =     0.01 SECS, INTEGRAL =      0.11 TIME LEFT: 172799.88
 STEP:   9 TIME =     0.01 SECS, INTEGRAL =      0.13 TIME LEFT: 172799.87
 STEP:  10 TIME =     0.01 SECS, INTEGRAL =      0.14 TIME LEFT: 172799.86
 STEP:  11 TIME =     0.01 SECS, INTEGRAL =      0.15 TIME LEFT: 172799.84
 STEP:  12 TIME =     0.01 SECS, INTEGRAL =      0.17 TIME LEFT: 172799.83
 STEP:  13 TIME =     0.01 SECS, INTEGRAL =      0.18 TIME LEFT: 172799.81
 STEP:  14 TIME =     0.01 SECS, INTEGRAL =      0.20 TIME LEFT: 172799.80
 STEP:  15 TIME =     0.01 SECS, INTEGRAL =      0.21 TIME LEFT: 172799.79
 STEP:  16 TIME =     0.01 SECS, INTEGRAL =      0.22 TIME LEFT: 172799.77
 STEP:  17 TIME =     0.02 SECS, INTEGRAL =      0.24 TIME LEFT: 172799.75
 STEP:  18 TIME =     0.01 SECS, INTEGRAL =      0.26 TIME LEFT: 172799.74
 STEP:  19 TIME =     0.01 SECS, INTEGRAL =      0.27 TIME LEFT: 172799.73
 STEP:  20 TIME =     0.01 SECS, INTEGRAL =      0.28 TIME LEFT: 172799.71
 STEP:  21 TIME =     0.01 SECS, INTEGRAL =      0.30 TIME LEFT: 172799.70
 STEP:  22 TIME =     0.01 SECS, INTEGRAL =      0.31 TIME LEFT: 172799.68
 STEP:  23 TIME =     0.01 SECS, INTEGRAL =      0.33 TIME LEFT: 172799.67
 STEP:  24 TIME =     0.01 SECS, INTEGRAL =      0.34 TIME LEFT: 172799.66
 STEP:  25 TIME =     0.01 SECS, INTEGRAL =      0.35 TIME LEFT: 172799.64
 STEP:  26 TIME =     0.01 SECS, INTEGRAL =      0.37 TIME LEFT: 172799.63
 STEP:  27 TIME =     0.01 SECS, INTEGRAL =      0.38 TIME LEFT: 172799.61
 STEP:  28 TIME =     0.01 SECS, INTEGRAL =      0.40 TIME LEFT: 172799.60
 STEP:  29 TIME =     0.01 SECS, INTEGRAL =      0.41 TIME LEFT: 172799.58
 STEP:  30 TIME =     0.01 SECS, INTEGRAL =      0.43 TIME LEFT: 172799.57
 STEP:  31 TIME =     0.01 SECS, INTEGRAL =      0.44 TIME LEFT: 172799.56
 STEP:  32 TIME =     0.01 SECS, INTEGRAL =      0.45 TIME LEFT: 172799.54
 STEP:  33 TIME =     0.01 SECS, INTEGRAL =      0.47 TIME LEFT: 172799.53
 STEP:  34 TIME =     0.02 SECS, INTEGRAL =      0.48 TIME LEFT: 172799.51
 STEP:  35 TIME =     0.01 SECS, INTEGRAL =      0.50 TIME LEFT: 172799.50
 STEP:  36 TIME =     0.01 SECS, INTEGRAL =      0.51 TIME LEFT: 172799.48
 STEP:  37 TIME =     0.01 SECS, INTEGRAL =      0.53 TIME LEFT: 172799.47
 STEP:  38 TIME =     0.01 SECS, INTEGRAL =      0.54 TIME LEFT: 172799.45
 STEP:  39 TIME =     0.01 SECS, INTEGRAL =      0.56 TIME LEFT: 172799.44
 STEP:  40 TIME =     0.01 SECS, INTEGRAL =      0.57 TIME LEFT: 172799.43
 STEP:  41 TIME =     0.01 SECS, INTEGRAL =      0.58 TIME LEFT: 172799.41
 STEP:  42 TIME =     0.01 SECS, INTEGRAL =      0.60 TIME LEFT: 172799.40
 STEP:  43 TIME =     0.01 SECS, INTEGRAL =      0.61 TIME LEFT: 172799.38
 STEP:  44 TIME =     0.02 SECS, INTEGRAL =      0.63 TIME LEFT: 172799.37
 STEP:  45 TIME =     0.01 SECS, INTEGRAL =      0.64 TIME LEFT: 172799.35
 STEP:  46 TIME =     0.01 SECS, INTEGRAL =      0.66 TIME LEFT: 172799.34
 STEP:  47 TIME =     0.02 SECS, INTEGRAL =      0.67 TIME LEFT: 172799.32
 STEP:  48 TIME =     0.01 SECS, INTEGRAL =      0.69 TIME LEFT: 172799.31

(To convert to Hartree/Bohr^2, multiply by (10^(-21) x N x a0^2)/(4.184 x 627.51) = 0.0642)


           FORCE MATRIX IN MILLIDYNES/ANGSTROM


                  C  1       C  2       C  3       C  4       C  5       C  6
 ------------------------------------------------------------------------------
     C    1  15.562017
     C    2   4.851133  15.405270
     C    3   4.836753   5.131192  15.405479
     C    4   4.518529   0.543898   0.542000  14.882338
     C    5   0.721451   0.053346   0.016104   4.939717  18.188383
     C    6   0.044398   0.007836   0.004708   0.834601  11.082830  18.041325
     H    7   4.554894   0.438021   0.439892   0.425014   0.035105   0.002447
     H    8   0.465687   0.461876   4.817987   0.023940   0.002881   0.001707
     H    9   0.463831   4.817579   0.461687   0.023707   0.003559   0.001193
     H   10   0.453930   0.460421   4.848073   0.043376   0.003751   0.001091
     H   11   0.454447   4.847815   0.459616   0.042370   0.008174   0.001894
     H   12   0.436509   0.014733   0.048636   4.416545   0.415024   0.033458
     H   13   0.450265   0.025341   0.025420   4.419737   0.457747   0.047400
     H   14   0.029001   0.002864   0.002960   0.433859   4.787754   0.453910
     H   15   0.017733   0.003212   0.001520   0.135953   0.462969   5.109154
     H   16   0.010532   0.002275   0.001045   0.096411   0.489778   5.072136


                  H  7       H  8       H  9       H 10       H 11       H 12
 ------------------------------------------------------------------------------
     H    7   5.085664
     H    8   0.037818   5.429264
     H    9   0.037960   0.021416   5.429351
     H   10   0.020668   0.496583   0.042249   5.454810
     H   11   0.020362   0.042208   0.496565   0.020575   5.454520
     H   12   0.023130   0.004058   0.002687   0.007951   0.002601   4.998442
     H   13   0.038815   0.018756   0.013979   0.001703   0.001100   0.557245
     H   14   0.026378   0.000707   0.000744   0.000633   0.000656   0.016949
     H   15   0.000609   0.000691   0.000333   0.000446   0.000593   0.017832
     H   16   0.000696   0.000468   0.000302   0.000296   0.000542   0.011888


                  H 13       H 14       H 15       H 16
 ------------------------------------------------------
     H   13   5.026548
     H   14   0.038588   5.162132
     H   15   0.003145   0.079162   5.498771
     H   16   0.028851   0.117561   0.423421   5.469162


          HEAT OF FORMATION =      28.460097 KCALS/MOLE

          ZERO POINT ENERGY      88.886 KCAL/MOL


           NORMAL COORDINATE ANALYSIS (Total motion = 1 Angstrom)


   Root No.       1         2         3         4         5         6         7         8

                 1 A       2 A       3 A       4 A       5 A       6 A       7 A       8 A   

                  66.4      99.9     237.5     384.6     422.4     455.6     616.1     818.2
  
           1   -0.0018    0.0119   -0.0067   -0.0083    0.0395    0.0011    0.0041   -0.0023
           2    0.0260   -0.0202    0.0251   -0.0265   -0.0300   -0.0052   -0.0023   -0.0012
           3    0.0053   -0.0095   -0.0234   -0.0413    0.0023   -0.0457   -0.0186    0.0005
           4   -0.0017    0.0122   -0.0053   -0.0096    0.0509    0.0039    0.0135    0.0024
           5   -0.0313    0.0063   -0.0089   -0.0088    0.0175   -0.0008    0.0086    0.0065
           6   -0.0251    0.0308    0.0439    0.0083   -0.0273    0.0055   -0.0038    0.0017
           7    0.0478   -0.0108    0.0246   -0.0288    0.0082   -0.0010    0.0101    0.0081
           8   -0.0029   -0.0070    0.0077   -0.0177   -0.0111   -0.0042    0.0007    0.0018
           9   -0.0153   -0.0333   -0.0210    0.0381    0.0084    0.0031   -0.0021    0.0017
          10    0.0088   -0.0102   -0.0136    0.0157   -0.0310    0.0236   -0.0055   -0.0019
          11    0.0538    0.0067    0.0133    0.0455    0.0129   -0.0104   -0.0023   -0.0070
          12    0.0216   -0.0135   -0.0322   -0.0056   -0.0185   -0.0235   -0.0054    0.0185
          13   -0.0065    0.0035   -0.0263    0.0076   -0.0448    0.0294   -0.0267   -0.0048
          14    0.0020    0.0516   -0.0314    0.0077    0.0017    0.0096   -0.0424    0.0012
          15    0.0056   -0.0104    0.0077   -0.0164    0.0089    0.0570    0.0233   -0.0034
          16   -0.0474   -0.0054    0.0202    0.0203   -0.0208   -0.0490   -0.0075   -0.0029
          17   -0.0448   -0.0341   -0.0020   -0.0077    0.0082    0.0156    0.0133    0.0003
          18    0.0084    0.0335    0.0191   -0.0003    0.0235    0.0088    0.0071   -0.0016
          19   -0.0302    0.0403    0.0117    0.0001    0.0639    0.0104    0.0172   -0.0242
          20    0.0419   -0.0594    0.0264   -0.0355   -0.0507    0.0009   -0.0046   -0.0085
          21    0.0161   -0.0129   -0.0332   -0.0398   -0.0051   -0.0508   -0.0239    0.0167
          22    0.0906   -0.0461    0.0009   -0.0879    0.0034   -0.0482   -0.0077   -0.1448
          23    0.0010    0.0235    0.0342   -0.0653   -0.0352   -0.0239   -0.0093    0.0934
          24   -0.0181   -0.0547   -0.0400    0.0736    0.0263    0.0175    0.0056   -0.0680
          25    0.0037   -0.0065   -0.0605   -0.0386    0.1007   -0.0371    0.0046   -0.0030
          26   -0.0490    0.0465   -0.0016   -0.0501    0.0300   -0.0244    0.0013   -0.1753
          27   -0.0347    0.0564    0.0809    0.0116   -0.0547    0.0229   -0.0010   -0.0643
          28    0.0541    0.0018    0.0803    0.0068   -0.0298    0.0417    0.0317    0.1761
          29   -0.0065   -0.0376   -0.0188    0.0316    0.0147    0.0160    0.0132   -0.0906
          30   -0.0178   -0.0550   -0.0404    0.0743    0.0274    0.0175    0.0067   -0.0699
          31   -0.0319    0.0425    0.0350    0.0275    0.0293    0.0485    0.0314    0.0127
          32   -0.0557   -0.0143   -0.0432    0.0473    0.0523    0.0270    0.0281    0.1973
          33   -0.0347    0.0567    0.0814    0.0109   -0.0544    0.0232   -0.0002   -0.0661
          34    0.0448   -0.0489    0.0146    0.0539   -0.0543   -0.0068    0.0861   -0.0191
          35    0.0571    0.0054    0.0129    0.0542    0.0131   -0.0145    0.0060   -0.0083
          36    0.0644   -0.0146   -0.0434    0.1075    0.0014   -0.0672    0.0579    0.0110
          37   -0.0046    0.0001   -0.0135    0.0153   -0.0394    0.0720   -0.0220   -0.0064
          38    0.1058   -0.0123    0.0153    0.1516    0.0173   -0.0578    0.0905   -0.0248
          39    0.0078   -0.0114   -0.0321   -0.0457   -0.0155   -0.0329   -0.0321    0.0275
          40    0.0159    0.0198   -0.0682    0.0027   -0.0814    0.0270   -0.0103    0.0062
          41    0.0018    0.1554   -0.0951   -0.0131   -0.0552   -0.0170    0.0546    0.0023
          42   -0.0075   -0.0420    0.0465   -0.0082    0.0431    0.0610   -0.0063   -0.0098
          43   -0.0584    0.0014    0.0099    0.0115   -0.0391   -0.0666    0.0695   -0.0041
          44   -0.0842   -0.0092   -0.0340   -0.0373   -0.0504   -0.0479    0.2764   -0.0026
          45   -0.0032    0.0413    0.0747    0.0354    0.0791   -0.0889   -0.0887    0.0305
          46   -0.0726   -0.0199    0.0749    0.0454    0.0228   -0.1371   -0.0576    0.0234
          47   -0.0472   -0.1370    0.0577    0.0057    0.0736    0.0870   -0.1663   -0.0018
          48    0.0224    0.0656   -0.0238   -0.0163   -0.0147    0.0367    0.0767   -0.0145


   Root No.       9        10        11        12        13        14        15        16

                 9 A      10 A      11 A      12 A      13 A      14 A      15 A      16 A   

                 857.2     883.3     895.0     935.3     957.6     965.8     996.7    1023.7
  
           1   -0.0063   -0.0061   -0.0083    0.0058    0.0064   -0.0139    0.0199   -0.0284
           2   -0.0088   -0.0068   -0.0046    0.0148   -0.0024    0.0124    0.0115    0.0003
           3   -0.0075   -0.0044   -0.0154    0.0018   -0.0029    0.0003    0.0101   -0.0035
           4    0.0022   -0.0173    0.0017    0.0147   -0.0071    0.0274    0.0048   -0.0032
           5    0.0128    0.0112    0.0111   -0.0128   -0.0039   -0.0004   -0.0117    0.0102
           6   -0.0091    0.0042   -0.0156    0.0009    0.0113   -0.0024   -0.0114    0.0117
           7    0.0130    0.0177    0.0118   -0.0150   -0.0021   -0.0068   -0.0067    0.0019
           8    0.0018    0.0168   -0.0013   -0.0104    0.0091   -0.0293    0.0133   -0.0244
           9    0.0018   -0.0089   -0.0165    0.0003    0.0110   -0.0010   -0.0132    0.0029
          10   -0.0066   -0.0085    0.0074    0.0147    0.0213   -0.0026    0.0024    0.0013
          11   -0.0376   -0.0268    0.0004    0.0081   -0.0228   -0.0104   -0.0141    0.0113
          12    0.0030    0.0014    0.0346   -0.0008   -0.0129    0.0032    0.0020   -0.0005
          13   -0.0029    0.0003   -0.0070   -0.0141    0.0010    0.0007   -0.0074   -0.0038
          14    0.0053   -0.0022    0.0015   -0.0255    0.0168    0.0089    0.0052   -0.0115
          15   -0.0010    0.0019   -0.0023    0.0117    0.0030   -0.0055   -0.0054    0.0038
          16   -0.0023    0.0033   -0.0173   -0.0195   -0.0344    0.0057    0.0060    0.0086
          17    0.0041    0.0013    0.0015   -0.0032    0.0164    0.0073    0.0220    0.0248
          18    0.0033    0.0029   -0.0080    0.0004   -0.0104   -0.0014   -0.0008   -0.0102
          19   -0.0414    0.0502   -0.0333   -0.0073    0.0316   -0.1230    0.0212   -0.0003
          20    0.0792   -0.0888   -0.0254    0.0358    0.0178    0.1984   -0.0421   -0.0822
          21   -0.0148   -0.0091    0.0080    0.0015   -0.0246    0.0025    0.0273    0.0065
          22    0.1109   -0.0393   -0.0026   -0.0638    0.0117   -0.1412   -0.0841    0.1341
          23    0.0329   -0.0377   -0.0859   -0.0104    0.0536   -0.0321   -0.0330   -0.0222
          24   -0.0223    0.0329    0.0474    0.0006   -0.0224    0.0022    0.0220    0.0005
          25   -0.0808    0.0597   -0.0698    0.0164    0.0469    0.0951   -0.0881    0.0641
          26   -0.0065    0.0682    0.0474   -0.0137   -0.0019    0.1369   -0.0940    0.0599
          27    0.0385   -0.0249    0.0450   -0.0008   -0.0230    0.0045    0.0182   -0.0137
          28   -0.0510    0.1578    0.0700   -0.0475   -0.0266    0.0740   -0.0299    0.0286
          29   -0.0256    0.0736    0.0847   -0.0120   -0.0339   -0.0261    0.0604   -0.0342
          30   -0.0196    0.0337    0.0481   -0.0008   -0.0212    0.0008    0.0224   -0.0040
          31    0.1062   -0.1018    0.0941    0.0033   -0.0832    0.0153    0.0343    0.0120
          32    0.0637   -0.0620    0.0059   -0.0278   -0.0456   -0.0421   -0.0400    0.1108
          33    0.0389   -0.0236    0.0462   -0.0004   -0.0222    0.0060    0.0185   -0.0162
          34    0.0295    0.0259   -0.0542    0.1064    0.0722    0.0432    0.1341    0.0954
          35   -0.0269   -0.0204   -0.0055    0.0059   -0.0180   -0.0071   -0.0119    0.0079
          36    0.1315    0.0817   -0.0110   -0.0831    0.0344    0.0185   -0.0280   -0.0932
          37   -0.0189   -0.0206    0.0309    0.0010    0.0698   -0.0209   -0.0880   -0.0059
          38    0.0784    0.0474   -0.0768   -0.0190    0.0310    0.0210    0.0106   -0.0184
          39   -0.0348   -0.0202    0.0514    0.0178   -0.0606    0.0015    0.0439    0.0146
          40   -0.0010    0.0123    0.0327    0.0718    0.0109   -0.0296   -0.0460    0.0106
          41    0.0733    0.0846   -0.0400    0.2271   -0.0758   -0.0286   -0.0027    0.0410
          42   -0.0165   -0.0236   -0.0158   -0.0919    0.0180    0.0200    0.0194   -0.0158
          43   -0.0206   -0.0120   -0.0058   -0.0107   -0.0341   -0.0097   -0.0284   -0.0298
          44   -0.0560   -0.0507    0.0449    0.0326    0.0289   -0.0449   -0.0911   -0.1056
          45    0.0237   -0.0036    0.0992    0.0756    0.1672   -0.0020    0.0277    0.0357
          46    0.0028   -0.0053    0.0779    0.0902    0.0773   -0.0289   -0.0520   -0.0273
          47    0.0537    0.0630   -0.0510    0.1279   -0.1133   -0.0383   -0.0681   -0.0846
          48   -0.0112   -0.0076   -0.0438   -0.0874   -0.0355    0.0275    0.0517    0.0348


   Root No.      17        18        19        20        21        22        23        24

                17 A      18 A      19 A      20 A      21 A      22 A      23 A      24 A   

                1051.3    1105.3    1141.0    1161.2    1167.7    1174.5    1197.6    1215.1
  
           1   -0.0101    0.0201   -0.0379   -0.0258   -0.0048    0.0033    0.0011    0.0021
           2    0.0018   -0.0362    0.0571   -0.0047   -0.0305   -0.0135    0.0125   -0.0122
           3    0.0068    0.0028   -0.0072   -0.0089   -0.0330   -0.0132   -0.0347    0.0220
           4   -0.0037   -0.0250    0.0345    0.0177   -0.0147    0.0311   -0.0004   -0.0036
           5    0.0027    0.0030    0.0053    0.0442    0.0179    0.0406   -0.0223    0.0039
           6    0.0026   -0.0416   -0.0309    0.0058    0.0087    0.0071    0.0042   -0.0046
           7   -0.0023   -0.0002   -0.0044    0.0383    0.0445   -0.0431   -0.0118    0.0034
           8   -0.0107    0.0154   -0.0254   -0.0147    0.0026   -0.0100    0.0084    0.0018
           9   -0.0034    0.0451    0.0296    0.0078    0.0052   -0.0023    0.0051   -0.0060
          10    0.0087    0.0128   -0.0220    0.0166   -0.0140   -0.0018    0.0259   -0.0082
          11   -0.0138    0.0154   -0.0129    0.0004    0.0045    0.0034   -0.0063   -0.0020
          12   -0.0043   -0.0045    0.0069    0.0045    0.0198    0.0101    0.0485    0.0052
          13    0.0042   -0.0086    0.0100   -0.0125    0.0023   -0.0025   -0.0335   -0.0415
          14    0.0382   -0.0056    0.0082   -0.0003    0.0048    0.0007    0.0028    0.0080
          15   -0.0177   -0.0025    0.0040   -0.0103    0.0006   -0.0016   -0.0263   -0.0199
          16   -0.0141    0.0008    0.0012    0.0019    0.0031    0.0019    0.0076    0.0120
          17   -0.0312    0.0039   -0.0033   -0.0021    0.0006    0.0008   -0.0011    0.0057
          18    0.0167    0.0006    0.0031   -0.0038    0.0088    0.0037    0.0063    0.0252
          19   -0.0213   -0.0320    0.1535   -0.1131    0.0284   -0.0037    0.1515    0.0118
          20   -0.0542   -0.0227   -0.1571   -0.0901    0.0658    0.0864    0.0459    0.0327
          21    0.0313    0.0279   -0.0473    0.0713   -0.0849   -0.0425   -0.1323    0.0024
          22    0.0510   -0.0057   -0.0509   -0.0662   -0.0685    0.1595    0.0287   -0.0216
          23   -0.0276    0.1315    0.0480   -0.0056    0.0248   -0.0161    0.0385   -0.0124
          24    0.0090   -0.0415   -0.0238    0.0023   -0.0122    0.0004   -0.0179    0.0051
          25    0.0110   -0.0868   -0.0317   -0.0425    0.0095   -0.0506    0.0640   -0.0296
          26    0.0243    0.1308    0.0179   -0.0731    0.0143   -0.1482    0.0286   -0.0153
          27    0.0010    0.0456    0.0151    0.0018   -0.0091   -0.0105   -0.0185    0.0061
          28    0.0385    0.1185   -0.0058   -0.0996   -0.1330    0.1328   -0.0190    0.0159
          29    0.0003   -0.1041   -0.1054   -0.0342   -0.0198   -0.0136   -0.0053    0.0217
          30    0.0053   -0.0431   -0.0305   -0.0057   -0.0114   -0.0062   -0.0068    0.0089
          31    0.0195    0.0423    0.0627   -0.0768   -0.0716   -0.0960    0.0077    0.0148
          32    0.0547   -0.0996   -0.1021   -0.0942   -0.0072   -0.1433    0.0069    0.0033
          33   -0.0016    0.0405    0.0268   -0.0018   -0.0190   -0.0048   -0.0036    0.0075
          34    0.1836    0.0392   -0.0067    0.0048    0.0641    0.0137    0.0182    0.0983
          35   -0.0123    0.0116   -0.0097   -0.0015    0.0017    0.0023   -0.0086   -0.0030
          36   -0.0591   -0.0724    0.0458   -0.0016   -0.0501   -0.0169    0.0438   -0.0479
          37   -0.0580   -0.0146   -0.0228    0.1068   -0.1419   -0.0497    0.0876    0.2256
          38    0.0088   -0.0216    0.0204   -0.0291   -0.0281   -0.0152   -0.1008   -0.0121
          39    0.0249    0.0249   -0.0056   -0.0338    0.1040    0.0443    0.0565   -0.1228
          40   -0.0690   -0.0402    0.1028   -0.1308    0.1198    0.0327   -0.1539    0.1648
          41   -0.0772    0.0324   -0.0649    0.0594   -0.0660   -0.0184    0.0461   -0.0943
          42    0.0502    0.0079   -0.0346    0.0457   -0.0528   -0.0180    0.0351   -0.1223
          43    0.0314   -0.0030    0.0045   -0.0003    0.0041    0.0014    0.0027    0.0044
          44    0.1272   -0.0063    0.0029   -0.0075    0.0023   -0.0008   -0.0112   -0.0232
          45   -0.0347    0.0010   -0.0053   -0.0187    0.0036    0.0001   -0.0240   -0.0509
          46    0.0192   -0.0165    0.0158   -0.0124   -0.0070   -0.0085   -0.0555   -0.0566
          47    0.1111   -0.0024    0.0049    0.0043    0.0134    0.0061    0.0313    0.0411
          48   -0.0343    0.0112   -0.0061    0.0005    0.0128    0.0086    0.0311    0.0528


   Root No.      25        26        27        28        29        30        31        32

                25 A      26 A      27 A      28 A      29 A      30 A      31 A      32 A   

                1262.7    1309.9    1357.2    1397.5    1402.8    1420.9    1597.5    1861.4
  
           1   -0.0085   -0.0018   -0.0142    0.0025   -0.0003   -0.0264    0.1216    0.0038
           2   -0.0147    0.0067   -0.0127    0.0077    0.0011   -0.0105    0.0682   -0.0001
           3    0.0342    0.0224   -0.0032   -0.0073    0.0006    0.0264   -0.0391   -0.0002
           4   -0.0123   -0.0126    0.0077    0.0077    0.0236   -0.0144   -0.0959   -0.0018
           5    0.0206    0.0145   -0.0040   -0.0055   -0.0117    0.0156    0.0539    0.0003
           6   -0.0116   -0.0037   -0.0005    0.0020   -0.0006   -0.0025    0.0029    0.0003
           7    0.0117    0.0062    0.0002   -0.0010   -0.0020    0.0064   -0.0020   -0.0002
           8   -0.0174   -0.0210    0.0090   -0.0094   -0.0244   -0.0238   -0.1093   -0.0011
           9   -0.0090   -0.0048    0.0009    0.0006    0.0003   -0.0036    0.0031    0.0000
          10   -0.0212    0.0304   -0.0258    0.0375   -0.0124    0.0432   -0.0352    0.0354
          11    0.0092    0.0011   -0.0014   -0.0258    0.0072    0.0040   -0.0120   -0.0124
          12    0.0059   -0.0169    0.0211    0.0260   -0.0067   -0.0284    0.0291   -0.0097
          13    0.0196    0.0011    0.0224   -0.0209    0.0062   -0.0158    0.0041   -0.1402
          14    0.0021   -0.0107   -0.0045    0.0047   -0.0013    0.0005   -0.0003    0.1028
          15    0.0143   -0.0165   -0.0021   -0.0064    0.0019   -0.0035    0.0025    0.1572
          16   -0.0026    0.0025    0.0062   -0.0037    0.0013   -0.0055    0.0020    0.0943
          17   -0.0056   -0.0004   -0.0089    0.0062   -0.0020    0.0073   -0.0022   -0.0886
          18   -0.0147   -0.0015   -0.0161    0.0138   -0.0043    0.0123   -0.0032   -0.1535
          19    0.1685    0.0712   -0.0090    0.0075   -0.0024    0.0492   -0.0314    0.0049
          20    0.1021    0.0292   -0.0011   -0.0088   -0.0036    0.0218   -0.0158    0.0011
          21   -0.1053   -0.0267   -0.0105   -0.0047    0.0033   -0.0286    0.0830    0.0000
          22   -0.0411   -0.0201    0.0001    0.0025    0.0042   -0.0157    0.0094    0.0001
          23   -0.0512   -0.0761    0.0880    0.0260    0.1442    0.1011    0.0363    0.0000
          24    0.0144    0.0320   -0.0503   -0.0224   -0.1104   -0.0845   -0.0974   -0.0009
          25   -0.0780   -0.0681    0.0665   -0.0560   -0.1268    0.0711    0.0360    0.0002
          26   -0.0093    0.0220   -0.0414    0.0385    0.0691   -0.0575   -0.0111    0.0001
          27    0.0175    0.0305   -0.0455    0.0519    0.1112   -0.0741   -0.0982   -0.0009
          28    0.0162    0.0078   -0.0021   -0.0030    0.0053    0.0075   -0.0113    0.0000
          29   -0.0120   -0.0530    0.0840    0.0246    0.1414    0.1171    0.0190    0.0001
          30   -0.0037   -0.0242    0.0494    0.0230    0.1090    0.0897    0.0906    0.0010
          31   -0.0059   -0.0390    0.0664   -0.0673   -0.1241    0.0933    0.0110   -0.0008
          32    0.0166    0.0357   -0.0426    0.0343    0.0675   -0.0451   -0.0203    0.0001
          33   -0.0048   -0.0241    0.0448   -0.0537   -0.1106    0.0795    0.0913    0.0011
          34    0.0462   -0.0680   -0.0014   -0.1332    0.0406   -0.0352    0.0075    0.0102
          35    0.0091    0.0013   -0.0023   -0.0243    0.0066    0.0037   -0.0089   -0.0061
          36   -0.0638    0.0167   -0.1118   -0.1901    0.0601    0.0387    0.0057    0.0083
          37    0.0577   -0.0340    0.0299   -0.0563    0.0204   -0.0605    0.0467   -0.0392
          38    0.0311    0.0161    0.0833    0.2261   -0.0710   -0.0218    0.0186    0.0166
          39   -0.0465    0.0121   -0.0535   -0.0459    0.0135    0.0424   -0.0312    0.0211
          40   -0.0851    0.0001   -0.0255   -0.0004   -0.0004    0.0133   -0.0043    0.1179
          41    0.0451   -0.0027    0.0122   -0.0088    0.0027   -0.0071    0.0015   -0.0038
          42    0.0688   -0.0189    0.0229   -0.0163    0.0052   -0.0199    0.0080    0.0741
          43   -0.0018    0.0097    0.0139   -0.0093    0.0029   -0.0093    0.0027    0.1386
          44   -0.0187    0.0685    0.0431   -0.0264    0.0077   -0.0132   -0.0005   -0.0193
          45   -0.0497    0.1735    0.1223   -0.0708    0.0211   -0.0471    0.0057    0.0577
          46    0.0814   -0.1677   -0.0974    0.0510   -0.0154    0.0342   -0.0037   -0.1288
          47   -0.0441    0.0761    0.0437   -0.0180    0.0056   -0.0153    0.0024    0.0020
          48   -0.0540    0.0792    0.0313   -0.0117    0.0034   -0.0047   -0.0013   -0.0906


   Root No.      33        34        35        36        37        38        39        40

                33 A      34 A      35 A      36 A      37 A      38 A      39 A      40 A   

                2940.4    3003.8    3016.8    3042.2    3083.3    3097.5    3134.3    3135.3
  
           1    0.0015   -0.0291    0.0020    0.0000    0.0000   -0.0013    0.0002   -0.0009
           2    0.0007   -0.0166    0.0010    0.0002    0.0000   -0.0007   -0.0004   -0.0005
           3    0.0029   -0.0483    0.0040    0.0005    0.0000   -0.0028    0.0000   -0.0003
           4    0.0000    0.0004    0.0000    0.0000    0.0015   -0.0020    0.0192    0.0179
           5    0.0001   -0.0007   -0.0001    0.0000   -0.0007    0.0010   -0.0114   -0.0103
           6   -0.0002    0.0035   -0.0002   -0.0001    0.0307   -0.0300   -0.0025   -0.0030
           7    0.0003   -0.0003    0.0001    0.0000   -0.0001   -0.0001    0.0002    0.0001
           8    0.0000    0.0007    0.0002   -0.0001   -0.0017   -0.0023   -0.0209    0.0219
           9   -0.0003    0.0035    0.0001   -0.0001   -0.0309   -0.0298    0.0024   -0.0032
          10   -0.0154    0.0006    0.0160   -0.0020    0.0002   -0.0002    0.0000   -0.0002
          11   -0.0474   -0.0058   -0.0203   -0.0006   -0.0003   -0.0002    0.0001   -0.0001
          12   -0.0269    0.0007    0.0284   -0.0037    0.0001    0.0002    0.0000   -0.0002
          13    0.0013   -0.0001   -0.0010   -0.0292    0.0000    0.0000    0.0000   -0.0002
          14    0.0002   -0.0002   -0.0008   -0.0138    0.0000    0.0000    0.0000    0.0001
          15    0.0016   -0.0009   -0.0027   -0.0580    0.0000    0.0000    0.0000    0.0001
          16   -0.0004    0.0000    0.0002    0.0033    0.0000    0.0000    0.0001   -0.0020
          17   -0.0001    0.0000    0.0001    0.0005    0.0000    0.0000    0.0000   -0.0007
          18   -0.0001    0.0001    0.0006    0.0038    0.0000    0.0000    0.0002   -0.0032
          19   -0.0219    0.3415   -0.0250   -0.0055   -0.0012    0.0186    0.0000    0.0020
          20   -0.0135    0.1944   -0.0149   -0.0021    0.0024    0.0106    0.0000    0.0011
          21   -0.0322    0.5916   -0.0456   -0.0053    0.0002    0.0272    0.0000    0.0037
          22    0.0001    0.0027   -0.0005    0.0000    0.0024   -0.0001    0.0007   -0.0011
          23    0.0017   -0.0138   -0.0024    0.0009    0.1492    0.1486    0.1158   -0.1116
          24    0.0013   -0.0223   -0.0021    0.0012    0.2038    0.1994    0.1780   -0.1738
          25    0.0014   -0.0103   -0.0003    0.0007   -0.1290    0.1287   -0.1070   -0.0910
          26   -0.0009    0.0091   -0.0004   -0.0004    0.0725   -0.0753    0.0616    0.0519
          27    0.0014   -0.0219    0.0012    0.0009   -0.2024    0.2002   -0.1900   -0.1632
          28    0.0004   -0.0024    0.0003    0.0001   -0.0008    0.0017   -0.0008    0.0007
          29    0.0009    0.0161   -0.0004    0.0001   -0.1282   -0.1212    0.1373   -0.1408
          30   -0.0008   -0.0242    0.0011    0.0000    0.1715    0.1573   -0.2067    0.2122
          31   -0.0001    0.0122   -0.0022   -0.0002    0.1107   -0.1048   -0.1258   -0.1138
          32    0.0002   -0.0099    0.0013    0.0002   -0.0638    0.0633    0.0745    0.0673
          33    0.0002   -0.0236    0.0035    0.0004   -0.1708    0.1588    0.2202    0.1992
          34   -0.0148   -0.0006    0.0020   -0.0029    0.0000   -0.0001    0.0001    0.0000
          35    0.4347    0.0800    0.4171   -0.0121    0.0022    0.0021   -0.0002   -0.0004
          36   -0.0300   -0.0050    0.0005   -0.0025    0.0002    0.0000   -0.0001   -0.0001
          37    0.1969   -0.0087   -0.1934    0.0276   -0.0006   -0.0013    0.0000    0.0015
          38    0.1362   -0.0096   -0.1699    0.0180   -0.0012   -0.0010   -0.0004    0.0011
          39    0.3504   -0.0086   -0.3454    0.0416   -0.0013   -0.0003   -0.0003    0.0020
          40   -0.0097    0.0059    0.0158    0.3817    0.0001   -0.0002   -0.0001    0.0003
          41   -0.0065    0.0014    0.0062    0.1373    0.0000   -0.0001    0.0000    0.0003
          42   -0.0209    0.0067    0.0300    0.6473    0.0002   -0.0005   -0.0002    0.0008
          43   -0.0022   -0.0014   -0.0026   -0.0719   -0.0001    0.0001   -0.0005    0.0059
          44    0.0003    0.0002    0.0002    0.0187    0.0000    0.0000    0.0002   -0.0020
          45    0.0004    0.0000   -0.0001   -0.0063    0.0000    0.0000    0.0000   -0.0007
          46    0.0007    0.0004   -0.0008    0.0019    0.0000    0.0001   -0.0012    0.0197
          47    0.0013    0.0003   -0.0007    0.0026    0.0000    0.0000   -0.0005    0.0086
          48    0.0030    0.0008   -0.0035    0.0074    0.0000    0.0001   -0.0023    0.0367


   Root No.      41        42

                41 A      42 A   

                3135.8    3148.1
  
           1    0.0002   -0.0001
           2    0.0001    0.0000
           3    0.0001    0.0000
           4   -0.0024    0.0003
           5    0.0014   -0.0001
           6    0.0004    0.0000
           7    0.0000    0.0000
           8   -0.0033    0.0003
           9    0.0005   -0.0001
          10    0.0005    0.0001
          11   -0.0001   -0.0005
          12    0.0001   -0.0005
          13   -0.0024    0.0004
          14    0.0013   -0.0037
          15    0.0015   -0.0092
          16   -0.0350   -0.0493
          17   -0.0083    0.0207
          18   -0.0471    0.0154
          19   -0.0007    0.0001
          20   -0.0004    0.0001
          21   -0.0011    0.0005
          22    0.0002   -0.0001
          23    0.0169   -0.0015
          24    0.0261   -0.0025
          25    0.0120   -0.0013
          26   -0.0068    0.0008
          27    0.0216   -0.0023
          28   -0.0001    0.0000
          29    0.0212   -0.0020
          30   -0.0320    0.0030
          31    0.0152   -0.0015
          32   -0.0090    0.0009
          33   -0.0266    0.0027
          34    0.0003   -0.0001
          35    0.0011    0.0021
          36    0.0002   -0.0004
          37   -0.0007    0.0029
          38   -0.0025    0.0015
          39   -0.0047    0.0039
          40    0.0041    0.0278
          41    0.0041    0.0119
          42    0.0130    0.0515
          43    0.1457    0.6479
          44   -0.0463   -0.1814
          45   -0.0085    0.0259
          46    0.2902   -0.0966
          47    0.1283   -0.0305
          48    0.5424   -0.1487


           MASS-WEIGHTED COORDINATE ANALYSIS (NORMAL COORDINATES)


   Root No.       1         2         3         4         5         6         7         8

                 1 A       2 A       3 A       4 A       5 A       6 A       7 A       8 A   

                  66.4      99.9     237.5     384.6     422.4     455.6     616.1     818.2
  
           1   -0.0134    0.0965   -0.0569   -0.0667    0.3090    0.0085    0.0315   -0.0190
           2    0.1938   -0.1633    0.2119   -0.2136   -0.2341   -0.0404   -0.0176   -0.0102
           3    0.0392   -0.0771   -0.1972   -0.3325    0.0178   -0.3537   -0.1428    0.0044
           4   -0.0130    0.0990   -0.0444   -0.0776    0.3976    0.0304    0.1035    0.0199
           5   -0.2331    0.0508   -0.0751   -0.0707    0.1364   -0.0062    0.0659    0.0549
           6   -0.1874    0.2497    0.3702    0.0670   -0.2134    0.0427   -0.0295    0.0146
           7    0.3562   -0.0872    0.2070   -0.2319    0.0642   -0.0074    0.0777    0.0681
           8   -0.0214   -0.0566    0.0653   -0.1424   -0.0870   -0.0326    0.0055    0.0148
           9   -0.1138   -0.2695   -0.1775    0.3073    0.0660    0.0239   -0.0162    0.0139
          10    0.0654   -0.0826   -0.1148    0.1263   -0.2426    0.1830   -0.0423   -0.0160
          11    0.4013    0.0541    0.1123    0.3666    0.1010   -0.0803   -0.0173   -0.0588
          12    0.1607   -0.1097   -0.2715   -0.0449   -0.1448   -0.1821   -0.0412    0.1558
          13   -0.0487    0.0287   -0.2215    0.0612   -0.3501    0.2273   -0.2049   -0.0405
          14    0.0152    0.4181   -0.2651    0.0617    0.0132    0.0740   -0.3244    0.0099
          15    0.0420   -0.0846    0.0650   -0.1321    0.0692    0.4410    0.1784   -0.0289
          16   -0.3537   -0.0439    0.1703    0.1639   -0.1624   -0.3793   -0.0574   -0.0245
          17   -0.3339   -0.2764   -0.0165   -0.0617    0.0642    0.1209    0.1016    0.0027
          18    0.0627    0.2712    0.1611   -0.0022    0.1838    0.0678    0.0547   -0.0135
          19   -0.0652    0.0945    0.0285    0.0002    0.1446    0.0233    0.0381   -0.0590
          20    0.0905   -0.1393    0.0645   -0.0828   -0.1147    0.0021   -0.0102   -0.0208
          21    0.0347   -0.0302   -0.0810   -0.0928   -0.0116   -0.1139   -0.0530    0.0406
          22    0.1956   -0.1081    0.0023   -0.2051    0.0077   -0.1081   -0.0170   -0.3528
          23    0.0021    0.0552    0.0835   -0.1524   -0.0797   -0.0535   -0.0206    0.2276
          24   -0.0390   -0.1283   -0.0976    0.1718    0.0594    0.0393    0.0123   -0.1658
          25    0.0080   -0.0152   -0.1477   -0.0900    0.2279   -0.0831    0.0102   -0.0072
          26   -0.1057    0.1090   -0.0039   -0.1169    0.0680   -0.0547    0.0029   -0.4273
          27   -0.0750    0.1324    0.1975    0.0270   -0.1238    0.0515   -0.0022   -0.1567
          28    0.1168    0.0043    0.1962    0.0158   -0.0674    0.0936    0.0704    0.4292
          29   -0.0140   -0.0883   -0.0460    0.0737    0.0334    0.0358    0.0292   -0.2207
          30   -0.0386   -0.1291   -0.0988    0.1733    0.0619    0.0393    0.0148   -0.1705
          31   -0.0689    0.0997    0.0854    0.0641    0.0664    0.1087    0.0697    0.0310
          32   -0.1203   -0.0336   -0.1056    0.1105    0.1183    0.0606    0.0623    0.4810
          33   -0.0749    0.1330    0.1988    0.0255   -0.1232    0.0520   -0.0005   -0.1611
          34    0.0967   -0.1148    0.0357    0.1258   -0.1229   -0.0153    0.1910   -0.0466
          35    0.1234    0.0126    0.0315    0.1264    0.0296   -0.0325    0.0133   -0.0201
          36    0.1391   -0.0342   -0.1060    0.2508    0.0031   -0.1506    0.1285    0.0267
          37   -0.0099    0.0002   -0.0331    0.0358   -0.0891    0.1615   -0.0488   -0.0157
          38    0.2285   -0.0289    0.0374    0.3538    0.0391   -0.1297    0.2007   -0.0605
          39    0.0168   -0.0268   -0.0783   -0.1066   -0.0350   -0.0737   -0.0712    0.0671
          40    0.0344    0.0466   -0.1666    0.0063   -0.1842    0.0604   -0.0228    0.0152
          41    0.0039    0.3648   -0.2322   -0.0305   -0.1250   -0.0381    0.1212    0.0055
          42   -0.0161   -0.0985    0.1135   -0.0191    0.0974    0.1369   -0.0141   -0.0240
          43   -0.1261    0.0033    0.0242    0.0268   -0.0885   -0.1492    0.1543   -0.0100
          44   -0.1818   -0.0216   -0.0831   -0.0872   -0.1140   -0.1073    0.6133   -0.0064
          45   -0.0070    0.0968    0.1824    0.0825    0.1791   -0.1994   -0.1968    0.0744
          46   -0.1569   -0.0467    0.1830    0.1059    0.0517   -0.3075   -0.1278    0.0571
          47   -0.1018   -0.3216    0.1411    0.0134    0.1665    0.1950   -0.3691   -0.0043
          48    0.0484    0.1539   -0.0580   -0.0380   -0.0332    0.0823    0.1701   -0.0354


   Root No.       9        10        11        12        13        14        15        16

                 9 A      10 A      11 A      12 A      13 A      14 A      15 A      16 A   

                 857.2     883.3     895.0     935.3     957.6     965.8     996.7    1023.7
  
           1   -0.0645   -0.0613   -0.0839    0.0499    0.0608   -0.1242    0.2040   -0.2792
           2   -0.0895   -0.0676   -0.0469    0.1266   -0.0222    0.1108    0.1180    0.0032
           3   -0.0758   -0.0439   -0.1550    0.0150   -0.0275    0.0028    0.1034   -0.0344
           4    0.0227   -0.1727    0.0172    0.1251   -0.0673    0.2444    0.0491   -0.0319
           5    0.1299    0.1117    0.1115   -0.1093   -0.0372   -0.0038   -0.1197    0.1000
           6   -0.0922    0.0417   -0.1572    0.0075    0.1068   -0.0217   -0.1167    0.1148
           7    0.1321    0.1769    0.1187   -0.1280   -0.0197   -0.0604   -0.0682    0.0187
           8    0.0187    0.1681   -0.0131   -0.0888    0.0860   -0.2618    0.1360   -0.2394
           9    0.0179   -0.0890   -0.1662    0.0025    0.1043   -0.0089   -0.1349    0.0286
          10   -0.0674   -0.0847    0.0751    0.1256    0.2013   -0.0230    0.0250    0.0127
          11   -0.3816   -0.2677    0.0036    0.0687   -0.2154   -0.0925   -0.1449    0.1110
          12    0.0302    0.0136    0.3491   -0.0070   -0.1218    0.0281    0.0202   -0.0050
          13   -0.0296    0.0025   -0.0705   -0.1202    0.0097    0.0066   -0.0762   -0.0370
          14    0.0536   -0.0221    0.0155   -0.2176    0.1587    0.0796    0.0529   -0.1131
          15   -0.0101    0.0186   -0.0228    0.0995    0.0285   -0.0490   -0.0557    0.0375
          16   -0.0237    0.0330   -0.1748   -0.1667   -0.3248    0.0508    0.0613    0.0849
          17    0.0420    0.0130    0.0154   -0.0277    0.1548    0.0650    0.2258    0.2432
          18    0.0332    0.0289   -0.0804    0.0035   -0.0983   -0.0123   -0.0084   -0.0997
          19   -0.1219    0.1454   -0.0974   -0.0180    0.0865   -0.3179    0.0629   -0.0010
          20    0.2331   -0.2569   -0.0742    0.0884    0.0486    0.5128   -0.1250   -0.2338
          21   -0.0435   -0.0264    0.0235    0.0036   -0.0673    0.0063    0.0810    0.0185
          22    0.3265   -0.1137   -0.0076   -0.1576    0.0320   -0.3651   -0.2495    0.3813
          23    0.0969   -0.1092   -0.2509   -0.0258    0.1466   -0.0829   -0.0979   -0.0632
          24   -0.0657    0.0953    0.1386    0.0015   -0.0614    0.0057    0.0653    0.0015
          25   -0.2377    0.1728   -0.2041    0.0405    0.1284    0.2457   -0.2614    0.1822
          26   -0.0190    0.1974    0.1384   -0.0338   -0.0052    0.3539   -0.2790    0.1704
          27    0.1132   -0.0720    0.1316   -0.0020   -0.0628    0.0117    0.0540   -0.0391
          28   -0.1500    0.4567    0.2044   -0.1173   -0.0729    0.1913   -0.0886    0.0812
          29   -0.0754    0.2130    0.2476   -0.0298   -0.0928   -0.0674    0.1795   -0.0973
          30   -0.0576    0.0976    0.1405   -0.0020   -0.0581    0.0020    0.0664   -0.0115
          31    0.3125   -0.2946    0.2748    0.0081   -0.2277    0.0396    0.1020    0.0342
          32    0.1875   -0.1795    0.0173   -0.0687   -0.1247   -0.1088   -0.1186    0.3151
          33    0.1145   -0.0682    0.1349   -0.0010   -0.0607    0.0156    0.0549   -0.0460
          34    0.0869    0.0748   -0.1584    0.2631    0.1977    0.1116    0.3981    0.2714
          35   -0.0791   -0.0589   -0.0160    0.0147   -0.0492   -0.0184   -0.0354    0.0226
          36    0.3872    0.2365   -0.0322   -0.2055    0.0942    0.0477   -0.0830   -0.2648
          37   -0.0555   -0.0597    0.0901    0.0025    0.1911   -0.0541   -0.2612   -0.0167
          38    0.2306    0.1371   -0.2243   -0.0470    0.0847    0.0542    0.0314   -0.0523
          39   -0.1024   -0.0585    0.1502    0.0439   -0.1658    0.0039    0.1304    0.0415
          40   -0.0030    0.0355    0.0954    0.1774    0.0300   -0.0764   -0.1367    0.0301
          41    0.2157    0.2447   -0.1170    0.5614   -0.2075   -0.0739   -0.0079    0.1166
          42   -0.0484   -0.0682   -0.0463   -0.2271    0.0491    0.0517    0.0575   -0.0449
          43   -0.0608   -0.0347   -0.0171   -0.0265   -0.0934   -0.0250   -0.0844   -0.0849
          44   -0.1648   -0.1468    0.1312    0.0807    0.0790   -0.1159   -0.2703   -0.3002
          45    0.0696   -0.0105    0.2899    0.1870    0.4576   -0.0053    0.0823    0.1016
          46    0.0083   -0.0154    0.2276    0.2230    0.2114   -0.0746   -0.1544   -0.0776
          47    0.1580    0.1823   -0.1489    0.3162   -0.3101   -0.0990   -0.2022   -0.2406
          48   -0.0329   -0.0219   -0.1281   -0.2161   -0.0972    0.0711    0.1536    0.0990


   Root No.      17        18        19        20        21        22        23        24

                17 A      18 A      19 A      20 A      21 A      22 A      23 A      24 A   

                1051.3    1105.3    1141.0    1161.2    1167.7    1174.5    1197.6    1215.1
  
           1   -0.0911    0.1631   -0.2816   -0.2200   -0.0402    0.0274    0.0085    0.0165
           2    0.0164   -0.2932    0.4240   -0.0402   -0.2583   -0.1116    0.0984   -0.0970
           3    0.0612    0.0223   -0.0536   -0.0761   -0.2794   -0.1087   -0.2740    0.1745
           4   -0.0332   -0.2026    0.2562    0.1504   -0.1243    0.2559   -0.0029   -0.0283
           5    0.0241    0.0240    0.0395    0.3765    0.1516    0.3343   -0.1759    0.0312
           6    0.0234   -0.3369   -0.2296    0.0490    0.0739    0.0587    0.0334   -0.0363
           7   -0.0210   -0.0017   -0.0324    0.3256    0.3767   -0.3552   -0.0933    0.0271
           8   -0.0964    0.1248   -0.1888   -0.1252    0.0220   -0.0827    0.0660    0.0139
           9   -0.0305    0.3650    0.2198    0.0663    0.0443   -0.0193    0.0405   -0.0476
          10    0.0783    0.1036   -0.1636    0.1416   -0.1184   -0.0146    0.2039   -0.0653
          11   -0.1244    0.1244   -0.0961    0.0033    0.0378    0.0276   -0.0493   -0.0160
          12   -0.0388   -0.0362    0.0515    0.0385    0.1671    0.0829    0.3822    0.0410
          13    0.0382   -0.0693    0.0744   -0.1065    0.0194   -0.0203   -0.2638   -0.3292
          14    0.3449   -0.0455    0.0609   -0.0029    0.0407    0.0061    0.0221    0.0635
          15   -0.1599   -0.0203    0.0295   -0.0879    0.0047   -0.0128   -0.2072   -0.1578
          16   -0.1273    0.0062    0.0089    0.0160    0.0260    0.0157    0.0602    0.0948
          17   -0.2821    0.0318   -0.0242   -0.0176    0.0053    0.0066   -0.0085    0.0454
          18    0.1507    0.0047    0.0233   -0.0327    0.0741    0.0306    0.0494    0.1999
          19   -0.0557   -0.0749    0.3305   -0.2789    0.0696   -0.0088    0.3461    0.0272
          20   -0.1419   -0.0531   -0.3383   -0.2221    0.1612    0.2062    0.1048    0.0751
          21    0.0818    0.0653   -0.1018    0.1759   -0.2081   -0.1015   -0.3022    0.0055
          22    0.1335   -0.0134   -0.1095   -0.1631   -0.1679    0.3808    0.0656   -0.0495
          23   -0.0723    0.3083    0.1034   -0.0137    0.0608   -0.0384    0.0879   -0.0284
          24    0.0235   -0.0973   -0.0512    0.0056   -0.0299    0.0010   -0.0410    0.0118
          25    0.0287   -0.2035   -0.0683   -0.1048    0.0232   -0.1208    0.1462   -0.0681
          26    0.0636    0.3066    0.0386   -0.1803    0.0351   -0.3537    0.0653   -0.0352
          27    0.0027    0.1069    0.0324    0.0045   -0.0224   -0.0252   -0.0424    0.0141
          28    0.1007    0.2777   -0.0125   -0.2455   -0.3258    0.3170   -0.0433    0.0365
          29    0.0007   -0.2441   -0.2270   -0.0844   -0.0484   -0.0325   -0.0120    0.0497
          30    0.0139   -0.1010   -0.0656   -0.0139   -0.0280   -0.0147   -0.0156    0.0204
          31    0.0509    0.0991    0.1349   -0.1894   -0.1755   -0.2290    0.0175    0.0339
          32    0.1431   -0.2335   -0.2198   -0.2321   -0.0176   -0.3420    0.0157    0.0075
          33   -0.0042    0.0949    0.0576   -0.0045   -0.0466   -0.0115   -0.0082    0.0172
          34    0.4806    0.0919   -0.0143    0.0117    0.1570    0.0327    0.0416    0.2256
          35   -0.0323    0.0273   -0.0209   -0.0036    0.0042    0.0054   -0.0197   -0.0068
          36   -0.1548   -0.1697    0.0987   -0.0039   -0.1227   -0.0404    0.1002   -0.1101
          37   -0.1518   -0.0343   -0.0491    0.2634   -0.3477   -0.1186    0.2002    0.5179
          38    0.0231   -0.0507    0.0440   -0.0718   -0.0688   -0.0362   -0.2304   -0.0277
          39    0.0652    0.0584   -0.0121   -0.0834    0.2549    0.1057    0.1292   -0.2819
          40   -0.1805   -0.0942    0.2214   -0.3225    0.2936    0.0780   -0.3515    0.3784
          41   -0.2021    0.0759   -0.1396    0.1465   -0.1618   -0.0439    0.1054   -0.2165
          42    0.1313    0.0185   -0.0744    0.1127   -0.1294   -0.0429    0.0803   -0.2808
          43    0.0823   -0.0071    0.0096   -0.0008    0.0101    0.0035    0.0062    0.0100
          44    0.3328   -0.0147    0.0062   -0.0184    0.0056   -0.0020   -0.0257   -0.0532
          45   -0.0908    0.0023   -0.0114   -0.0461    0.0089    0.0002   -0.0548   -0.1170
          46    0.0501   -0.0388    0.0340   -0.0306   -0.0171   -0.0202   -0.1268   -0.1300
          47    0.2908   -0.0057    0.0106    0.0106    0.0329    0.0146    0.0714    0.0943
          48   -0.0897    0.0263   -0.0132    0.0013    0.0313    0.0204    0.0711    0.1212


   Root No.      25        26        27        28        29        30        31        32

                25 A      26 A      27 A      28 A      29 A      30 A      31 A      32 A   

                1262.7    1309.9    1357.2    1397.5    1402.8    1420.9    1597.5    1861.4
  
           1   -0.0756   -0.0165   -0.1411    0.0200   -0.0025   -0.2305    0.5354    0.0118
           2   -0.1300    0.0603   -0.1258    0.0621    0.0098   -0.0917    0.3002   -0.0004
           3    0.3032    0.2035   -0.0320   -0.0588    0.0048    0.2308   -0.1720   -0.0007
           4   -0.1089   -0.1143    0.0767    0.0621    0.2025   -0.1256   -0.4220   -0.0055
           5    0.1823    0.1317   -0.0396   -0.0440   -0.1003    0.1361    0.2371    0.0009
           6   -0.1032   -0.0331   -0.0045    0.0165   -0.0053   -0.0220    0.0128    0.0008
           7    0.1041    0.0563    0.0021   -0.0078   -0.0172    0.0564   -0.0087   -0.0005
           8   -0.1543   -0.1903    0.0893   -0.0757   -0.2098   -0.2081   -0.4810   -0.0034
           9   -0.0801   -0.0438    0.0086    0.0046    0.0025   -0.0312    0.0136    0.0001
          10   -0.1882    0.2758   -0.2565    0.3023   -0.1063    0.3774   -0.1548    0.1105
          11    0.0812    0.0096   -0.0138   -0.2078    0.0615    0.0349   -0.0530   -0.0388
          12    0.0524   -0.1536    0.2094    0.2091   -0.0575   -0.2480    0.1279   -0.0301
          13    0.1740    0.0103    0.2224   -0.1680    0.0537   -0.1378    0.0181   -0.4376
          14    0.0190   -0.0972   -0.0444    0.0378   -0.0109    0.0040   -0.0014    0.3209
          15    0.1268   -0.1493   -0.0206   -0.0519    0.0162   -0.0306    0.0108    0.4907
          16   -0.0228    0.0228    0.0619   -0.0297    0.0110   -0.0483    0.0089    0.2944
          17   -0.0492   -0.0033   -0.0884    0.0497   -0.0174    0.0635   -0.0097   -0.2767
          18   -0.1300   -0.0140   -0.1602    0.1109   -0.0370    0.1074   -0.0139   -0.4793
          19    0.4327    0.1869   -0.0260    0.0175   -0.0059    0.1246   -0.0400    0.0045
          20    0.2622    0.0767   -0.0032   -0.0205   -0.0089    0.0551   -0.0202    0.0010
          21   -0.2704   -0.0702   -0.0301   -0.0109    0.0083   -0.0724    0.1059    0.0000
          22   -0.1055   -0.0528    0.0002    0.0057    0.0104   -0.0399    0.0120    0.0001
          23   -0.1316   -0.1999    0.2534    0.0607    0.3591    0.2561    0.0463    0.0000
          24    0.0370    0.0840   -0.1449   -0.0522   -0.2750   -0.2140   -0.1242   -0.0008
          25   -0.2003   -0.1790    0.1916   -0.1307   -0.3156    0.1802    0.0460    0.0001
          26   -0.0239    0.0579   -0.1193    0.0898    0.1721   -0.1457   -0.0142    0.0001
          27    0.0449    0.0800   -0.1309    0.1211    0.2768   -0.1878   -0.1252   -0.0008
          28    0.0415    0.0204   -0.0062   -0.0070    0.0133    0.0190   -0.0144    0.0000
          29   -0.0307   -0.1392    0.2419    0.0573    0.3520    0.2965    0.0243    0.0001
          30   -0.0094   -0.0636    0.1421    0.0536    0.2713    0.2272    0.1155    0.0009
          31   -0.0152   -0.1024    0.1912   -0.1571   -0.3091    0.2363    0.0141   -0.0007
          32    0.0427    0.0937   -0.1228    0.0801    0.1681   -0.1142   -0.0259    0.0001
          33   -0.0124   -0.0632    0.1291   -0.1254   -0.2753    0.2013    0.1165    0.0010
          34    0.1185   -0.1786   -0.0041   -0.3109    0.1011   -0.0893    0.0096    0.0093
          35    0.0233    0.0035   -0.0065   -0.0566    0.0166    0.0094   -0.0114   -0.0055
          36   -0.1639    0.0439   -0.3218   -0.4436    0.1495    0.0980    0.0073    0.0075
          37    0.1483   -0.0894    0.0861   -0.1314    0.0507   -0.1533    0.0596   -0.0355
          38    0.0798    0.0423    0.2399    0.5277   -0.1767   -0.0553    0.0238    0.0150
          39   -0.1193    0.0317   -0.1539   -0.1072    0.0336    0.1075   -0.0397    0.0191
          40   -0.2186    0.0002   -0.0735   -0.0010   -0.0011    0.0338   -0.0055    0.1066
          41    0.1159   -0.0070    0.0352   -0.0204    0.0067   -0.0180    0.0020   -0.0034
          42    0.1766   -0.0496    0.0659   -0.0381    0.0130   -0.0505    0.0102    0.0670
          43   -0.0046    0.0255    0.0399   -0.0216    0.0073   -0.0236    0.0034    0.1254
          44   -0.0479    0.1799    0.1242   -0.0616    0.0191   -0.0335   -0.0007   -0.0175
          45   -0.1277    0.4557    0.3521   -0.1653    0.0526   -0.1194    0.0072    0.0522
          46    0.2089   -0.4405   -0.2804    0.1190   -0.0385    0.0866   -0.0047   -0.1165
          47   -0.1133    0.2000    0.1257   -0.0421    0.0140   -0.0389    0.0030    0.0018
          48   -0.1387    0.2080    0.0900   -0.0272    0.0084   -0.0119   -0.0017   -0.0820


   Root No.      33        34        35        36        37        38        39        40

                33 A      34 A      35 A      36 A      37 A      38 A      39 A      40 A   

                2940.4    3003.8    3016.8    3042.2    3083.3    3097.5    3134.3    3135.3
  
           1    0.0082   -0.1349    0.0110    0.0000    0.0001   -0.0092    0.0013   -0.0068
           2    0.0037   -0.0766    0.0058    0.0008   -0.0003   -0.0052   -0.0028   -0.0038
           3    0.0155   -0.2237    0.0226    0.0023   -0.0001   -0.0200    0.0000   -0.0026
           4    0.0000    0.0020    0.0001    0.0000    0.0103   -0.0145    0.1353    0.1332
           5    0.0004   -0.0030   -0.0005    0.0000   -0.0052    0.0072   -0.0806   -0.0767
           6   -0.0009    0.0162   -0.0012   -0.0005    0.2160   -0.2173   -0.0176   -0.0225
           7    0.0015   -0.0015    0.0006    0.0001   -0.0007   -0.0011    0.0015    0.0009
           8    0.0001    0.0032    0.0011   -0.0002   -0.0119   -0.0166   -0.1473    0.1632
           9   -0.0015    0.0164    0.0005   -0.0004   -0.2173   -0.2159    0.0167   -0.0239
          10   -0.0828    0.0030    0.0892   -0.0085    0.0013   -0.0014   -0.0002   -0.0012
          11   -0.2553   -0.0267   -0.1133   -0.0026   -0.0021   -0.0018    0.0006   -0.0008
          12   -0.1448    0.0034    0.1588   -0.0157    0.0008    0.0012    0.0001   -0.0012
          13    0.0069   -0.0004   -0.0054   -0.1253   -0.0001    0.0003    0.0001   -0.0012
          14    0.0009   -0.0011   -0.0044   -0.0591    0.0000    0.0000    0.0000    0.0007
          15    0.0087   -0.0044   -0.0153   -0.2491   -0.0002    0.0003    0.0002    0.0010
          16   -0.0019   -0.0001    0.0013    0.0142    0.0001   -0.0001    0.0010   -0.0151
          17   -0.0003    0.0001    0.0005    0.0023    0.0000    0.0000    0.0002   -0.0049
          18   -0.0003    0.0004    0.0035    0.0165    0.0000   -0.0001    0.0014   -0.0238
          19   -0.0342    0.4579   -0.0405   -0.0068   -0.0024    0.0390    0.0000    0.0043
          20   -0.0211    0.2607   -0.0242   -0.0026    0.0048    0.0222    0.0000    0.0024
          21   -0.0503    0.7933   -0.0738   -0.0066    0.0004    0.0572    0.0001    0.0081
          22    0.0001    0.0036   -0.0007    0.0000    0.0050   -0.0002    0.0014   -0.0025
          23    0.0027   -0.0185   -0.0039    0.0011    0.3042    0.3123    0.2368   -0.2405
          24    0.0020   -0.0299   -0.0034    0.0014    0.4154    0.4189    0.3640   -0.3744
          25    0.0022   -0.0138   -0.0004    0.0009   -0.2630    0.2704   -0.2187   -0.1960
          26   -0.0014    0.0122   -0.0006   -0.0005    0.1479   -0.1583    0.1260    0.1118
          27    0.0021   -0.0293    0.0020    0.0012   -0.4124    0.4207   -0.3885   -0.3516
          28    0.0006   -0.0032    0.0005    0.0001   -0.0016    0.0037   -0.0016    0.0015
          29    0.0014    0.0215   -0.0007    0.0001   -0.2614   -0.2548    0.2807   -0.3034
          30   -0.0013   -0.0325    0.0018    0.0000    0.3496    0.3304   -0.4227    0.4571
          31   -0.0001    0.0164   -0.0035   -0.0003    0.2256   -0.2202   -0.2572   -0.2453
          32    0.0003   -0.0133    0.0022    0.0003   -0.1299    0.1330    0.1524    0.1450
          33    0.0003   -0.0317    0.0057    0.0005   -0.3482    0.3337    0.4503    0.4293
          34   -0.0232   -0.0008    0.0032   -0.0036   -0.0001   -0.0003    0.0003    0.0000
          35    0.6782    0.1073    0.6752   -0.0151    0.0044    0.0043   -0.0005   -0.0008
          36   -0.0469   -0.0067    0.0008   -0.0032    0.0004    0.0000   -0.0002   -0.0001
          37    0.3071   -0.0116   -0.3130    0.0343   -0.0012   -0.0028   -0.0001    0.0033
          38    0.2124   -0.0128   -0.2751    0.0224   -0.0025   -0.0021   -0.0009    0.0024
          39    0.5467   -0.0115   -0.5590    0.0518   -0.0027   -0.0006   -0.0005    0.0043
          40   -0.0151    0.0079    0.0255    0.4752    0.0002   -0.0004   -0.0002    0.0007
          41   -0.0102    0.0019    0.0100    0.1709    0.0000   -0.0003   -0.0001    0.0006
          42   -0.0326    0.0090    0.0485    0.8059    0.0004   -0.0011   -0.0005    0.0018
          43   -0.0035   -0.0018   -0.0042   -0.0895   -0.0002    0.0002   -0.0011    0.0127
          44    0.0005    0.0003    0.0003    0.0232    0.0000   -0.0001    0.0004   -0.0043
          45    0.0007    0.0000   -0.0001   -0.0078    0.0000    0.0000    0.0001   -0.0015
          46    0.0011    0.0006   -0.0013    0.0024    0.0000    0.0001   -0.0025    0.0425
          47    0.0020    0.0004   -0.0012    0.0033    0.0000    0.0000   -0.0011    0.0186
          48    0.0046    0.0010   -0.0057    0.0093   -0.0001    0.0002   -0.0047    0.0790


[...]
 T-DIPOLE    0.0637        C  2 --  H 11          +11.2% ( 44.3%)     0.6%
 TRAVEL      0.1056        C  1 --  H  7          +11.1% ( 44.1%)    18.0%
 RED. MASS   0.6389        C  1 --  C  2          +10.0% ( 41.9%)    42.0%
 EFF. MASS   5.2095

 VIBRATION   21   21A       ATOM PAIR        ENERGY CONTRIBUTION    RADIAL
 FREQ.      1167.69        C  1 --  C  3          +13.3% ( 48.6%)    57.3%
 T-DIPOLE    0.0498        C  3 --  H 10          +11.1% ( 44.6%)     0.1%
 TRAVEL      0.1047        C  1 --  C  4          +10.9% ( 44.0%)    34.7%
 RED. MASS   0.6285        C  4 --  H 13          +10.3% ( 42.8%)     6.7%
 EFF. MASS   5.2714

 VIBRATION   22   22A       ATOM PAIR        ENERGY CONTRIBUTION    RADIAL
 FREQ.      1174.50        C  2 --  H 11          +19.6% ( 52.5%)     0.0%
 T-DIPOLE    0.0643        C  2 --  H  9          +17.5% ( 49.6%)     0.5%
 TRAVEL      0.1231        C  3 --  H  8          +15.7% ( 47.0%)     0.4%
 RED. MASS   0.6987        C  3 --  H 10          +13.0% ( 42.7%)     0.1%
 EFF. MASS   3.7865        C  2 --  C  3          +11.0% ( 39.4%)     0.6%

 VIBRATION   23   23A       ATOM PAIR        ENERGY CONTRIBUTION    RADIAL
 FREQ.      1197.64        C  4 --  C  5          +18.7% ( 58.2%)    40.5%
 T-DIPOLE    0.0455        C  1 --  C  4          +16.5% ( 54.7%)    48.6%
 TRAVEL      0.0933        C  1 --  H  7          +12.6% ( 47.8%)    16.7%
 RED. MASS   0.7730        C  4 --  H 13           +9.0% ( 40.3%)    75.4%
 EFF. MASS   6.4715

 VIBRATION   24   24A       ATOM PAIR        ENERGY CONTRIBUTION    RADIAL
 FREQ.      1215.12        C  5 --  H 14          +27.4% ( 60.8%)     6.3%
 T-DIPOLE    0.0431        C  4 --  H 13          +24.7% ( 57.8%)     0.0%
 TRAVEL      0.1277        C  5 --  C  6          +13.3% ( 42.4%)     1.9%
 RED. MASS   0.4790        C  4 --  C  5           +8.2% ( 33.3%)    67.8%
 EFF. MASS   3.4040

 VIBRATION   25   25A       ATOM PAIR        ENERGY CONTRIBUTION    RADIAL
 FREQ.      1262.65        C  1 --  H  7          +26.3% ( 65.5%)     2.4%
 T-DIPOLE    0.0234        C  1 --  C  2           +8.5% ( 37.3%)     0.4%
 TRAVEL      0.1088        C  1 --  C  3           +7.3% ( 34.5%)     2.7%
 RED. MASS   0.4003        C  2 --  C  3           +7.2% ( 34.1%)    99.5%
 EFF. MASS   4.5079

 VIBRATION   26   26A       ATOM PAIR        ENERGY CONTRIBUTION    RADIAL
 FREQ.      1309.95        C  6 --  H 16          +14.7% ( 44.8%)     0.1%
 T-DIPOLE    0.0410        C  6 --  H 15          +12.4% ( 41.0%)     0.5%
 TRAVEL      0.1162        C  1 --  C  4           +9.8% ( 36.6%)    82.4%
 RED. MASS   0.3334        C  4 --  H 12           +8.3% ( 33.7%)     0.0%
 EFF. MASS   3.8111

 VIBRATION   27   27A       ATOM PAIR        ENERGY CONTRIBUTION    RADIAL
 FREQ.      1357.22        C  4 --  H 12          +12.3% ( 39.9%)     0.3%
 T-DIPOLE    0.0373        C  4 --  C  5          +12.3% ( 39.9%)    75.4%
 TRAVEL      0.1174        C  4 --  H 13          +11.7% ( 39.0%)     1.0%
 RED. MASS   0.2840        C  6 --  H 15          +11.7% ( 39.0%)     1.5%
 EFF. MASS   3.6052

 VIBRATION   28   28A       ATOM PAIR        ENERGY CONTRIBUTION    RADIAL
 FREQ.      1397.51        C  4 --  H 13          +27.8% ( 58.0%)     5.5%
 T-DIPOLE    0.0870        C  4 --  H 12          +27.0% ( 57.2%)     5.2%
 TRAVEL      0.1174        C  4 --  C  5          +14.8% ( 42.3%)    79.4%
 RED. MASS   0.5879        C  1 --  C  4          +10.2% ( 35.2%)    11.7%
 EFF. MASS   3.5019

 VIBRATION   29   29A       ATOM PAIR        ENERGY CONTRIBUTION    RADIAL
 FREQ.      1402.76        C  2 --  H  9          +19.5% ( 44.3%)     2.6%
 T-DIPOLE    0.0761        C  2 --  H 11          +18.7% ( 43.5%)     3.1%
 TRAVEL      0.1526        C  3 --  H  8          +18.7% ( 43.4%)     2.5%
 RED. MASS   0.2260        C  3 --  H 10          +18.0% ( 42.6%)     2.8%
 EFF. MASS   2.0636

 VIBRATION   30   30A       ATOM PAIR        ENERGY CONTRIBUTION    RADIAL
 FREQ.      1420.94        C  1 --  C  4          +16.7% ( 53.9%)    86.0%
 T-DIPOLE    0.1369        C  4 --  H 13          +10.3% ( 42.3%)     0.1%
 TRAVEL      0.0920        C  4 --  C  5           +9.8% ( 41.4%)    73.2%
 RED. MASS   0.7694        C  4 --  H 12           +8.8% ( 39.2%)     0.3%
 EFF. MASS   5.6093

 VIBRATION   31   31A       ATOM PAIR        ENERGY CONTRIBUTION    RADIAL
 FREQ.      1597.54        C  1 --  C  2          +19.7% ( 73.5%)    96.0%
 T-DIPOLE    0.0516        C  1 --  C  3          +19.5% ( 73.2%)    95.7%
 TRAVEL      0.0606        C  2 --  C  3          +14.8% ( 63.7%)   100.0%
 RED. MASS   3.3110        C  1 --  C  4          +12.0% ( 57.3%)    68.1%
 EFF. MASS  11.4849

 VIBRATION   32   32A       ATOM PAIR        ENERGY CONTRIBUTION    RADIAL
 FREQ.      1861.36        C  5 --  C  6          +45.3% ( 99.3%)    98.9%
 T-DIPOLE    0.2292        C  4 --  C  5          +16.7% ( 60.3%)    54.4%
 TRAVEL      0.0554        C  5 --  H 14          +15.4% ( 58.0%)     3.9%
 RED. MASS   5.2996        C  6 --  H 16          +11.0% ( 48.9%)    10.8%
 EFF. MASS  11.7918        C  6 --  H 15          +10.8% ( 48.4%)    12.9%

 VIBRATION   33   33A       ATOM PAIR        ENERGY CONTRIBUTION    RADIAL
 FREQ.      2940.37        C  4 --  H 12          +49.7% ( 73.2%)    96.5%
 T-DIPOLE    0.0315        C  4 --  H 13          +47.3% ( 71.5%)    96.4%
 TRAVEL      0.1217        C  1 --  C  4           +1.2% ( 11.3%)     0.1%
 RED. MASS   0.5132        C  4 --  C  5           +1.2% ( 11.2%)     0.2%
 EFF. MASS   1.5475

 VIBRATION   34   34A       ATOM PAIR        ENERGY CONTRIBUTION    RADIAL
 FREQ.      3003.79        C  1 --  H  7          +94.8% ( 99.1%)   100.0%
 T-DIPOLE    0.1948        C  4 --  H 12           +1.2% ( 11.0%)   100.0%
 TRAVEL      0.1243        C  1 --  C  3           +1.1% ( 10.8%)    22.7%
 RED. MASS   0.8953        C  1 --  C  2           +1.1% ( 10.8%)    22.9%
 EFF. MASS   1.4530

 VIBRATION   35   35A       ATOM PAIR        ENERGY CONTRIBUTION    RADIAL
 FREQ.      3016.82        C  4 --  H 13          +50.4% ( 70.0%)    97.8%
 T-DIPOLE    0.0556        C  4 --  H 12          +47.1% ( 67.6%)    97.5%
 TRAVEL      0.1323        C  1 --  H  7           +0.8% (  9.1%)    99.9%
 RED. MASS   0.4732        C  4 --  C  5           +0.6% (  7.9%)    31.0%
 EFF. MASS   1.2771

 VIBRATION   36   36A       ATOM PAIR        ENERGY CONTRIBUTION    RADIAL
 FREQ.      3042.17        C  5 --  H 14          +95.9% ( 99.3%)   100.0%
 T-DIPOLE    0.2341        C  5 --  C  6           +1.4% ( 12.0%)    30.6%
 TRAVEL      0.1216        C  4 --  C  5           +1.3% ( 11.6%)    14.1%
 RED. MASS   0.9040        C  6 --  H 15           +0.9% (  9.6%)    95.4%
 EFF. MASS   1.4997

 VIBRATION   37   37A       ATOM PAIR        ENERGY CONTRIBUTION    RADIAL
 FREQ.      3083.28        C  3 --  H  8          +28.2% ( 55.1%)    97.8%
 T-DIPOLE    0.0236        C  2 --  H  9          +27.8% ( 54.7%)    97.8%
 TRAVEL      0.1186        C  3 --  H 10          +20.8% ( 47.3%)    96.0%
 RED. MASS   0.2654        C  2 --  H 11          +20.7% ( 47.1%)    96.0%
 EFF. MASS   1.5556

 VIBRATION   38   38A       ATOM PAIR        ENERGY CONTRIBUTION    RADIAL
 FREQ.      3097.46        C  2 --  H  9          +29.4% ( 55.8%)    98.2%
 T-DIPOLE    0.2454        C  3 --  H  8          +29.1% ( 55.6%)    98.2%
 TRAVEL      0.1188        C  2 --  H 11          +19.6% ( 45.6%)    95.9%
 RED. MASS   0.2673        C  3 --  H 10          +19.2% ( 45.2%)    95.9%
 EFF. MASS   1.5417

 VIBRATION   39   39A       ATOM PAIR        ENERGY CONTRIBUTION    RADIAL
 FREQ.      3134.33        C  2 --  H 11          +30.4% ( 54.7%)    97.5%
 T-DIPOLE    0.2259        C  3 --  H 10          +26.8% ( 51.4%)    97.6%
 TRAVEL      0.1300        C  2 --  H  9          +22.0% ( 46.6%)    95.1%
 RED. MASS   0.2485        C  3 --  H  8          +19.4% ( 43.6%)    95.1%
 EFF. MASS   1.2724

 VIBRATION   40   40A       ATOM PAIR        ENERGY CONTRIBUTION    RADIAL
 FREQ.      3135.34        C  3 --  H 10          +31.3% ( 55.7%)    97.6%
 T-DIPOLE    0.1558        C  2 --  H 11          +27.6% ( 52.3%)    97.6%
 TRAVEL      0.1268        C  3 --  H  8          +20.2% ( 44.8%)    94.2%
 RED. MASS   0.2486        C  2 --  H  9          +17.8% ( 42.1%)    94.2%
 EFF. MASS   1.3385

 VIBRATION   41   41A       ATOM PAIR        ENERGY CONTRIBUTION    RADIAL
 FREQ.      3135.78        C  6 --  H 16          +90.2% ( 96.7%)    99.9%
 T-DIPOLE    0.1904        C  6 --  H 15           +7.5% ( 27.9%)    73.7%
 TRAVEL      0.1182        C  5 --  C  6           +1.3% ( 11.6%)    20.9%
 RED. MASS   0.8272        C  3 --  H 10           +0.3% (  5.7%)    97.6%
 EFF. MASS   1.5392

 VIBRATION   42   42A       ATOM PAIR        ENERGY CONTRIBUTION    RADIAL
 FREQ.      3148.15        C  6 --  H 15          +91.1% ( 96.1%)    99.6%
 T-DIPOLE    0.2506        C  6 --  H 16           +6.5% ( 25.6%)    45.7%
 TRAVEL      0.1210        C  5 --  C  6           +1.6% ( 12.7%)    74.7%
 RED. MASS   0.8073        C  5 --  H 14           +0.8% (  8.8%)    94.7%
 EFF. MASS   1.4625

 SYMMETRY NUMBER FOR POINT-GROUP C1  =  1


          SYSTEM IS A GROUND STATE


    NULL



          MOLECULE IS NOT LINEAR

          THERE ARE 42 GENUINE VIBRATIONS IN THIS SYSTEM
          THIS THERMODYNAMICS CALCULATION IS LIMITED TO
          MOLECULES WHICH HAVE NO INTERNAL ROTATIONS




                    CALCULATED THERMODYNAMIC PROPERTIES
                                          *
   TEMP. (K)   PARTITION FUNCTION   H.O.F.    ENTHALPY  HEAT CAPACITY ENTROPY
                                   KCAL/MOL   CAL/MOLE    CAL/K/MOL  CAL/K/MOL


 298.00  VIB.     0.2620D+02                  2344.5202    17.9481    14.3576
         ROT.     0.1527D+06                   888.2813     2.9808    26.7002
         INT.     0.4001D+07                  3232.8015    20.9289    41.0578
         TRA.     0.7198D+27                  1480.4688     4.9680    39.1295
         TOT.                       28.460    4713.2703    25.8969    80.1873

 200.00  VIB.     0.7512D+01                   979.9816    10.2482     8.9070
         ROT.     0.8394D+05                   596.1620     2.9808    25.5115
         INT.     0.6305D+06                  1576.1436    13.2290    34.4185
         TRA.     0.3957D+27                   993.6033     4.9680    37.1484
         TOT.                       26.317    2569.7468    18.1971    71.5669

 210.00  VIB.     0.8500D+01                  1085.8175    10.9241     9.4233
         ROT.     0.9031D+05                   625.9700     2.9808    25.6569
         INT.     0.7677D+06                  1711.7875    13.9049    35.0802
         TRA.     0.4258D+27                  1043.2834     4.9680    37.3907
         TOT.                       26.502    2755.0710    18.8729    72.4710

 220.00  VIB.     0.9624D+01                  1198.5644    11.6303     9.9477
         ROT.     0.9684D+05                   655.7781     2.9808    25.7956
         INT.     0.9320D+06                  1854.3425    14.6111    35.7433
         TRA.     0.4566D+27                  1092.9636     4.9680    37.6219
         TOT.                       26.694    2947.3061    19.5791    73.3651

 230.00  VIB.     0.1091D+02                  1318.5201    12.3656    10.4808
         ROT.     0.1035D+06                   685.5862     2.9808    25.9281
         INT.     0.1129D+07                  2004.1064    15.3464    36.4089
         TRA.     0.4880D+27                  1142.6437     4.9680    37.8427
         TOT.                       26.894    3146.7501    20.3144    74.2516

 240.00  VIB.     0.1237D+02                  1445.9664    13.1280    11.0231
         ROT.     0.1103D+06                   715.3943     2.9808    26.0550
         INT.     0.1365D+07                  2161.3608    16.1088    37.0780
         TRA.     0.5202D+27                  1192.3239     4.9680    38.0541
         TOT.                       27.101    3353.6847    21.0769    75.1321

 250.00  VIB.     0.1404D+02                  1581.1635    13.9153    11.5748
         ROT.     0.1173D+06                   745.2024     2.9808    26.1766
         INT.     0.1647D+07                  2326.3659    16.8961    37.7515
         TRA.     0.5531D+27                  1242.0041     4.9680    38.2569
         TOT.                       27.315    3568.3700    21.8641    76.0084

 260.00  VIB.     0.1596D+02                  1724.3458    14.7246    12.1363
         ROT.     0.1244D+06                   775.0105     2.9808    26.2936
         INT.     0.1985D+07                  2499.3563    17.7054    38.4299
         TRA.     0.5866D+27                  1291.6842     4.9680    38.4518
         TOT.                       27.538    3791.0406    22.6734    76.8817

 270.00  VIB.     0.1815D+02                  1875.7192    15.5530    12.7075
         ROT.     0.1317D+06                   804.8186     2.9808    26.4060
         INT.     0.2390D+07                  2680.5379    18.5338    39.1136
         TRA.     0.6208D+27                  1341.3644     4.9680    38.6393
         TOT.                       27.769    4021.9023    23.5018    77.7528

 280.00  VIB.     0.2067D+02                  2035.4596    16.3975    13.2883
         ROT.     0.1390D+06                   834.6267     2.9808    26.5145
         INT.     0.2874D+07                  2870.0863    19.3783    39.8028
         TRA.     0.6556D+27                  1391.0445     4.9680    38.8200
         TOT.                       28.008    4261.1309    24.3463    78.6228

 290.00  VIB.     0.2357D+02                  2203.7119    17.2549    13.8787
         ROT.     0.1466D+06                   864.4348     2.9808    26.6191
         INT.     0.3455D+07                  3068.1467    20.2357    40.4977
         TRA.     0.6910D+27                  1440.7247     4.9680    38.9943
         TOT.                       28.256    4508.8714    25.2037    79.4920

 300.00  VIB.     0.2691D+02                  2380.5905    18.1222    14.4782
         ROT.     0.1542D+06                   894.2429     2.9808    26.7201
         INT.     0.4150D+07                  3274.8334    21.1031    41.1983
         TRA.     0.7270D+27                  1490.4049     4.9680    39.1627
         TOT.                       28.512    4765.2383    26.0711    80.3611

 310.00  VIB.     0.3076D+02                  2566.1803    18.9966    15.0867
         ROT.     0.1620D+06                   924.0510     2.9808    26.8178
         INT.     0.4983D+07                  3490.2313    21.9774    41.9046
         TRA.     0.7637D+27                  1540.0850     4.9680    39.3256
         TOT.                       28.777    5030.3163    26.9455    81.2302

 320.00  VIB.     0.3521D+02                  2760.5376    19.8753    15.7037
         ROT.     0.1699D+06                   953.8591     2.9808    26.9125
         INT.     0.5981D+07                  3714.3967    22.8561    42.6162
         TRA.     0.8009D+27                  1589.7652     4.9680    39.4834
         TOT.                       29.051    5304.1619    27.8241    82.0995

 330.00  VIB.     0.4035D+02                  2963.6925    20.7557    16.3288
         ROT.     0.1779D+06                   983.6672     2.9808    27.0042
         INT.     0.7179D+07                  3947.3597    23.7365    43.3330
         TRA.     0.8388D+27                  1639.4454     4.9680    39.6362
         TOT.                       29.334    5586.8050    28.7046    82.9692

 340.00  VIB.     0.4630D+02                  3175.6503    21.6355    16.9615
         ROT.     0.1861D+06                  1013.4753     2.9808    27.0932
         INT.     0.8615D+07                  4189.1256    24.6163    44.0547
         TRA.     0.8772D+27                  1689.1255     4.9680    39.7845
         TOT.                       29.625    5878.2511    29.5844    83.8392

 350.00  VIB.     0.5320D+02                  3396.3940    22.5126    17.6013
         ROT.     0.1943D+06                  1043.2834     2.9808    27.1796
         INT.     0.1034D+08                  4439.6775    25.4934    44.7809
         TRA.     0.9162D+27                  1738.8057     4.9680    39.9285
         TOT.                       29.925    6178.4831    30.4614    84.7094

 360.00  VIB.     0.6120D+02                  3625.8867    23.3850    18.2477
         ROT.     0.2027D+06                  1073.0915     2.9808    27.2636
         INT.     0.1241D+08                  4698.9782    26.3658    45.5113
         TRA.     0.9557D+27                  1788.4859     4.9680    40.0685
         TOT.                       30.234    6487.4640    31.3338    85.5798

 370.00  VIB.     0.7050D+02                  3864.0731    24.2511    18.9003
         ROT.     0.2112D+06                  1102.8996     2.9808    27.3452
         INT.     0.1489D+08                  4966.9727    27.2319    46.2455
         TRA.     0.9958D+27                  1838.1660     4.9680    40.2046
         TOT.                       30.552    6805.1387    32.1999    86.4501

 380.00  VIB.     0.8131D+02                  4110.8825    25.1094    19.5584
         ROT.     0.2198D+06                  1132.7077     2.9808    27.4247
         INT.     0.1788D+08                  5243.5902    28.0902    46.9832
         TRA.     0.1036D+28                  1887.8462     4.9680    40.3371
         TOT.                       30.878    7131.4363    33.0582    87.3203

 390.00  VIB.     0.9389D+02                  4366.2302    25.9586    20.2216
         ROT.     0.2286D+06                  1162.5158     2.9808    27.5022
         INT.     0.2146D+08                  5528.7460    28.9394    47.7238
         TRA.     0.1078D+28                  1937.5263     4.9680    40.4662
         TOT.                       31.213    7466.2723    33.9074    88.1900

 400.00  VIB.     0.1085D+03                  4630.0201    26.7976    20.8895
         ROT.     0.2374D+06                  1192.3239     2.9808    27.5776
         INT.     0.2577D+08                  5822.3440    29.7784    48.4671
         TRA.     0.1119D+28                  1987.2065     4.9680    40.5919
         TOT.                       31.556    7809.5505    34.7465    89.0590

   *: NOTE: HEATS OF FORMATION ARE RELATIVE TO THE
            ELEMENTS IN THEIR STANDARD STATE AT 298K
              (=  Standard Enthalpy of Formation).

            Hvib:  Zero-point energy is not included.
                   frequencies of less than zero cm-1 are not included.
            Hrot = (3/2)RT
            Htra = (3/2)RT + pV = (5/2)RT

            Heat capacity is Cp, not Cv

           For more information, see: HTTP://OpenMOPAC.net/Manual/thermochemistry.html


           FORCE CONSTANT IN CARTESIAN COORDINATES (Millidynes/A)

    ATOM   CHEMICAL       X               Y               Z
   NUMBER   SYMBOL  FORCE CONSTANT  FORCE CONSTANT  FORCE CONSTANT

      1       C       10.194850        6.504842        8.869659
      2       C        9.908276        6.480257        8.763829
      3       C        4.560333       11.815072        8.770244
      4       C        9.106432        8.053409        8.582913
      5       C       10.042321        4.957838       12.148459
      6       C       10.001016        4.644613       11.875597
      7       H        1.729400        0.915740        3.706059
      8       H        0.527599        2.292525        3.825753
      9       H        1.850536        0.964639        3.827362
     10       H        0.527992        2.299762        3.838294
     11       H        1.843299        0.984714        3.837532
     12       H        0.640993        4.904971        0.675418
     13       H        1.643203        1.227145        3.517003
     14       H        1.827082        0.576517        3.828103
     15       H        5.062815        0.764478        0.656538
     16       H        1.700771        0.609007        4.159107



 TOTAL CPU TIME:             1.09 SECONDS

 == MOPAC DONE ==
