 *******************************************************************************
 ** Site#: 14399           For non-commercial use only        Version 13.159M **
 *******************************************************************************
 ** Cite this work as: MOPAC2012, James J. P. Stewart, Stewart Computational  **
 ** Chemistry, Version 13.159M web: HTTP://OpenMOPAC.net  Days remaining:   6 **
 *******************************************************************************
 **                                                                           **
 **                                MOPAC2012                                  **
 **                                                                           **
 *******************************************************************************

                            PM3 CALCULATION RESULTS


 *******************************************************************************
 *  CALCULATION DONE:                                Mon Jun  2 11:11:22 2014  *
 *  PM3      - The PM3 Hamiltonian to be used
 *  PRECISE  - CRITERIA TO BE INCREASED BY 100 TIMES
 *  NOSYM    - POINT-GROUP SYMMETRY SET TO C1
 *  T=       - A TIME OF 172800.0 SECONDS REQUESTED
 *  DUMP=N   - RESTART FILE WRITTEN EVERY  7200.000 SECONDS
 *******************************************************************************
pm3  precise nosym
 InChI=1S/C10H14/c1-3-6-9(2)10-7-4-5-8-10/h4-6,9-10H,1,7-8H2,2H3

   ATOM   CHEMICAL          X               Y               Z
  NUMBER   SYMBOL      (ANGSTROMS)     (ANGSTROMS)     (ANGSTROMS)
 
     1       C         -0.82220000  *  -0.01520000  *   0.32050000  *
     2       C          0.59040000  *   0.60990000  *   0.36510000  *
     3       C         -0.92170000  *  -1.30470000  *  -0.51210000  *
     4       C         -1.91910000  *   0.90610000  *  -0.23800000  *
     5       C          0.64510000  *   1.87610000  *   1.22710000  *
     6       C         -2.26200000  *  -1.21330000  *  -1.14800000  *
     7       C         -2.80270000  *  -0.01590000  *  -0.99870000  *
     8       C          1.59480000  *  -0.37570000  *   0.90050000  *
     9       C          3.58470000  *  -1.23220000  *  -0.55130000  *
    10       C          2.59210000  *  -0.80440000  *   0.17500000  *
    11       H         -1.12310000  *  -0.28010000  *   1.36470000  *
    12       H          0.86480000  *   0.91500000  *  -0.67450000  *
    13       H         -0.15720000  *  -1.36430000  *  -1.32120000  *
    14       H         -0.84990000  *  -2.21310000  *   0.12950000  *
    15       H         -2.48480000  *   1.41160000  *   0.57830000  *
    16       H         -1.53040000  *   1.67220000  *  -0.94820000  *
    17       H          0.33390000  *   1.66970000  *   2.27720000  *
    18       H         -0.01700000  *   2.67390000  *   0.82110000  *
    19       H          1.67560000  *   2.30050000  *   1.24330000  *
    20       H         -2.72230000  *  -2.01310000  *  -1.72480000  *
    21       H         -3.75440000  *   0.27310000  *  -1.44030000  *
    22       H          1.47680000  *  -0.77160000  *   1.90470000  *
    23       H          4.59870000  *  -1.16870000  *  -0.17210000  *
    24       H          3.41010000  *  -1.53580000  *  -1.57780000  *
 


          CARTESIAN COORDINATES 

    NO.       ATOM         X         Y         Z

     1         C       -0.8222   -0.0152    0.3205
     2         C        0.5904    0.6099    0.3651
     3         C       -0.9217   -1.3047   -0.5121
     4         C       -1.9191    0.9061   -0.2380
     5         C        0.6451    1.8761    1.2271
     6         C       -2.2620   -1.2133   -1.1480
     7         C       -2.8027   -0.0159   -0.9987
     8         C        1.5948   -0.3757    0.9005
     9         C        3.5847   -1.2322   -0.5513
    10         C        2.5921   -0.8044    0.1750
    11         H       -1.1231   -0.2801    1.3647
    12         H        0.8648    0.9150   -0.6745
    13         H       -0.1572   -1.3643   -1.3212
    14         H       -0.8499   -2.2131    0.1295
    15         H       -2.4848    1.4116    0.5783
    16         H       -1.5304    1.6722   -0.9482
    17         H        0.3339    1.6697    2.2772
    18         H       -0.0170    2.6739    0.8211
    19         H        1.6756    2.3005    1.2433
    20         H       -2.7223   -2.0131   -1.7248
    21         H       -3.7544    0.2731   -1.4403
    22         H        1.4768   -0.7716    1.9047
    23         H        4.5987   -1.1687   -0.1721
    24         H        3.4101   -1.5358   -1.5778

  H: (PM3): J. J. P. STEWART, J. COMP. CHEM. 10, 209 (1989).
  C: (PM3): J. J. P. STEWART, J. COMP. CHEM. 10, 209 (1989).

           Empirical Formula: C10 H14  =    24 atoms



      MOLECULAR POINT GROUP   :   C1  


      RHF CALCULATION, NO. OF DOUBLY OCCUPIED LEVELS =   27

      Geometry optimization using EF

          DIAGONAL MATRIX USED AS START HESSIAN

 CYCLE:     1 TIME:   0.011 TIME LEFT:  2.00D  GRAD.:    68.524 HEAT: 58.45941
 CYCLE:     2 TIME:   0.022 TIME LEFT:  2.00D  GRAD.:    65.868 HEAT: 57.07877
 CYCLE:     3 TIME:   0.008 TIME LEFT:  2.00D  GRAD.:    63.653 HEAT: 55.58896
 CYCLE:     4 TIME:   0.008 TIME LEFT:  2.00D  GRAD.:   122.104 HEAT: 55.14890
 CYCLE:     5 TIME:   0.008 TIME LEFT:  2.00D  GRAD.:   137.797 HEAT: 54.81843
 CYCLE:     6 TIME:   0.008 TIME LEFT:  2.00D  GRAD.:    85.735 HEAT: 52.79134
 CYCLE:     7 TIME:   0.008 TIME LEFT:  2.00D  GRAD.:    88.764 HEAT: 51.76798
 CYCLE:     8 TIME:   0.008 TIME LEFT:  2.00D  GRAD.:    87.482 HEAT: 50.71162
 CYCLE:     9 TIME:   0.008 TIME LEFT:  2.00D  GRAD.:    71.800 HEAT: 49.64795
 CYCLE:    10 TIME:   0.008 TIME LEFT:  2.00D  GRAD.:    83.147 HEAT: 49.35942
 CYCLE:    11 TIME:   0.008 TIME LEFT:  2.00D  GRAD.:    80.060 HEAT: 48.72845
 CYCLE:    12 TIME:   0.008 TIME LEFT:  2.00D  GRAD.:    93.982 HEAT: 48.67802
 CYCLE:    13 TIME:   0.015 TIME LEFT:  2.00D  GRAD.:    33.953 HEAT: 46.77556
 CYCLE:    14 TIME:   0.015 TIME LEFT:  2.00D  GRAD.:    33.370 HEAT: 46.57898
 CYCLE:    15 TIME:   0.008 TIME LEFT:  2.00D  GRAD.:    21.191 HEAT: 46.26188
 CYCLE:    16 TIME:   0.008 TIME LEFT:  2.00D  GRAD.:    35.208 HEAT: 46.21865
 CYCLE:    17 TIME:   0.008 TIME LEFT:  2.00D  GRAD.:    33.097 HEAT: 46.03450
 CYCLE:    18 TIME:   0.008 TIME LEFT:  2.00D  GRAD.:    36.731 HEAT: 45.98237
 CYCLE:    19 TIME:   0.008 TIME LEFT:  2.00D  GRAD.:    29.064 HEAT: 45.75579
 CYCLE:    20 TIME:   0.014 TIME LEFT:  2.00D  GRAD.:    18.835 HEAT: 45.59037
 CYCLE:    21 TIME:   0.008 TIME LEFT:  2.00D  GRAD.:     9.969 HEAT: 45.47657
 CYCLE:    22 TIME:   0.008 TIME LEFT:  2.00D  GRAD.:    17.680 HEAT: 45.45415
 CYCLE:    23 TIME:   0.008 TIME LEFT:  2.00D  GRAD.:     7.477 HEAT: 45.36395
 CYCLE:    24 TIME:   0.008 TIME LEFT:  2.00D  GRAD.:    14.668 HEAT: 45.33897
 CYCLE:    25 TIME:   0.008 TIME LEFT:  2.00D  GRAD.:     9.595 HEAT: 45.23271
 CYCLE:    26 TIME:   0.008 TIME LEFT:  2.00D  GRAD.:    10.888 HEAT: 45.15171
 CYCLE:    27 TIME:   0.008 TIME LEFT:  2.00D  GRAD.:    10.742 HEAT: 45.04958
 CYCLE:    28 TIME:   0.008 TIME LEFT:  2.00D  GRAD.:    12.498 HEAT: 44.99411
 CYCLE:    29 TIME:   0.008 TIME LEFT:  2.00D  GRAD.:     8.366 HEAT: 44.92975
 CYCLE:    30 TIME:   0.014 TIME LEFT:  2.00D  GRAD.:     7.895 HEAT: 44.90867
 CYCLE:    31 TIME:   0.008 TIME LEFT:  2.00D  GRAD.:     5.228 HEAT: 44.87777
 CYCLE:    32 TIME:   0.008 TIME LEFT:  2.00D  GRAD.:     6.574 HEAT: 44.86078
 CYCLE:    33 TIME:   0.008 TIME LEFT:  2.00D  GRAD.:     4.333 HEAT: 44.83737
 CYCLE:    34 TIME:   0.008 TIME LEFT:  2.00D  GRAD.:     4.269 HEAT: 44.81962
 CYCLE:    35 TIME:   0.008 TIME LEFT:  2.00D  GRAD.:     2.968 HEAT: 44.80438
 CYCLE:    36 TIME:   0.008 TIME LEFT:  2.00D  GRAD.:     3.245 HEAT: 44.78923
 CYCLE:    37 TIME:   0.008 TIME LEFT:  2.00D  GRAD.:     2.870 HEAT: 44.78006
 CYCLE:    38 TIME:   0.008 TIME LEFT:  2.00D  GRAD.:     2.611 HEAT: 44.77013
 CYCLE:    39 TIME:   0.008 TIME LEFT:  2.00D  GRAD.:     3.315 HEAT: 44.74719
 CYCLE:    40 TIME:   0.008 TIME LEFT:  2.00D  GRAD.:     3.231 HEAT: 44.72843
 CYCLE:    41 TIME:   0.008 TIME LEFT:  2.00D  GRAD.:     2.653 HEAT: 44.70909
 CYCLE:    42 TIME:   0.008 TIME LEFT:  2.00D  GRAD.:     3.025 HEAT: 44.68612
 CYCLE:    43 TIME:   0.008 TIME LEFT:  2.00D  GRAD.:     2.968 HEAT: 44.66606
 CYCLE:    44 TIME:   0.008 TIME LEFT:  2.00D  GRAD.:     2.705 HEAT: 44.65102
 CYCLE:    45 TIME:   0.008 TIME LEFT:  2.00D  GRAD.:     2.182 HEAT: 44.64201
 CYCLE:    46 TIME:   0.008 TIME LEFT:  2.00D  GRAD.:     1.937 HEAT: 44.63432
 CYCLE:    47 TIME:   0.008 TIME LEFT:  2.00D  GRAD.:     1.908 HEAT: 44.62666
 CYCLE:    48 TIME:   0.008 TIME LEFT:  2.00D  GRAD.:     1.825 HEAT: 44.61830
 CYCLE:    49 TIME:   0.008 TIME LEFT:  2.00D  GRAD.:     1.924 HEAT: 44.60818
 CYCLE:    50 TIME:   0.008 TIME LEFT:  2.00D  GRAD.:     1.951 HEAT: 44.59845
 CYCLE:    51 TIME:   0.008 TIME LEFT:  2.00D  GRAD.:     1.812 HEAT: 44.58917
 CYCLE:    52 TIME:   0.008 TIME LEFT:  2.00D  GRAD.:     1.558 HEAT: 44.58210
 CYCLE:    53 TIME:   0.008 TIME LEFT:  2.00D  GRAD.:     1.400 HEAT: 44.57718
 CYCLE:    54 TIME:   0.008 TIME LEFT:  2.00D  GRAD.:     1.460 HEAT: 44.57300
 CYCLE:    55 TIME:   0.008 TIME LEFT:  2.00D  GRAD.:     1.500 HEAT: 44.56880
 CYCLE:    56 TIME:   0.008 TIME LEFT:  2.00D  GRAD.:     1.490 HEAT: 44.56449
 CYCLE:    57 TIME:   0.008 TIME LEFT:  2.00D  GRAD.:     1.445 HEAT: 44.56006
 CYCLE:    58 TIME:   0.008 TIME LEFT:  2.00D  GRAD.:     1.571 HEAT: 44.55470
 CYCLE:    59 TIME:   0.008 TIME LEFT:  2.00D  GRAD.:     1.684 HEAT: 44.54992
 CYCLE:    60 TIME:   0.008 TIME LEFT:  2.00D  GRAD.:     1.717 HEAT: 44.54239
 CYCLE:    61 TIME:   0.008 TIME LEFT:  2.00D  GRAD.:     1.509 HEAT: 44.53769
 CYCLE:    62 TIME:   0.008 TIME LEFT:  2.00D  GRAD.:     1.631 HEAT: 44.53010
 CYCLE:    63 TIME:   0.008 TIME LEFT:  2.00D  GRAD.:     1.366 HEAT: 44.52772
 CYCLE:    64 TIME:   0.008 TIME LEFT:  2.00D  GRAD.:     0.756 HEAT: 44.52449
 CYCLE:    65 TIME:   0.008 TIME LEFT:  2.00D  GRAD.:     0.670 HEAT: 44.52308
 CYCLE:    66 TIME:   0.008 TIME LEFT:  2.00D  GRAD.:     0.478 HEAT: 44.52227
 CYCLE:    67 TIME:   0.008 TIME LEFT:  2.00D  GRAD.:     0.339 HEAT: 44.52186
 CYCLE:    68 TIME:   0.008 TIME LEFT:  2.00D  GRAD.:     0.315 HEAT: 44.52162
 CYCLE:    69 TIME:   0.008 TIME LEFT:  2.00D  GRAD.:     0.339 HEAT: 44.52139
 CYCLE:    70 TIME:   0.008 TIME LEFT:  2.00D  GRAD.:     0.395 HEAT: 44.52099
 CYCLE:    71 TIME:   0.008 TIME LEFT:  2.00D  GRAD.:     0.493 HEAT: 44.52031
 CYCLE:    72 TIME:   0.008 TIME LEFT:  2.00D  GRAD.:     0.608 HEAT: 44.51932
 CYCLE:    73 TIME:   0.008 TIME LEFT:  2.00D  GRAD.:     0.685 HEAT: 44.51813
 CYCLE:    74 TIME:   0.008 TIME LEFT:  2.00D  GRAD.:     0.774 HEAT: 44.51660
 CYCLE:    75 TIME:   0.008 TIME LEFT:  2.00D  GRAD.:     0.737 HEAT: 44.51557
 CYCLE:    76 TIME:   0.008 TIME LEFT:  2.00D  GRAD.:     0.913 HEAT: 44.51270
 CYCLE:    77 TIME:   0.008 TIME LEFT:  2.00D  GRAD.:     0.682 HEAT: 44.51164
 CYCLE:    78 TIME:   0.008 TIME LEFT:  2.00D  GRAD.:     0.577 HEAT: 44.51022
 CYCLE:    79 TIME:   0.008 TIME LEFT:  2.00D  GRAD.:     0.362 HEAT: 44.50983
 CYCLE:    80 TIME:   0.008 TIME LEFT:  2.00D  GRAD.:     0.287 HEAT: 44.50954
 CYCLE:    81 TIME:   0.008 TIME LEFT:  2.00D  GRAD.:     0.295 HEAT: 44.50920
 CYCLE:    82 TIME:   0.008 TIME LEFT:  2.00D  GRAD.:     0.328 HEAT: 44.50891
 CYCLE:    83 TIME:   0.008 TIME LEFT:  2.00D  GRAD.:     0.374 HEAT: 44.50849
 CYCLE:    84 TIME:   0.008 TIME LEFT:  2.00D  GRAD.:     0.272 HEAT: 44.50827
 CYCLE:    85 TIME:   0.008 TIME LEFT:  2.00D  GRAD.:     0.225 HEAT: 44.50803
 CYCLE:    86 TIME:   0.008 TIME LEFT:  2.00D  GRAD.:     0.137 HEAT: 44.50796
 CYCLE:    87 TIME:   0.008 TIME LEFT:  2.00D  GRAD.:     0.093 HEAT: 44.50791
 CYCLE:    88 TIME:   0.008 TIME LEFT:  2.00D  GRAD.:     0.088 HEAT: 44.50788
 CYCLE:    89 TIME:   0.008 TIME LEFT:  2.00D  GRAD.:     0.097 HEAT: 44.50785
 CYCLE:    90 TIME:   0.008 TIME LEFT:  2.00D  GRAD.:     0.092 HEAT: 44.50783
 CYCLE:    91 TIME:   0.008 TIME LEFT:  2.00D  GRAD.:     0.090 HEAT: 44.50780
 CYCLE:    92 TIME:   0.007 TIME LEFT:  2.00D  GRAD.:     0.089 HEAT: 44.50779
 CYCLE:    93 TIME:   0.008 TIME LEFT:  2.00D  GRAD.:     0.122 HEAT: 44.50776
 CYCLE:    94 TIME:   0.007 TIME LEFT:  2.00D  GRAD.:     0.110 HEAT: 44.50773
 CYCLE:    95 TIME:   0.008 TIME LEFT:  2.00D  GRAD.:     0.108 HEAT: 44.50771
 CYCLE:    96 TIME:   0.008 TIME LEFT:  2.00D  GRAD.:     0.063 HEAT: 44.50768
 CYCLE:    97 TIME:   0.008 TIME LEFT:  2.00D  GRAD.:     0.054 HEAT: 44.50767
 CYCLE:    98 TIME:   0.007 TIME LEFT:  2.00D  GRAD.:     0.055 HEAT: 44.50765
 CYCLE:    99 TIME:   0.008 TIME LEFT:  2.00D  GRAD.:     0.065 HEAT: 44.50763
 CYCLE:   100 TIME:   0.008 TIME LEFT:  2.00D  GRAD.:     0.066 HEAT: 44.50761
 CYCLE:   101 TIME:   0.008 TIME LEFT:  2.00D  GRAD.:     0.065 HEAT: 44.50759
 CYCLE:   102 TIME:   0.008 TIME LEFT:  2.00D  GRAD.:     0.082 HEAT: 44.50757
 CYCLE:   103 TIME:   0.007 TIME LEFT:  2.00D  GRAD.:     0.070 HEAT: 44.50755
 CYCLE:   104 TIME:   0.008 TIME LEFT:  2.00D  GRAD.:     0.053 HEAT: 44.50753
 CYCLE:   105 TIME:   0.007 TIME LEFT:  2.00D  GRAD.:     0.051 HEAT: 44.50752
 CYCLE:   106 TIME:   0.008 TIME LEFT:  2.00D  GRAD.:     0.054 HEAT: 44.50751
 CYCLE:   107 TIME:   0.007 TIME LEFT:  2.00D  GRAD.:     0.062 HEAT: 44.50750
 CYCLE:   108 TIME:   0.008 TIME LEFT:  2.00D  GRAD.:     0.069 HEAT: 44.50748
 CYCLE:   109 TIME:   0.008 TIME LEFT:  2.00D  GRAD.:     0.076 HEAT: 44.50746
 CYCLE:   110 TIME:   0.008 TIME LEFT:  2.00D  GRAD.:     0.078 HEAT: 44.50743
 CYCLE:   111 TIME:   0.007 TIME LEFT:  2.00D  GRAD.:     0.060 HEAT: 44.50742
 CYCLE:   112 TIME:   0.008 TIME LEFT:  2.00D  GRAD.:     0.048 HEAT: 44.50740

     RMS GRADIENT =  0.04841  IS LESS THAN CUTOFF =  0.05000



 -------------------------------------------------------------------------------
pm3  precise nosym
 InChI=1S/C10H14/c1-3-6-9(2)10-7-4-5-8-10/h4-6,9-10H,1,7-8H2,2H3



     GEOMETRY OPTIMISED USING EIGENVECTOR FOLLOWING (EF).     
     SCF FIELD WAS ACHIEVED                                   


                              PM3 CALCULATION
                                                       MOPAC2012 (Version: 13.159M)
                                                       Mon Jun  2 11:11:23 2014
                                                       No. of days left =   6




          FINAL HEAT OF FORMATION =         44.50740 KCAL/MOL =     186.21897 KJ/MOL


          TOTAL ENERGY            =      -1399.13163 EV
          ELECTRONIC ENERGY       =      -7761.13127 EV  POINT GROUP:     C1  
          CORE-CORE REPULSION     =       6361.99963 EV
          COSMO AREA              =        193.40 SQUARE ANGSTROMS
          COSMO VOLUME            =        199.00 CUBIC ANGSTROMS

          GRADIENT NORM           =          0.04841
          IONIZATION POTENTIAL    =          9.528872 EV
          HOMO LUMO ENERGIES (EV) =         -9.529  1.032
          NO. OF FILLED LEVELS    =         27
          MOLECULAR WEIGHT        =        134.221

          MOLECULAR DIMENSIONS (Angstroms)

            Atom       Atom       Distance
            H    23    H    21     8.23273
            H    20    H    17     5.48035
            H    14    H    16     3.34055


          SCF CALCULATIONS        =        119
          COMPUTATION TIME        =          0.929 SECONDS




   ATOM   CHEMICAL          X               Y               Z
  NUMBER   SYMBOL      (ANGSTROMS)     (ANGSTROMS)     (ANGSTROMS)
 
     1       C         -0.86754298  *  -0.02068052  *   0.43925675  *
     2       C          0.54184376  *   0.58176353  *   0.35087002  *
     3       C         -0.99046513  *  -1.35095262  *  -0.33746740  *
     4       C         -1.94494866  *   0.90477650  *  -0.17092008  *
     5       C          0.65822023  *   1.83833099  *   1.20386509  *
     6       C         -2.16860056  *  -1.17510433  *  -1.23867037  *
     7       C         -2.68993825  *   0.05283943  *  -1.14639932  *
     8       C          1.55715501  *  -0.41233768  *   0.83286905  *
     9       C          3.58534564  *  -1.16256316  *  -0.60821963  *
    10       C          2.57275722  *  -0.78701822  *   0.10789054  *
    11       H         -1.10090524  *  -0.20009522  *   1.51522590  *
    12       H          0.75086984  *   0.84657271  *  -0.71494630  *
    13       H         -0.07890261  *  -1.57584449  *  -0.92440464  *
    14       H         -1.13679992  *  -2.21002271  *   0.34244149  *
    15       H         -2.62245619  *   1.30990893  *   0.60263678  *
    16       H         -1.50761483  *   1.78214728  *  -0.68591679  *
    17       H          0.46645617  *   1.62804495  *   2.26478764  *
    18       H         -0.05883698  *   2.60713148  *   0.88607662  *
    19       H          1.66313122  *   2.27322730  *   1.13104131  *
    20       H         -2.51758612  *  -1.98537442  *  -1.87790212  *
    21       H         -3.54764327  *   0.44008574  *  -1.69529422  *
    22       H          1.42113821  *  -0.81696120  *   1.84365179  *
    23       H          4.53806191  *  -0.64063131  *  -0.58563817  *
    24       H          3.54017036  *  -2.02128986  *  -1.27239918  *

           Empirical Formula: C10 H14  =    24 atoms



      MOLECULAR POINT GROUP   :   C1  


                  EIGENVALUES  
 -41.44501 -35.63511 -31.95514 -28.40187 -26.77612 -26.09898 -21.68860 -19.62709
 -18.68468 -18.06323 -17.37019 -16.36115 -15.99334 -15.14300 -14.73307 -14.19240
 -13.77282 -13.50373 -13.40467 -12.69258 -12.55486 -12.37994 -12.27506 -11.69608
 -10.24953  -9.86189  -9.52887   1.03210   1.10095   1.14844   2.95792   3.35456
   3.46181   3.65903   3.75667   3.77496   3.86985   3.96990   4.11186   4.19435
   4.21832   4.37911   4.38975   4.52811   4.53893   4.64207   4.85690   4.93230
   5.11857   5.27181   5.33562   5.62854   6.01383   6.51458


              NET ATOMIC CHARGES AND DIPOLE CONTRIBUTIONS

  ATOM NO.   TYPE          CHARGE      No. of ELECS.   s-Pop       p-Pop       
    1          C          -0.077670        4.0777     1.18841     2.88926
    2          C          -0.027871        4.0279     1.16624     2.86164
    3          C          -0.071309        4.0713     1.15764     2.91367
    4          C          -0.067745        4.0677     1.15753     2.91022
    5          C          -0.113167        4.1132     1.14236     2.97081
    6          C          -0.152618        4.1526     1.20174     2.95088
    7          C          -0.158039        4.1580     1.20188     2.95616
    8          C          -0.085374        4.0854     1.16530     2.92007
    9          C          -0.093485        4.0935     1.14670     2.94678
   10          C          -0.181402        4.1814     1.21445     2.96695
   11          H           0.065325        0.9347     0.93467
   12          H           0.072677        0.9273     0.92732
   13          H           0.067042        0.9330     0.93296
   14          H           0.056594        0.9434     0.94341
   15          H           0.055789        0.9442     0.94421
   16          H           0.061806        0.9382     0.93819
   17          H           0.040620        0.9594     0.95938
   18          H           0.042410        0.9576     0.95759
   19          H           0.043162        0.9568     0.95684
   20          H           0.110645        0.8894     0.88935
   21          H           0.110819        0.8892     0.88918
   22          H           0.113361        0.8866     0.88664
   23          H           0.094339        0.9057     0.90566
   24          H           0.094092        0.9059     0.90591
 DIPOLE           X         Y         Z       TOTAL
 POINT-CHG.     0.066     0.152     0.021     0.167
 HYBRID         0.050    -0.032     0.030     0.067
 SUM            0.117     0.120     0.051     0.175


          ATOMIC ORBITAL ELECTRON POPULATIONS

    Atom      s        px        py        pz   
    1  C   1.18841   0.94053   0.95168   0.99704
    2  C   1.16624   0.92810   0.93638   0.99716
    3  C   1.15764   0.97572   0.96398   0.97396
    4  C   1.15753   0.96495   0.97150   0.97377
    5  C   1.14236   1.01260   0.96595   0.99225
    6  C   1.20174   0.97966   0.97403   0.99718
    7  C   1.20188   0.99493   0.96350   0.99772
    8  C   1.16530   0.94463   0.99648   0.97897
    9  C   1.14670   0.95138   1.00594   0.98947
   10  C   1.21445   0.98100   0.99877   0.98717
   11  H   0.93467
   12  H   0.92732
   13  H   0.93296
   14  H   0.94341
   15  H   0.94421
   16  H   0.93819
   17  H   0.95938
   18  H   0.95759
   19  H   0.95684
   20  H   0.88935
   21  H   0.88918
   22  H   0.88664
   23  H   0.90566
   24  H   0.90591
 *******************************************************************************
 ** Site#: 14399           For non-commercial use only        Version 13.159M **
 *******************************************************************************
 ** Cite this work as: MOPAC2012, James J. P. Stewart, Stewart Computational  **
 ** Chemistry, Version 13.159M web: HTTP://OpenMOPAC.net  Days remaining:   6 **
 *******************************************************************************
 **                                                                           **
 **                                MOPAC2012                                  **
 **                                                                           **
 *******************************************************************************

                            PM3 CALCULATION RESULTS


 *******************************************************************************
 *  CALCULATION DONE:                                Mon Jun  2 11:11:23 2014  *
 *  PM3      - The PM3 Hamiltonian to be used
 *  OLDGEO   - PREVIOUS GEOMETRY TO BE USED
 *  PRECISE  - CRITERIA TO BE INCREASED BY 100 TIMES
 *  NOSYM    - POINT-GROUP SYMMETRY SET TO C1
 *  T=       - A TIME OF 172800.0 SECONDS REQUESTED
 *  DUMP=N   - RESTART FILE WRITTEN EVERY  7200.000 SECONDS
 *  THERMO   - THERMODYNAMIC QUANTITIES TO BE CALCULATED
 *******************************************************************************
oldgeo thermo nosym precise  pm3

   ATOM   CHEMICAL          X               Y               Z
  NUMBER   SYMBOL      (ANGSTROMS)     (ANGSTROMS)     (ANGSTROMS)
 
     1       C         -0.86754298  *  -0.02068052  *   0.43925675  *
     2       C          0.54184376  *   0.58176353  *   0.35087002  *
     3       C         -0.99046513  *  -1.35095262  *  -0.33746740  *
     4       C         -1.94494866  *   0.90477650  *  -0.17092008  *
     5       C          0.65822023  *   1.83833099  *   1.20386509  *
     6       C         -2.16860056  *  -1.17510433  *  -1.23867037  *
     7       C         -2.68993825  *   0.05283943  *  -1.14639932  *
     8       C          1.55715501  *  -0.41233768  *   0.83286905  *
     9       C          3.58534564  *  -1.16256316  *  -0.60821963  *
    10       C          2.57275722  *  -0.78701822  *   0.10789054  *
    11       H         -1.10090524  *  -0.20009522  *   1.51522590  *
    12       H          0.75086984  *   0.84657271  *  -0.71494630  *
    13       H         -0.07890261  *  -1.57584449  *  -0.92440464  *
    14       H         -1.13679992  *  -2.21002271  *   0.34244149  *
    15       H         -2.62245619  *   1.30990893  *   0.60263678  *
    16       H         -1.50761483  *   1.78214728  *  -0.68591679  *
    17       H          0.46645617  *   1.62804495  *   2.26478764  *
    18       H         -0.05883698  *   2.60713148  *   0.88607662  *
    19       H          1.66313122  *   2.27322730  *   1.13104131  *
    20       H         -2.51758612  *  -1.98537442  *  -1.87790212  *
    21       H         -3.54764327  *   0.44008574  *  -1.69529422  *
    22       H          1.42113821  *  -0.81696120  *   1.84365179  *
    23       H          4.53806191  *  -0.64063131  *  -0.58563817  *
    24       H          3.54017036  *  -2.02128986  *  -1.27239918  *
 


          CARTESIAN COORDINATES 

    NO.       ATOM         X         Y         Z

     1         C       -0.8675   -0.0207    0.4393
     2         C        0.5418    0.5818    0.3509
     3         C       -0.9905   -1.3510   -0.3375
     4         C       -1.9449    0.9048   -0.1709
     5         C        0.6582    1.8383    1.2039
     6         C       -2.1686   -1.1751   -1.2387
     7         C       -2.6899    0.0528   -1.1464
     8         C        1.5572   -0.4123    0.8329
     9         C        3.5853   -1.1626   -0.6082
    10         C        2.5728   -0.7870    0.1079
    11         H       -1.1009   -0.2001    1.5152
    12         H        0.7509    0.8466   -0.7149
    13         H       -0.0789   -1.5758   -0.9244
    14         H       -1.1368   -2.2100    0.3424
    15         H       -2.6225    1.3099    0.6026
    16         H       -1.5076    1.7821   -0.6859
    17         H        0.4665    1.6280    2.2648
    18         H       -0.0588    2.6071    0.8861
    19         H        1.6631    2.2732    1.1310
    20         H       -2.5176   -1.9854   -1.8779
    21         H       -3.5476    0.4401   -1.6953
    22         H        1.4211   -0.8170    1.8437
    23         H        4.5381   -0.6406   -0.5856
    24         H        3.5402   -2.0213   -1.2724

  H: (PM3): J. J. P. STEWART, J. COMP. CHEM. 10, 209 (1989).
  C: (PM3): J. J. P. STEWART, J. COMP. CHEM. 10, 209 (1989).

           Empirical Formula: C10 H14  =    24 atoms



      MOLECULAR POINT GROUP   :   C1  


      RHF CALCULATION, NO. OF DOUBLY OCCUPIED LEVELS =   27



          HEAT OF FORMATION =      44.507402 KCALS/MOLE


          INTERNAL COORDINATE DERIVATIVES

   NUMBER  ATOM       BOND         ANGLE      DIHEDRAL

     1       C      0.008078    -0.000187     0.004018
     2       C      0.001627     0.004221    -0.001645
     3       C     -0.000345     0.001136     0.000429
     4       C      0.004222     0.000468    -0.003668
     5       C     -0.000035    -0.000961    -0.000926
     6       C     -0.013776    -0.003890     0.004257
     7       C     -0.012824    -0.006544    -0.000462
     8       C     -0.004595    -0.003115    -0.003667
     9       C     -0.002651    -0.000057     0.001374
    10       C     -0.005353    -0.001040     0.004238
    11       H      0.000413     0.003341     0.000872
    12       H      0.002068    -0.003199     0.001077
    13       H     -0.000858     0.000992     0.000313
    14       H     -0.013593    -0.002257     0.008946
    15       H      0.014367     0.009566    -0.010690
    16       H      0.000072    -0.001412     0.006968
    17       H      0.008687     0.001901    -0.004408
    18       H     -0.000113    -0.000504    -0.000346
    19       H      0.000318     0.002453     0.000256
    20       H     -0.000020    -0.002452    -0.002970
    21       H      0.006609     0.014509    -0.006912
    22       H     -0.011196    -0.008385     0.002738
    23       H      0.003733    -0.000251     0.004076
    24       H      0.015165    -0.004333    -0.003866


          GRADIENT NORM =   0.04850


          TIME FOR SCF CALCULATION =    0.01

          TIME FOR DERIVATIVES     =    0.01

          MOLECULAR WEIGHT =  134.22



          ROTATIONAL CONSTANTS IN CM(-1)

          A =    0.07334278   B =    0.02791431   C =    0.02208407



           PRINCIPAL MOMENTS OF INERTIA IN UNITS OF 10**(-40)*GRAM-CM**2

          A =      381.6705   B =     1002.8109   C =     1267.5550


          ORIENTATION OF MOLECULE IN FORCE CALCULATION

    NO.       ATOM         X         Y         Z

     1          C      -0.8024   -0.6164   -0.1068
     2          C       0.7329   -0.6164   -0.1068
     3          C      -1.3925    0.8118   -0.1068
     4          C      -1.3932   -1.2979    1.1487
     5          C       1.2837   -2.0331   -0.2048
     6          C      -2.3531    0.8426    1.0366
     7          C      -2.3552   -0.3073    1.7192
     8          C       1.2471    0.1725   -1.2749
     9          C       2.8976    2.1624   -1.0113
    10          C       2.0742    1.1700   -1.1396
    11          H      -1.1489   -1.1576   -1.0186
    12          H       1.0901   -0.1538    0.8463
    13          H      -0.6101    1.5853    0.0185
    14          H      -1.9031    1.0438   -1.0592
    15          H      -1.9007   -2.2474    0.8986
    16          H      -0.6178   -1.5523    1.8972
    17          H       0.9641   -2.5298   -1.1309
    18          H       0.9454   -2.6545    0.6353
    19          H       2.3811   -2.0317   -0.1941
    20          H      -2.9546    1.7264    1.2463
    21          H      -2.9590   -0.5451    2.5943
    22          H       0.9053   -0.1299   -2.2728
    23          H       3.9757    2.0274   -1.0210
    24          H       2.5574    3.1867   -0.8867


    FIRST DERIVATIVES WILL BE USED IN THE CALCULATION OF SECOND DERIVATIVES

          ESTIMATED TIME TO COMPLETE CALCULATION =        3.25 SECONDS

    FOR POINT-GROUP C1   THERE ARE   1 UNIQUE SYMMETRY FUNCTIONS.

 STEP:   1 TIME =     0.04 SECS, INTEGRAL =      0.04 TIME LEFT: 172799.95
 STEP:   2 TIME =     0.04 SECS, INTEGRAL =      0.07 TIME LEFT: 172799.92
 STEP:   3 TIME =     0.04 SECS, INTEGRAL =      0.11 TIME LEFT: 172799.88
 STEP:   4 TIME =     0.04 SECS, INTEGRAL =      0.14 TIME LEFT: 172799.85
 STEP:   5 TIME =     0.04 SECS, INTEGRAL =      0.18 TIME LEFT: 172799.81
 STEP:   6 TIME =     0.04 SECS, INTEGRAL =      0.21 TIME LEFT: 172799.78
 STEP:   7 TIME =     0.04 SECS, INTEGRAL =      0.25 TIME LEFT: 172799.74
 STEP:   8 TIME =     0.04 SECS, INTEGRAL =      0.28 TIME LEFT: 172799.70
 STEP:   9 TIME =     0.04 SECS, INTEGRAL =      0.32 TIME LEFT: 172799.67
 STEP:  10 TIME =     0.04 SECS, INTEGRAL =      0.36 TIME LEFT: 172799.63
 STEP:  11 TIME =     0.04 SECS, INTEGRAL =      0.39 TIME LEFT: 172799.60
 STEP:  12 TIME =     0.04 SECS, INTEGRAL =      0.43 TIME LEFT: 172799.56
 STEP:  13 TIME =     0.03 SECS, INTEGRAL =      0.46 TIME LEFT: 172799.53
 STEP:  14 TIME =     0.03 SECS, INTEGRAL =      0.50 TIME LEFT: 172799.49
 STEP:  15 TIME =     0.03 SECS, INTEGRAL =      0.53 TIME LEFT: 172799.46
 STEP:  16 TIME =     0.04 SECS, INTEGRAL =      0.57 TIME LEFT: 172799.42
 STEP:  17 TIME =     0.04 SECS, INTEGRAL =      0.60 TIME LEFT: 172799.39
 STEP:  18 TIME =     0.04 SECS, INTEGRAL =      0.64 TIME LEFT: 172799.35
 STEP:  19 TIME =     0.04 SECS, INTEGRAL =      0.67 TIME LEFT: 172799.32
 STEP:  20 TIME =     0.04 SECS, INTEGRAL =      0.71 TIME LEFT: 172799.28
 STEP:  21 TIME =     0.04 SECS, INTEGRAL =      0.74 TIME LEFT: 172799.24
 STEP:  22 TIME =     0.04 SECS, INTEGRAL =      0.78 TIME LEFT: 172799.21
 STEP:  23 TIME =     0.04 SECS, INTEGRAL =      0.82 TIME LEFT: 172799.17
 STEP:  24 TIME =     0.04 SECS, INTEGRAL =      0.85 TIME LEFT: 172799.14
 STEP:  25 TIME =     0.04 SECS, INTEGRAL =      0.89 TIME LEFT: 172799.10
 STEP:  26 TIME =     0.04 SECS, INTEGRAL =      0.92 TIME LEFT: 172799.06
 STEP:  27 TIME =     0.04 SECS, INTEGRAL =      0.96 TIME LEFT: 172799.03
 STEP:  28 TIME =     0.04 SECS, INTEGRAL =      1.00 TIME LEFT: 172798.99
 STEP:  29 TIME =     0.04 SECS, INTEGRAL =      1.03 TIME LEFT: 172798.95
 STEP:  30 TIME =     0.04 SECS, INTEGRAL =      1.07 TIME LEFT: 172798.92
 STEP:  31 TIME =     0.04 SECS, INTEGRAL =      1.11 TIME LEFT: 172798.88
 STEP:  32 TIME =     0.04 SECS, INTEGRAL =      1.15 TIME LEFT: 172798.84
 STEP:  33 TIME =     0.04 SECS, INTEGRAL =      1.18 TIME LEFT: 172798.81
 STEP:  34 TIME =     0.04 SECS, INTEGRAL =      1.22 TIME LEFT: 172798.77
 STEP:  35 TIME =     0.04 SECS, INTEGRAL =      1.25 TIME LEFT: 172798.73
 STEP:  36 TIME =     0.03 SECS, INTEGRAL =      1.29 TIME LEFT: 172798.70
 STEP:  37 TIME =     0.04 SECS, INTEGRAL =      1.32 TIME LEFT: 172798.66
 STEP:  38 TIME =     0.04 SECS, INTEGRAL =      1.36 TIME LEFT: 172798.63
 STEP:  39 TIME =     0.04 SECS, INTEGRAL =      1.40 TIME LEFT: 172798.59
 STEP:  40 TIME =     0.04 SECS, INTEGRAL =      1.43 TIME LEFT: 172798.56
 STEP:  41 TIME =     0.04 SECS, INTEGRAL =      1.47 TIME LEFT: 172798.52
 STEP:  42 TIME =     0.04 SECS, INTEGRAL =      1.50 TIME LEFT: 172798.48
 STEP:  43 TIME =     0.04 SECS, INTEGRAL =      1.54 TIME LEFT: 172798.45
 STEP:  44 TIME =     0.03 SECS, INTEGRAL =      1.58 TIME LEFT: 172798.41
 STEP:  45 TIME =     0.04 SECS, INTEGRAL =      1.61 TIME LEFT: 172798.38
 STEP:  46 TIME =     0.04 SECS, INTEGRAL =      1.65 TIME LEFT: 172798.34
 STEP:  47 TIME =     0.04 SECS, INTEGRAL =      1.68 TIME LEFT: 172798.31
 STEP:  48 TIME =     0.04 SECS, INTEGRAL =      1.72 TIME LEFT: 172798.27
 STEP:  49 TIME =     0.04 SECS, INTEGRAL =      1.76 TIME LEFT: 172798.23
 STEP:  50 TIME =     0.04 SECS, INTEGRAL =      1.79 TIME LEFT: 172798.20
 STEP:  51 TIME =     0.04 SECS, INTEGRAL =      1.83 TIME LEFT: 172798.16
 STEP:  52 TIME =     0.04 SECS, INTEGRAL =      1.87 TIME LEFT: 172798.12
 STEP:  53 TIME =     0.04 SECS, INTEGRAL =      1.91 TIME LEFT: 172798.08
 STEP:  54 TIME =     0.04 SECS, INTEGRAL =      1.94 TIME LEFT: 172798.05
 STEP:  55 TIME =     0.03 SECS, INTEGRAL =      1.97 TIME LEFT: 172798.01
 STEP:  56 TIME =     0.04 SECS, INTEGRAL =      2.01 TIME LEFT: 172797.98
 STEP:  57 TIME =     0.04 SECS, INTEGRAL =      2.05 TIME LEFT: 172797.94
 STEP:  58 TIME =     0.04 SECS, INTEGRAL =      2.08 TIME LEFT: 172797.91
 STEP:  59 TIME =     0.03 SECS, INTEGRAL =      2.12 TIME LEFT: 172797.87
 STEP:  60 TIME =     0.04 SECS, INTEGRAL =      2.16 TIME LEFT: 172797.83
 STEP:  61 TIME =     0.04 SECS, INTEGRAL =      2.19 TIME LEFT: 172797.80
 STEP:  62 TIME =     0.04 SECS, INTEGRAL =      2.23 TIME LEFT: 172797.76
 STEP:  63 TIME =     0.04 SECS, INTEGRAL =      2.26 TIME LEFT: 172797.72
 STEP:  64 TIME =     0.04 SECS, INTEGRAL =      2.30 TIME LEFT: 172797.69
 STEP:  65 TIME =     0.04 SECS, INTEGRAL =      2.34 TIME LEFT: 172797.65
 STEP:  66 TIME =     0.04 SECS, INTEGRAL =      2.38 TIME LEFT: 172797.61
 STEP:  67 TIME =     0.03 SECS, INTEGRAL =      2.41 TIME LEFT: 172797.58
 STEP:  68 TIME =     0.04 SECS, INTEGRAL =      2.45 TIME LEFT: 172797.54
 STEP:  69 TIME =     0.04 SECS, INTEGRAL =      2.49 TIME LEFT: 172797.50
 STEP:  70 TIME =     0.04 SECS, INTEGRAL =      2.52 TIME LEFT: 172797.46
 STEP:  71 TIME =     0.03 SECS, INTEGRAL =      2.56 TIME LEFT: 172797.43
 STEP:  72 TIME =     0.04 SECS, INTEGRAL =      2.60 TIME LEFT: 172797.39

(To convert to Hartree/Bohr^2, multiply by (10^(-21) x N x a0^2)/(4.184 x 627.51) = 0.0642)


           FORCE MATRIX IN MILLIDYNES/ANGSTROM


                  C  1       C  2       C  3       C  4       C  5       C  6
 ------------------------------------------------------------------------------
     C    1  14.070758
     C    2   3.665571  14.517514
     C    3   3.473682   0.561223  14.623722
     C    4   3.455866   0.557530   0.729332  14.608392
     C    5   0.622641   4.079297   0.049598   0.056865  14.305459
     C    6   0.854127   0.035858   4.771840   1.189455   0.006879  18.413973
     C    7   0.854237   0.034251   1.193524   4.763501   0.003442  10.602544
     C    8   0.665371   4.483108   0.062090   0.048510   0.737142   0.004889
     C    9   0.011729   0.067289   0.001374   0.002504   0.011600   0.001653
     C   10   0.037713   0.886947   0.019575   0.007001   0.036311   0.003530
     H   11   4.280290   0.436018   0.423222   0.423525   0.031027   0.023439
     H   12   0.428603   4.216017   0.018042   0.028164   0.418519   0.001516
     H   13   0.447345   0.061532   4.466729   0.023550   0.002615   0.426124
     H   14   0.436367   0.024909   4.530599   0.031639   0.004179   0.431140
     H   15   0.434943   0.024283   0.031600   4.531348   0.002251   0.039615
     H   16   0.446185   0.056342   0.023837   4.455584   0.020135   0.036764
     H   17   0.022341   0.467870   0.001584   0.002866   4.716193   0.000717
     H   18   0.021207   0.456766   0.001906   0.023843   4.714017   0.000905
     H   19   0.049616   0.453989   0.008427   0.003179   4.759894   0.001252
     H   20   0.042386   0.004040   0.411753   0.113763   0.001218   5.023447
     H   21   0.042280   0.003758   0.113886   0.411662   0.000585   0.450979
     H   22   0.019124   0.443666   0.004800   0.002083   0.014308   0.000669
     H   23   0.008800   0.075604   0.000660   0.001617   0.010302   0.000846
     H   24   0.009355   0.075240   0.000647   0.001660   0.010002   0.001053


                  C  7       C  8       C  9       C 10       H 11       H 12
 ------------------------------------------------------------------------------
     C    7  18.411209
     C    8   0.009286  18.283484
     C    9   0.001361   0.775817  18.155976
     C   10   0.003334  11.499203  11.870383  24.893709
     H   11   0.023037   0.024756   0.000807   0.001743   4.740674
     H   12   0.001481   0.437367   0.004454   0.049756   0.041410   4.691719
     H   13   0.036354   0.021319   0.002378   0.011665   0.028455   0.019250
     H   14   0.039357   0.001973   0.000361   0.001413   0.028918   0.001259
     H   15   0.431500   0.004815   0.000574   0.001230   0.029261   0.001334
     H   16   0.424644   0.002432   0.000452   0.001080   0.028692   0.030004
     H   17   0.000945   0.026634   0.000926   0.001910   0.022106   0.044562
     H   18   0.000853   0.049386   0.002120   0.005287   0.001945   0.028392
     H   19   0.000526   0.025985   0.001058   0.004296   0.001892   0.029382
     H   20   0.450407   0.001192   0.000806   0.001126   0.002351   0.000522
     H   21   5.024013   0.001638   0.000662   0.001071   0.002361   0.000598
     H   22   0.001484   4.739124   0.043172   0.444379   0.013939   0.035649
     H   23   0.000685   0.047206   5.029521   0.478188   0.000245   0.000751
     H   24   0.000686   0.047992   5.028104   0.478918   0.000219   0.000479


                  H 13       H 14       H 15       H 16       H 17       H 18
 ------------------------------------------------------------------------------
     H   13   5.083576
     H   14   0.569989   5.134497
     H   15   0.003506   0.001201   5.136362
     H   16   0.001450   0.003522   0.570529   5.073982
     H   17   0.000478   0.000271   0.000594   0.000543   5.459978
     H   18   0.000483   0.000332   0.002689   0.019874   0.569167   5.450644
     H   19   0.000648   0.000801   0.000406   0.000700   0.571709   0.567642
     H   20   0.013829   0.015627   0.014917   0.015381   0.000172   0.000223
     H   21   0.015264   0.014798   0.015479   0.014519   0.000209   0.000407
     H   22   0.002222   0.001272   0.000475   0.000807   0.011493   0.001790
     H   23   0.000430   0.000152   0.000129   0.000148   0.000180   0.001803
     H   24   0.000687   0.000169   0.000159   0.000199   0.000250   0.001886


                  H 19       H 20       H 21       H 22       H 23       H 24
 ------------------------------------------------------------------------------
     H   19   5.492576
     H   20   0.000286   5.419887
     H   21   0.000182   0.046373   5.421208
     H   22   0.002755   0.000352   0.000341   5.124179
     H   23   0.000606   0.000203   0.000194   0.067887   5.406349
     H   24   0.000440   0.000373   0.000290   0.067054   0.405965   5.405609


          HEAT OF FORMATION =      44.507402 KCALS/MOLE

          ZERO POINT ENERGY     130.876 KCAL/MOL


           NORMAL COORDINATE ANALYSIS (Total motion = 1 Angstrom)


   Root No.       1         2         3         4         5         6         7         8

                 1 A       2 A       3 A       4 A       5 A       6 A       7 A       8 A   

                  43.2      72.3      87.9     168.5     190.9     206.9     310.3     362.6
  
           1   -0.0087    0.0064   -0.0120    0.0000   -0.0007    0.0033   -0.0095    0.0038
           2    0.0057    0.0193   -0.0067    0.0129    0.0076   -0.0149   -0.0012   -0.0027
           3    0.0013   -0.0015   -0.0232   -0.0074   -0.0038    0.0092    0.0103    0.0020
           4   -0.0088    0.0065   -0.0113   -0.0016   -0.0011    0.0021   -0.0041    0.0028
           5    0.0287    0.0030    0.0067    0.0122    0.0058   -0.0073    0.0005    0.0057
           6    0.0038    0.0089    0.0028   -0.0230   -0.0103    0.0037   -0.0023    0.0020
           7   -0.0292    0.0240   -0.0165   -0.0033   -0.0056    0.0348   -0.0188    0.0052
           8   -0.0028    0.0268   -0.0081    0.0119    0.0055   -0.0001   -0.0025   -0.0036
           9    0.0079    0.0369   -0.0201    0.0059    0.0038    0.0097    0.0096   -0.0052
          10   -0.0009   -0.0147   -0.0234    0.0210    0.0137   -0.0211   -0.0283    0.0039
          11   -0.0096   -0.0118   -0.0188    0.0091    0.0055   -0.0057    0.0040   -0.0035
          12   -0.0033   -0.0287   -0.0351    0.0004    0.0027    0.0007    0.0079    0.0006
          13    0.0129   -0.0040    0.0073    0.0047   -0.0053    0.0471    0.0419   -0.0171
          14    0.0362   -0.0023    0.0123    0.0124    0.0030    0.0127    0.0191   -0.0005
          15    0.0132    0.0295    0.0311    0.0213    0.0091   -0.0025   -0.0345    0.0131
          16   -0.0284   -0.0010    0.0353   -0.0072   -0.0054    0.0186   -0.0150    0.0117
          17   -0.0213   -0.0034    0.0107   -0.0039   -0.0038    0.0139    0.0097    0.0002
          18    0.0092    0.0168    0.0226    0.0037    0.0049   -0.0061    0.0143   -0.0011
          19   -0.0128   -0.0214    0.0317    0.0066    0.0053   -0.0155   -0.0225   -0.0024
          20   -0.0249   -0.0243    0.0059   -0.0056   -0.0042    0.0097    0.0098   -0.0048
          21    0.0032   -0.0183    0.0141    0.0008    0.0042   -0.0133    0.0135   -0.0092
          22   -0.0157    0.0148   -0.0004   -0.0034    0.0039   -0.0407    0.0254   -0.0245
          23    0.0268   -0.0161   -0.0022   -0.0165   -0.0087    0.0087   -0.0207    0.0220
          24   -0.0006   -0.0005    0.0015   -0.0441   -0.0180   -0.0060   -0.0060    0.0000
          25    0.0648   -0.0119   -0.0048   -0.0133   -0.0055   -0.0090   -0.0083   -0.0143
          26   -0.0369    0.0101    0.0011   -0.0207   -0.0050   -0.0211    0.0060    0.0138
          27   -0.0241   -0.0321    0.0041    0.0501    0.0125    0.0104    0.0014    0.0038
          28    0.0227    0.0026   -0.0023   -0.0069    0.0012   -0.0317    0.0411    0.0573
          29   -0.0035   -0.0043   -0.0007   -0.0158   -0.0071    0.0008   -0.0338   -0.0438
          30   -0.0118   -0.0144    0.0024   -0.0264   -0.0133   -0.0088   -0.0075   -0.0117
          31    0.0007    0.0075    0.0075   -0.0121   -0.0051    0.0012   -0.0075    0.0058
          32    0.0052    0.0507   -0.0028    0.0150    0.0066   -0.0095   -0.0029   -0.0063
          33   -0.0020   -0.0206   -0.0326   -0.0039   -0.0011    0.0070    0.0109    0.0030
          34   -0.0175    0.0055   -0.0331    0.0032   -0.0022    0.0014   -0.0089    0.0079
          35    0.0400    0.0115    0.0226    0.0404    0.0155   -0.0007   -0.0011    0.0078
          36    0.0015    0.0051    0.0033   -0.0376   -0.0142    0.0010   -0.0002   -0.0010
          37   -0.0403    0.0306   -0.0134   -0.0055   -0.0079    0.0492   -0.0205    0.0044
          38    0.0079    0.0125   -0.0026    0.0121    0.0071   -0.0173    0.0008   -0.0010
          39    0.0104    0.0836   -0.0740    0.0185    0.0081    0.0304   -0.0041   -0.0180
          40   -0.0336    0.0492   -0.0647    0.0003   -0.0066    0.0581   -0.0290   -0.0030
          41   -0.0061    0.0683   -0.0283    0.0221    0.0092    0.0197   -0.0130   -0.0122
          42    0.0095    0.0337    0.0006    0.0066    0.0053    0.0022    0.0125   -0.0032
          43    0.0103   -0.0119   -0.0760    0.0395    0.0262   -0.0320   -0.0434    0.0146
          44   -0.0138   -0.0047    0.0154   -0.0032   -0.0030    0.0018    0.0143   -0.0097
          45   -0.0097   -0.0609   -0.0591    0.0105    0.0103   -0.0053   -0.0010    0.0029
          46    0.0021   -0.0265   -0.0230    0.0309    0.0202   -0.0332   -0.0344    0.0020
          47   -0.0055   -0.0315   -0.0845    0.0307    0.0207   -0.0160   -0.0130    0.0081
          48   -0.0049   -0.0231   -0.0579   -0.0021    0.0016    0.0092    0.0073    0.0069
          49    0.0222   -0.0085    0.0252   -0.0498    0.1717    0.0900    0.0565   -0.0260
          50    0.0264   -0.0135   -0.0054   -0.0430    0.0685    0.0164    0.0308   -0.0037
          51    0.0154    0.0371    0.0346    0.0700   -0.0869   -0.0191   -0.0460    0.0180
          52    0.0208   -0.0071    0.0054    0.0652   -0.1849    0.0431    0.0733   -0.0299
          53    0.0357    0.0121    0.0202    0.0567   -0.0466   -0.0100   -0.0154    0.0139
          54    0.0161    0.0390    0.0364    0.0785   -0.0994   -0.0212   -0.0488    0.0193
          55    0.0128   -0.0040    0.0072    0.0055   -0.0077    0.0470    0.0427   -0.0176
          56    0.0530   -0.0097    0.0266    0.0238   -0.0161    0.0492    0.0638   -0.0207
          57    0.0153    0.0284    0.0450   -0.0489    0.2304    0.0288   -0.0434    0.0145
          58   -0.0391   -0.0002    0.0674   -0.0192   -0.0129    0.0335   -0.0058    0.0209
          59   -0.0300   -0.0064    0.0252   -0.0123   -0.0093    0.0252    0.0160    0.0050
          60    0.0149    0.0317    0.0539    0.0048    0.0062   -0.0109    0.0148    0.0049
          61   -0.0085   -0.0406    0.0602    0.0083    0.0087   -0.0370   -0.0221   -0.0136
          62   -0.0374   -0.0479    0.0161   -0.0160   -0.0104    0.0164    0.0122   -0.0065
          63    0.0027   -0.0379    0.0366   -0.0008    0.0049   -0.0263    0.0145   -0.0174
          64   -0.0504    0.0283    0.0092    0.0064    0.0122   -0.0819    0.0542   -0.1510
          65    0.0486   -0.0396   -0.0097   -0.0341   -0.0192    0.0303   -0.0451    0.1209
          66    0.0046    0.0019    0.0005   -0.0410   -0.0174    0.0018   -0.0085    0.0134
          67    0.0592   -0.0099   -0.0046   -0.0128   -0.0047   -0.0125   -0.0001    0.0003
          68   -0.0801    0.0254    0.0026   -0.0202    0.0001   -0.0467    0.0717    0.1494
          69   -0.0526   -0.0215    0.0151    0.0999    0.0354   -0.0229    0.0595   -0.1160
          70    0.1092   -0.0276   -0.0075   -0.0202   -0.0133    0.0181   -0.0775   -0.1301
          71   -0.0243    0.0080    0.0013   -0.0251   -0.0076   -0.0182   -0.0106   -0.0396
          72   -0.0068   -0.0581   -0.0052    0.0671    0.0124    0.0599   -0.0469    0.1403


   Root No.       9        10        11        12        13        14        15        16

                 9 A      10 A      11 A      12 A      13 A      14 A      15 A      16 A   

                 367.4     380.2     399.4     449.3     579.8     605.0     692.0     756.1
  
           1   -0.0017   -0.0346    0.0092   -0.0065    0.0268    0.0062   -0.0169   -0.0021
           2    0.0095   -0.0149    0.0310   -0.0071    0.0136    0.0042    0.0207    0.0123
           3   -0.0082   -0.0311   -0.0084    0.0019    0.0305    0.0028    0.0336    0.0212
           4   -0.0027   -0.0360    0.0061   -0.0201    0.0119    0.0043   -0.0285    0.0030
           5   -0.0072   -0.0158   -0.0090    0.0328    0.0149   -0.0200   -0.0142   -0.0007
           6    0.0050   -0.0291    0.0262    0.0335   -0.0309   -0.0045   -0.0099   -0.0014
           7    0.0044    0.0091   -0.0236    0.0241    0.0062   -0.0043    0.0039   -0.0136
           8    0.0144    0.0058    0.0247   -0.0015    0.0005    0.0064    0.0409    0.0174
           9    0.0064    0.0054   -0.0116   -0.0080   -0.0006    0.0008   -0.0145   -0.0178
          10    0.0007    0.0165    0.0277    0.0132   -0.0017    0.0046    0.0047   -0.0134
          11    0.0011    0.0071    0.0171   -0.0154   -0.0075    0.0039   -0.0316   -0.0236
          12   -0.0144    0.0062   -0.0182    0.0046    0.0067   -0.0058    0.0284    0.0065
          13    0.0105    0.0127    0.0203   -0.0265   -0.0059    0.0117    0.0015    0.0041
          14   -0.0023    0.0025   -0.0049    0.0417    0.0133   -0.0334   -0.0070   -0.0049
          15   -0.0010    0.0101   -0.0098   -0.0149   -0.0006    0.0078    0.0005    0.0000
          16   -0.0376    0.0088    0.0005    0.0210    0.0036   -0.0043    0.0160   -0.0083
          17   -0.0149    0.0030    0.0074   -0.0091   -0.0029    0.0037   -0.0061   -0.0094
          18   -0.0277    0.0051    0.0113   -0.0159   -0.0050    0.0019   -0.0134   -0.0180
          19    0.0402    0.0011    0.0042    0.0159   -0.0014    0.0029    0.0168   -0.0080
          20    0.0159   -0.0026   -0.0100   -0.0078   -0.0018    0.0005   -0.0092   -0.0111
          21    0.0246   -0.0043   -0.0175   -0.0114   -0.0021   -0.0037   -0.0121   -0.0173
          22   -0.0085   -0.0002   -0.0140   -0.0144   -0.0149   -0.0418    0.0064    0.0009
          23   -0.0030    0.0038   -0.0175   -0.0048    0.0030    0.0388   -0.0015    0.0003
          24    0.0092    0.0048    0.0238    0.0165   -0.0414    0.0113    0.0067   -0.0060
          25   -0.0074    0.0017   -0.0167   -0.0102   -0.0104    0.0078    0.0058    0.0011
          26   -0.0047    0.0057   -0.0195   -0.0127   -0.0125    0.0039    0.0074    0.0016
          27   -0.0026   -0.0127   -0.0051    0.0004   -0.0119    0.0021    0.0014    0.0002
          28    0.0017    0.0086   -0.0165    0.0032   -0.0059    0.0172    0.0038    0.0008
          29   -0.0130   -0.0072   -0.0199   -0.0210   -0.0234   -0.0034    0.0077    0.0007
          30    0.0108    0.0401    0.0204   -0.0023    0.0799   -0.0196   -0.0154    0.0026
          31   -0.0030   -0.0682    0.0203    0.0014    0.0234    0.0033   -0.0684   -0.0064
          32    0.0232   -0.0098    0.0383   -0.0113    0.0079    0.0104    0.0294    0.0127
          33   -0.0156   -0.0189   -0.0175    0.0015    0.0330   -0.0002    0.0483    0.0232
          34   -0.0064   -0.0666    0.0089   -0.0314    0.0520    0.0212   -0.0283    0.0244
          35   -0.0120   -0.0067   -0.0221    0.0354    0.0358   -0.0438   -0.0250   -0.0036
          36    0.0090   -0.0194    0.0310    0.0359   -0.0543    0.0007   -0.0040   -0.0081
          37    0.0039    0.0361   -0.0408    0.0350   -0.0184   -0.0117   -0.0106   -0.0222
          38    0.0023   -0.0260    0.0478   -0.0144    0.0309    0.0149    0.0643    0.0154
          39    0.0930    0.0419   -0.0597    0.0150   -0.0425   -0.0121   -0.0787    0.0625
          40    0.0705    0.0273   -0.0702    0.0483   -0.0139   -0.0146   -0.0304    0.0597
          41    0.0610    0.0609   -0.0117    0.0202   -0.0554   -0.0091   -0.0095    0.0478
          42   -0.0164    0.0099    0.0037   -0.0153   -0.0047    0.0023   -0.0108   -0.0481
          43   -0.0587    0.0588    0.0677    0.0238   -0.0348    0.0034   -0.0270    0.0589
          44    0.0375   -0.0299   -0.0045   -0.0239    0.0236    0.0063   -0.0059   -0.0639
          45   -0.0362    0.0652   -0.0155    0.0161   -0.0502   -0.0133   -0.0136    0.0183
          46    0.0060    0.0453    0.0333    0.0187   -0.0293    0.0011   -0.0101   -0.0229
          47   -0.0702    0.0810    0.0501   -0.0011   -0.0713   -0.0028   -0.0973    0.0470
          48   -0.0452    0.0035   -0.0111    0.0045    0.0111   -0.0043    0.0199    0.0427
          49    0.0171    0.0435    0.0206   -0.0458   -0.0039    0.0216    0.0363    0.0071
          50   -0.0014   -0.0366    0.0161    0.0837   -0.0072   -0.0582   -0.0338   -0.0098
          51   -0.0036    0.0214   -0.0213   -0.0322    0.0101    0.0189    0.0041    0.0018
          52    0.0193    0.0311    0.0403   -0.0159   -0.0308    0.0041    0.0278    0.0033
          53   -0.0111    0.0128   -0.0347    0.0073    0.0462   -0.0138   -0.0136   -0.0018
          54   -0.0041    0.0252   -0.0248   -0.0369    0.0146    0.0205    0.0060    0.0019
          55    0.0107    0.0131    0.0208   -0.0266   -0.0063    0.0114    0.0023    0.0042
          56    0.0123    0.0502    0.0148    0.0374   -0.0077   -0.0353    0.0491   -0.0044
          57   -0.0011    0.0229   -0.0218   -0.0361    0.0157    0.0211    0.0120    0.0024
          58   -0.0958    0.0134    0.0025    0.0183   -0.0077   -0.0104   -0.0480    0.1566
          59   -0.0452    0.0045    0.0018   -0.0106   -0.0078   -0.0011   -0.0467    0.0639
          60   -0.0667    0.0115    0.0409   -0.0180   -0.0164    0.0049   -0.0240    0.1465
          61    0.0967   -0.0075   -0.0005    0.0081   -0.0193    0.0045   -0.0461    0.1571
          62    0.0353   -0.0094   -0.0377    0.0024   -0.0004   -0.0079   -0.0004    0.0964
          63    0.0688   -0.0122   -0.0284   -0.0142   -0.0141   -0.0049   -0.0527    0.1262
          64   -0.0284    0.0269   -0.0355    0.0136    0.0220   -0.0620    0.0235    0.0028
          65    0.0159    0.0319   -0.0118   -0.0568    0.0473    0.0491   -0.0095    0.0040
          66    0.0102   -0.0129    0.0292    0.0224   -0.0650    0.0146    0.0027   -0.0077
          67   -0.0056    0.0034   -0.0172   -0.0083   -0.0100    0.0115    0.0062    0.0012
          68    0.0133    0.0207   -0.0186   -0.0011   -0.0048    0.0205    0.0084    0.0019
          69   -0.0330   -0.0248   -0.0447    0.0998   -0.0172    0.2451   -0.0117   -0.0019
          70   -0.0219   -0.0103   -0.0165   -0.0352   -0.0222   -0.0326    0.0112    0.0023
          71   -0.0115    0.0064   -0.0213   -0.0093   -0.0044    0.0171    0.0048    0.0024
          72    0.0148   -0.0495    0.0087   -0.0960   -0.1127   -0.2106    0.0403   -0.0027


   Root No.      17        18        19        20        21        22        23        24

                17 A      18 A      19 A      20 A      21 A      22 A      23 A      24 A   

                 774.8     867.4     870.5     888.8     943.5     956.9     965.6     986.3
  
           1   -0.0014    0.0017    0.0146   -0.0046   -0.0020    0.0029    0.0088    0.0018
           2   -0.0448   -0.0007    0.0069   -0.0035    0.0002   -0.0014    0.0106    0.0006
           3    0.0259    0.0024    0.0106   -0.0047   -0.0006   -0.0064    0.0146    0.0014
           4   -0.0004   -0.0035   -0.0243    0.0133   -0.0033    0.0120   -0.0039   -0.0002
           5    0.0025   -0.0025   -0.0080    0.0069   -0.0039    0.0006   -0.0013   -0.0007
           6   -0.0001   -0.0006   -0.0099    0.0046    0.0049   -0.0188    0.0020   -0.0011
           7   -0.0351    0.0276    0.0140   -0.0099    0.0034   -0.0021   -0.0168   -0.0014
           8   -0.0156    0.0036   -0.0222    0.0110   -0.0015    0.0036   -0.0114   -0.0003
           9    0.0470    0.0273    0.0120   -0.0098    0.0032    0.0005   -0.0134   -0.0010
          10    0.0346   -0.0231    0.0198   -0.0100    0.0041   -0.0015   -0.0161   -0.0021
          11   -0.0496   -0.0163    0.0247   -0.0091    0.0021   -0.0052   -0.0104   -0.0014
          12   -0.0084   -0.0192   -0.0095    0.0028    0.0017    0.0061   -0.0140   -0.0014
          13   -0.0030   -0.0021   -0.0140    0.0133   -0.0062    0.0056   -0.0196    0.0018
          14    0.0026    0.0026    0.0028   -0.0092   -0.0024    0.0286   -0.0014   -0.0006
          15    0.0004    0.0000   -0.0041   -0.0012    0.0129   -0.0330   -0.0051    0.0061
          16   -0.0518    0.0003   -0.0100    0.0065   -0.0030    0.0004    0.0130    0.0003
          17    0.0881    0.0040   -0.0026    0.0002   -0.0006    0.0006    0.0073    0.0001
          18    0.0141   -0.0003   -0.0039    0.0029   -0.0020    0.0004    0.0099    0.0001
          19    0.0527   -0.0029   -0.0093    0.0053   -0.0023   -0.0010    0.0132    0.0020
          20    0.0297    0.0014   -0.0023    0.0012   -0.0007   -0.0002    0.0064    0.0012
          21   -0.0840   -0.0046   -0.0037    0.0043   -0.0017   -0.0024    0.0104    0.0022
          22    0.0020   -0.0027   -0.0139   -0.0309    0.0235    0.0196    0.0032   -0.0009
          23   -0.0010    0.0023    0.0106    0.0254   -0.0195   -0.0139   -0.0028    0.0018
          24   -0.0036   -0.0010    0.0143   -0.0021   -0.0138    0.0369   -0.0034   -0.0004
          25    0.0015    0.0019    0.0064    0.0182    0.0371    0.0007    0.0026   -0.0024
          26    0.0017   -0.0003   -0.0049   -0.0158   -0.0246   -0.0192   -0.0001    0.0063
          27    0.0002   -0.0003   -0.0015   -0.0010   -0.0020   -0.0061    0.0000   -0.0790
          28    0.0012    0.0002   -0.0007   -0.0068   -0.0355   -0.0165   -0.0018   -0.0009
          29    0.0008    0.0006    0.0015    0.0047    0.0314    0.0060    0.0023   -0.0048
          30    0.0012   -0.0004   -0.0070    0.0042    0.0047   -0.0044    0.0003    0.0255
          31   -0.0023    0.0002    0.0019    0.0170   -0.0164   -0.0072    0.0721    0.0061
          32   -0.0337    0.0543    0.0022   -0.0067    0.0043   -0.0048    0.0028    0.0051
          33    0.0197   -0.0301    0.0153   -0.0095    0.0022   -0.0001   -0.0055   -0.0028
          34    0.0003   -0.0022   -0.0233    0.0292   -0.0224    0.0168    0.0591   -0.0006
          35    0.0145   -0.0002   -0.0329    0.0028    0.0282   -0.0635   -0.0381    0.0178
          36   -0.0063   -0.0020    0.0037   -0.0004   -0.0041    0.0127   -0.0026   -0.0098
          37   -0.0087    0.0024   -0.0094    0.0037    0.0021   -0.0008   -0.0131   -0.0072
          38   -0.0461    0.0473    0.0036   -0.0062    0.0018    0.0022   -0.0264    0.0041
          39    0.0561   -0.1114   -0.0080    0.0179   -0.0108   -0.0007    0.0701    0.0084
          40   -0.0016   -0.0706    0.0193   -0.0003   -0.0051   -0.0154    0.0585    0.0085
          41   -0.0377   -0.1037   -0.0813    0.0541   -0.0126    0.0134    0.0231   -0.0023
          42    0.0267    0.0503   -0.0056   -0.0038    0.0046    0.0099   -0.0435   -0.0067
          43    0.0005    0.0732    0.0047   -0.0037   -0.0057   -0.0086    0.0621    0.0052
          44   -0.0430   -0.0817    0.0517   -0.0219    0.0093   -0.0024   -0.0541   -0.0061
          45    0.0244    0.0464   -0.0856    0.0412   -0.0076    0.0094    0.0005    0.0025
          46    0.0103   -0.0051   -0.0098    0.0053    0.0043   -0.0128   -0.0140    0.0001
          47   -0.0701    0.1147   -0.0350    0.0211   -0.0144   -0.0075    0.0697    0.0079
          48    0.0124    0.0108   -0.0009   -0.0017   -0.0047    0.0172    0.0134   -0.0003
          49   -0.0107    0.0019    0.0408   -0.0167   -0.0116    0.0217    0.0596   -0.0150
          50    0.0086   -0.0006   -0.0514   -0.0040    0.0600   -0.1164   -0.0651    0.0328
          51   -0.0005    0.0005    0.0078    0.0057   -0.0202    0.0433    0.0041   -0.0070
          52   -0.0095    0.0006    0.0180   -0.0236    0.0403   -0.1031    0.0369    0.0064
          53    0.0036    0.0027    0.0102    0.0146   -0.0796    0.2181   -0.0073   -0.0252
          54   -0.0011    0.0010    0.0144    0.0029   -0.0282    0.0691    0.0125   -0.0111
          55   -0.0034   -0.0021   -0.0132    0.0124   -0.0053    0.0037   -0.0175    0.0018
          56   -0.0108    0.0113    0.0868   -0.0783    0.0383   -0.0472    0.1224   -0.0115
          57   -0.0008    0.0014    0.0196   -0.0006   -0.0230    0.0533    0.0193   -0.0111
          58   -0.0628   -0.0922    0.0646   -0.0289    0.0125   -0.0088   -0.0409    0.0016
          59    0.0706   -0.0371    0.0422   -0.0220    0.0083   -0.0060   -0.0167    0.0009
          60    0.0594   -0.0922    0.0187   -0.0040    0.0047    0.0026   -0.0438    0.0005
          61    0.0597    0.1076    0.0433   -0.0323    0.0077    0.0030   -0.0446   -0.0099
          62   -0.0193    0.0609   -0.0169    0.0006    0.0017    0.0176   -0.0201   -0.0024
          63   -0.0931    0.0876    0.0281   -0.0215    0.0058    0.0054   -0.0369   -0.0071
          64    0.0198    0.0191    0.0925    0.1648   -0.0916   -0.0641   -0.0096    0.0403
          65   -0.0126   -0.0104   -0.0706   -0.1425    0.0873    0.0244    0.0119    0.0444
          66   -0.0060   -0.0047    0.0019   -0.0180   -0.0066    0.0538   -0.0035   -0.0265
          67    0.0018    0.0029    0.0108    0.0309    0.0598    0.0042    0.0040   -0.0058
          68    0.0042    0.0085    0.0366    0.1046    0.1797    0.0219    0.0106   -0.0476
          69   -0.0133   -0.0036   -0.0162   -0.0420    0.0377    0.0380    0.0029    0.3180
          70    0.0024   -0.0051   -0.0317   -0.0928   -0.1547   -0.0695   -0.0051   -0.0094
          71    0.0007   -0.0032   -0.0219   -0.0549   -0.0798   -0.0444   -0.0020   -0.0449
          72    0.0113    0.0066    0.0398    0.0345   -0.0372    0.0085   -0.0027    0.3209


   Root No.      25        26        27        28        29        30        31        32

                25 A      26 A      27 A      28 A      29 A      30 A      31 A      32 A   

                 994.0    1013.4    1018.1    1053.0    1075.4    1084.1    1100.3    1109.0
  
           1    0.0009    0.0095    0.0144    0.0292   -0.0003   -0.0005   -0.0002    0.0001
           2    0.0093    0.0071   -0.0197   -0.0120    0.0048    0.0042   -0.0070   -0.0078
           3   -0.0080   -0.0232   -0.0149   -0.0205   -0.0013    0.0069   -0.0105    0.0117
           4    0.0008    0.0050    0.0070   -0.0091   -0.0009    0.0038    0.0000   -0.0107
           5   -0.0003    0.0042   -0.0002   -0.0045    0.0047   -0.0111    0.0048    0.0248
           6   -0.0009    0.0026    0.0063   -0.0103   -0.0023   -0.0101    0.0015    0.0059
           7    0.0087   -0.0160    0.0121   -0.0039   -0.0056   -0.0004    0.0114    0.0029
           8   -0.0053   -0.0092    0.0234    0.0072   -0.0027   -0.0018    0.0097    0.0155
           9    0.0206    0.0134    0.0009    0.0038   -0.0028   -0.0055   -0.0081    0.0054
          10   -0.0081    0.0192   -0.0086   -0.0051    0.0057   -0.0014    0.0102   -0.0012
          11   -0.0211   -0.0176    0.0091    0.0010    0.0002   -0.0025   -0.0118   -0.0020
          12   -0.0020    0.0239    0.0093    0.0093    0.0035    0.0002    0.0033   -0.0113
          13    0.0004   -0.0101   -0.0208    0.0014    0.0003   -0.0019   -0.0016    0.0033
          14    0.0005   -0.0053    0.0009   -0.0003   -0.0048    0.0121   -0.0044   -0.0259
          15   -0.0011    0.0002   -0.0029    0.0034   -0.0018    0.0126   -0.0032   -0.0150
          16   -0.0222    0.0141   -0.0134    0.0101    0.0219   -0.0056   -0.0170   -0.0029
          17   -0.0130    0.0001   -0.0087   -0.0027    0.0095    0.0017    0.0099   -0.0023
          18   -0.0282   -0.0070   -0.0039    0.0032    0.0180    0.0006    0.0126   -0.0065
          19    0.0213   -0.0202    0.0059    0.0109   -0.0230   -0.0018   -0.0162   -0.0021
          20    0.0179    0.0027   -0.0061    0.0030   -0.0112   -0.0001    0.0071    0.0026
          21    0.0235   -0.0093   -0.0096   -0.0020   -0.0164    0.0016    0.0156    0.0079
          22   -0.0001   -0.0026   -0.0020    0.0016    0.0020    0.0094    0.0002    0.0058
          23    0.0007    0.0038    0.0018    0.0038    0.0004    0.0119    0.0006   -0.0008
          24    0.0026   -0.0012   -0.0061    0.0090    0.0078    0.0292    0.0001    0.0094
          25   -0.0010   -0.0020    0.0003   -0.0047   -0.0022   -0.0174   -0.0005   -0.0035
          26   -0.0013   -0.0011    0.0011   -0.0060   -0.0029   -0.0215   -0.0006   -0.0049
          27    0.0015   -0.0014   -0.0019    0.0024    0.0006    0.0049   -0.0002    0.0004
          28   -0.0002    0.0007    0.0009   -0.0012   -0.0007   -0.0025   -0.0001   -0.0017
          29   -0.0004   -0.0017   -0.0007   -0.0007   -0.0001   -0.0021   -0.0001    0.0008
          30   -0.0012    0.0012    0.0025   -0.0066   -0.0022   -0.0214    0.0005   -0.0029
          31    0.0044    0.0545    0.0856    0.0430    0.0068    0.0159    0.0581    0.0724
          32    0.1054    0.0497   -0.0632   -0.0140    0.0179    0.0194   -0.0255   -0.1314
          33   -0.0663   -0.0647   -0.0149   -0.0257   -0.0117   -0.0077   -0.0230    0.0583
          34    0.0015    0.0147    0.0412   -0.1232    0.0033    0.0716   -0.0244   -0.0631
          35    0.0001   -0.0168   -0.0260    0.0334    0.0341   -0.0297    0.0235    0.1485
          36   -0.0013    0.0091    0.0064    0.0135   -0.0179   -0.0249    0.0014   -0.0344
          37   -0.0623   -0.0061    0.0229   -0.1065   -0.1011    0.0516    0.0557   -0.0100
          38    0.0666   -0.0236    0.0195    0.0960    0.0797   -0.0486   -0.0227    0.0300
          39    0.0032    0.0414   -0.0519    0.0787    0.0762   -0.0331   -0.0738    0.0002
          40   -0.0071   -0.1071   -0.0470    0.0155    0.1038   -0.0068    0.0826   -0.0443
          41   -0.0884    0.0902    0.0246   -0.0345   -0.0965    0.0303   -0.0505    0.0367
          42    0.0067    0.0869    0.0332   -0.0155   -0.0844    0.0054   -0.0617    0.0367
          43   -0.0042    0.0006   -0.1169    0.0077   -0.1037   -0.0034    0.0891    0.0327
          44   -0.0436    0.0038    0.0381    0.0064    0.0257   -0.0052   -0.0335   -0.0205
          45    0.0838   -0.0193    0.1213   -0.0320    0.1289    0.0140   -0.0782   -0.0140
          46    0.0622    0.0180   -0.0010   -0.1138    0.1122    0.0217    0.0548    0.0361
          47    0.0238   -0.0796    0.0166    0.0270   -0.0312   -0.0020   -0.0521    0.0018
          48   -0.0571    0.0021    0.0032    0.1279   -0.1158   -0.0229   -0.0550   -0.0468
          49    0.0018    0.0270    0.0431   -0.0213    0.0066   -0.0245    0.0090    0.0373
          50   -0.0047   -0.0245   -0.0429    0.0290   -0.0121    0.0650   -0.0197   -0.0838
          51    0.0015   -0.0014    0.0001   -0.0060    0.0001   -0.0085    0.0013    0.0046
          52   -0.0021    0.0271    0.0310   -0.0048    0.0041    0.0055    0.0027    0.0083
          53    0.0063   -0.0249   -0.0128   -0.0121   -0.0046   -0.0195   -0.0008   -0.0028
          54    0.0025    0.0001    0.0070   -0.0091    0.0001   -0.0089    0.0017    0.0046
          55    0.0003   -0.0090   -0.0192    0.0002    0.0004   -0.0015   -0.0016    0.0030
          56    0.0002    0.0600    0.1082   -0.0157   -0.0018    0.0082    0.0030   -0.0185
          57    0.0031    0.0051    0.0118   -0.0131    0.0023   -0.0118    0.0027    0.0076
          58    0.1419    0.0225   -0.0153   -0.0326   -0.0390   -0.0025   -0.0762    0.0472
          59    0.0820    0.0271   -0.0397   -0.0396   -0.0164    0.0016   -0.0584    0.0460
          60    0.0450   -0.0890    0.1185    0.0356   -0.0475    0.0100    0.1336   -0.0615
          61   -0.1402   -0.0155    0.0224   -0.0250    0.0409    0.0051   -0.0772    0.0022
          62    0.0091    0.1557   -0.0267    0.0395    0.0291   -0.0148    0.1434   -0.0282
          63   -0.0910    0.0341   -0.0026   -0.0169    0.0388    0.0027    0.0112    0.0023
          64    0.0025    0.0069    0.0012    0.0359    0.0104    0.1815   -0.0036    0.0216
          65    0.0019   -0.0059   -0.0079    0.0443    0.0156    0.2164   -0.0010    0.0509
          66    0.0012   -0.0015   -0.0042   -0.0146    0.0007   -0.0872    0.0019   -0.0100
          67   -0.0013   -0.0029    0.0002   -0.0069   -0.0034   -0.0278   -0.0009   -0.0060
          68   -0.0022   -0.0077   -0.0006   -0.0164   -0.0088   -0.0745   -0.0027   -0.0173
          69   -0.0060    0.0033    0.0067   -0.0114   -0.0032   -0.0274    0.0000   -0.0053
          70   -0.0022   -0.0017    0.0029   -0.0158   -0.0090   -0.0685   -0.0024   -0.0190
          71   -0.0009   -0.0020    0.0011   -0.0091   -0.0053   -0.0386   -0.0014   -0.0108
          72   -0.0064    0.0041    0.0062   -0.0100   -0.0025   -0.0245    0.0002   -0.0008


   Root No.      33        34        35        36        37        38        39        40

                33 A      34 A      35 A      36 A      37 A      38 A      39 A      40 A   

                1117.8    1130.8    1155.8    1169.8    1193.6    1213.0    1239.0    1252.9
  
           1   -0.0007    0.0092    0.0067    0.0163   -0.0281   -0.0237    0.0073    0.0073
           2   -0.0134   -0.0195   -0.0028    0.0013   -0.0256    0.0279    0.0191    0.0408
           3    0.0101   -0.0186   -0.0162    0.0222   -0.0084   -0.0180   -0.0136   -0.0259
           4    0.0068    0.0108    0.0228   -0.0297   -0.0105   -0.0215    0.0040    0.0016
           5   -0.0135   -0.0168    0.0058   -0.0304   -0.0015    0.0268   -0.0066    0.0027
           6   -0.0103   -0.0064   -0.0273   -0.0303    0.0260   -0.0157    0.0040   -0.0020
           7   -0.0049    0.0041    0.0024   -0.0048    0.0027    0.0060   -0.0069    0.0203
           8    0.0048    0.0310   -0.0007    0.0027    0.0095   -0.0043    0.0051   -0.0279
           9    0.0117   -0.0092   -0.0066   -0.0048    0.0049    0.0139    0.0055   -0.0067
          10   -0.0020    0.0064   -0.0029   -0.0007    0.0082   -0.0025    0.0078   -0.0196
          11    0.0119   -0.0204   -0.0095    0.0005    0.0092   -0.0025   -0.0071   -0.0109
          12   -0.0245    0.0067    0.0081   -0.0015    0.0080    0.0106   -0.0104    0.0240
          13   -0.0051   -0.0078   -0.0113    0.0078    0.0029    0.0107   -0.0006    0.0016
          14    0.0144    0.0175   -0.0070    0.0161    0.0007   -0.0070    0.0012   -0.0007
          15    0.0095    0.0097    0.0042    0.0088   -0.0080    0.0104   -0.0024    0.0001
          16    0.0123   -0.0143   -0.0069    0.0010    0.0059   -0.0019   -0.0123   -0.0009
          17   -0.0112    0.0127    0.0051   -0.0007   -0.0020   -0.0023   -0.0043    0.0118
          18   -0.0098    0.0110    0.0049   -0.0016   -0.0043    0.0010    0.0163   -0.0062
          19    0.0053   -0.0185   -0.0022   -0.0026   -0.0004    0.0110    0.0084   -0.0021
          20    0.0018    0.0050    0.0027    0.0003    0.0006   -0.0066   -0.0145    0.0128
          21   -0.0029    0.0204    0.0050    0.0005   -0.0007   -0.0077   -0.0002   -0.0043
          22   -0.0014   -0.0027    0.0011   -0.0073   -0.0073    0.0109   -0.0098   -0.0092
          23   -0.0011    0.0023    0.0066   -0.0127   -0.0147    0.0056   -0.0092   -0.0091
          24    0.0082   -0.0042    0.0350    0.0184   -0.0018    0.0052    0.0053    0.0086
          25    0.0007    0.0006   -0.0048    0.0062    0.0048   -0.0021   -0.0006   -0.0032
          26    0.0010    0.0010   -0.0056    0.0073    0.0055   -0.0028   -0.0006   -0.0039
          27    0.0005   -0.0002   -0.0002    0.0019    0.0011   -0.0006    0.0004    0.0000
          28    0.0007    0.0008    0.0014   -0.0012   -0.0028    0.0017   -0.0042   -0.0057
          29   -0.0002   -0.0008   -0.0002   -0.0007   -0.0020    0.0035   -0.0055   -0.0070
          30   -0.0010    0.0009    0.0005   -0.0029   -0.0025    0.0023   -0.0029   -0.0030
          31   -0.0799    0.0206   -0.1055    0.1855    0.0260    0.1075   -0.0291   -0.0241
          32   -0.1233   -0.0822    0.0442    0.0180    0.0372   -0.1048   -0.0576   -0.0726
          33    0.1049    0.0134   -0.0018   -0.0533   -0.0682    0.0090    0.0461    0.0535
          34    0.0866    0.0154    0.0856    0.0038    0.1763    0.1103   -0.0037    0.0026
          35   -0.0339   -0.0965    0.1631    0.0591    0.0496   -0.0865    0.0336    0.0032
          36   -0.0298    0.0301   -0.1277   -0.0873   -0.0694   -0.0128   -0.0118   -0.0020
          37   -0.0614   -0.0404    0.0080    0.0279   -0.0486    0.0111    0.0510   -0.0301
          38    0.0502    0.0773   -0.0029   -0.0291    0.0572   -0.0067   -0.0410    0.0109
          39    0.0593   -0.0158   -0.0218   -0.0033    0.0162   -0.0042   -0.0522    0.0558
          40   -0.0550    0.0265    0.0166   -0.0206    0.0088    0.0250    0.0538   -0.0546
          41    0.0032    0.0022    0.0062    0.0475   -0.0368   -0.0719   -0.0225   -0.0031
          42    0.0404   -0.0298   -0.0141    0.0155   -0.0100   -0.0119   -0.0350    0.0413
          43    0.0204    0.0569    0.0025   -0.0126    0.0230   -0.0131   -0.0573    0.0514
          44    0.0002   -0.0430   -0.0083    0.0020    0.0239    0.0083    0.0114   -0.0458
          45   -0.0269   -0.0216   -0.0094    0.0224   -0.0772   -0.0062    0.0548    0.0032
          46    0.0367    0.0142   -0.0379    0.0347   -0.0323   -0.0389   -0.0494    0.0309
          47    0.0272   -0.0559   -0.0068    0.0117   -0.0115    0.0039    0.0226   -0.0477
          48   -0.0598   -0.0104    0.0427   -0.0329    0.0407    0.0477    0.0564   -0.0382
          49   -0.0187   -0.0210    0.0154   -0.0501    0.0145    0.0006   -0.0008    0.0007
          50    0.0526    0.0509    0.0133    0.0833   -0.0276    0.0125    0.0022    0.0023
          51   -0.0069   -0.0042   -0.0160   -0.0101    0.0041    0.0007   -0.0023   -0.0012
          52    0.0017   -0.0022    0.0332   -0.0300   -0.0105    0.0192   -0.0070    0.0008
          53   -0.0084   -0.0021   -0.0465    0.0142    0.0306   -0.0520    0.0151   -0.0007
          54   -0.0054   -0.0028   -0.0111   -0.0093    0.0095   -0.0188    0.0043   -0.0006
          55   -0.0048   -0.0078   -0.0103    0.0059    0.0034    0.0126   -0.0010    0.0018
          56    0.0220    0.0301    0.0681   -0.0405   -0.0147   -0.0634    0.0118   -0.0031
          57   -0.0070   -0.0058   -0.0083   -0.0210    0.0069   -0.0186    0.0003   -0.0024
          58   -0.0075    0.0467   -0.0063    0.0007    0.0038    0.0144    0.0357   -0.0441
          59   -0.0348    0.0851    0.0067   -0.0013   -0.0046    0.0131    0.0498   -0.0369
          60    0.0303   -0.1045    0.0023    0.0006   -0.0005   -0.0197   -0.0713    0.0744
          61   -0.0592    0.0240    0.0094    0.0035    0.0106    0.0007   -0.0401    0.0392
          62    0.1271   -0.0920   -0.0362   -0.0067   -0.0169    0.0156    0.0885   -0.0805
          63   -0.0159    0.0260    0.0037    0.0029    0.0020   -0.0093   -0.0058   -0.0005
          64   -0.0042   -0.0045   -0.0421   -0.0393    0.0372   -0.0425    0.0301    0.0275
          65   -0.0225   -0.0235   -0.0792   -0.0484    0.0583   -0.0391    0.0340    0.0324
          66    0.0156    0.0035    0.0758    0.0379   -0.0382    0.0365   -0.0211   -0.0162
          67    0.0013    0.0011   -0.0106    0.0151    0.0158   -0.0119    0.0138    0.0143
          68    0.0038    0.0034   -0.0389    0.0582    0.0705   -0.0604    0.0878    0.1056
          69    0.0011    0.0020   -0.0013    0.0064    0.0074   -0.0089    0.0114    0.0135
          70    0.0047    0.0049   -0.0346    0.0542    0.0658   -0.0588    0.0846    0.1019
          71    0.0026    0.0027   -0.0169    0.0257    0.0284   -0.0241    0.0307    0.0344
          72   -0.0004   -0.0011   -0.0016    0.0034    0.0042   -0.0005    0.0032    0.0043


   Root No.      41        42        43        44        45        46        47        48

                41 A      42 A      43 A      44 A      45 A      46 A      47 A      48 A   

                1305.0    1325.1    1371.1    1383.6    1400.3    1403.5    1404.5    1409.5
  
           1    0.0257   -0.0279    0.0017    0.0550    0.0131    0.0007    0.0088    0.0083
           2   -0.0248   -0.0121   -0.0056   -0.0110   -0.0042    0.0001   -0.0015   -0.0014
           3    0.0117    0.0088    0.0024   -0.0228   -0.0051    0.0003   -0.0031   -0.0023
           4   -0.0246    0.0435    0.0005   -0.0308   -0.0176    0.0007   -0.0102   -0.0056
           5    0.0510    0.0159    0.0034   -0.0007    0.0232   -0.0006    0.0094    0.0020
           6   -0.0217   -0.0288   -0.0028    0.0113    0.0007    0.0016    0.0004    0.0025
           7    0.0026   -0.0216    0.0213   -0.0337   -0.0118    0.0120    0.0007   -0.0027
           8    0.0016    0.0176   -0.0233    0.0229   -0.0032    0.0166    0.0088    0.0033
           9   -0.0098    0.0225   -0.0139    0.0216    0.0156   -0.0237   -0.0059    0.0002
          10    0.0143   -0.0142   -0.0261   -0.0341   -0.0039    0.0109    0.0042   -0.0002
          11   -0.0065    0.0124    0.0044    0.0117   -0.0012   -0.0282   -0.0177   -0.0059
          12   -0.0201    0.0154    0.0305    0.0288    0.0039    0.0047    0.0052    0.0032
          13    0.0035   -0.0086   -0.0016    0.0009    0.0314    0.0080   -0.0032   -0.0220
          14   -0.0058   -0.0028    0.0035    0.0132   -0.0491    0.0063   -0.0250   -0.0142
          15    0.0070    0.0058    0.0006   -0.0024    0.0067    0.0074   -0.0187    0.0229
          16   -0.0022    0.0163   -0.0256    0.0105    0.0072   -0.0076   -0.0008    0.0009
          17    0.0021   -0.0085    0.0038   -0.0073   -0.0016    0.0058    0.0025    0.0006
          18    0.0016   -0.0154    0.0296   -0.0081   -0.0078    0.0057   -0.0006   -0.0013
          19   -0.0134    0.0087    0.0276    0.0111   -0.0016   -0.0066   -0.0047   -0.0016
          20    0.0081   -0.0037   -0.0251   -0.0047    0.0043    0.0013    0.0031    0.0014
          21    0.0123   -0.0087   -0.0194   -0.0102   -0.0006    0.0070    0.0039    0.0009
          22    0.0060    0.0028    0.0015   -0.0030    0.0029   -0.0002    0.0013   -0.0017
          23   -0.0046    0.0054    0.0011   -0.0059   -0.0002    0.0001    0.0000   -0.0018
          24    0.0144    0.0150    0.0007   -0.0032   -0.0005   -0.0004   -0.0006   -0.0013
          25   -0.0105   -0.0148   -0.0018    0.0064   -0.0016    0.0001   -0.0006    0.0020
          26   -0.0128   -0.0178   -0.0022    0.0077   -0.0018    0.0001   -0.0007    0.0025
          27   -0.0013   -0.0021   -0.0003    0.0010   -0.0003    0.0000   -0.0001    0.0003
          28   -0.0065   -0.0052   -0.0004    0.0007   -0.0005    0.0000   -0.0003    0.0002
          29   -0.0055   -0.0073   -0.0004    0.0016    0.0001    0.0000    0.0001    0.0003
          30   -0.0018   -0.0012    0.0000   -0.0003    0.0003    0.0000    0.0001    0.0000
          31   -0.0582    0.0560   -0.0021   -0.0805   -0.0199   -0.0113   -0.0127   -0.0185
          32    0.0579    0.0074    0.0204    0.0091   -0.0030    0.0030   -0.0026    0.0042
          33   -0.0061   -0.0331   -0.0114    0.0173    0.0063    0.0034    0.0054    0.0052
          34    0.0422   -0.0796   -0.0051    0.0420    0.0316   -0.0042    0.0115   -0.0027
          35   -0.0993   -0.0300   -0.0141    0.0016   -0.0324    0.0026   -0.0152   -0.0071
          36    0.0264    0.0387    0.0078   -0.0153    0.0098    0.0032    0.0044    0.0065
          37   -0.0116    0.0332   -0.0761    0.0730   -0.0092    0.0461    0.0247    0.0105
          38    0.0197   -0.0353    0.0974   -0.0818    0.0141   -0.0568   -0.0289   -0.0124
          39   -0.0188   -0.0054   -0.0827   -0.0117   -0.0625    0.1233    0.0428    0.0075
          40   -0.0034    0.0271    0.0387    0.0296    0.0487   -0.0912   -0.0300   -0.0041
          41    0.0578   -0.0661    0.1367   -0.0576    0.0427   -0.1059   -0.0433   -0.0112
          42    0.0051   -0.0224    0.0055   -0.0288   -0.0111    0.0141    0.0026   -0.0015
          43   -0.0228    0.0193   -0.0279    0.0448    0.0002   -0.0902   -0.0539   -0.0165
          44   -0.0023    0.0192    0.0562   -0.0114    0.0026    0.0635    0.0391    0.0129
          45    0.0381   -0.0705   -0.1258   -0.0409   -0.0140   -0.0911   -0.0614   -0.0236
          46   -0.0151    0.0304    0.0820    0.0592    0.0176    0.0496    0.0367    0.0200
          47    0.0060    0.0235    0.1125   -0.0006    0.0105    0.1368    0.0889    0.0313
          48    0.0149   -0.0297   -0.0559   -0.0717   -0.0150    0.0047   -0.0026   -0.0083
          49    0.0230    0.0105    0.0063    0.0035   -0.1022   -0.0110   -0.0613    0.2886
          50   -0.0370    0.0091   -0.0135   -0.0532    0.0830   -0.0678    0.1416    0.0973
          51    0.0135   -0.0075    0.0058    0.0282   -0.0117    0.0440   -0.0648   -0.1496
          52    0.0404    0.0236    0.0106    0.0125   -0.1974   -0.0969    0.1457   -0.0026
          53   -0.0786   -0.0316   -0.0163   -0.0374    0.0938   -0.0392    0.0841    0.1363
          54   -0.0281   -0.0043   -0.0074   -0.0278    0.0024   -0.0683    0.1219    0.1134
          55    0.0068   -0.0073   -0.0004    0.0025    0.0122    0.0031   -0.0020   -0.0040
          56   -0.0730    0.0356   -0.0153   -0.0621    0.2073    0.0363   -0.0048   -0.0808
          57   -0.0082   -0.0066    0.0013    0.0103   -0.0677   -0.0694    0.1751   -0.2465
[...]
 TRAVEL      0.1069        C  5 --  H 17          +16.2% ( 47.9%)     0.5%
 RED. MASS   0.7729        C  2 --  C  5          +15.3% ( 46.5%)    93.4%
 EFF. MASS   4.2150

 VIBRATION   46   46A       ATOM PAIR        ENERGY CONTRIBUTION    RADIAL
 FREQ.      1403.53        C  4 --  H 16          +15.0% ( 40.6%)     5.1%
 T-DIPOLE    0.0826        C  3 --  H 13          +15.0% ( 40.6%)     5.2%
 TRAVEL      0.1260        C  4 --  H 15          +14.4% ( 39.8%)     5.7%
 RED. MASS   0.2745        C  3 --  H 14          +14.3% ( 39.7%)     5.8%
 EFF. MASS   3.0282

 VIBRATION   47   47A       ATOM PAIR        ENERGY CONTRIBUTION    RADIAL
 FREQ.      1404.53        C  5 --  H 18          +25.9% ( 49.7%)     0.0%
 T-DIPOLE    0.0476        C  5 --  H 19          +19.6% ( 43.2%)     0.2%
 TRAVEL      0.1415        C  5 --  H 17          +17.7% ( 41.1%)    14.3%
 RED. MASS   0.2650        C  2 --  C  5           +7.0% ( 25.8%)    80.2%
 EFF. MASS   2.3969

 VIBRATION   48   48A       ATOM PAIR        ENERGY CONTRIBUTION    RADIAL
 FREQ.      1409.55        C  5 --  H 17          +48.1% ( 60.7%)     0.2%
 T-DIPOLE    0.0611        C  5 --  H 19          +28.4% ( 46.6%)     4.2%
 TRAVEL      0.1708        C  5 --  H 18          +13.7% ( 32.4%)    25.0%
 RED. MASS   0.3906        C  2 --  C  5           +4.9% ( 19.3%)     6.4%
 EFF. MASS   1.6389

 VIBRATION   49   49A       ATOM PAIR        ENERGY CONTRIBUTION    RADIAL
 FREQ.      1412.08        C  3 --  C  6          +12.8% ( 47.3%)    94.1%
 T-DIPOLE    0.0352        C  4 --  C  7          +11.9% ( 45.6%)    94.0%
 TRAVEL      0.0866        C  3 --  H 13           +9.7% ( 41.1%)     6.1%
 RED. MASS   0.6604        C  3 --  H 14           +9.4% ( 40.6%)     6.7%
 EFF. MASS   6.3615

 VIBRATION   50   50A       ATOM PAIR        ENERGY CONTRIBUTION    RADIAL
 FREQ.      1519.58        C  2 --  C  8          +22.8% ( 76.7%)    75.5%
 T-DIPOLE    0.0517        C  8 --  H 22          +17.8% ( 67.9%)     0.7%
 TRAVEL      0.0637        C  8 --  C 10          +14.1% ( 60.5%)    82.7%
 RED. MASS   3.7592        C  9 --  C 10          +13.7% ( 59.6%)    99.9%
 EFF. MASS  10.9342        C  9 --  H 23          +11.2% ( 53.8%)     9.4%
                           C  9 --  H 24          +11.2% ( 53.8%)     9.3%

 VIBRATION   51   51A       ATOM PAIR        ENERGY CONTRIBUTION    RADIAL
 FREQ.      1831.15        C  6 --  C  7          +45.8% (100.0%)   100.0%
 T-DIPOLE    0.0997        C  4 --  C  7          +13.9% ( 55.2%)    25.5%
 TRAVEL      0.0557        C  3 --  C  6          +13.9% ( 55.1%)    25.5%
 RED. MASS   5.3831        C  7 --  H 21          +13.0% ( 53.2%)     9.8%
 EFF. MASS  11.8695        C  6 --  H 20          +13.0% ( 53.2%)     9.7%

 VIBRATION   52   52A       ATOM PAIR        ENERGY CONTRIBUTION    RADIAL
 FREQ.      2261.71        C  8 --  C 10          +42.8% ( 86.0%)    99.8%
 T-DIPOLE    0.5340        C  9 --  C 10          +41.3% ( 84.4%)   100.0%
 TRAVEL      0.0502        C  2 --  C  8           +4.4% ( 27.7%)    41.4%
 RED. MASS   5.8387        C  8 --  H 22           +4.4% ( 27.5%)     4.1%
 EFF. MASS  11.8459

 VIBRATION   53   53A       ATOM PAIR        ENERGY CONTRIBUTION    RADIAL
 FREQ.      2875.59        C  2 --  H 12          +92.3% ( 97.7%)   100.0%
 T-DIPOLE    0.0476        C  1 --  H 11           +4.2% ( 20.9%)    99.9%
 TRAVEL      0.1272        C  1 --  C  2           +1.1% ( 10.8%)     9.0%
 RED. MASS   0.8496        C  2 --  C  8           +1.0% ( 10.3%)    12.0%
 EFF. MASS   1.4500

 VIBRATION   54   54A       ATOM PAIR        ENERGY CONTRIBUTION    RADIAL
 FREQ.      2894.71        C  1 --  H 11          +91.7% ( 97.3%)   100.0%
 T-DIPOLE    0.0599        C  2 --  H 12           +4.2% ( 20.7%)    99.9%
 TRAVEL      0.1269        C  1 --  C  4           +1.0% ( 10.2%)     9.0%
 RED. MASS   0.8353        C  1 --  C  3           +1.0% ( 10.2%)     8.9%
 EFF. MASS   1.4468

 VIBRATION   55   55A       ATOM PAIR        ENERGY CONTRIBUTION    RADIAL
 FREQ.      2967.48        C  4 --  H 16          +55.1% ( 76.9%)    97.8%
 T-DIPOLE    0.0349        C  4 --  H 15          +32.9% ( 59.5%)    94.8%
 TRAVEL      0.1217        C  3 --  H 13           +5.7% ( 24.8%)    97.6%
 RED. MASS   0.4492        C  3 --  H 14           +3.8% ( 20.2%)    95.2%
 EFF. MASS   1.5340

 VIBRATION   56   56A       ATOM PAIR        ENERGY CONTRIBUTION    RADIAL
 FREQ.      2969.65        C  3 --  H 13          +53.4% ( 75.7%)    97.7%
 T-DIPOLE    0.0863        C  3 --  H 14          +34.5% ( 60.9%)    95.1%
 TRAVEL      0.1217        C  4 --  H 16           +5.8% ( 25.0%)    97.9%
 RED. MASS   0.4403        C  4 --  H 15           +3.4% ( 19.1%)    94.8%
 EFF. MASS   1.5329

 VIBRATION   57   57A       ATOM PAIR        ENERGY CONTRIBUTION    RADIAL
 FREQ.      3034.68        C  8 --  H 22          +97.0% ( 99.9%)   100.0%
 T-DIPOLE    0.3100        C  8 --  C 10           +1.6% ( 12.7%)    41.5%
 TRAVEL      0.1210        C  2 --  C  8           +1.3% ( 11.7%)    14.5%
 RED. MASS   0.9267
 EFF. MASS   1.5181

 VIBRATION   58   58A       ATOM PAIR        ENERGY CONTRIBUTION    RADIAL
 FREQ.      3048.30        C  4 --  H 15          +51.7% ( 71.0%)    98.8%
 T-DIPOLE    0.1146        C  4 --  H 16          +29.4% ( 53.5%)    95.4%
 TRAVEL      0.1314        C  3 --  H 14          +10.6% ( 32.1%)    98.7%
 RED. MASS   0.3644        C  3 --  H 13           +6.6% ( 25.4%)    96.0%
 EFF. MASS   1.2812

 VIBRATION   59   59A       ATOM PAIR        ENERGY CONTRIBUTION    RADIAL
 FREQ.      3049.57        C  3 --  H 14          +50.1% ( 69.9%)    98.6%
 T-DIPOLE    0.0744        C  3 --  H 13          +31.1% ( 55.1%)    95.7%
 TRAVEL      0.1308        C  4 --  H 15          +10.9% ( 32.6%)    98.7%
 RED. MASS   0.3596        C  4 --  H 16           +6.1% ( 24.5%)    95.1%
 EFF. MASS   1.2919

 VIBRATION   60   60A       ATOM PAIR        ENERGY CONTRIBUTION    RADIAL
 FREQ.      3076.50        C  5 --  H 18          +50.9% ( 73.6%)    97.4%
 T-DIPOLE    0.0178        C  5 --  H 17          +46.8% ( 70.6%)    96.8%
 TRAVEL      0.1207        C  2 --  C  5           +1.0% ( 10.4%)     0.0%
 RED. MASS   0.5070        C  5 --  H 19           +1.0% ( 10.2%)     0.8%
 EFF. MASS   1.5042

 VIBRATION   61   61A       ATOM PAIR        ENERGY CONTRIBUTION    RADIAL
 FREQ.      3084.07        C  5 --  H 19          +59.9% ( 79.8%)    98.7%
 T-DIPOLE    0.0282        C  5 --  H 17          +21.1% ( 47.4%)    87.6%
 TRAVEL      0.1205        C  5 --  H 18          +17.9% ( 43.7%)    85.0%
 RED. MASS   0.4654        C  2 --  C  5           +1.0% ( 10.4%)     0.1%
 EFF. MASS   1.5059

 VIBRATION   62   62A       ATOM PAIR        ENERGY CONTRIBUTION    RADIAL
 FREQ.      3116.47        C  6 --  H 20          +49.6% ( 71.5%)   100.0%
 T-DIPOLE    0.3721        C  7 --  H 21          +47.8% ( 70.2%)   100.0%
 TRAVEL      0.1217        C  6 --  C  7           +1.1% ( 10.7%)     0.0%
 RED. MASS   0.4649        C  3 --  C  6           +0.7% (  8.7%)    27.3%
 EFF. MASS   1.4620

 VIBRATION   63   63A       ATOM PAIR        ENERGY CONTRIBUTION    RADIAL
 FREQ.      3120.16        C  9 --  H 24          +51.5% ( 71.9%)    95.5%
 T-DIPOLE    0.3540        C  9 --  H 23          +46.6% ( 68.4%)    94.6%
 TRAVEL      0.1236        C  9 --  C 10           +1.8% ( 13.4%)    99.9%
 RED. MASS   0.4870
 EFF. MASS   1.4154

 VIBRATION   64   64A       ATOM PAIR        ENERGY CONTRIBUTION    RADIAL
 FREQ.      3125.48        C  9 --  H 23          +51.8% ( 73.7%)    97.4%
 T-DIPOLE    0.2296        C  9 --  H 24          +47.0% ( 70.2%)    96.8%
 TRAVEL      0.1163        C  9 --  C 10           +1.2% ( 11.2%)     0.1%
 RED. MASS   0.5344
 EFF. MASS   1.5950

 VIBRATION   65   65A       ATOM PAIR        ENERGY CONTRIBUTION    RADIAL
 FREQ.      3135.66        C  7 --  H 21          +48.6% ( 71.0%)    99.9%
 T-DIPOLE    0.3481        C  6 --  H 20          +46.8% ( 69.7%)    99.9%
 TRAVEL      0.1141        C  6 --  C  7           +2.5% ( 16.1%)   100.0%
 RED. MASS   0.4657        C  4 --  C  7           +1.0% ( 10.0%)    20.5%
 EFF. MASS   1.6524

 VIBRATION   66   66A       ATOM PAIR        ENERGY CONTRIBUTION    RADIAL
 FREQ.      3177.81        C  5 --  H 19          +39.1% ( 60.2%)    97.9%
 T-DIPOLE    0.0359        C  5 --  H 17          +30.9% ( 53.5%)    96.6%
 TRAVEL      0.1367        C  5 --  H 18          +29.7% ( 52.5%)    96.4%
 RED. MASS   0.3312        C  2 --  C  5           +0.3% (  5.0%)    98.4%
 EFF. MASS   1.1356

 SYMMETRY NUMBER FOR POINT-GROUP C1  =  1


          SYSTEM IS A GROUND STATE


    NULL



          MOLECULE IS NOT LINEAR

          THERE ARE 66 GENUINE VIBRATIONS IN THIS SYSTEM
          THIS THERMODYNAMICS CALCULATION IS LIMITED TO
          MOLECULES WHICH HAVE NO INTERNAL ROTATIONS




                    CALCULATED THERMODYNAMIC PROPERTIES
                                          *
   TEMP. (K)   PARTITION FUNCTION   H.O.F.    ENTHALPY  HEAT CAPACITY ENTROPY
                                   KCAL/MOL   CAL/MOLE    CAL/K/MOL  CAL/K/MOL


 298.00  VIB.     0.1058D+04                  4744.7630    33.6218    29.7605
         ROT.     0.7857D+06                   888.2813     2.9808    29.9559
         INT.     0.8310D+09                  5633.0443    36.6026    59.7164
         TRA.     0.1503D+28                  1480.4688     4.9680    40.5931
         TOT.                       44.507    7113.5131    41.5706   100.3095

 200.00  VIB.     0.7900D+02                  2079.4187    21.1285    19.0802
         ROT.     0.4320D+06                   596.1620     2.9808    28.7672
         INT.     0.3413D+08                  2675.5806    24.1093    47.8474
         TRA.     0.8266D+27                   993.6033     4.9680    38.6119
         TOT.                       41.063    3669.1839    29.0774    86.4593

 210.00  VIB.     0.1026D+03                  2296.4887    22.2906    20.1390
         ROT.     0.4648D+06                   625.9700     2.9808    28.9127
         INT.     0.4771D+08                  2922.4587    25.2714    49.0517
         TRA.     0.8893D+27                  1043.2834     4.9680    38.8543
         TOT.                       41.360    3965.7421    30.2394    87.9060

 220.00  VIB.     0.1334D+03                  2525.3338    23.4835    21.2034
         ROT.     0.4984D+06                   655.7781     2.9808    29.0513
         INT.     0.6651D+08                  3181.1120    26.4643    50.2547
         TRA.     0.9536D+27                  1092.9636     4.9680    39.0854
         TOT.                       41.668    4274.0755    31.4324    89.3402

 230.00  VIB.     0.1735D+03                  2766.2596    24.7065    22.2742
         ROT.     0.5328D+06                   685.5862     2.9808    29.1838
         INT.     0.9246D+08                  3451.8459    27.6873    51.4580
         TRA.     0.1019D+28                  1142.6437     4.9680    39.3063
         TOT.                       41.988    4594.4896    32.6554    90.7643

 240.00  VIB.     0.2259D+03                  3019.5593    25.9579    23.3520
         ROT.     0.5679D+06                   715.3943     2.9808    29.3107
         INT.     0.1283D+09                  3734.9536    28.9387    52.6627
         TRA.     0.1087D+28                  1192.3239     4.9680    39.5177
         TOT.                       42.321    4927.2775    33.9068    92.1804

 250.00  VIB.     0.2941D+03                  3285.5049    27.2353    24.4375
         ROT.     0.6038D+06                   745.2024     2.9808    29.4324
         INT.     0.1776D+09                  4030.7073    30.2161    53.8698
         TRA.     0.1155D+28                  1242.0041     4.9680    39.7205
         TOT.                       42.667    5272.7114    35.1841    93.5904

 260.00  VIB.     0.3834D+03                  3564.3407    28.5354    25.5309
         ROT.     0.6403D+06                   775.0105     2.9808    29.5493
         INT.     0.2455D+09                  4339.3512    31.5163    55.0802
         TRA.     0.1225D+28                  1291.6842     4.9680    39.9154
         TOT.                       43.025    5631.0355    36.4843    94.9956

 270.00  VIB.     0.5001D+03                  3856.2786    29.8551    26.6325
         ROT.     0.6776D+06                   804.8186     2.9808    29.6618
         INT.     0.3389D+09                  4661.0972    32.8359    56.2943
         TRA.     0.1297D+28                  1341.3644     4.9680    40.1029
         TOT.                       43.396    6002.4616    37.8039    96.3972

 280.00  VIB.     0.6529D+03                  4161.4945    31.1904    27.7424
         ROT.     0.7156D+06                   834.6267     2.9808    29.7702
         INT.     0.4672D+09                  4996.1213    34.1713    57.5126
         TRA.     0.1369D+28                  1391.0445     4.9680    40.2835
         TOT.                       43.781    6387.1658    39.1393    97.7961

 290.00  VIB.     0.8532D+03                  4480.1274    32.5378    28.8604
         ROT.     0.7543D+06                   864.4348     2.9808    29.8748
         INT.     0.6436D+09                  5344.5622    35.5186    58.7352
         TRA.     0.1443D+28                  1440.7247     4.9680    40.4579
         TOT.                       44.179    6785.2869    40.4866    99.1930

 300.00  VIB.     0.1116D+04                  4812.2782    33.8934    29.9863
         ROT.     0.7937D+06                   894.2429     2.9808    29.9758
         INT.     0.8858D+09                  5706.5211    36.8742    59.9621
         TRA.     0.1518D+28                  1490.4049     4.9680    40.6263
         TOT.                       44.591    7196.9260    41.8422   100.5884

 310.00  VIB.     0.1461D+04                  5158.0111    35.2536    31.1198
         ROT.     0.8337D+06                   924.0510     2.9808    30.0736
         INT.     0.1218D+10                  6082.0621    38.2344    61.1934
         TRA.     0.1595D+28                  1540.0850     4.9680    40.7892
         TOT.                       45.016    7622.1471    43.2025   101.9826

 320.00  VIB.     0.1916D+04                  5517.3544    36.6150    32.2606
         ROT.     0.8743D+06                   953.8591     2.9808    30.1682
         INT.     0.1675D+10                  6471.2135    39.5958    62.4288
         TRA.     0.1673D+28                  1589.7652     4.9680    40.9469
         TOT.                       45.455    8060.9787    44.5638   103.3757

 330.00  VIB.     0.2513D+04                  5890.3030    37.9742    33.4081
         ROT.     0.9156D+06                   983.6672     2.9808    30.2599
         INT.     0.2301D+10                  6873.9702    40.9550    63.6680
         TRA.     0.1752D+28                  1639.4454     4.9680    41.0998
         TOT.                       45.907    8513.4156    45.9230   104.7678

 340.00  VIB.     0.3302D+04                  6276.8205    39.3282    34.5619
         ROT.     0.9576D+06                  1013.4753     2.9808    30.3489
         INT.     0.3161D+10                  7290.2958    42.3091    64.9108
         TRA.     0.1832D+28                  1689.1255     4.9680    41.2481
         TOT.                       46.373    8979.4213    47.2771   106.1589

 350.00  VIB.     0.4341D+04                  6676.8417    40.6745    35.7213
         ROT.     0.1000D+07                  1043.2834     2.9808    30.4353
         INT.     0.4342D+10                  7720.1251    43.6553    66.1567
         TRA.     0.1914D+28                  1738.8057     4.9680    41.3921
         TOT.                       46.853    9458.9308    48.6233   107.5488

 360.00  VIB.     0.5714D+04                  7090.2761    42.0105    36.8859
         ROT.     0.1043D+07                  1073.0915     2.9808    30.5193
         INT.     0.5962D+10                  8163.3676    44.9913    67.4052
         TRA.     0.1996D+28                  1788.4859     4.9680    41.5321
         TOT.                       47.346    9951.8534    49.9593   108.9373

 370.00  VIB.     0.7529D+04                  7517.0099    43.3340    38.0551
         ROT.     0.1087D+07                  1102.8996     2.9808    30.6010
         INT.     0.8184D+10                  8619.9095    46.3149    68.6560
         TRA.     0.2080D+28                  1838.1660     4.9680    41.6682
         TOT.                       47.852   10458.0755    51.2829   110.3242

 380.00  VIB.     0.9930D+04                  7956.9094    44.6433    39.2281
         ROT.     0.1131D+07                  1132.7077     2.9808    30.6805
         INT.     0.1124D+11                  9089.6171    47.6241    69.9086
         TRA.     0.2165D+28                  1887.8462     4.9680    41.8007
         TOT.                       48.371   10977.4632    52.5922   111.7093

 390.00  VIB.     0.1311D+05                  8409.8235    45.9367    40.4045
         ROT.     0.1176D+07                  1162.5158     2.9808    30.7579
         INT.     0.1542D+11                  9572.3393    48.9175    71.1624
         TRA.     0.2251D+28                  1937.5263     4.9680    41.9297
         TOT.                       48.904   11509.8656    53.8856   113.0921

 400.00  VIB.     0.1732D+05                  8875.5864    47.2129    41.5836
         ROT.     0.1222D+07                  1192.3239     2.9808    30.8334
         INT.     0.2117D+11                 10067.9103    50.1937    72.4170
         TRA.     0.2338D+28                  1987.2065     4.9680    42.0555
         TOT.                       49.449   12055.1168    55.1617   114.4725

   *: NOTE: HEATS OF FORMATION ARE RELATIVE TO THE
            ELEMENTS IN THEIR STANDARD STATE AT 298K
              (=  Standard Enthalpy of Formation).

            Hvib:  Zero-point energy is not included.
                   frequencies of less than zero cm-1 are not included.
            Hrot = (3/2)RT
            Htra = (3/2)RT + pV = (5/2)RT

            Heat capacity is Cp, not Cv

           For more information, see: HTTP://OpenMOPAC.net/Manual/thermochemistry.html


           FORCE CONSTANT IN CARTESIAN COORDINATES (Millidynes/A)

    ATOM   CHEMICAL       X               Y               Z
   NUMBER   SYMBOL  FORCE CONSTANT  FORCE CONSTANT  FORCE CONSTANT

      1       C        8.343332        7.605146        8.328214
      2       C        7.918708        8.405928        8.786015
      3       C        8.203089        7.995363        8.967365
      4       C        8.155785        9.424945        7.560382
      5       C        8.386902        8.104930        8.279734
      6       C        5.988563       13.755643        7.777311
      7       C        5.988208       12.013363        9.506114
      8       C        7.924545       10.569263        8.542819
      9       C       11.483684       12.758633        2.032306
     10       C       10.997664       15.270092        2.064385
     11       H        1.120529        1.634536        3.324565
     12       H        1.131598        1.395579        3.528611
     13       H        2.866814        2.793219        0.721394
     14       H        1.638031        0.867620        3.890672
     15       H        1.625753        3.811969        0.961596
     16       H        2.830253        0.851779        2.688090
     17       H        1.112890        1.612301        4.052530
     18       H        1.150487        2.129408        3.470272
     19       H        5.401090        0.725006        0.666852
     20       H        1.952709        3.715473        0.762414
     21       H        1.964986        0.881391        3.585438
     22       H        0.885394        0.860930        4.343640
     23       H        5.282906        0.687657        0.307168
     24       H        1.092669        4.816394        0.369865



 TOTAL CPU TIME:             3.56 SECONDS

 == MOPAC DONE ==
