 *******************************************************************************
 ** Site#: 14399           For non-commercial use only        Version 13.159M **
 *******************************************************************************
 ** Cite this work as: MOPAC2012, James J. P. Stewart, Stewart Computational  **
 ** Chemistry, Version 13.159M web: HTTP://OpenMOPAC.net  Days remaining:   6 **
 *******************************************************************************
 **                                                                           **
 **                                MOPAC2012                                  **
 **                                                                           **
 *******************************************************************************

                            PM3 CALCULATION RESULTS


 *******************************************************************************
 *  CALCULATION DONE:                                Mon Jun  2 11:08:38 2014  *
 *  PM3      - The PM3 Hamiltonian to be used
 *  PRECISE  - CRITERIA TO BE INCREASED BY 100 TIMES
 *  NOSYM    - POINT-GROUP SYMMETRY SET TO C1
 *  T=       - A TIME OF 172800.0 SECONDS REQUESTED
 *  DUMP=N   - RESTART FILE WRITTEN EVERY  7200.000 SECONDS
 *******************************************************************************
pm3  precise nosym
 InChI=1S/C5H8/c1-2-5-3-4-5/h3-5H,2H2,1H3

   ATOM   CHEMICAL          X               Y               Z
  NUMBER   SYMBOL      (ANGSTROMS)     (ANGSTROMS)     (ANGSTROMS)
 
     1       C          0.64770000  *  -0.17120000  *  -0.51980000  *
     2       C         -0.44470000  *  -0.22790000  *   0.54720000  *
     3       C         -1.80750000  *   0.08300000  *  -0.05700000  *
     4       C          1.65400000  *   0.77480000  *  -0.36850000  *
     5       C          2.15800000  *  -0.27520000  *   0.12900000  *
     6       H          0.58830000  *  -0.78080000  *  -1.45000000  *
     7       H         -0.26470000  *   0.47920000  *   1.39210000  *
     8       H         -0.46720000  *  -1.25610000  *   0.97580000  *
     9       H         -2.06230000  *  -0.64400000  *  -0.86190000  *
    10       H         -1.82460000  *   1.11380000  *  -0.47920000  *
    11       H         -2.59390000  *   0.01660000  *   0.72880000  *
    12       H          2.10960000  *   1.23860000  *  -1.24070000  *
    13       H          2.30750000  *  -0.35080000  *   1.20420000  *
 


          CARTESIAN COORDINATES 

    NO.       ATOM         X         Y         Z

     1         C        0.6477   -0.1712   -0.5198
     2         C       -0.4447   -0.2279    0.5472
     3         C       -1.8075    0.0830   -0.0570
     4         C        1.6540    0.7748   -0.3685
     5         C        2.1580   -0.2752    0.1290
     6         H        0.5883   -0.7808   -1.4500
     7         H       -0.2647    0.4792    1.3921
     8         H       -0.4672   -1.2561    0.9758
     9         H       -2.0623   -0.6440   -0.8619
    10         H       -1.8246    1.1138   -0.4792
    11         H       -2.5939    0.0166    0.7288
    12         H        2.1096    1.2386   -1.2407
    13         H        2.3075   -0.3508    1.2042

  H: (PM3): J. J. P. STEWART, J. COMP. CHEM. 10, 209 (1989).
  C: (PM3): J. J. P. STEWART, J. COMP. CHEM. 10, 209 (1989).

           Empirical Formula: C5 H8  =    13 atoms



      MOLECULAR POINT GROUP   :   C1  


      RHF CALCULATION, NO. OF DOUBLY OCCUPIED LEVELS =   14

      Geometry optimization using EF

          DIAGONAL MATRIX USED AS START HESSIAN

 CYCLE:     1 TIME:   0.003 TIME LEFT:  2.00D  GRAD.:   295.502 HEAT: 125.3086
 CYCLE:     2 TIME:   0.002 TIME LEFT:  2.00D  GRAD.:   408.590 HEAT: 123.5856
 CYCLE:     3 TIME:   0.002 TIME LEFT:  2.00D  GRAD.:   169.711 HEAT: 88.47616
 CYCLE:     4 TIME:   0.004 TIME LEFT:  2.00D  GRAD.:   218.433 HEAT: 79.24052
 CYCLE:     5 TIME:   0.002 TIME LEFT:  2.00D  GRAD.:   157.302 HEAT: 71.43370
 CYCLE:     6 TIME:   0.004 TIME LEFT:  2.00D  GRAD.:   157.234 HEAT: 70.47795
 CYCLE:     7 TIME:   0.002 TIME LEFT:  2.00D  GRAD.:    99.777 HEAT: 66.44626
 CYCLE:     8 TIME:   0.004 TIME LEFT:  2.00D  GRAD.:    60.476 HEAT: 64.05847
 CYCLE:     9 TIME:   0.004 TIME LEFT:  2.00D  GRAD.:    33.731 HEAT: 63.06341
 CYCLE:    10 TIME:   0.002 TIME LEFT:  2.00D  GRAD.:    49.815 HEAT: 62.34587
 CYCLE:    11 TIME:   0.002 TIME LEFT:  2.00D  GRAD.:    44.283 HEAT: 60.99423
 CYCLE:    12 TIME:   0.002 TIME LEFT:  2.00D  GRAD.:    57.221 HEAT: 60.09456
 CYCLE:    13 TIME:   0.002 TIME LEFT:  2.00D  GRAD.:    27.929 HEAT: 59.02789
 CYCLE:    14 TIME:   0.002 TIME LEFT:  2.00D  GRAD.:    63.385 HEAT: 59.01561
 CYCLE:    15 TIME:   0.002 TIME LEFT:  2.00D  GRAD.:    27.831 HEAT: 58.01114
 CYCLE:    16 TIME:   0.002 TIME LEFT:  2.00D  GRAD.:    37.753 HEAT: 57.51392
 CYCLE:    17 TIME:   0.002 TIME LEFT:  2.00D  GRAD.:    38.240 HEAT: 56.75550
 CYCLE:    18 TIME:   0.002 TIME LEFT:  2.00D  GRAD.:    36.634 HEAT: 56.30114
 CYCLE:    19 TIME:   0.002 TIME LEFT:  2.00D  GRAD.:    14.124 HEAT: 55.78953
 CYCLE:    20 TIME:   0.002 TIME LEFT:  2.00D  GRAD.:    16.293 HEAT: 55.71308
 CYCLE:    21 TIME:   0.002 TIME LEFT:  2.00D  GRAD.:    10.502 HEAT: 55.58033
 CYCLE:    22 TIME:   0.002 TIME LEFT:  2.00D  GRAD.:    11.082 HEAT: 55.49429
 CYCLE:    23 TIME:   0.002 TIME LEFT:  2.00D  GRAD.:     9.896 HEAT: 55.39822
 CYCLE:    24 TIME:   0.002 TIME LEFT:  2.00D  GRAD.:     7.303 HEAT: 55.28518
 CYCLE:    25 TIME:   0.002 TIME LEFT:  2.00D  GRAD.:     7.466 HEAT: 55.21105
 CYCLE:    26 TIME:   0.002 TIME LEFT:  2.00D  GRAD.:     5.654 HEAT: 55.15009
 CYCLE:    27 TIME:   0.002 TIME LEFT:  2.00D  GRAD.:     3.854 HEAT: 55.11590
 CYCLE:    28 TIME:   0.002 TIME LEFT:  2.00D  GRAD.:     2.963 HEAT: 55.09546
 CYCLE:    29 TIME:   0.002 TIME LEFT:  2.00D  GRAD.:     2.616 HEAT: 55.08354
 CYCLE:    30 TIME:   0.002 TIME LEFT:  2.00D  GRAD.:     2.091 HEAT: 55.07731
 CYCLE:    31 TIME:   0.002 TIME LEFT:  2.00D  GRAD.:     1.007 HEAT: 55.07464
 CYCLE:    32 TIME:   0.002 TIME LEFT:  2.00D  GRAD.:     1.010 HEAT: 55.07292
 CYCLE:    33 TIME:   0.002 TIME LEFT:  2.00D  GRAD.:     1.606 HEAT: 55.07063
 CYCLE:    34 TIME:   0.002 TIME LEFT:  2.00D  GRAD.:     1.890 HEAT: 55.06710
 CYCLE:    35 TIME:   0.002 TIME LEFT:  2.00D  GRAD.:     2.243 HEAT: 55.06170
 CYCLE:    36 TIME:   0.002 TIME LEFT:  2.00D  GRAD.:     1.502 HEAT: 55.05776
 CYCLE:    37 TIME:   0.002 TIME LEFT:  2.00D  GRAD.:     2.494 HEAT: 55.04973
 CYCLE:    38 TIME:   0.002 TIME LEFT:  2.00D  GRAD.:     3.396 HEAT: 55.04310
 CYCLE:    39 TIME:   0.002 TIME LEFT:  2.00D  GRAD.:     3.692 HEAT: 55.03089
 CYCLE:    40 TIME:   0.002 TIME LEFT:  2.00D  GRAD.:     1.348 HEAT: 55.02313
 CYCLE:    41 TIME:   0.002 TIME LEFT:  2.00D  GRAD.:     1.196 HEAT: 55.02101
 CYCLE:    42 TIME:   0.002 TIME LEFT:  2.00D  GRAD.:     0.618 HEAT: 55.02029
 CYCLE:    43 TIME:   0.002 TIME LEFT:  2.00D  GRAD.:     0.370 HEAT: 55.01977
 CYCLE:    44 TIME:   0.002 TIME LEFT:  2.00D  GRAD.:     0.288 HEAT: 55.01959
 CYCLE:    45 TIME:   0.002 TIME LEFT:  2.00D  GRAD.:     0.250 HEAT: 55.01938
 CYCLE:    46 TIME:   0.002 TIME LEFT:  2.00D  GRAD.:     0.211 HEAT: 55.01930
 CYCLE:    47 TIME:   0.002 TIME LEFT:  2.00D  GRAD.:     0.417 HEAT: 55.01885
 CYCLE:    48 TIME:   0.002 TIME LEFT:  2.00D  GRAD.:     0.360 HEAT: 55.01860
 CYCLE:    49 TIME:   0.002 TIME LEFT:  2.00D  GRAD.:     0.375 HEAT: 55.01814
 CYCLE:    50 TIME:   0.003 TIME LEFT:  2.00D  GRAD.:     0.344 HEAT: 55.01794
 CYCLE:    51 TIME:   0.003 TIME LEFT:  2.00D  GRAD.:     0.741 HEAT: 55.01721
 CYCLE:    52 TIME:   0.002 TIME LEFT:  2.00D  GRAD.:     0.679 HEAT: 55.01671
 CYCLE:    53 TIME:   0.003 TIME LEFT:  2.00D  GRAD.:     2.433 HEAT: 55.02143
 CYCLE:    54 TIME:   0.003 TIME LEFT:  2.00D  GRAD.:     0.899 HEAT: 55.01298
 CYCLE:    55 TIME:   0.002 TIME LEFT:  2.00D  GRAD.:     0.547 HEAT: 55.01240
 CYCLE:    56 TIME:   0.002 TIME LEFT:  2.00D  GRAD.:     0.777 HEAT: 55.01138
 CYCLE:    57 TIME:   0.002 TIME LEFT:  2.00D  GRAD.:     0.921 HEAT: 55.01066
 CYCLE:    58 TIME:   0.002 TIME LEFT:  2.00D  GRAD.:     0.776 HEAT: 55.00948
 CYCLE:    59 TIME:   0.005 TIME LEFT:  2.00D  GRAD.:     0.452 HEAT: 55.00885
 CYCLE:    60 TIME:   0.006 TIME LEFT:  2.00D  GRAD.:     0.413 HEAT: 55.00857
 CYCLE:    61 TIME:   0.007 TIME LEFT:  2.00D  GRAD.:     0.199 HEAT: 55.00816
 CYCLE:    62 TIME:   0.006 TIME LEFT:  2.00D  GRAD.:     0.092 HEAT: 55.00813
 CYCLE:    63 TIME:   0.006 TIME LEFT:  2.00D  GRAD.:     0.228 HEAT: 55.00837
 CYCLE:    64 TIME:   0.006 TIME LEFT:  2.00D  GRAD.:     0.044 HEAT: 55.00812

     RMS GRADIENT =  0.04418  IS LESS THAN CUTOFF =  0.05000



 -------------------------------------------------------------------------------
pm3  precise nosym
 InChI=1S/C5H8/c1-2-5-3-4-5/h3-5H,2H2,1H3



     GEOMETRY OPTIMISED USING EIGENVECTOR FOLLOWING (EF).     
     SCF FIELD WAS ACHIEVED                                   


                              PM3 CALCULATION
                                                       MOPAC2012 (Version: 13.159M)
                                                       Mon Jun  2 11:08:39 2014
                                                       No. of days left =   6




          FINAL HEAT OF FORMATION =         55.00812 KCAL/MOL =     230.15399 KJ/MOL


          TOTAL ENERGY            =       -713.47813 EV
          ELECTRONIC ENERGY       =      -2755.90618 EV  POINT GROUP:     C1  
          CORE-CORE REPULSION     =       2042.42805 EV
          COSMO AREA              =        120.99 SQUARE ANGSTROMS
          COSMO VOLUME            =        108.34 CUBIC ANGSTROMS

          GRADIENT NORM           =          0.04418
          IONIZATION POTENTIAL    =         10.006941 EV
          HOMO LUMO ENERGIES (EV) =        -10.007  0.924
          NO. OF FILLED LEVELS    =         14
          MOLECULAR WEIGHT        =         68.118

          MOLECULAR DIMENSIONS (Angstroms)

            Atom       Atom       Distance
            H    13    H    11     5.53211
            H    12    H     8     3.95626
            H     6    H     7     2.95415


          SCF CALCULATIONS        =         69
          COMPUTATION TIME        =          0.183 SECONDS




   ATOM   CHEMICAL          X               Y               Z
  NUMBER   SYMBOL      (ANGSTROMS)     (ANGSTROMS)     (ANGSTROMS)
 
     1       C          0.69108341  *  -0.34729218  *  -0.34081481  *
     2       C         -0.48145905  *  -0.24715205  *   0.59978274  *
     3       C         -1.74579320  *   0.13420785  *  -0.13698868  *
     4       C          1.62176464  *   0.79988827  *  -0.51961259  *
     5       C          2.07962587  *  -0.21567257  *   0.17600176  *
     6       H          0.48561206  *  -1.02168733  *  -1.19540591  *
     7       H         -0.27612399  *   0.48513759  *   1.40508909  *
     8       H         -0.61475173  *  -1.22233666  *   1.10822520  *
     9       H         -1.99601128  *  -0.59567472  *  -0.91846116  *
    10       H         -1.64850463  *   1.11275665  *  -0.62488263  *
    11       H         -2.60276920  *   0.19078989  *   0.54620460  *
    12       H          1.73763120  *   1.77402078  *  -0.95474697  *
    13       H          2.85356575  *  -0.70103607  *   0.73921299  *

           Empirical Formula: C5 H8  =    13 atoms



      MOLECULAR POINT GROUP   :   C1  


                  EIGENVALUES  
 -39.15827 -32.31812 -23.51750 -20.24093 -19.88998 -17.50181 -15.63421 -14.62160
 -14.32916 -12.98330 -12.49213 -11.86175 -10.98471 -10.00694   0.92441   2.66074
   2.98462   3.55394   3.82105   3.96579   4.09543   4.29976   4.46086   4.64674
   4.98064   5.09230   5.23236   5.65738


              NET ATOMIC CHARGES AND DIPOLE CONTRIBUTIONS

  ATOM NO.   TYPE          CHARGE      No. of ELECS.   s-Pop       p-Pop       
    1          C          -0.074248        4.0742     1.16246     2.91179
    2          C          -0.089512        4.0895     1.15488     2.93463
    3          C          -0.103638        4.1036     1.13693     2.96671
    4          C          -0.172337        4.1723     1.21655     2.95578
    5          C          -0.175446        4.1754     1.21631     2.95914
    6          H           0.079638        0.9204     0.92036
    7          H           0.050613        0.9494     0.94939
    8          H           0.050417        0.9496     0.94958
    9          H           0.037119        0.9629     0.96288
   10          H           0.037572        0.9624     0.96243
   11          H           0.035222        0.9648     0.96478
   12          H           0.162269        0.8377     0.83773
   13          H           0.162331        0.8377     0.83767
 DIPOLE           X         Y         Z       TOTAL
 POINT-CHG.     0.190     0.077     0.014     0.206
 HYBRID         0.083     0.091     0.049     0.133
 SUM            0.273     0.168     0.064     0.327


          ATOMIC ORBITAL ELECTRON POPULATIONS

    Atom      s        px        py        pz   
    1  C   1.16246   0.89885   1.00621   1.00673
    2  C   1.15488   0.95026   1.01256   0.97181
    3  C   1.13693   0.96481   1.00638   0.99552
    4  C   1.21655   1.00769   0.96274   0.98536
    5  C   1.21631   0.97380   1.00491   0.98043
    6  H   0.92036
    7  H   0.94939
    8  H   0.94958
    9  H   0.96288
   10  H   0.96243
   11  H   0.96478
   12  H   0.83773
   13  H   0.83767
 *******************************************************************************
 ** Site#: 14399           For non-commercial use only        Version 13.159M **
 *******************************************************************************
 ** Cite this work as: MOPAC2012, James J. P. Stewart, Stewart Computational  **
 ** Chemistry, Version 13.159M web: HTTP://OpenMOPAC.net  Days remaining:   6 **
 *******************************************************************************
 **                                                                           **
 **                                MOPAC2012                                  **
 **                                                                           **
 *******************************************************************************

                            PM3 CALCULATION RESULTS


 *******************************************************************************
 *  CALCULATION DONE:                                Mon Jun  2 11:08:39 2014  *
 *  PM3      - The PM3 Hamiltonian to be used
 *  OLDGEO   - PREVIOUS GEOMETRY TO BE USED
 *  PRECISE  - CRITERIA TO BE INCREASED BY 100 TIMES
 *  NOSYM    - POINT-GROUP SYMMETRY SET TO C1
 *  T=       - A TIME OF 172800.0 SECONDS REQUESTED
 *  DUMP=N   - RESTART FILE WRITTEN EVERY  7200.000 SECONDS
 *  THERMO   - THERMODYNAMIC QUANTITIES TO BE CALCULATED
 *******************************************************************************
oldgeo thermo nosym precise  pm3

   ATOM   CHEMICAL          X               Y               Z
  NUMBER   SYMBOL      (ANGSTROMS)     (ANGSTROMS)     (ANGSTROMS)
 
     1       C          0.69108341  *  -0.34729218  *  -0.34081481  *
     2       C         -0.48145905  *  -0.24715205  *   0.59978274  *
     3       C         -1.74579320  *   0.13420785  *  -0.13698868  *
     4       C          1.62176464  *   0.79988827  *  -0.51961259  *
     5       C          2.07962587  *  -0.21567257  *   0.17600176  *
     6       H          0.48561206  *  -1.02168733  *  -1.19540591  *
     7       H         -0.27612399  *   0.48513759  *   1.40508909  *
     8       H         -0.61475173  *  -1.22233666  *   1.10822520  *
     9       H         -1.99601128  *  -0.59567472  *  -0.91846116  *
    10       H         -1.64850463  *   1.11275665  *  -0.62488263  *
    11       H         -2.60276920  *   0.19078989  *   0.54620460  *
    12       H          1.73763120  *   1.77402078  *  -0.95474697  *
    13       H          2.85356575  *  -0.70103607  *   0.73921299  *
 


          CARTESIAN COORDINATES 

    NO.       ATOM         X         Y         Z

     1         C        0.6911   -0.3473   -0.3408
     2         C       -0.4815   -0.2472    0.5998
     3         C       -1.7458    0.1342   -0.1370
     4         C        1.6218    0.7999   -0.5196
     5         C        2.0796   -0.2157    0.1760
     6         H        0.4856   -1.0217   -1.1954
     7         H       -0.2761    0.4851    1.4051
     8         H       -0.6148   -1.2223    1.1082
     9         H       -1.9960   -0.5957   -0.9185
    10         H       -1.6485    1.1128   -0.6249
    11         H       -2.6028    0.1908    0.5462
    12         H        1.7376    1.7740   -0.9547
    13         H        2.8536   -0.7010    0.7392

  H: (PM3): J. J. P. STEWART, J. COMP. CHEM. 10, 209 (1989).
  C: (PM3): J. J. P. STEWART, J. COMP. CHEM. 10, 209 (1989).

           Empirical Formula: C5 H8  =    13 atoms



      MOLECULAR POINT GROUP   :   C1  


      RHF CALCULATION, NO. OF DOUBLY OCCUPIED LEVELS =   14



          HEAT OF FORMATION =      55.008123 KCALS/MOLE


          INTERNAL COORDINATE DERIVATIVES

   NUMBER  ATOM       BOND         ANGLE      DIHEDRAL

     1       C     -0.004043    -0.005250    -0.004459
     2       C      0.000422    -0.004875    -0.002088
     3       C     -0.003002    -0.003593     0.000429
     4       C     -0.004626    -0.000747    -0.001046
     5       C     -0.005760     0.013243    -0.002020
     6       H     -0.011075    -0.009448    -0.002002
     7       H      0.009973     0.013209    -0.003986
     8       H      0.009278     0.005591    -0.003032
     9       H      0.007716     0.002676    -0.004839
    10       H     -0.007082    -0.010980     0.005057
    11       H     -0.009076    -0.011466     0.005446
    12       H      0.006987    -0.001640     0.002336
    13       H      0.010287     0.013279     0.010204


          GRADIENT NORM =   0.04422


          TIME FOR SCF CALCULATION =    0.00

          TIME FOR DERIVATIVES     =    0.00

          MOLECULAR WEIGHT =   68.12



          ROTATIONAL CONSTANTS IN CM(-1)

          A =    0.48049042   B =    0.10756955   C =    0.09830290



           PRINCIPAL MOMENTS OF INERTIA IN UNITS OF 10**(-40)*GRAM-CM**2

          A =       58.2588   B =      260.2295   C =      284.7604


          ORIENTATION OF MOLECULE IN FORCE CALCULATION

    NO.       ATOM         X         Y         Z

     1          C      -0.4784   -0.0598    0.3340
     2          C       1.0281   -0.0598    0.3340
     3          C       1.5775    1.3491    0.3340
     4          C      -1.2381   -0.1947   -0.9383
     5          C      -1.2277   -1.2483   -0.1543
     6          H      -0.8969    0.5521    1.1572
     7          H       1.4198   -0.6197   -0.5378
     8          H       1.3845   -0.6090    1.2276
     9          H       1.2358    1.9180    1.2090
    10          H       1.2622    1.9048   -0.5587
    11          H       2.6748    1.3483    0.3507
    12          H      -1.5352    0.3084   -1.8385
    13          H      -1.5107   -2.2584    0.0724


    FIRST DERIVATIVES WILL BE USED IN THE CALCULATION OF SECOND DERIVATIVES

          ESTIMATED TIME TO COMPLETE CALCULATION =        0.53 SECONDS

    FOR POINT-GROUP C1   THERE ARE   1 UNIQUE SYMMETRY FUNCTIONS.

 STEP:   1 TIME =     0.01 SECS, INTEGRAL =      0.01 TIME LEFT: 172799.99
 STEP:   2 TIME =     0.01 SECS, INTEGRAL =      0.02 TIME LEFT: 172799.98
 STEP:   3 TIME =     0.01 SECS, INTEGRAL =      0.03 TIME LEFT: 172799.97
 STEP:   4 TIME =     0.01 SECS, INTEGRAL =      0.04 TIME LEFT: 172799.96
 STEP:   5 TIME =     0.01 SECS, INTEGRAL =      0.05 TIME LEFT: 172799.95
 STEP:   6 TIME =     0.01 SECS, INTEGRAL =      0.06 TIME LEFT: 172799.94
 STEP:   7 TIME =     0.01 SECS, INTEGRAL =      0.07 TIME LEFT: 172799.92
 STEP:   8 TIME =     0.01 SECS, INTEGRAL =      0.08 TIME LEFT: 172799.91
 STEP:   9 TIME =     0.01 SECS, INTEGRAL =      0.09 TIME LEFT: 172799.90
 STEP:  10 TIME =     0.01 SECS, INTEGRAL =      0.10 TIME LEFT: 172799.90
 STEP:  11 TIME =     0.01 SECS, INTEGRAL =      0.11 TIME LEFT: 172799.89
 STEP:  12 TIME =     0.01 SECS, INTEGRAL =      0.12 TIME LEFT: 172799.88
 STEP:  13 TIME =     0.01 SECS, INTEGRAL =      0.13 TIME LEFT: 172799.87
 STEP:  14 TIME =     0.01 SECS, INTEGRAL =      0.14 TIME LEFT: 172799.86
 STEP:  15 TIME =     0.01 SECS, INTEGRAL =      0.15 TIME LEFT: 172799.85
 STEP:  16 TIME =     0.01 SECS, INTEGRAL =      0.16 TIME LEFT: 172799.84
 STEP:  17 TIME =     0.01 SECS, INTEGRAL =      0.17 TIME LEFT: 172799.83
 STEP:  18 TIME =     0.01 SECS, INTEGRAL =      0.18 TIME LEFT: 172799.82
 STEP:  19 TIME =     0.01 SECS, INTEGRAL =      0.19 TIME LEFT: 172799.81
 STEP:  20 TIME =     0.01 SECS, INTEGRAL =      0.20 TIME LEFT: 172799.80
 STEP:  21 TIME =     0.01 SECS, INTEGRAL =      0.21 TIME LEFT: 172799.79
 STEP:  22 TIME =     0.01 SECS, INTEGRAL =      0.22 TIME LEFT: 172799.78
 STEP:  23 TIME =     0.01 SECS, INTEGRAL =      0.23 TIME LEFT: 172799.77
 STEP:  24 TIME =     0.01 SECS, INTEGRAL =      0.23 TIME LEFT: 172799.76
 STEP:  25 TIME =     0.01 SECS, INTEGRAL =      0.24 TIME LEFT: 172799.75
 STEP:  26 TIME =     0.01 SECS, INTEGRAL =      0.25 TIME LEFT: 172799.74
 STEP:  27 TIME =     0.01 SECS, INTEGRAL =      0.26 TIME LEFT: 172799.73
 STEP:  28 TIME =     0.01 SECS, INTEGRAL =      0.27 TIME LEFT: 172799.72
 STEP:  29 TIME =     0.01 SECS, INTEGRAL =      0.28 TIME LEFT: 172799.71
 STEP:  30 TIME =     0.01 SECS, INTEGRAL =      0.29 TIME LEFT: 172799.71
 STEP:  31 TIME =     0.01 SECS, INTEGRAL =      0.30 TIME LEFT: 172799.70
 STEP:  32 TIME =     0.01 SECS, INTEGRAL =      0.31 TIME LEFT: 172799.69
 STEP:  33 TIME =     0.01 SECS, INTEGRAL =      0.32 TIME LEFT: 172799.68
 STEP:  34 TIME =     0.01 SECS, INTEGRAL =      0.33 TIME LEFT: 172799.67
 STEP:  35 TIME =     0.01 SECS, INTEGRAL =      0.34 TIME LEFT: 172799.66
 STEP:  36 TIME =     0.01 SECS, INTEGRAL =      0.35 TIME LEFT: 172799.65
 STEP:  37 TIME =     0.01 SECS, INTEGRAL =      0.36 TIME LEFT: 172799.64
 STEP:  38 TIME =     0.01 SECS, INTEGRAL =      0.37 TIME LEFT: 172799.63
 STEP:  39 TIME =     0.01 SECS, INTEGRAL =      0.38 TIME LEFT: 172799.62

(To convert to Hartree/Bohr^2, multiply by (10^(-21) x N x a0^2)/(4.184 x 627.51) = 0.0642)


           FORCE MATRIX IN MILLIDYNES/ANGSTROM


                  C  1       C  2       C  3       C  4       C  5       H  6
 ------------------------------------------------------------------------------
     C    1  15.380556
     C    2   4.415710  14.533015
     C    3   0.681833   4.463799  14.372305
     C    4   5.378356   0.542285   0.019924  20.479864
     C    5   5.406932   0.542823   0.051955  12.430821  20.491096
     H    6   4.422684   0.427786   0.028145   0.436375   0.434523   4.986920
     H    7   0.458764   4.470734   0.437279   0.019343   0.019957   0.040777
     H    8   0.422287   4.461149   0.443324   0.044640   0.014426   0.023027
     H    9   0.026905   0.464125   4.721751   0.002551   0.002599   0.021315
     H   10   0.018090   0.462555   4.738491   0.003869   0.002681   0.002283
     H   11   0.049832   0.451360   4.750378   0.002165   0.009104   0.001860
     H   12   0.288184   0.021504   0.002458   5.554475   0.394785   0.018141
     H   13   0.289210   0.023623   0.004345   0.394988   5.553103   0.017822


                  H  7       H  8       H  9       H 10       H 11       H 12
 ------------------------------------------------------------------------------
     H    7   5.081256
     H    8   0.569279   5.063590
     H    9   0.047778   0.024248   5.467399
     H   10   0.024558   0.048860   0.577499   5.478547
     H   11   0.030095   0.029028   0.573394   0.573461   5.487552
     H   12   0.002450   0.003633   0.000791   0.000843   0.000700   5.897554
     H   13   0.002399   0.002810   0.000874   0.000672   0.000882   0.026765


                  H 13
 ------------------
     H   13   5.897588


          HEAT OF FORMATION =      55.008123 KCALS/MOLE

          ZERO POINT ENERGY      71.072 KCAL/MOL


           NORMAL COORDINATE ANALYSIS (Total motion = 1 Angstrom)


   Root No.       1         2         3         4         5         6         7         8

                 1 A       2 A       3 A       4 A       5 A       6 A       7 A       8 A   

                  69.8     188.4     269.7     407.5     457.5     774.9     822.6     891.6
  
           1    0.0011    0.0023   -0.0320   -0.0429    0.0114   -0.0009    0.0033    0.0001
           2    0.0233   -0.0022    0.0252    0.0200    0.0541   -0.0013   -0.0021    0.0148
           3   -0.0318   -0.0027   -0.0064    0.0608   -0.0165   -0.0014   -0.0047   -0.0124
           4    0.0013    0.0025   -0.0319   -0.0466    0.0044    0.0190   -0.0167   -0.0002
           5    0.0100    0.0041    0.0247    0.0052   -0.0490   -0.0063    0.0056   -0.0018
           6   -0.0456   -0.0159    0.0192   -0.0358   -0.0018   -0.0054   -0.0425   -0.0008
           7    0.0187    0.0104    0.0509   -0.0049   -0.0542    0.0080   -0.0092    0.0007
           8    0.0031    0.0009   -0.0105   -0.0169   -0.0380    0.0058   -0.0031    0.0033
           9    0.0510    0.0050    0.0000   -0.0123    0.0014    0.0001   -0.0104    0.0022
          10   -0.0137   -0.0239   -0.0453    0.0624   -0.0105   -0.0382    0.0152    0.0269
          11   -0.0391    0.0038   -0.0072    0.0005    0.0163    0.0092    0.0042   -0.0139
          12   -0.0164    0.0126    0.0031    0.0036   -0.0006    0.0149    0.0153    0.0292
          13   -0.0108    0.0065    0.0494    0.0262    0.0623   -0.0383    0.0055   -0.0260
          14    0.0018   -0.0058   -0.0229   -0.0002    0.0269    0.0095   -0.0071   -0.0319
          15    0.0385   -0.0007   -0.0199    0.0039    0.0152    0.0130    0.0061    0.0063
          16    0.0130    0.0085   -0.0555   -0.0569    0.0260    0.0343    0.0226   -0.0026
          17    0.0663   -0.0160    0.0004    0.0045    0.0868    0.0070   -0.0112    0.2581
          18   -0.0576    0.0113   -0.0015    0.0595   -0.0337    0.0098    0.0132   -0.1942
          19   -0.0117    0.0023   -0.0320   -0.1420    0.0040    0.0495    0.0554    0.0005
          20    0.0669    0.0142   -0.0118    0.0545   -0.0635   -0.0297   -0.1451    0.0165
          21   -0.0880   -0.0223    0.0417   -0.1136    0.0080    0.0253    0.0922   -0.0127
          22    0.0021    0.0009   -0.0718    0.0251   -0.0272    0.0035   -0.1063   -0.0194
          23   -0.0565   -0.0077    0.0312   -0.0658   -0.0557    0.0256    0.1530   -0.0282
          24   -0.0867   -0.0221    0.0404   -0.1095    0.0063    0.0214    0.0899   -0.0114
          25    0.0271   -0.1942    0.1260   -0.0047   -0.0985   -0.0137   -0.0294    0.0040
          26   -0.0523    0.0724    0.0089   -0.0133   -0.0594   -0.0176   -0.1165    0.0214
          27    0.0904   -0.1210    0.0160   -0.0150   -0.0007    0.0079    0.0596   -0.0085
          28    0.0258    0.2293    0.0530    0.0389   -0.0930   -0.0048    0.0579   -0.0100
          29    0.0688   -0.0655    0.0134    0.0036   -0.0620    0.0128    0.1365   -0.0170
          30    0.0894   -0.1133    0.0146   -0.0150   -0.0008    0.0092    0.0574   -0.0077
          31    0.0187    0.0066    0.0522   -0.0051   -0.0562    0.0077   -0.0097    0.0005
          32   -0.0123   -0.0057   -0.0861   -0.0604    0.0348    0.0420   -0.0491    0.0139
          33    0.0503    0.2686   -0.0459    0.0139    0.0063    0.0073    0.0553   -0.0070
          34   -0.0209   -0.0520   -0.1073    0.1593   -0.0653    0.2629    0.0483   -0.0089
          35   -0.0850    0.0111   -0.0127   -0.0106   -0.0112   -0.1265    0.0581    0.1773
          36   -0.0397    0.0260    0.0205   -0.0343    0.0022   -0.1605    0.0351    0.1492
          37   -0.0129    0.0247    0.1416    0.0546    0.1499    0.2608   -0.0172    0.0184
          38    0.0149   -0.0123   -0.0529   -0.0151    0.0084   -0.1161    0.0044   -0.0914
          39    0.0945   -0.0067   -0.0386   -0.0281    0.0400   -0.1738    0.0287   -0.1984


   Root No.       9        10        11        12        13        14        15        16

                 9 A      10 A      11 A      12 A      13 A      14 A      15 A      16 A   

                 915.9     949.3     956.2    1004.1    1083.7    1116.3    1123.0    1135.3
  
           1    0.0173    0.0017   -0.0273    0.0055   -0.0075   -0.0262   -0.0055   -0.0395
           2   -0.0189   -0.0217    0.0045   -0.0144   -0.0271   -0.0004   -0.0073    0.0028
           3   -0.0275    0.0115    0.0063    0.0083    0.0244    0.0306    0.0134    0.0372
           4   -0.0188   -0.0009    0.0144    0.0086   -0.0064    0.0174   -0.0035    0.0301
           5    0.0080   -0.0010   -0.0079   -0.0059   -0.0140   -0.0037   -0.0598   -0.0125
           6    0.0023    0.0044    0.0034    0.0248   -0.0185   -0.0453   -0.0016    0.0037
           7   -0.0187   -0.0067    0.0340   -0.0185    0.0083   -0.0058    0.0038   -0.0087
           8   -0.0016    0.0028    0.0037    0.0026    0.0172   -0.0060    0.0617   -0.0036
           9    0.0092   -0.0061   -0.0054   -0.0144    0.0071    0.0410    0.0007   -0.0262
          10   -0.0055    0.0370   -0.0106   -0.0243    0.0217   -0.0140   -0.0160   -0.0129
          11    0.0063   -0.0117   -0.0088    0.0058    0.0341   -0.0128   -0.0141   -0.0101
          12    0.0045   -0.0440   -0.0114   -0.0030    0.0228   -0.0221   -0.0230   -0.0189
          13   -0.0013   -0.0423   -0.0081    0.0108   -0.0152    0.0096    0.0181    0.0091
          14   -0.0015    0.0361   -0.0091    0.0003   -0.0123    0.0085    0.0137    0.0085
          15    0.0049    0.0216   -0.0128   -0.0142   -0.0374   -0.0008    0.0114   -0.0003
          16    0.0318   -0.0026   -0.0737   -0.0206    0.0201    0.0085    0.0619   -0.0572
          17   -0.0297   -0.0583   -0.0082    0.1146    0.1505    0.0526    0.0112    0.0431
          18   -0.0108    0.0361   -0.0098   -0.1016   -0.0938    0.0059    0.0312   -0.0017
          19    0.0383   -0.0220   -0.0429   -0.0881    0.0438    0.0772   -0.0719    0.3349
          20    0.0727   -0.0098   -0.0427   -0.0117   -0.0252   -0.0859   -0.1355    0.1822
          21   -0.0157    0.0006    0.0014   -0.0164    0.0123    0.0345    0.0157    0.0155
          22   -0.0623    0.0691    0.0412    0.2046   -0.0916    0.1221   -0.0914   -0.0549
          23   -0.0413    0.0395    0.0006    0.0565   -0.0260    0.1731   -0.1349   -0.0866
          24   -0.0113    0.0026   -0.0032   -0.0140    0.0074    0.0238   -0.0118   -0.0066
          25    0.0674    0.0105   -0.0776    0.0160    0.0217    0.0661    0.0697    0.0045
          26    0.0968   -0.0186   -0.0793   -0.0411    0.0548    0.1425    0.1198   -0.0599
          27   -0.0253    0.0150    0.0084    0.0289   -0.0123   -0.0307   -0.0107    0.0150
          28    0.0137    0.0403   -0.0496    0.0789   -0.0040   -0.0378    0.0668    0.0546
          29   -0.0424    0.0575   -0.0078    0.1148   -0.0082   -0.1407    0.1119    0.0920
          30   -0.0289    0.0134    0.0161    0.0251   -0.0059   -0.0333    0.0087    0.0119
          31   -0.0165   -0.0056    0.0310   -0.0166    0.0087   -0.0028    0.0056   -0.0062
          32   -0.1173   -0.0538    0.1927   -0.1123    0.0396   -0.0362    0.0198   -0.0517
          33   -0.0300    0.0150    0.0137    0.0314   -0.0103   -0.0381   -0.0025    0.0156
          34    0.1406   -0.2249    0.0747    0.0455   -0.0936    0.0102    0.0256    0.0031
          35    0.1485    0.0485    0.1481   -0.0027   -0.1672    0.0519    0.0632    0.0432
          36    0.0357    0.0754    0.0474   -0.0312   -0.0521    0.0056    0.0063    0.0053
          37    0.1090    0.2687    0.0693   -0.0063    0.0843   -0.0179   -0.0301   -0.0182
          38    0.0037   -0.0571    0.0077    0.0215    0.0074    0.0140    0.0137    0.0157
          39    0.1662   -0.0083    0.1615    0.0600    0.1725   -0.0094   -0.0484   -0.0021


   Root No.      17        18        19        20        21        22        23        24

                17 A      18 A      19 A      20 A      21 A      22 A      23 A      24 A   

                1146.7    1220.2    1293.4    1383.4    1407.0    1412.6    1421.4    1457.4
  
           1   -0.0217   -0.0098    0.0199    0.0201   -0.0004    0.0013   -0.0181    0.1216
           2    0.0812    0.0160    0.0134    0.0134    0.0005    0.0005   -0.0032    0.0528
           3   -0.0255    0.0145    0.0441    0.0169   -0.0009    0.0007   -0.0109    0.0610
           4    0.0356   -0.0241    0.0636    0.0197    0.0010    0.0048    0.0080   -0.0932
           5   -0.0299    0.0113    0.0473   -0.0185   -0.0080    0.0010   -0.0455   -0.0355
           6    0.0036    0.0202   -0.0040   -0.0021   -0.0011   -0.0002    0.0014   -0.0092
           7   -0.0195    0.0055   -0.0150   -0.0124    0.0080   -0.0402    0.0191    0.0190
           8    0.0175   -0.0123    0.0017   -0.0346    0.0030    0.0059    0.0532    0.0321
           9    0.0026   -0.0088   -0.0007    0.0026   -0.0383   -0.0062    0.0030    0.0008
          10    0.0250   -0.0062   -0.0180   -0.0072    0.0003   -0.0004    0.0045   -0.0259
          11   -0.0042   -0.0229   -0.0252   -0.0127    0.0005   -0.0006    0.0079   -0.0543
          12    0.0345   -0.0186   -0.0159   -0.0029    0.0005   -0.0002    0.0021   -0.0019
          13   -0.0383   -0.0083   -0.0166   -0.0073    0.0003   -0.0005    0.0056   -0.0266
          14   -0.0452   -0.0150   -0.0004    0.0006    0.0000    0.0001   -0.0018    0.0112
          15   -0.0327   -0.0290   -0.0273   -0.0128    0.0007   -0.0005    0.0080   -0.0526
          16   -0.0156    0.5002   -0.0090   -0.0359   -0.0123   -0.0048    0.0123   -0.1297
          17   -0.1100    0.1369    0.0375   -0.0042   -0.0062   -0.0025   -0.0040   -0.0163
          18    0.1166    0.1758    0.0104    0.0019   -0.0024   -0.0006    0.0049   -0.0106
          19    0.0343    0.0034   -0.1288   -0.0966   -0.0106   -0.0255   -0.0576    0.1391
          20   -0.0514    0.0772   -0.0962    0.1356    0.0235    0.0137    0.1334    0.0401
          21    0.0141   -0.0052    0.0015   -0.1326   -0.0242   -0.0187   -0.1239    0.0414
          22    0.1081    0.0362   -0.1794   -0.1186   -0.0075   -0.0246   -0.0522    0.0716
          23   -0.0203    0.0320   -0.0994    0.1391    0.0255    0.0151    0.1365    0.0309
          24   -0.0173    0.0099    0.0038    0.1299    0.0188    0.0167    0.1182   -0.0265
          25    0.0578   -0.0250   -0.0390    0.0375    0.1910    0.2747   -0.0883   -0.0356
          26    0.0679   -0.0505   -0.0694    0.1195    0.0638   -0.1376   -0.1246   -0.0652
          27   -0.0015    0.0081    0.0292   -0.0659    0.0220    0.2000    0.0580    0.0342
          28    0.0534   -0.0122   -0.0435    0.0567   -0.2679    0.2108   -0.0456   -0.0325
          29    0.0511    0.0077   -0.0709    0.1203   -0.0249   -0.1559   -0.1159   -0.0684
          30   -0.0014    0.0103   -0.0283    0.0597    0.0673   -0.1780   -0.0655   -0.0361
          31   -0.0166    0.0048   -0.0219   -0.0046   -0.0029   -0.0138    0.0091    0.0133
          32   -0.0935    0.0456   -0.1630    0.1017   -0.0336    0.1840   -0.1485   -0.0117
          33   -0.0036    0.0219    0.0059   -0.0220    0.3856    0.0557   -0.0310   -0.0030
          34   -0.0161    0.0018    0.0061    0.0043    0.0001    0.0006   -0.0023    0.0179
          35   -0.0354    0.0295    0.0197    0.0036   -0.0003    0.0003   -0.0012    0.0011
          36    0.0305    0.0063    0.0007    0.0028    0.0002    0.0000   -0.0010    0.0185
          37    0.0203    0.0021    0.0112    0.0036   -0.0003    0.0005   -0.0038    0.0161
          38   -0.0388   -0.0057    0.0024    0.0017   -0.0001    0.0000   -0.0017    0.0155
          39    0.0732    0.0325    0.0218    0.0043   -0.0006    0.0004   -0.0024    0.0049


   Root No.      25        26        27        28        29        30        31        32

                25 A      26 A      27 A      28 A      29 A      30 A      31 A      32 A   

                1925.2    2955.2    2973.6    3035.7    3079.9    3085.4    3182.1    3267.1
  
           1   -0.0543   -0.0042    0.0187    0.0008   -0.0001    0.0002    0.0000    0.0000
           2   -0.0363    0.0064   -0.0303   -0.0005    0.0000    0.0003    0.0001    0.0003
           3   -0.0474    0.0084   -0.0408   -0.0007    0.0001    0.0001    0.0001   -0.0002
           4    0.0101    0.0006    0.0000    0.0218    0.0006   -0.0018   -0.0004    0.0000
           5    0.0024    0.0003    0.0007   -0.0322   -0.0008    0.0025   -0.0003    0.0001
           6    0.0026   -0.0493   -0.0160   -0.0008   -0.0028   -0.0006    0.0000    0.0000
           7    0.0006   -0.0001    0.0001   -0.0045    0.0118   -0.0443   -0.0099    0.0000
           8    0.0001    0.0001    0.0000    0.0011   -0.0053    0.0178   -0.0226    0.0000
           9   -0.0001    0.0027    0.0006    0.0002   -0.0499   -0.0124    0.0008   -0.0001
          10    0.0164    0.0002    0.0005    0.0000    0.0000    0.0000    0.0000    0.0108
          11   -0.1270    0.0004   -0.0013   -0.0001    0.0000    0.0000    0.0000   -0.0183
          12    0.1218    0.0000    0.0005    0.0000    0.0000    0.0000    0.0000    0.0326
          13    0.0137    0.0000    0.0004    0.0002    0.0000    0.0000    0.0000   -0.0103
          14    0.1536   -0.0001    0.0008    0.0000    0.0000    0.0000    0.0000   -0.0366
          15   -0.0867    0.0003   -0.0011    0.0000    0.0000    0.0000    0.0000    0.0083
          16    0.0329    0.0491   -0.2457   -0.0055   -0.0003    0.0010    0.0004   -0.0001
          17   -0.0227   -0.0779    0.3672    0.0061   -0.0017   -0.0003   -0.0013    0.0008
          18   -0.0312   -0.1063    0.4945    0.0094   -0.0018   -0.0011   -0.0014   -0.0005
          19   -0.0143   -0.1323   -0.0423   -0.1438   -0.0090    0.0076    0.0006    0.0000
          20   -0.0045    0.1898    0.0550    0.2037    0.0182   -0.0135   -0.0024   -0.0001
          21   -0.0043    0.2860    0.0820    0.3643    0.0232   -0.0236   -0.0024    0.0001
          22    0.0068    0.1244    0.0454   -0.1207    0.0034    0.0088    0.0003   -0.0001
          23   -0.0025   -0.1936   -0.0677    0.1887   -0.0090   -0.0187   -0.0019    0.0000
          24   -0.0009    0.3071    0.1066   -0.3549    0.0081    0.0303    0.0020    0.0004
          25    0.0008    0.0083    0.0028    0.0055   -0.1495    0.0218   -0.1060    0.0000
          26    0.0003   -0.0082   -0.0001   -0.0094    0.2373   -0.0596    0.1466    0.0001
          27   -0.0006   -0.0176   -0.0029   -0.0173    0.3621   -0.1178    0.2541   -0.0002
          28    0.0005   -0.0078   -0.0022    0.0038    0.1117    0.0763   -0.1024    0.0001
          29    0.0002    0.0076    0.0020   -0.0077   -0.1738   -0.1512    0.1488   -0.0001
          30    0.0004   -0.0175   -0.0053    0.0148    0.2634    0.2655   -0.2690   -0.0003
          31    0.0014   -0.0006    0.0015    0.0430   -0.1026    0.4313    0.3295   -0.0001
          32   -0.0009    0.0000    0.0002   -0.0041    0.0001   -0.0026   -0.0189    0.0000
          33    0.0000    0.0005    0.0001    0.0008   -0.0278    0.0005    0.0055   -0.0001
          34    0.0678   -0.0002    0.0028    0.0000    0.0001   -0.0001    0.0000   -0.1265
          35   -0.1092    0.0001   -0.0018    0.0002    0.0000    0.0001   -0.0001    0.2162
          36    0.2010   -0.0003    0.0039   -0.0002    0.0000   -0.0003    0.0001   -0.3850
          37    0.0645   -0.0005    0.0026    0.0003    0.0000   -0.0001    0.0001    0.1205
          38    0.2251   -0.0005    0.0042    0.0001    0.0001   -0.0002    0.0002    0.4332
          39   -0.0468    0.0000   -0.0006    0.0000    0.0000    0.0000    0.0000   -0.0980


   Root No.      33

                33 A   

                3303.7
  
           1    0.0028
           2    0.0027
           3    0.0034
           4    0.0000
           5    0.0000
           6    0.0001
           7    0.0000
           8    0.0000
           9   -0.0001
          10   -0.0119
          11    0.0272
          12   -0.0414
          13   -0.0112
          14   -0.0475
          15    0.0145
          16    0.0016
          17   -0.0001
          18   -0.0006
          19    0.0004
          20   -0.0002
          21    0.0000
          22   -0.0003
          23    0.0004
          24   -0.0002
          25    0.0000
          26    0.0000
          27   -0.0005
          28    0.0001
          29   -0.0003
          30    0.0001
          31    0.0002
          32    0.0000
          33   -0.0001
          34    0.1234
          35   -0.2084
          36    0.3733
          37    0.1170
          38    0.4182
          39   -0.0930


           MASS-WEIGHTED COORDINATE ANALYSIS (NORMAL COORDINATES)


   Root No.       1         2         3         4         5         6         7         8

                 1 A       2 A       3 A       4 A       5 A       6 A       7 A       8 A   

                  69.8     188.4     269.7     407.5     457.5     774.9     822.6     891.6
  
           1    0.0084    0.0170   -0.2340   -0.2852    0.0777   -0.0056    0.0280    0.0007
           2    0.1797   -0.0160    0.1837    0.1334    0.3668   -0.0085   -0.0173    0.1013
           3   -0.2457   -0.0196   -0.0471    0.4049   -0.1120   -0.0088   -0.0395   -0.0845
           4    0.0098    0.0183   -0.2328   -0.3099    0.0297    0.1241   -0.1402   -0.0012
           5    0.0769    0.0303    0.1805    0.0345   -0.3325   -0.0410    0.0468   -0.0120
           6   -0.3521   -0.1172    0.1401   -0.2385   -0.0122   -0.0353   -0.3578   -0.0057
           7    0.1440    0.0766    0.3717   -0.0328   -0.3679    0.0523   -0.0775    0.0045
           8    0.0240    0.0069   -0.0768   -0.1124   -0.2581    0.0380   -0.0260    0.0226
           9    0.3933    0.0366    0.0001   -0.0816    0.0092    0.0006   -0.0876    0.0147
          10   -0.1057   -0.1756   -0.3309    0.4150   -0.0709   -0.2496    0.1279    0.1834
          11   -0.3016    0.0276   -0.0526    0.0033    0.1108    0.0602    0.0353   -0.0952
          12   -0.1267    0.0928    0.0230    0.0242   -0.0039    0.0975    0.1290    0.1992
          13   -0.0831    0.0476    0.3610    0.1743    0.4226   -0.2499    0.0466   -0.1773
          14    0.0140   -0.0429   -0.1676   -0.0015    0.1824    0.0622   -0.0600   -0.2177
          15    0.2973   -0.0053   -0.1450    0.0261    0.1031    0.0848    0.0513    0.0429
          16    0.0290    0.0180   -0.1175   -0.1098    0.0510    0.0649    0.0551   -0.0052
          17    0.1481   -0.0341    0.0009    0.0087    0.1706    0.0132   -0.0272    0.5106
          18   -0.1288    0.0241   -0.0031    0.1147   -0.0661    0.0186    0.0322   -0.3842
          19   -0.0262    0.0049   -0.0678   -0.2737    0.0079    0.0936    0.1350    0.0010
          20    0.1496    0.0303   -0.0249    0.1050   -0.1248   -0.0562   -0.3535    0.0327
          21   -0.1967   -0.0475    0.0882   -0.2190    0.0156    0.0479    0.2247   -0.0252
          22    0.0048    0.0019   -0.1520    0.0483   -0.0534    0.0065   -0.2590   -0.0383
          23   -0.1264   -0.0164    0.0660   -0.1269   -0.1095    0.0485    0.3729   -0.0557
          24   -0.1938   -0.0470    0.0855   -0.2112    0.0125    0.0405    0.2190   -0.0225
          25    0.0606   -0.4136    0.2667   -0.0091   -0.1936   -0.0258   -0.0716    0.0079
          26   -0.1168    0.1543    0.0188   -0.0256   -0.1167   -0.0333   -0.2840    0.0424
          27    0.2020   -0.2577    0.0339   -0.0288   -0.0013    0.0149    0.1453   -0.0168
          28    0.0576    0.4885    0.1121    0.0749   -0.1827   -0.0090    0.1412   -0.0197
          29    0.1537   -0.1396    0.0284    0.0070   -0.1218    0.0241    0.3325   -0.0336
          30    0.1998   -0.2413    0.0309   -0.0290   -0.0016    0.0174    0.1399   -0.0153
          31    0.0418    0.0141    0.1105   -0.0098   -0.1103    0.0145   -0.0237    0.0009
          32   -0.0275   -0.0122   -0.1823   -0.1165    0.0685    0.0794   -0.1197    0.0275
          33    0.1124    0.5720   -0.0972    0.0268    0.0124    0.0139    0.1348   -0.0138
          34   -0.0466   -0.1108   -0.2271    0.3071   -0.1282    0.4970    0.1176   -0.0177
          35   -0.1901    0.0236   -0.0268   -0.0205   -0.0221   -0.2392    0.1415    0.3508
          36   -0.0888    0.0553    0.0434   -0.0661    0.0043   -0.3034    0.0855    0.2953
          37   -0.0288    0.0526    0.2997    0.1052    0.2946    0.4931   -0.0419    0.0365
          38    0.0334   -0.0262   -0.1120   -0.0291    0.0164   -0.2195    0.0107   -0.1808
          39    0.2112   -0.0143   -0.0817   -0.0542    0.0786   -0.3286    0.0699   -0.3926


   Root No.       9        10        11        12        13        14        15        16

                 9 A      10 A      11 A      12 A      13 A      14 A      15 A      16 A   

                 915.9     949.3     956.2    1004.1    1083.7    1116.3    1123.0    1135.3
  
           1    0.1499    0.0119   -0.2358    0.0492   -0.0578   -0.2032   -0.0412   -0.2734
           2   -0.1639   -0.1511    0.0386   -0.1281   -0.2090   -0.0035   -0.0551    0.0192
           3   -0.2391    0.0798    0.0548    0.0736    0.1880    0.2380    0.1006    0.2575
           4   -0.1633   -0.0063    0.1245    0.0762   -0.0494    0.1353   -0.0265    0.2086
           5    0.0699   -0.0073   -0.0683   -0.0524   -0.1080   -0.0287   -0.4491   -0.0865
           6    0.0204    0.0306    0.0297    0.2202   -0.1424   -0.3519   -0.0118    0.0257
           7   -0.1621   -0.0463    0.2932   -0.1645    0.0643   -0.0451    0.0284   -0.0603
           8   -0.0142    0.0195    0.0316    0.0228    0.1328   -0.0465    0.4635   -0.0250
           9    0.0795   -0.0424   -0.0464   -0.1279    0.0548    0.3187    0.0053   -0.1814
          10   -0.0476    0.2572   -0.0918   -0.2155    0.1669   -0.1085   -0.1200   -0.0892
          11    0.0550   -0.0814   -0.0761    0.0512    0.2625   -0.0993   -0.1061   -0.0702
          12    0.0389   -0.3055   -0.0981   -0.0267    0.1759   -0.1713   -0.1726   -0.1306
          13   -0.0114   -0.2943   -0.0699    0.0957   -0.1172    0.0744    0.1363    0.0629
          14   -0.0130    0.2507   -0.0788    0.0026   -0.0950    0.0663    0.1029    0.0591
          15    0.0422    0.1501   -0.1107   -0.1258   -0.2878   -0.0063    0.0857   -0.0019
          16    0.0799   -0.0052   -0.1843   -0.0529    0.0448    0.0192    0.1347   -0.1146
          17   -0.0747   -0.1175   -0.0205    0.2945    0.3359    0.1184    0.0244    0.0865
          18   -0.0271    0.0728   -0.0245   -0.2612   -0.2094    0.0134    0.0678   -0.0035
          19    0.0962   -0.0442   -0.1073   -0.2264    0.0977    0.1737   -0.1564    0.6716
          20    0.1827   -0.0198   -0.1068   -0.0300   -0.0561   -0.1934   -0.2947    0.3654
          21   -0.0396    0.0012    0.0035   -0.0422    0.0275    0.0777    0.0342    0.0311
          22   -0.1566    0.1391    0.1030    0.5259   -0.2044    0.2747   -0.1989   -0.1101
          23   -0.1040    0.0796    0.0015    0.1451   -0.0581    0.3894   -0.2934   -0.1736
          24   -0.0285    0.0052   -0.0080   -0.0361    0.0166    0.0535   -0.0256   -0.0131
          25    0.1695    0.0212   -0.1942    0.0412    0.0485    0.1487    0.1517    0.0091
          26    0.2434   -0.0374   -0.1983   -0.1056    0.1224    0.3207    0.2607   -0.1201
          27   -0.0637    0.0302    0.0211    0.0744   -0.0275   -0.0691   -0.0233    0.0301
          28    0.0346    0.0811   -0.1240    0.2026   -0.0089   -0.0850    0.1453    0.1095
          29   -0.1067    0.1157   -0.0196    0.2950   -0.0183   -0.3167    0.2435    0.1845
          30   -0.0726    0.0270    0.0402    0.0645   -0.0131   -0.0748    0.0188    0.0238
          31   -0.0415   -0.0113    0.0776   -0.0427    0.0195   -0.0064    0.0122   -0.0124
          32   -0.2949   -0.1084    0.4820   -0.2886    0.0884   -0.0815    0.0432   -0.1037
          33   -0.0755    0.0302    0.0343    0.0806   -0.0231   -0.0858   -0.0053    0.0312
          34    0.3536   -0.4529    0.1868    0.1169   -0.2089    0.0230    0.0557    0.0061
          35    0.3735    0.0976    0.3704   -0.0070   -0.3731    0.1168    0.1376    0.0866
          36    0.0898    0.1518    0.1186   -0.0803   -0.1162    0.0127    0.0138    0.0106
          37    0.2741    0.5410    0.1734   -0.0161    0.1880   -0.0402   -0.0654   -0.0365
          38    0.0094   -0.1150    0.0191    0.0554    0.0166    0.0316    0.0299    0.0314
          39    0.4179   -0.0166    0.4038    0.1543    0.3849   -0.0211   -0.1054   -0.0043


   Root No.      17        18        19        20        21        22        23        24

                17 A      18 A      19 A      20 A      21 A      22 A      23 A      24 A   

                1146.7    1220.2    1293.4    1383.4    1407.0    1412.6    1421.4    1457.4
  
           1   -0.1421   -0.0560    0.1383    0.1595   -0.0028    0.0081   -0.1354    0.5724
           2    0.5327    0.0917    0.0932    0.1060    0.0034    0.0032   -0.0237    0.2485
           3   -0.1675    0.0828    0.3064    0.1343   -0.0060    0.0046   -0.0815    0.2871
           4    0.2332   -0.1378    0.4418    0.1559    0.0064    0.0305    0.0601   -0.4386
           5   -0.1962    0.0645    0.3288   -0.1464   -0.0514    0.0065   -0.3406   -0.1671
           6    0.0236    0.1155   -0.0277   -0.0163   -0.0074   -0.0012    0.0103   -0.0432
           7   -0.1279    0.0315   -0.1042   -0.0983    0.0516   -0.2556    0.1431    0.0894
           8    0.1147   -0.0707    0.0121   -0.2746    0.0193    0.0375    0.3980    0.1510
           9    0.0168   -0.0507   -0.0047    0.0209   -0.2457   -0.0392    0.0226    0.0038
          10    0.1641   -0.0355   -0.1248   -0.0570    0.0021   -0.0027    0.0336   -0.1219
          11   -0.0279   -0.1309   -0.1753   -0.1007    0.0030   -0.0035    0.0588   -0.2557
          12    0.2259   -0.1065   -0.1105   -0.0228    0.0033   -0.0011    0.0155   -0.0092
          13   -0.2514   -0.0478   -0.1155   -0.0579    0.0021   -0.0032    0.0420   -0.1251
          14   -0.2965   -0.0856   -0.0028    0.0050    0.0001    0.0006   -0.0133    0.0525
          15   -0.2147   -0.1659   -0.1897   -0.1015    0.0045   -0.0034    0.0600   -0.2476
          16   -0.0295    0.8292   -0.0181   -0.0825   -0.0228   -0.0089    0.0266   -0.1769
          17   -0.2090    0.2270    0.0754   -0.0096   -0.0115   -0.0045   -0.0087   -0.0223
          18    0.2214    0.2915    0.0210    0.0044   -0.0045   -0.0012    0.0107   -0.0145
          19    0.0651    0.0057   -0.2590   -0.2218   -0.0197   -0.0470   -0.1249    0.1897
          20   -0.0977    0.1280   -0.1935    0.3113    0.0437    0.0252    0.2891    0.0547
          21    0.0267   -0.0086    0.0031   -0.3045   -0.0450   -0.0345   -0.2685    0.0565
          22    0.2053    0.0600   -0.3609   -0.2724   -0.0140   -0.0453   -0.1131    0.0976
          23   -0.0386    0.0531   -0.2000    0.3195    0.0473    0.0278    0.2958    0.0422
          24   -0.0328    0.0163    0.0077    0.2984    0.0349    0.0308    0.2560   -0.0361
          25    0.1098   -0.0414   -0.0785    0.0861    0.3550    0.5060   -0.1914   -0.0486
          26    0.1290   -0.0837   -0.1396    0.2743    0.1185   -0.2534   -0.2700   -0.0890
          27   -0.0029    0.0134    0.0588   -0.1513    0.0409    0.3684    0.1257    0.0466
          28    0.1015   -0.0202   -0.0876    0.1301   -0.4979    0.3882   -0.0988   -0.0443
          29    0.0970    0.0127   -0.1425    0.2763   -0.0463   -0.2871   -0.2511   -0.0933
          30   -0.0027    0.0170   -0.0569    0.1371    0.1252   -0.3279   -0.1419   -0.0492
          31   -0.0315    0.0079   -0.0440   -0.0106   -0.0054   -0.0255    0.0198    0.0182
          32   -0.1775    0.0756   -0.3279    0.2336   -0.0624    0.3390   -0.3219   -0.0160
          33   -0.0069    0.0363    0.0119   -0.0504    0.7167    0.1026   -0.0672   -0.0040
          34   -0.0306    0.0030    0.0123    0.0098    0.0002    0.0012   -0.0049    0.0245
          35   -0.0673    0.0489    0.0396    0.0083   -0.0006    0.0005   -0.0026    0.0015
          36    0.0579    0.0105    0.0014    0.0064    0.0003   -0.0001   -0.0023    0.0253
          37    0.0386    0.0035    0.0226    0.0083   -0.0006    0.0010   -0.0083    0.0219
          38   -0.0737   -0.0094    0.0048    0.0039   -0.0001    0.0001   -0.0037    0.0211
          39    0.1390    0.0538    0.0439    0.0098   -0.0011    0.0007   -0.0052    0.0066


   Root No.      25        26        27        28        29        30        31        32

                25 A      26 A      27 A      28 A      29 A      30 A      31 A      32 A   

                1925.2    2955.2    2973.6    3035.7    3079.9    3085.4    3182.1    3267.1
  
           1   -0.1932   -0.0251    0.0904    0.0046   -0.0008    0.0013    0.0002    0.0001
           2   -0.1290    0.0380   -0.1469   -0.0030    0.0002    0.0020    0.0007    0.0016
           3   -0.1688    0.0504   -0.1978   -0.0040    0.0004    0.0006    0.0007   -0.0010
           4    0.0361    0.0035    0.0001    0.1202    0.0033   -0.0106   -0.0021   -0.0002
           5    0.0085    0.0015    0.0032   -0.1776   -0.0044    0.0150   -0.0017    0.0004
           6    0.0092   -0.2946   -0.0774   -0.0045   -0.0159   -0.0036    0.0002    0.0001
           7    0.0022   -0.0003    0.0007   -0.0249    0.0673   -0.2647   -0.0608    0.0002
           8    0.0004    0.0003    0.0001    0.0063   -0.0300    0.1062   -0.1379    0.0000
           9   -0.0005    0.0159    0.0027    0.0009   -0.2850   -0.0740    0.0049   -0.0005
          10    0.0583    0.0015    0.0025   -0.0002    0.0002    0.0002   -0.0001    0.0551
          11   -0.4521    0.0024   -0.0063   -0.0005    0.0001    0.0001    0.0000   -0.0932
          12    0.4336    0.0000    0.0022   -0.0001    0.0000    0.0000    0.0000    0.1659
          13    0.0488    0.0002    0.0020    0.0009    0.0000    0.0000    0.0000   -0.0525
          14    0.5465   -0.0007    0.0040    0.0001    0.0001   -0.0001   -0.0001   -0.1867
          15   -0.3085    0.0017   -0.0055   -0.0001    0.0001    0.0000    0.0000    0.0423
          16    0.0339    0.0850   -0.3449   -0.0088   -0.0004    0.0017    0.0006   -0.0001
          17   -0.0234   -0.1348    0.5155    0.0098   -0.0028   -0.0006   -0.0024    0.0011
          18   -0.0321   -0.1840    0.6941    0.0150   -0.0029   -0.0019   -0.0025   -0.0008
          19   -0.0147   -0.2289   -0.0594   -0.2297   -0.0149    0.0132    0.0011    0.0000
          20   -0.0046    0.3285    0.0772    0.3254    0.0301   -0.0233   -0.0042   -0.0002
          21   -0.0045    0.4950    0.1151    0.5818    0.0384   -0.0409   -0.0043    0.0001
          22    0.0070    0.2153    0.0637   -0.1928    0.0057    0.0152    0.0006   -0.0001
          23   -0.0026   -0.3351   -0.0951    0.3013   -0.0148   -0.0323   -0.0033   -0.0001
          24   -0.0009    0.5315    0.1496   -0.5669    0.0134    0.0524    0.0036    0.0006
          25    0.0008    0.0143    0.0039    0.0087   -0.2471    0.0377   -0.1878    0.0000
          26    0.0003   -0.0142   -0.0002   -0.0151    0.3921   -0.1030    0.2598    0.0002
          27   -0.0006   -0.0304   -0.0040   -0.0276    0.5985   -0.2037    0.4502   -0.0004
          28    0.0005   -0.0136   -0.0031    0.0060    0.1846    0.1320   -0.1815    0.0001
          29    0.0002    0.0132    0.0028   -0.0123   -0.2873   -0.2614    0.2637   -0.0002
          30    0.0004   -0.0303   -0.0074    0.0236    0.4353    0.4592   -0.4766   -0.0004
          31    0.0014   -0.0010    0.0020    0.0686   -0.1696    0.7458    0.5838   -0.0001
          32   -0.0009    0.0000    0.0002   -0.0065    0.0001   -0.0045   -0.0335    0.0000
          33    0.0000    0.0009    0.0001    0.0012   -0.0459    0.0009    0.0098   -0.0001
          34    0.0699   -0.0004    0.0039   -0.0001    0.0002   -0.0001    0.0000   -0.1868
          35   -0.1126    0.0001   -0.0025    0.0003    0.0000    0.0003   -0.0001    0.3192
          36    0.2072   -0.0005    0.0054   -0.0003    0.0001   -0.0005    0.0002   -0.5684
          37    0.0664   -0.0009    0.0036    0.0004    0.0001   -0.0002    0.0001    0.1779
          38    0.2320   -0.0009    0.0058    0.0002    0.0002   -0.0004    0.0003    0.6395
          39   -0.0482    0.0000   -0.0009    0.0000    0.0000    0.0000    0.0000   -0.1446


   Root No.      33

                33 A   

                3303.7
  
           1    0.0143
           2    0.0136
           3    0.0174
           4    0.0001
           5    0.0002
           6    0.0008
           7   -0.0001
           8    0.0000
           9   -0.0005
          10   -0.0608
          11    0.1389
          12   -0.2112
          13   -0.0573
          14   -0.2425
          15    0.0740
          16    0.0024
          17   -0.0002
          18   -0.0008
          19    0.0006
          20   -0.0002
          21    0.0001
          22   -0.0004
          23    0.0006
          24   -0.0003
          25    0.0000
          26    0.0000
          27   -0.0007
          28    0.0002
          29   -0.0004
          30    0.0001
          31    0.0002
          32    0.0001
          33   -0.0001
          34    0.1825
          35   -0.3082
          36    0.5520
          37    0.1730
          38    0.6183
          39   -0.1375


          DESCRIPTION OF VIBRATIONS


 VIBRATION    1    1A       ATOM PAIR        ENERGY CONTRIBUTION    RADIAL
 FREQ.        69.76        C  2 --  C  3          +20.1% (901.1%)     0.0%
 T-DIPOLE    0.0327        C  1 --  C  2           +9.4% (616.8%)     0.0%
 TRAVEL      0.0400        C  3 --  H  9           +9.3% (612.3%)    62.7%
 RED. MASS   0.9765        C  3 --  H 11           +9.2% (609.1%)    12.3%
 EFF. MASS 603.6054

 VIBRATION    2    2A       ATOM PAIR        ENERGY CONTRIBUTION    RADIAL
 FREQ.       188.36        C  3 --  H 11          +31.3% (318.6%)     1.0%
 T-DIPOLE    0.0143        C  3 --  H 10          +30.2% (312.9%)     0.4%
 TRAVEL      0.2121        C  3 --  H  9          +28.7% (304.9%)     0.0%
 RED. MASS   0.3011        C  2 --  C  3           +2.3% ( 85.5%)     0.0%
 EFF. MASS   7.9567

 VIBRATION    3    3A       ATOM PAIR        ENERGY CONTRIBUTION    RADIAL
 FREQ.       269.67        C  2 --  C  3          +19.3% (212.0%)     0.1%
 T-DIPOLE    0.0742        C  3 --  H  9          +10.9% (159.4%)    55.9%
 TRAVEL      0.0787        C  1 --  C  5           +9.2% (146.2%)     0.0%
 RED. MASS   1.0485        C  3 --  H 10           +9.1% (145.3%)    13.3%
 EFF. MASS  40.3991

 VIBRATION    4    4A       ATOM PAIR        ENERGY CONTRIBUTION    RADIAL
 FREQ.       407.47        C  1 --  C  2          +19.0% (156.2%)     0.1%
 T-DIPOLE    0.0703        C  1 --  C  4          +16.4% (145.1%)     0.1%
 TRAVEL      0.0873        C  1 --  C  5          +14.5% (136.7%)     0.0%
 RED. MASS   1.5247        C  2 --  H  7          +11.9% (123.7%)    21.9%
 EFF. MASS  21.7009

 VIBRATION    5    5A       ATOM PAIR        ENERGY CONTRIBUTION    RADIAL
 FREQ.       457.53        C  1 --  C  2          +12.7% (118.2%)     0.5%
 T-DIPOLE    0.0812        C  2 --  C  3          +11.0% (110.2%)     3.4%
 TRAVEL      0.0868        C  3 --  H  9          +10.5% (107.3%)     0.2%
 RED. MASS   1.5355        C  3 --  H 10          +10.3% (106.4%)     1.1%
 EFF. MASS  19.5686

 VIBRATION    6    6A       ATOM PAIR        ENERGY CONTRIBUTION    RADIAL
 FREQ.       774.90        C  5 --  H 13          +38.7% ( 75.4%)     0.0%
 T-DIPOLE    0.7992        C  4 --  H 12          +38.6% ( 75.3%)     0.0%
 TRAVEL      0.1918        C  2 --  H  8           +3.2% ( 21.6%)     1.6%
 RED. MASS   0.4569        C  2 --  H  7           +3.1% ( 21.3%)    58.2%
 EFF. MASS   2.3667

 VIBRATION    7    7A       ATOM PAIR        ENERGY CONTRIBUTION    RADIAL
 FREQ.       822.64        C  2 --  H  7          +24.6% ( 81.9%)     4.4%
 T-DIPOLE    0.1443        C  2 --  H  8          +23.1% ( 79.4%)    15.6%
 TRAVEL      0.1397        C  3 --  H 10          +11.7% ( 56.5%)     1.9%
 RED. MASS   0.4271        C  1 --  C  2           +9.7% ( 51.4%)    21.2%
 EFF. MASS   4.1973

 VIBRATION    8    8A       ATOM PAIR        ENERGY CONTRIBUTION    RADIAL
 FREQ.       891.56        C  1 --  H  6          +19.7% ( 60.9%)     0.0%
 T-DIPOLE    0.1829        C  4 --  H 12          +18.3% ( 58.7%)    13.6%
 TRAVEL      0.1381        C  5 --  H 13          +17.3% ( 57.1%)    13.1%
 RED. MASS   0.4117        C  4 --  C  5          +14.5% ( 52.2%)     0.0%
 EFF. MASS   3.9678        C  1 --  C  4          +14.3% ( 51.9%)    66.3%
                           C  1 --  C  5          +13.9% ( 51.2%)    61.2%

 VIBRATION    9    9A       ATOM PAIR        ENERGY CONTRIBUTION    RADIAL
 FREQ.       915.92        C  4 --  H 12          +13.7% ( 51.0%)     0.0%
 T-DIPOLE    0.2068        C  1 --  C  2          +13.1% ( 49.8%)    44.6%
 TRAVEL      0.1409        C  5 --  H 13          +12.6% ( 48.9%)     0.2%
 RED. MASS   0.3211        C  3 --  H  9          +10.7% ( 45.0%)     3.6%
 EFF. MASS   3.7091

 VIBRATION   10   10A       ATOM PAIR        ENERGY CONTRIBUTION    RADIAL
 FREQ.       949.34        C  5 --  H 13          +30.1% ( 64.4%)     1.0%
 T-DIPOLE    0.0792        C  4 --  H 12          +25.4% ( 59.2%)     1.4%
 TRAVEL      0.1284        C  4 --  C  5          +13.4% ( 42.9%)     0.0%
 RED. MASS   0.8502        C  1 --  C  4           +9.9% ( 37.0%)    18.3%
 EFF. MASS   4.3053

 VIBRATION   11   11A       ATOM PAIR        ENERGY CONTRIBUTION    RADIAL
 FREQ.       956.16        C  3 --  H 11          +19.1% ( 60.6%)    18.0%
 T-DIPOLE    0.1540        C  3 --  H  9          +13.3% ( 50.7%)     2.5%
 TRAVEL      0.1368        C  5 --  H 13          +12.2% ( 48.5%)     1.0%
 RED. MASS   0.2961        C  4 --  H 12          +11.9% ( 47.8%)     0.8%
 EFF. MASS   3.7701

 VIBRATION   12   12A       ATOM PAIR        ENERGY CONTRIBUTION    RADIAL
 FREQ.      1004.11        C  2 --  H  8          +23.0% ( 60.8%)     8.3%
 T-DIPOLE    0.1046        C  3 --  H 10          +13.6% ( 46.7%)     6.3%
 TRAVEL      0.1448        C  1 --  H  6          +11.6% ( 43.2%)     0.2%
 RED. MASS   0.2522        C  3 --  H 11           +9.6% ( 39.4%)    10.1%
 EFF. MASS   3.2029

 VIBRATION   13   13A       ATOM PAIR        ENERGY CONTRIBUTION    RADIAL
 FREQ.      1083.66        C  4 --  H 12          +20.3% ( 54.7%)     0.4%
 T-DIPOLE    0.1282        C  5 --  H 13          +18.0% ( 51.4%)     0.5%
 TRAVEL      0.1221        C  1 --  H  6          +15.1% ( 47.2%)     0.2%
 RED. MASS   0.5340        C  4 --  C  5           +9.3% ( 37.1%)     0.0%
 EFF. MASS   4.1711

 VIBRATION   14   14A       ATOM PAIR        ENERGY CONTRIBUTION    RADIAL
 FREQ.      1116.30        C  2 --  H  8          +16.7% ( 57.6%)     7.6%
 T-DIPOLE    0.1656        C  2 --  C  3          +13.3% ( 51.4%)     1.4%
 TRAVEL      0.1013        C  1 --  C  2          +13.3% ( 51.4%)    24.7%
 RED. MASS   0.6166        C  3 --  H  9          +11.3% ( 47.4%)     9.9%
 EFF. MASS   5.8909

 VIBRATION   15   15A       ATOM PAIR        ENERGY CONTRIBUTION    RADIAL
 FREQ.      1122.98        C  2 --  C  3          +26.6% ( 75.8%)    90.6%
 T-DIPOLE    0.1258        C  2 --  H  8          +10.7% ( 48.1%)    38.2%
 TRAVEL      0.0881        C  2 --  H  7          +10.0% ( 46.4%)    59.9%
 RED. MASS   1.1521        C  3 --  H  9           +9.6% ( 45.7%)    48.3%
 EFF. MASS   7.7415

 VIBRATION   16   16A       ATOM PAIR        ENERGY CONTRIBUTION    RADIAL
 FREQ.      1135.29        C  2 --  H  7          +35.9% ( 74.4%)     1.1%
 T-DIPOLE    0.1335        C  1 --  C  2          +13.9% ( 46.4%)    78.2%
 TRAVEL      0.1193        C  1 --  C  4          +10.1% ( 39.5%)    31.4%
 RED. MASS   0.6505        C  1 --  C  5           +8.4% ( 36.0%)     7.4%
 EFF. MASS   4.1747

 VIBRATION   17   17A       ATOM PAIR        ENERGY CONTRIBUTION    RADIAL
 FREQ.      1146.69        C  1 --  C  5          +20.7% ( 71.7%)    76.6%
 T-DIPOLE    0.3004        C  1 --  C  4          +14.0% ( 59.0%)    34.7%
 TRAVEL      0.0783        C  1 --  C  2          +13.2% ( 57.2%)    19.9%
 RED. MASS   1.9950        C  1 --  H  6          +12.0% ( 54.6%)     3.7%
 EFF. MASS   9.5941        C  4 --  C  5          +11.1% ( 52.3%)     0.6%

 VIBRATION   18   18A       ATOM PAIR        ENERGY CONTRIBUTION    RADIAL
 FREQ.      1220.15        C  1 --  H  6          +70.7% ( 88.9%)     1.3%
 T-DIPOLE    0.2109        C  1 --  C  5           +4.0% ( 21.3%)    51.4%
 TRAVEL      0.1578        C  2 --  C  3           +3.5% ( 19.9%)     5.6%
 RED. MASS   0.7332        C  1 --  C  4           +3.3% ( 19.2%)    34.3%
 EFF. MASS   2.2206

 VIBRATION   19   19A       ATOM PAIR        ENERGY CONTRIBUTION    RADIAL
 FREQ.      1293.36        C  2 --  H  8          +20.4% ( 64.4%)     0.1%
 T-DIPOLE    0.1722        C  2 --  H  7          +17.6% ( 59.8%)     0.0%
 TRAVEL      0.0894        C  1 --  C  2          +14.4% ( 54.2%)    35.5%
 RED. MASS   1.4141        C  2 --  C  3          +11.7% ( 48.9%)    61.0%
 EFF. MASS   6.5250

 VIBRATION   20   20A       ATOM PAIR        ENERGY CONTRIBUTION    RADIAL
 FREQ.      1383.39        C  2 --  H  8          +18.8% ( 46.8%)     2.6%
 T-DIPOLE    0.0482        C  2 --  H  7          +16.7% ( 44.2%)     4.4%
 TRAVEL      0.1288        C  3 --  H 10          +12.7% ( 38.4%)     3.8%
 RED. MASS   0.3094        C  3 --  H  9          +12.5% ( 38.2%)     2.2%
 EFF. MASS   2.9369

 VIBRATION   21   21A       ATOM PAIR        ENERGY CONTRIBUTION    RADIAL
 FREQ.      1407.00        C  3 --  H 11          +51.4% ( 62.1%)     0.2%
 T-DIPOLE    0.0347        C  3 --  H 10          +26.8% ( 44.9%)     7.1%
 TRAVEL      0.1745        C  3 --  H  9          +15.0% ( 33.5%)    18.7%
 RED. MASS   0.4099        C  2 --  C  3           +5.2% ( 19.8%)    10.6%
 EFF. MASS   1.5741

 VIBRATION   22   22A       ATOM PAIR        ENERGY CONTRIBUTION    RADIAL
 FREQ.      1412.61        C  3 --  H  9          +45.6% ( 58.9%)     0.5%
 T-DIPOLE    0.0502        C  3 --  H 10          +34.6% ( 51.3%)     2.2%
 TRAVEL      0.1721        C  3 --  H 11          +13.2% ( 31.7%)    32.8%
 RED. MASS   0.3986        C  2 --  C  3           +5.6% ( 20.7%)     6.7%
 EFF. MASS   1.6115

 VIBRATION   23   23A       ATOM PAIR        ENERGY CONTRIBUTION    RADIAL
 FREQ.      1421.38        C  2 --  C  3          +17.5% ( 49.9%)    93.4%
 T-DIPOLE    0.0630        C  3 --  H  9          +15.1% ( 46.3%)     4.5%
 TRAVEL      0.1036        C  3 --  H 11          +14.3% ( 45.1%)     2.8%
 RED. MASS   0.6608        C  2 --  H  7          +13.7% ( 44.2%)     5.3%
 EFF. MASS   4.4206        C  3 --  H 10          +13.4% ( 43.7%)     3.1%
                           C  2 --  H  8          +13.4% ( 43.7%)     6.0%

 VIBRATION   24   24A       ATOM PAIR        ENERGY CONTRIBUTION    RADIAL
 FREQ.      1457.39        C  1 --  C  2          +23.3% ( 79.6%)    78.4%
 T-DIPOLE    0.3474        C  1 --  C  5          +16.3% ( 66.6%)    57.6%
 TRAVEL      0.0660        C  1 --  C  4          +16.2% ( 66.4%)    51.8%
 RED. MASS   3.4356        C  1 --  H  6          +15.2% ( 64.3%)     1.1%
 EFF. MASS  10.6262

 VIBRATION   25   25A       ATOM PAIR        ENERGY CONTRIBUTION    RADIAL
 FREQ.      1925.16        C  4 --  C  5          +42.0% ( 97.5%)   100.0%
 T-DIPOLE    0.1874        C  1 --  C  5          +16.5% ( 61.2%)    71.0%
 TRAVEL      0.0543        C  1 --  C  4          +16.5% ( 61.1%)    71.1%
 RED. MASS   3.8558        C  5 --  H 13          +10.7% ( 49.2%)    70.5%
 EFF. MASS  11.8843        C  4 --  H 12          +10.7% ( 49.1%)    71.8%

 VIBRATION   26   26A       ATOM PAIR        ENERGY CONTRIBUTION    RADIAL
 FREQ.      2955.24        C  2 --  H  8          +47.4% ( 71.5%)    96.7%
 T-DIPOLE    0.0094        C  2 --  H  7          +43.9% ( 68.8%)    96.3%
 TRAVEL      0.1217        C  1 --  H  6           +6.0% ( 25.4%)    99.9%
 RED. MASS   0.4561        C  1 --  C  2           +1.2% ( 11.3%)     0.7%
 EFF. MASS   1.5405

 VIBRATION   27   27A       ATOM PAIR        ENERGY CONTRIBUTION    RADIAL
 FREQ.      2973.58        C  1 --  H  6          +90.4% ( 96.7%)   100.0%
 T-DIPOLE    0.0571        C  2 --  H  8           +3.9% ( 20.0%)    97.6%
 TRAVEL      0.1253        C  2 --  H  7           +2.6% ( 16.3%)    95.7%
 RED. MASS   0.8161        C  1 --  C  2           +1.0% ( 10.3%)    18.1%
 EFF. MASS   1.4439

 VIBRATION   28   28A       ATOM PAIR        ENERGY CONTRIBUTION    RADIAL
 FREQ.      3035.72        C  2 --  H  7          +51.6% ( 70.8%)    98.0%
 T-DIPOLE    0.0254        C  2 --  H  8          +46.3% ( 67.1%)    97.4%
 TRAVEL      0.1320        C  2 --  C  3           +0.6% (  7.8%)    25.6%
 RED. MASS   0.4779        C  1 --  C  2           +0.6% (  7.7%)    30.5%
 EFF. MASS   1.2754

 VIBRATION   29   29A       ATOM PAIR        ENERGY CONTRIBUTION    RADIAL
 FREQ.      3079.93        C  3 --  H  9          +61.4% ( 80.8%)    98.5%
 T-DIPOLE    0.0119        C  3 --  H 10          +33.3% ( 59.6%)    93.9%
 TRAVEL      0.1208        C  3 --  H 11           +4.0% ( 20.7%)    47.6%
 RED. MASS   0.5165        C  2 --  C  3           +1.0% ( 10.2%)     0.0%
 EFF. MASS   1.5009

 VIBRATION   30   30A       ATOM PAIR        ENERGY CONTRIBUTION    RADIAL
 FREQ.      3085.39        C  3 --  H 11          +59.9% ( 79.8%)    98.5%
 T-DIPOLE    0.0119        C  3 --  H 10          +32.1% ( 58.5%)    93.3%
 TRAVEL      0.1206        C  3 --  H  9           +6.4% ( 26.1%)    61.5%
 RED. MASS   0.4940        C  2 --  C  3           +1.0% ( 10.3%)     0.1%
 EFF. MASS   1.5035

 VIBRATION   31   31A       ATOM PAIR        ENERGY CONTRIBUTION    RADIAL
 FREQ.      3182.14        C  3 --  H 11          +35.1% ( 57.0%)    97.4%
 T-DIPOLE    0.0098        C  3 --  H 10          +33.7% ( 55.8%)    97.2%
 TRAVEL      0.1366        C  3 --  H  9          +31.0% ( 53.5%)    96.7%
 RED. MASS   0.3277        C  2 --  C  3           +0.3% (  5.1%)    99.8%
 EFF. MASS   1.1362

 VIBRATION   32   32A       ATOM PAIR        ENERGY CONTRIBUTION    RADIAL
 FREQ.      3267.09        C  5 --  H 13          +48.7% ( 71.1%)   100.0%
 T-DIPOLE    0.8039        C  4 --  H 12          +48.5% ( 70.9%)   100.0%
 TRAVEL      0.1191        C  1 --  C  5           +1.0% ( 10.0%)    66.0%
 RED. MASS   0.4649        C  1 --  C  4           +1.0% ( 10.0%)    66.0%
 EFF. MASS   1.4553

 VIBRATION   33   33A       ATOM PAIR        ENERGY CONTRIBUTION    RADIAL
 FREQ.      3303.69        C  4 --  H 12          +45.9% ( 70.2%)    99.9%
 T-DIPOLE    0.4780        C  5 --  H 13          +45.8% ( 70.1%)    99.9%
 TRAVEL      0.1008        C  4 --  C  5           +4.9% ( 23.0%)   100.0%
 RED. MASS   0.4860        C  1 --  C  5           +1.7% ( 13.4%)    66.8%
 EFF. MASS   2.0098

 SYMMETRY NUMBER FOR POINT-GROUP C1  =  1


          SYSTEM IS A GROUND STATE


    NULL



          MOLECULE IS NOT LINEAR

          THERE ARE 33 GENUINE VIBRATIONS IN THIS SYSTEM
          THIS THERMODYNAMICS CALCULATION IS LIMITED TO
          MOLECULES WHICH HAVE NO INTERNAL ROTATIONS




                    CALCULATED THERMODYNAMIC PROPERTIES
                                          *
   TEMP. (K)   PARTITION FUNCTION   H.O.F.    ENTHALPY  HEAT CAPACITY ENTROPY
                                   KCAL/MOL   CAL/MOLE    CAL/K/MOL  CAL/K/MOL


 298.00  VIB.     0.1196D+02                  1855.0874    14.0531    11.1558
         ROT.     0.7412D+05                   888.2813     2.9808    25.2642
         INT.     0.8861D+06                  2743.3687    17.0339    36.4200
         TRA.     0.5435D+27                  1480.4688     4.9680    38.5714
         TOT.                       55.008    4223.8376    22.0020    74.9914

 200.00  VIB.     0.4439D+01                   775.9510     8.2354     6.8416
         ROT.     0.4075D+05                   596.1620     2.9808    24.0756
         INT.     0.1809D+06                  1372.1130    11.2162    30.9172
         TRA.     0.2988D+27                   993.6033     4.9680    36.5902
         TOT.                       53.150    2365.7162    16.1842    67.5074

 210.00  VIB.     0.4896D+01                   860.8438     8.7468     7.2557
         ROT.     0.4385D+05                   625.9700     2.9808    24.2210
         INT.     0.2147D+06                  1486.8139    11.7277    31.4767
         TRA.     0.3215D+27                  1043.2834     4.9680    36.8326
         TOT.                       53.314    2530.0973    16.6957    68.3093

 220.00  VIB.     0.5403D+01                   950.9613     9.2803     7.6748
         ROT.     0.4702D+05                   655.7781     2.9808    24.3597
         INT.     0.2540D+06                  1606.7394    12.2611    32.0345
         TRA.     0.3448D+27                  1092.9636     4.9680    37.0637
         TOT.                       53.484    2699.7030    17.2291    69.0982

 230.00  VIB.     0.5966D+01                  1046.5210     9.8352     8.0995
         ROT.     0.5026D+05                   685.5862     2.9808    24.4922
         INT.     0.2999D+06                  1732.1073    12.8160    32.5917
         TRA.     0.3685D+27                  1142.6437     4.9680    37.2846
         TOT.                       53.659    2874.7510    17.7840    69.8762

 240.00  VIB.     0.6593D+01                  1147.7322    10.4103     8.5302
         ROT.     0.5357D+05                   715.3943     2.9808    24.6190
         INT.     0.3532D+06                  1863.1265    13.3912    33.1492
         TRA.     0.3928D+27                  1192.3239     4.9680    37.4960
         TOT.                       53.840    3055.4504    18.3592    70.6452

 250.00  VIB.     0.7291D+01                  1254.7906    11.0043     8.9671
         ROT.     0.5695D+05                   745.2024     2.9808    24.7407
         INT.     0.4153D+06                  1999.9931    13.9851    33.7078
         TRA.     0.4176D+27                  1242.0041     4.9680    37.6988
         TOT.                       54.026    3241.9971    18.9531    71.4066

 260.00  VIB.     0.8070D+01                  1367.8751    11.6152     9.4106
         ROT.     0.6041D+05                   775.0105     2.9808    24.8576
         INT.     0.4874D+06                  2142.8856    14.5960    34.2682
         TRA.     0.4430D+27                  1291.6842     4.9680    37.8937
         TOT.                       54.219    3434.5698    19.5640    72.1618

 270.00  VIB.     0.8938D+01                  1487.1444    12.2409     9.8606
         ROT.     0.6392D+05                   804.8186     2.9808    24.9701
         INT.     0.5714D+06                  2291.9630    15.2218    34.8307
         TRA.     0.4687D+27                  1341.3644     4.9680    38.0812
         TOT.                       54.418    3633.3274    20.1898    72.9119

 280.00  VIB.     0.9909D+01                  1612.7362    12.8793    10.3173
         ROT.     0.6751D+05                   834.6267     2.9808    25.0785
         INT.     0.6689D+06                  2447.3629    15.8601    35.3958
         TRA.     0.4950D+27                  1391.0445     4.9680    38.2618
         TOT.                       54.623    3838.4074    20.8282    73.6576

 290.00  VIB.     0.1099D+02                  1744.7656    13.5281    10.7805
         ROT.     0.7116D+05                   864.4348     2.9808    25.1831
         INT.     0.7823D+06                  2609.2004    16.5089    35.9637
         TRA.     0.5218D+27                  1440.7247     4.9680    38.4362
         TOT.                       54.834    4049.9251    21.4769    74.3998

 300.00  VIB.     0.1221D+02                  1883.3256    14.1851    11.2502
         ROT.     0.7487D+05                   894.2429     2.9808    25.2842
         INT.     0.9141D+06                  2777.5685    17.1659    36.5344
         TRA.     0.5490D+27                  1490.4049     4.9680    38.6046
         TOT.                       55.052    4267.9734    22.1339    75.1390

 310.00  VIB.     0.1357D+02                  2028.4871    14.8481    11.7261
         ROT.     0.7864D+05                   924.0510     2.9808    25.3819
         INT.     0.1067D+07                  2952.5381    17.8289    37.1081
         TRA.     0.5767D+27                  1540.0850     4.9680    38.7675
         TOT.                       55.277    4492.6232    22.7969    75.8755

 320.00  VIB.     0.1510D+02                  2180.3000    15.5150    12.2081
         ROT.     0.8248D+05                   953.8591     2.9808    25.4766
         INT.     0.1245D+07                  3134.1591    18.4958    37.6846
         TRA.     0.6048D+27                  1589.7652     4.9680    38.9252
         TOT.                       55.508    4723.9243    23.4638    76.6098

 330.00  VIB.     0.1682D+02                  2338.7943    16.1840    12.6957
         ROT.     0.8637D+05                   983.6672     2.9808    25.5683
         INT.     0.1452D+07                  3322.4615    19.1648    38.2640
         TRA.     0.6334D+27                  1639.4454     4.9680    39.0781
         TOT.                       55.746    4961.9069    24.1329    77.3421

 340.00  VIB.     0.1874D+02                  2503.9815    16.8533    13.1888
         ROT.     0.9033D+05                  1013.4753     2.9808    25.6573
         INT.     0.1693D+07                  3517.4568    19.8341    38.8461
         TRA.     0.6624D+27                  1689.1255     4.9680    39.2264
         TOT.                       55.991    5206.5823    24.8021    78.0725

 350.00  VIB.     0.2091D+02                  2675.8560    17.5212    13.6870
         ROT.     0.9434D+05                  1043.2834     2.9808    25.7437
         INT.     0.1973D+07                  3719.1394    20.5020    39.4307
         TRA.     0.6918D+27                  1738.8057     4.9680    39.3704
         TOT.                       56.242    5457.9451    25.4701    78.8011

 360.00  VIB.     0.2335D+02                  2854.3968    18.1864    14.1899
         ROT.     0.9842D+05                  1073.0915     2.9808    25.8277
         INT.     0.2298D+07                  3927.4883    21.1672    40.0176
         TRA.     0.7217D+27                  1788.4859     4.9680    39.5104
         TOT.                       56.500    5715.9742    26.1352    79.5279

 370.00  VIB.     0.2610D+02                  3039.5692    18.8474    14.6972
         ROT.     0.1025D+06                  1102.8996     2.9808    25.9093
         INT.     0.2676D+07                  4142.4689    21.8282    40.6065
         TRA.     0.7520D+27                  1838.1660     4.9680    39.6465
         TOT.                       56.765    5980.6349    26.7962    80.2530

 380.00  VIB.     0.2920D+02                  3231.3263    19.5031    15.2086
         ROT.     0.1067D+06                  1132.7077     2.9808    25.9888
         INT.     0.3116D+07                  4364.0340    22.4839    41.1974
         TRA.     0.7827D+27                  1887.8462     4.9680    39.7790
         TOT.                       57.036    6251.8802    27.4519    80.9763

 390.00  VIB.     0.3269D+02                  3429.6103    20.1526    15.7236
         ROT.     0.1110D+06                  1162.5158     2.9808    26.0662
         INT.     0.3628D+07                  4592.1261    23.1334    41.7898
         TRA.     0.8138D+27                  1937.5263     4.9680    39.9080
         TOT.                       57.314    6529.6525    28.1014    81.6978

 400.00  VIB.     0.3664D+02                  3634.3544    20.7950    16.2419
         ROT.     0.1153D+06                  1192.3239     2.9808    26.1417
         INT.     0.4223D+07                  4826.6783    23.7758    42.3836
         TRA.     0.8452D+27                  1987.2065     4.9680    40.0338
         TOT.                       57.598    6813.8848    28.7438    82.4174

   *: NOTE: HEATS OF FORMATION ARE RELATIVE TO THE
            ELEMENTS IN THEIR STANDARD STATE AT 298K
              (=  Standard Enthalpy of Formation).

            Hvib:  Zero-point energy is not included.
                   frequencies of less than zero cm-1 are not included.
            Hrot = (3/2)RT
            Htra = (3/2)RT + pV = (5/2)RT

            Heat capacity is Cp, not Cv

           For more information, see: HTTP://OpenMOPAC.net/Manual/thermochemistry.html


           FORCE CONSTANT IN CARTESIAN COORDINATES (Millidynes/A)

    ATOM   CHEMICAL       X               Y               Z
   NUMBER   SYMBOL  FORCE CONSTANT  FORCE CONSTANT  FORCE CONSTANT

      1       C        9.270555        6.932538        8.585971
      2       C        8.474078        8.416209        8.278633
      3       C        8.448998        8.247331        8.194614
      4       C        3.504367       10.245562       13.164700
      5       C        3.437729       17.003844        6.492106
      6       H        1.376255        1.862815        2.974263
      7       H        1.227883        1.730525        3.445714
      8       H        1.093451        1.689175        3.572384
      9       H        1.174783        1.891269        3.716354
     10       H        1.095316        1.829937        3.852619
     11       H        5.394906        0.728233        0.667864
     12       H        0.789755        1.659754        4.235879
     13       H        0.751751        5.237690        0.698109



 TOTAL CPU TIME:             0.57 SECONDS

 == MOPAC DONE ==
