 *******************************************************************************
 ** Site#: 14399           For non-commercial use only        Version 13.159M **
 *******************************************************************************
 ** Cite this work as: MOPAC2012, James J. P. Stewart, Stewart Computational  **
 ** Chemistry, Version 13.159M web: HTTP://OpenMOPAC.net  Days remaining:   6 **
 *******************************************************************************
 **                                                                           **
 **                                MOPAC2012                                  **
 **                                                                           **
 *******************************************************************************

                            PM3 CALCULATION RESULTS


 *******************************************************************************
 *  CALCULATION DONE:                                Mon Jun  2 14:11:10 2014  *
 *  PM3      - The PM3 Hamiltonian to be used
 *  PRECISE  - CRITERIA TO BE INCREASED BY 100 TIMES
 *  NOSYM    - POINT-GROUP SYMMETRY SET TO C1
 *  T=       - A TIME OF 172800.0 SECONDS REQUESTED
 *  DUMP=N   - RESTART FILE WRITTEN EVERY  7200.000 SECONDS
 *******************************************************************************
pm3  precise nosym
 InChI=1S/C8H12O/c1-3-6-5-8(9)7(6)4-2/h4,6-7H,2-3,5H2,1H3

   ATOM   CHEMICAL          X               Y               Z
  NUMBER   SYMBOL      (ANGSTROMS)     (ANGSTROMS)     (ANGSTROMS)
 
     1       C         -0.23410000  *  -0.21460000  *  -0.13660000  *
     2       C          1.18310000  *  -0.11630000  *   0.44640000  *
     3       C         -1.24400000  *   0.74240000  *   0.51140000  *
     4       C         -0.35000000  *  -1.71230000  *   0.32580000  *
     5       C         -2.65700000  *   0.55940000  *  -0.03170000  *
     6       C          1.03220000  *  -1.50860000  *   0.84000000  *
     7       C          2.27020000  *   0.08760000  *  -0.57330000  *
     8       C          2.40890000  *   1.24890000  *  -1.21660000  *
     9       H         -0.26240000  *  -0.13610000  *  -1.25140000  *
    10       H          1.29580000  *   0.57070000  *   1.31970000  *
    11       H         -0.92290000  *   1.78980000  *   0.30570000  *
    12       H         -1.26080000  *   0.61350000  *   1.61900000  *
    13       H         -0.36820000  *  -2.43580000  *  -0.52080000  *
    14       H         -1.09290000  *  -1.91840000  *   1.13160000  *
    15       H         -3.03870000  *  -0.46450000  *   0.18260000  *
    16       H         -2.68510000  *   0.73360000  *  -1.13150000  *
    17       H         -3.34410000  *   1.29050000  *   0.45140000  *
    18       O          1.34230000  *  -1.88320000  *   2.00540000  *
    19       H          2.98730000  *  -0.70820000  *  -0.77530000  *
    20       H          1.72800000  *   2.07970000  *  -1.03680000  *
    21       H          3.21230000  *   1.38180000  *  -1.93860000  *
 


          CARTESIAN COORDINATES 

    NO.       ATOM         X         Y         Z

     1         C       -0.2341   -0.2146   -0.1366
     2         C        1.1831   -0.1163    0.4464
     3         C       -1.2440    0.7424    0.5114
     4         C       -0.3500   -1.7123    0.3258
     5         C       -2.6570    0.5594   -0.0317
     6         C        1.0322   -1.5086    0.8400
     7         C        2.2702    0.0876   -0.5733
     8         C        2.4089    1.2489   -1.2166
     9         H       -0.2624   -0.1361   -1.2514
    10         H        1.2958    0.5707    1.3197
    11         H       -0.9229    1.7898    0.3057
    12         H       -1.2608    0.6135    1.6190
    13         H       -0.3682   -2.4358   -0.5208
    14         H       -1.0929   -1.9184    1.1316
    15         H       -3.0387   -0.4645    0.1826
    16         H       -2.6851    0.7336   -1.1315
    17         H       -3.3441    1.2905    0.4514
    18         O        1.3423   -1.8832    2.0054
    19         H        2.9873   -0.7082   -0.7753
    20         H        1.7280    2.0797   -1.0368
    21         H        3.2123    1.3818   -1.9386

  H: (PM3): J. J. P. STEWART, J. COMP. CHEM. 10, 209 (1989).
  C: (PM3): J. J. P. STEWART, J. COMP. CHEM. 10, 209 (1989).
  O: (PM3): J. J. P. STEWART, J. COMP. CHEM. 10, 209 (1989).

           Empirical Formula: C8 H12 O  =    21 atoms



      MOLECULAR POINT GROUP   :   C1  


      RHF CALCULATION, NO. OF DOUBLY OCCUPIED LEVELS =   25

      Geometry optimization using EF

          DIAGONAL MATRIX USED AS START HESSIAN

 CYCLE:     1 TIME:   0.008 TIME LEFT:  2.00D  GRAD.:   252.816 HEAT: 4.224410
 CYCLE:     2 TIME:   0.012 TIME LEFT:  2.00D  GRAD.:   216.265 HEAT:-3.900097
 CYCLE:     3 TIME:   0.007 TIME LEFT:  2.00D  GRAD.:   102.935 HEAT:-11.17440
 CYCLE:     4 TIME:   0.006 TIME LEFT:  2.00D  GRAD.:   147.145 HEAT:-13.75093
 CYCLE:     5 TIME:   0.006 TIME LEFT:  2.00D  GRAD.:   133.116 HEAT:-14.97031
 CYCLE:     6 TIME:   0.012 TIME LEFT:  2.00D  GRAD.:    75.402 HEAT:-18.58056
 CYCLE:     7 TIME:   0.012 TIME LEFT:  2.00D  GRAD.:    72.668 HEAT:-19.28386
 CYCLE:     8 TIME:   0.006 TIME LEFT:  2.00D  GRAD.:    71.191 HEAT:-19.91900
 CYCLE:     9 TIME:   0.006 TIME LEFT:  2.00D  GRAD.:    47.086 HEAT:-20.69839
 CYCLE:    10 TIME:   0.011 TIME LEFT:  2.00D  GRAD.:    43.672 HEAT:-21.22152
 CYCLE:    11 TIME:   0.006 TIME LEFT:  2.00D  GRAD.:    21.634 HEAT:-21.82251
 CYCLE:    12 TIME:   0.006 TIME LEFT:  2.00D  GRAD.:    60.300 HEAT:-21.84766
 CYCLE:    13 TIME:   0.006 TIME LEFT:  2.00D  GRAD.:    45.585 HEAT:-22.53184
 CYCLE:    14 TIME:   0.012 TIME LEFT:  2.00D  GRAD.:    39.763 HEAT:-22.66636
 CYCLE:    15 TIME:   0.007 TIME LEFT:  2.00D  GRAD.:    21.676 HEAT:-23.06496
 CYCLE:    16 TIME:   0.011 TIME LEFT:  2.00D  GRAD.:    26.387 HEAT:-23.15112
 CYCLE:    17 TIME:   0.006 TIME LEFT:  2.00D  GRAD.:    16.536 HEAT:-23.31783
 CYCLE:    18 TIME:   0.006 TIME LEFT:  2.00D  GRAD.:    25.129 HEAT:-23.37942
 CYCLE:    19 TIME:   0.006 TIME LEFT:  2.00D  GRAD.:    19.449 HEAT:-23.54016
 CYCLE:    20 TIME:   0.006 TIME LEFT:  2.00D  GRAD.:    17.133 HEAT:-23.68438
 CYCLE:    21 TIME:   0.006 TIME LEFT:  2.00D  GRAD.:    13.880 HEAT:-23.79173
 CYCLE:    22 TIME:   0.006 TIME LEFT:  2.00D  GRAD.:    17.095 HEAT:-23.85492
 CYCLE:    23 TIME:   0.006 TIME LEFT:  2.00D  GRAD.:    11.273 HEAT:-23.96589
 CYCLE:    24 TIME:   0.006 TIME LEFT:  2.00D  GRAD.:    11.251 HEAT:-24.04990
 CYCLE:    25 TIME:   0.006 TIME LEFT:  2.00D  GRAD.:    14.285 HEAT:-24.13552
 CYCLE:    26 TIME:   0.006 TIME LEFT:  2.00D  GRAD.:     7.401 HEAT:-24.25435
 CYCLE:    27 TIME:   0.006 TIME LEFT:  2.00D  GRAD.:    13.420 HEAT:-24.26265
 CYCLE:    28 TIME:   0.006 TIME LEFT:  2.00D  GRAD.:     5.813 HEAT:-24.31926
 CYCLE:    29 TIME:   0.006 TIME LEFT:  2.00D  GRAD.:     6.776 HEAT:-24.33718
 CYCLE:    30 TIME:   0.006 TIME LEFT:  2.00D  GRAD.:     4.692 HEAT:-24.36935
 CYCLE:    31 TIME:   0.006 TIME LEFT:  2.00D  GRAD.:     4.801 HEAT:-24.42830
 CYCLE:    32 TIME:   0.006 TIME LEFT:  2.00D  GRAD.:     4.168 HEAT:-24.46019
 CYCLE:    33 TIME:   0.006 TIME LEFT:  2.00D  GRAD.:     5.093 HEAT:-24.50385
 CYCLE:    34 TIME:   0.006 TIME LEFT:  2.00D  GRAD.:     4.486 HEAT:-24.53642
 CYCLE:    35 TIME:   0.006 TIME LEFT:  2.00D  GRAD.:     3.235 HEAT:-24.55917
 CYCLE:    36 TIME:   0.006 TIME LEFT:  2.00D  GRAD.:     3.972 HEAT:-24.58316
 CYCLE:    37 TIME:   0.006 TIME LEFT:  2.00D  GRAD.:     3.467 HEAT:-24.60383
 CYCLE:    38 TIME:   0.006 TIME LEFT:  2.00D  GRAD.:     3.223 HEAT:-24.61744
 CYCLE:    39 TIME:   0.006 TIME LEFT:  2.00D  GRAD.:     2.291 HEAT:-24.62599
 CYCLE:    40 TIME:   0.006 TIME LEFT:  2.00D  GRAD.:     2.193 HEAT:-24.63290
 CYCLE:    41 TIME:   0.006 TIME LEFT:  2.00D  GRAD.:     2.069 HEAT:-24.64127
 CYCLE:    42 TIME:   0.006 TIME LEFT:  2.00D  GRAD.:     1.736 HEAT:-24.64986
 CYCLE:    43 TIME:   0.010 TIME LEFT:  2.00D  GRAD.:     1.714 HEAT:-24.65685
 CYCLE:    44 TIME:   0.007 TIME LEFT:  2.00D  GRAD.:     1.820 HEAT:-24.66391
 CYCLE:    45 TIME:   0.006 TIME LEFT:  2.00D  GRAD.:     1.697 HEAT:-24.67150
 CYCLE:    46 TIME:   0.006 TIME LEFT:  2.00D  GRAD.:     1.622 HEAT:-24.67911
 CYCLE:    47 TIME:   0.006 TIME LEFT:  2.00D  GRAD.:     1.936 HEAT:-24.68664
 CYCLE:    48 TIME:   0.006 TIME LEFT:  2.00D  GRAD.:     2.020 HEAT:-24.69485
 CYCLE:    49 TIME:   0.006 TIME LEFT:  2.00D  GRAD.:     2.380 HEAT:-24.70488
 CYCLE:    50 TIME:   0.006 TIME LEFT:  2.00D  GRAD.:     2.111 HEAT:-24.71601
 CYCLE:    51 TIME:   0.006 TIME LEFT:  2.00D  GRAD.:     1.780 HEAT:-24.72548
 CYCLE:    52 TIME:   0.006 TIME LEFT:  2.00D  GRAD.:     1.561 HEAT:-24.73202
 CYCLE:    53 TIME:   0.006 TIME LEFT:  2.00D  GRAD.:     1.894 HEAT:-24.73690
 CYCLE:    54 TIME:   0.006 TIME LEFT:  2.00D  GRAD.:     1.367 HEAT:-24.74151
 CYCLE:    55 TIME:   0.006 TIME LEFT:  2.00D  GRAD.:     1.216 HEAT:-24.74589
 CYCLE:    56 TIME:   0.006 TIME LEFT:  2.00D  GRAD.:     1.142 HEAT:-24.74943
 CYCLE:    57 TIME:   0.006 TIME LEFT:  2.00D  GRAD.:     1.072 HEAT:-24.75265
 CYCLE:    58 TIME:   0.006 TIME LEFT:  2.00D  GRAD.:     0.890 HEAT:-24.75524
 CYCLE:    59 TIME:   0.006 TIME LEFT:  2.00D  GRAD.:     0.697 HEAT:-24.75720
 CYCLE:    60 TIME:   0.006 TIME LEFT:  2.00D  GRAD.:     0.688 HEAT:-24.75876
 CYCLE:    61 TIME:   0.010 TIME LEFT:  2.00D  GRAD.:     0.802 HEAT:-24.76035
 CYCLE:    62 TIME:   0.006 TIME LEFT:  2.00D  GRAD.:     0.946 HEAT:-24.76217
 CYCLE:    63 TIME:   0.006 TIME LEFT:  2.00D  GRAD.:     1.047 HEAT:-24.76432
 CYCLE:    64 TIME:   0.006 TIME LEFT:  2.00D  GRAD.:     1.405 HEAT:-24.76826
 CYCLE:    65 TIME:   0.006 TIME LEFT:  2.00D  GRAD.:     1.555 HEAT:-24.77174
 CYCLE:    66 TIME:   0.007 TIME LEFT:  2.00D  GRAD.:     3.246 HEAT:-24.78371
 CYCLE:    67 TIME:   0.006 TIME LEFT:  2.00D  GRAD.:     3.027 HEAT:-24.78973
 CYCLE:    68 TIME:   0.006 TIME LEFT:  2.00D  GRAD.:     2.819 HEAT:-24.80945
 CYCLE:    69 TIME:   0.006 TIME LEFT:  2.00D  GRAD.:     1.616 HEAT:-24.81534
 CYCLE:    70 TIME:   0.006 TIME LEFT:  2.00D  GRAD.:     1.378 HEAT:-24.82225
 CYCLE:    71 TIME:   0.006 TIME LEFT:  2.00D  GRAD.:     1.499 HEAT:-24.82518
 CYCLE:    72 TIME:   0.006 TIME LEFT:  2.00D  GRAD.:     1.819 HEAT:-24.83217
 CYCLE:    73 TIME:   0.006 TIME LEFT:  2.00D  GRAD.:     2.024 HEAT:-24.83915
 CYCLE:    74 TIME:   0.006 TIME LEFT:  2.00D  GRAD.:     2.071 HEAT:-24.84898
 CYCLE:    75 TIME:   0.006 TIME LEFT:  2.00D  GRAD.:     3.650 HEAT:-24.85711
 CYCLE:    76 TIME:   0.006 TIME LEFT:  2.00D  GRAD.:     2.470 HEAT:-24.86821
 CYCLE:    77 TIME:   0.006 TIME LEFT:  2.00D  GRAD.:     2.201 HEAT:-24.87844
 CYCLE:    78 TIME:   0.006 TIME LEFT:  2.00D  GRAD.:     3.246 HEAT:-24.89880
 CYCLE:    79 TIME:   0.006 TIME LEFT:  2.00D  GRAD.:     2.831 HEAT:-24.91096
 CYCLE:    80 TIME:   0.006 TIME LEFT:  2.00D  GRAD.:     3.266 HEAT:-24.92810
 CYCLE:    81 TIME:   0.006 TIME LEFT:  2.00D  GRAD.:     2.607 HEAT:-24.94042
 CYCLE:    82 TIME:   0.006 TIME LEFT:  2.00D  GRAD.:     3.301 HEAT:-24.94672
 CYCLE:    83 TIME:   0.006 TIME LEFT:  2.00D  GRAD.:     1.969 HEAT:-24.95086
 CYCLE:    84 TIME:   0.006 TIME LEFT:  2.00D  GRAD.:     2.390 HEAT:-24.95768
 CYCLE:    85 TIME:   0.006 TIME LEFT:  2.00D  GRAD.:     1.476 HEAT:-24.96107
 CYCLE:    86 TIME:   0.006 TIME LEFT:  2.00D  GRAD.:     1.882 HEAT:-24.96771
 CYCLE:    87 TIME:   0.006 TIME LEFT:  2.00D  GRAD.:     1.589 HEAT:-24.97182
 CYCLE:    88 TIME:   0.006 TIME LEFT:  2.00D  GRAD.:     1.645 HEAT:-24.97492
 CYCLE:    89 TIME:   0.006 TIME LEFT:  2.00D  GRAD.:     1.157 HEAT:-24.97766
 CYCLE:    90 TIME:   0.006 TIME LEFT:  2.00D  GRAD.:     1.068 HEAT:-24.98094
 CYCLE:    91 TIME:   0.006 TIME LEFT:  2.00D  GRAD.:     1.075 HEAT:-24.98296
 CYCLE:    92 TIME:   0.006 TIME LEFT:  2.00D  GRAD.:     0.981 HEAT:-24.98566
 CYCLE:    93 TIME:   0.007 TIME LEFT:  2.00D  GRAD.:     1.113 HEAT:-24.98796
 CYCLE:    94 TIME:   0.006 TIME LEFT:  2.00D  GRAD.:     0.745 HEAT:-24.98983
 CYCLE:    95 TIME:   0.006 TIME LEFT:  2.00D  GRAD.:     1.080 HEAT:-24.99103
 CYCLE:    96 TIME:   0.006 TIME LEFT:  2.00D  GRAD.:     0.963 HEAT:-24.99190
 CYCLE:    97 TIME:   0.006 TIME LEFT:  2.00D  GRAD.:     0.714 HEAT:-24.99306
 CYCLE:    98 TIME:   0.006 TIME LEFT:  2.00D  GRAD.:     0.587 HEAT:-24.99361
 CYCLE:    99 TIME:   0.006 TIME LEFT:  2.00D  GRAD.:     0.860 HEAT:-24.99441
 CYCLE:   100 TIME:   0.006 TIME LEFT:  2.00D  GRAD.:     0.609 HEAT:-24.99482
 CYCLE:   101 TIME:   0.006 TIME LEFT:  2.00D  GRAD.:     0.455 HEAT:-24.99544
 CYCLE:   102 TIME:   0.006 TIME LEFT:  2.00D  GRAD.:     0.579 HEAT:-24.99588
 CYCLE:   103 TIME:   0.006 TIME LEFT:  2.00D  GRAD.:     0.555 HEAT:-24.99643
 CYCLE:   104 TIME:   0.006 TIME LEFT:  2.00D  GRAD.:     0.407 HEAT:-24.99676
 CYCLE:   105 TIME:   0.006 TIME LEFT:  2.00D  GRAD.:     0.203 HEAT:-24.99698
 CYCLE:   106 TIME:   0.006 TIME LEFT:  2.00D  GRAD.:     0.172 HEAT:-24.99710
 CYCLE:   107 TIME:   0.006 TIME LEFT:  2.00D  GRAD.:     0.105 HEAT:-24.99712
 CYCLE:   108 TIME:   0.006 TIME LEFT:  2.00D  GRAD.:     0.071 HEAT:-24.99713
 CYCLE:   109 TIME:   0.006 TIME LEFT:  2.00D  GRAD.:     0.046 HEAT:-24.99714

     RMS GRADIENT =  0.04587  IS LESS THAN CUTOFF =  0.05000



 -------------------------------------------------------------------------------
pm3  precise nosym
 InChI=1S/C8H12O/c1-3-6-5-8(9)7(6)4-2/h4,6-7H,2-3,5H2,1H3



     GEOMETRY OPTIMISED USING EIGENVECTOR FOLLOWING (EF).     
     SCF FIELD WAS ACHIEVED                                   


                              PM3 CALCULATION
                                                       MOPAC2012 (Version: 13.159M)
                                                       Mon Jun  2 14:11:11 2014
                                                       No. of days left =   6




          FINAL HEAT OF FORMATION =        -24.99714 KCAL/MOL =    -104.58802 KJ/MOL


          TOTAL ENERGY            =      -1426.12438 EV
          ELECTRONIC ENERGY       =      -7066.32661 EV  POINT GROUP:     C1  
          CORE-CORE REPULSION     =       5640.20223 EV
          COSMO AREA              =        175.69 SQUARE ANGSTROMS
          COSMO VOLUME            =        176.80 CUBIC ANGSTROMS

          GRADIENT NORM           =          0.04587
          IONIZATION POTENTIAL    =         10.123347 EV
          HOMO LUMO ENERGIES (EV) =        -10.123  0.779
          NO. OF FILLED LEVELS    =         25
          MOLECULAR WEIGHT        =        124.182

          MOLECULAR DIMENSIONS (Angstroms)

            Atom       Atom       Distance
            H    17    O    18     6.39745
            H    21    H    14     6.07300
            H    10    H    13     3.44950


          SCF CALCULATIONS        =        116
          COMPUTATION TIME        =          0.725 SECONDS




   ATOM   CHEMICAL          X               Y               Z
  NUMBER   SYMBOL      (ANGSTROMS)     (ANGSTROMS)     (ANGSTROMS)
 
     1       C         -0.26396580  *  -0.16548700  *  -0.07872618  *
     2       C          1.15360344  *  -0.05676949  *   0.57066898  *
     3       C         -1.27596203  *   0.81840135  *   0.46787847  *
     4       C         -0.39469497  *  -1.62163470  *   0.44332028  *
     5       C         -2.64010629  *   0.62443848  *  -0.15527140  *
     6       C          1.00769432  *  -1.51658944  *   1.02920925  *
     7       C          2.29599726  *   0.21591828  *  -0.33193377  *
     8       C          2.25289329  *   1.09791300  *  -1.32362919  *
     9       H         -0.23407058  *  -0.10779518  *  -1.18834840  *
    10       H          1.19088620  *   0.65831313  *   1.42233471  *
    11       H         -0.91212370  *   1.84776426  *   0.27667313  *
    12       H         -1.34602935  *   0.72516557  *   1.57039706  *
    13       H         -0.51348077  *  -2.38711783  *  -0.33822488  *
    14       H         -1.19579193  *  -1.78083566  *   1.18284194  *
    15       H         -3.03169483  *  -0.38308006  *   0.04035337  *
    16       H         -2.61217187  *   0.75816151  *  -1.24488981  *
    17       H         -3.36566913  *   1.34341921  *   0.24572873  *
    18       O          1.72583620  *  -2.27901245  *   1.61757791  *
    19       H          3.21086928  *  -0.34858089  *  -0.11189065  *
    20       H          1.36755780  *   1.68040871  *  -1.56605075  *
    21       H          3.10724720  *   1.29870411  *  -1.96270704  *

           Empirical Formula: C8 H12 O  =    21 atoms



      MOLECULAR POINT GROUP   :   C1  


                  EIGENVALUES  
 -41.59868 -36.74073 -33.89943 -31.25596 -25.68143 -24.37587 -20.81124 -20.20893
 -18.30875 -17.47461 -16.93175 -16.49324 -15.66547 -15.01539 -14.83634 -14.26996
 -14.13860 -13.34849 -13.09821 -12.71704 -12.14587 -12.01725 -11.81867 -10.83630
 -10.12335   0.77882   0.96625   2.28025   2.88108   3.03810   3.33096   3.44475
   3.60849   3.70318   3.74251   3.78886   3.95822   3.98968   4.05280   4.19886
   4.30944   4.38098   4.66689   4.82798   4.89456   5.37715   5.61246   7.08141


              NET ATOMIC CHARGES AND DIPOLE CONTRIBUTIONS

  ATOM NO.   TYPE          CHARGE      No. of ELECS.   s-Pop       p-Pop       
    1          C          -0.080080        4.0801     1.19294     2.88714
    2          C          -0.125014        4.1250     1.19669     2.92832
    3          C          -0.091237        4.0912     1.15727     2.93397
    4          C          -0.173468        4.1735     1.18797     2.98550
    5          C          -0.110086        4.1101     1.13789     2.97219
    6          C           0.289577        3.7104     1.22569     2.48473
    7          C          -0.122145        4.1221     1.18848     2.93366
    8          C          -0.162016        4.1620     1.18149     2.98053
    9          H           0.084672        0.9153     0.91533
   10          H           0.100819        0.8992     0.89918
   11          H           0.053790        0.9462     0.94621
   12          H           0.052542        0.9475     0.94746
   13          H           0.082142        0.9179     0.91786
   14          H           0.084981        0.9150     0.91502
   15          H           0.039847        0.9602     0.96015
   16          H           0.039859        0.9601     0.96014
   17          H           0.040705        0.9593     0.95930
   18          O          -0.281626        6.2816     1.85629     4.42534
   19          H           0.109324        0.8907     0.89068
   20          H           0.083714        0.9163     0.91629
   21          H           0.083699        0.9163     0.91630
 DIPOLE           X         Y         Z       TOTAL
 POINT-CHG.    -1.378     1.368    -0.974     2.173
 HYBRID        -0.245     0.222    -0.146     0.361
 SUM           -1.623     1.590    -1.120     2.533


          ATOMIC ORBITAL ELECTRON POPULATIONS

    Atom      s        px        py        pz   
    1  C   1.19294   0.93821   0.94384   1.00508
    2  C   1.19669   0.94762   0.98885   0.99185
    3  C   1.15727   0.95157   0.98474   0.99766
    4  C   1.18797   0.98959   0.97595   1.01996
    5  C   1.13789   0.95961   1.01120   1.00138
    6  C   1.22569   0.86789   0.87093   0.74591
    7  C   1.18848   0.97534   0.99181   0.96652
    8  C   1.18149   1.01442   0.98472   0.98139
    9  H   0.91533
   10  H   0.89918
   11  H   0.94621
   12  H   0.94746
   13  H   0.91786
   14  H   0.91502
   15  H   0.96015
   16  H   0.96014
   17  H   0.95930
   18  O   1.85629   1.56178   1.55500   1.30856
   19  H   0.89068
   20  H   0.91629
   21  H   0.91630
 *******************************************************************************
 ** Site#: 14399           For non-commercial use only        Version 13.159M **
 *******************************************************************************
 ** Cite this work as: MOPAC2012, James J. P. Stewart, Stewart Computational  **
 ** Chemistry, Version 13.159M web: HTTP://OpenMOPAC.net  Days remaining:   6 **
 *******************************************************************************
 **                                                                           **
 **                                MOPAC2012                                  **
 **                                                                           **
 *******************************************************************************

                            PM3 CALCULATION RESULTS


 *******************************************************************************
 *  CALCULATION DONE:                                Mon Jun  2 14:11:11 2014  *
 *  PM3      - The PM3 Hamiltonian to be used
 *  OLDGEO   - PREVIOUS GEOMETRY TO BE USED
 *  PRECISE  - CRITERIA TO BE INCREASED BY 100 TIMES
 *  NOSYM    - POINT-GROUP SYMMETRY SET TO C1
 *  T=       - A TIME OF 172800.0 SECONDS REQUESTED
 *  DUMP=N   - RESTART FILE WRITTEN EVERY  7200.000 SECONDS
 *  THERMO   - THERMODYNAMIC QUANTITIES TO BE CALCULATED
 *******************************************************************************
oldgeo thermo nosym precise  pm3

   ATOM   CHEMICAL          X               Y               Z
  NUMBER   SYMBOL      (ANGSTROMS)     (ANGSTROMS)     (ANGSTROMS)
 
     1       C         -0.26396580  *  -0.16548700  *  -0.07872618  *
     2       C          1.15360344  *  -0.05676949  *   0.57066898  *
     3       C         -1.27596203  *   0.81840135  *   0.46787847  *
     4       C         -0.39469497  *  -1.62163470  *   0.44332028  *
     5       C         -2.64010629  *   0.62443848  *  -0.15527140  *
     6       C          1.00769432  *  -1.51658944  *   1.02920925  *
     7       C          2.29599726  *   0.21591828  *  -0.33193377  *
     8       C          2.25289329  *   1.09791300  *  -1.32362919  *
     9       H         -0.23407058  *  -0.10779518  *  -1.18834840  *
    10       H          1.19088620  *   0.65831313  *   1.42233471  *
    11       H         -0.91212370  *   1.84776426  *   0.27667313  *
    12       H         -1.34602935  *   0.72516557  *   1.57039706  *
    13       H         -0.51348077  *  -2.38711783  *  -0.33822488  *
    14       H         -1.19579193  *  -1.78083566  *   1.18284194  *
    15       H         -3.03169483  *  -0.38308006  *   0.04035337  *
    16       H         -2.61217187  *   0.75816151  *  -1.24488981  *
    17       H         -3.36566913  *   1.34341921  *   0.24572873  *
    18       O          1.72583620  *  -2.27901245  *   1.61757791  *
    19       H          3.21086928  *  -0.34858089  *  -0.11189065  *
    20       H          1.36755780  *   1.68040871  *  -1.56605075  *
    21       H          3.10724720  *   1.29870411  *  -1.96270704  *
 


          CARTESIAN COORDINATES 

    NO.       ATOM         X         Y         Z

     1         C       -0.2640   -0.1655   -0.0787
     2         C        1.1536   -0.0568    0.5707
     3         C       -1.2760    0.8184    0.4679
     4         C       -0.3947   -1.6216    0.4433
     5         C       -2.6401    0.6244   -0.1553
     6         C        1.0077   -1.5166    1.0292
     7         C        2.2960    0.2159   -0.3319
     8         C        2.2529    1.0979   -1.3236
     9         H       -0.2341   -0.1078   -1.1883
    10         H        1.1909    0.6583    1.4223
    11         H       -0.9121    1.8478    0.2767
    12         H       -1.3460    0.7252    1.5704
    13         H       -0.5135   -2.3871   -0.3382
    14         H       -1.1958   -1.7808    1.1828
    15         H       -3.0317   -0.3831    0.0404
    16         H       -2.6122    0.7582   -1.2449
    17         H       -3.3657    1.3434    0.2457
    18         O        1.7258   -2.2790    1.6176
    19         H        3.2109   -0.3486   -0.1119
    20         H        1.3676    1.6804   -1.5661
    21         H        3.1072    1.2987   -1.9627

  H: (PM3): J. J. P. STEWART, J. COMP. CHEM. 10, 209 (1989).
  C: (PM3): J. J. P. STEWART, J. COMP. CHEM. 10, 209 (1989).
  O: (PM3): J. J. P. STEWART, J. COMP. CHEM. 10, 209 (1989).

           Empirical Formula: C8 H12 O  =    21 atoms



      MOLECULAR POINT GROUP   :   C1  


      RHF CALCULATION, NO. OF DOUBLY OCCUPIED LEVELS =   25



          HEAT OF FORMATION =     -24.997137 KCALS/MOLE


          INTERNAL COORDINATE DERIVATIVES

   NUMBER  ATOM       BOND         ANGLE      DIHEDRAL

     1       C      0.000750     0.003556    -0.001013
     2       C     -0.010033     0.011087     0.009846
     3       C     -0.002470    -0.000090    -0.003626
     4       C     -0.002750     0.000087    -0.001177
     5       C      0.003428    -0.000367     0.000705
     6       C      0.006367     0.001118     0.008625
     7       C     -0.006091    -0.008302     0.014249
     8       C     -0.002604    -0.007598    -0.006591
     9       H      0.001086    -0.005951     0.001792
    10       H      0.006698    -0.003949     0.001483
    11       H     -0.011198     0.010147    -0.002843
    12       H      0.016499    -0.007722     0.001825
    13       H      0.001198     0.000570    -0.001636
    14       H      0.003285    -0.002643     0.005705
    15       H     -0.003125    -0.001779     0.003222
    16       H     -0.004976    -0.005395    -0.005615
    17       H      0.004178     0.002237    -0.002707
    18       O     -0.010096     0.002772    -0.008091
    19       H      0.006398     0.004002    -0.003854
    20       H     -0.001274     0.006481    -0.005709
    21       H      0.004729     0.001738    -0.004588


          GRADIENT NORM =   0.04632


          TIME FOR SCF CALCULATION =    0.00

          TIME FOR DERIVATIVES     =    0.00

          MOLECULAR WEIGHT =  124.18



          ROTATIONAL CONSTANTS IN CM(-1)

          A =    0.06649804   B =    0.04342909   C =    0.02876648



           PRINCIPAL MOMENTS OF INERTIA IN UNITS OF 10**(-40)*GRAM-CM**2

          A =      420.9564   B =      644.5628   C =      973.1039


          ORIENTATION OF MOLECULE IN FORCE CALCULATION

    NO.       ATOM         X         Y         Z

     1          C      -0.7240    0.1376   -0.1621
     2          C       0.8390    0.1376   -0.1621
     3          C      -1.3463    1.5173   -0.1621
     4          C      -0.7269   -0.5994    1.2042
     5          C      -2.8559    1.4518   -0.1016
     6          C       0.7957   -0.6343    1.1664
     7          C       1.5191   -0.5568   -1.2800
     8          C       1.1293   -0.4649   -2.5460
     9          H      -1.1539   -0.4767   -0.9827
    10          H       1.2764    1.1548   -0.0527
    11          H      -1.0241    2.0540   -1.0769
    12          H      -0.9582    2.1140    0.6879
    13          H      -1.2126   -1.5868    1.1991
    14          H      -1.1573   -0.0265    2.0412
    15          H      -3.1998    0.9430    0.8092
    16          H      -3.2739    0.9065   -0.9582
    17          H      -3.2973    2.4565   -0.1042
    18          O       1.6384   -1.0915    1.8902
    19          H       2.4010   -1.1454   -0.9974
    20          H       0.2661    0.1145   -2.8641
    21          H       1.6526   -0.9655   -3.3549


    FIRST DERIVATIVES WILL BE USED IN THE CALCULATION OF SECOND DERIVATIVES

          ESTIMATED TIME TO COMPLETE CALCULATION =        2.21 SECONDS

    FOR POINT-GROUP C1   THERE ARE   1 UNIQUE SYMMETRY FUNCTIONS.

 STEP:   1 TIME =     0.03 SECS, INTEGRAL =      0.03 TIME LEFT: 172799.96
 STEP:   2 TIME =     0.03 SECS, INTEGRAL =      0.05 TIME LEFT: 172799.94
 STEP:   3 TIME =     0.03 SECS, INTEGRAL =      0.08 TIME LEFT: 172799.91
 STEP:   4 TIME =     0.03 SECS, INTEGRAL =      0.11 TIME LEFT: 172799.88
 STEP:   5 TIME =     0.03 SECS, INTEGRAL =      0.14 TIME LEFT: 172799.86
 STEP:   6 TIME =     0.03 SECS, INTEGRAL =      0.16 TIME LEFT: 172799.83
 STEP:   7 TIME =     0.03 SECS, INTEGRAL =      0.19 TIME LEFT: 172799.80
 STEP:   8 TIME =     0.03 SECS, INTEGRAL =      0.22 TIME LEFT: 172799.77
 STEP:   9 TIME =     0.03 SECS, INTEGRAL =      0.25 TIME LEFT: 172799.75
 STEP:  10 TIME =     0.03 SECS, INTEGRAL =      0.27 TIME LEFT: 172799.72
 STEP:  11 TIME =     0.03 SECS, INTEGRAL =      0.30 TIME LEFT: 172799.69
 STEP:  12 TIME =     0.03 SECS, INTEGRAL =      0.33 TIME LEFT: 172799.66
 STEP:  13 TIME =     0.03 SECS, INTEGRAL =      0.36 TIME LEFT: 172799.63
 STEP:  14 TIME =     0.03 SECS, INTEGRAL =      0.39 TIME LEFT: 172799.60
 STEP:  15 TIME =     0.03 SECS, INTEGRAL =      0.42 TIME LEFT: 172799.57
 STEP:  16 TIME =     0.03 SECS, INTEGRAL =      0.45 TIME LEFT: 172799.54
 STEP:  17 TIME =     0.03 SECS, INTEGRAL =      0.48 TIME LEFT: 172799.52
 STEP:  18 TIME =     0.03 SECS, INTEGRAL =      0.50 TIME LEFT: 172799.49
 STEP:  19 TIME =     0.03 SECS, INTEGRAL =      0.53 TIME LEFT: 172799.46
 STEP:  20 TIME =     0.03 SECS, INTEGRAL =      0.56 TIME LEFT: 172799.43
 STEP:  21 TIME =     0.03 SECS, INTEGRAL =      0.59 TIME LEFT: 172799.40
 STEP:  22 TIME =     0.03 SECS, INTEGRAL =      0.62 TIME LEFT: 172799.37
 STEP:  23 TIME =     0.03 SECS, INTEGRAL =      0.64 TIME LEFT: 172799.35
 STEP:  24 TIME =     0.03 SECS, INTEGRAL =      0.67 TIME LEFT: 172799.32
 STEP:  25 TIME =     0.03 SECS, INTEGRAL =      0.70 TIME LEFT: 172799.29
 STEP:  26 TIME =     0.03 SECS, INTEGRAL =      0.73 TIME LEFT: 172799.27
 STEP:  27 TIME =     0.03 SECS, INTEGRAL =      0.75 TIME LEFT: 172799.24
 STEP:  28 TIME =     0.03 SECS, INTEGRAL =      0.78 TIME LEFT: 172799.21
 STEP:  29 TIME =     0.03 SECS, INTEGRAL =      0.81 TIME LEFT: 172799.18
 STEP:  30 TIME =     0.03 SECS, INTEGRAL =      0.84 TIME LEFT: 172799.15
 STEP:  31 TIME =     0.03 SECS, INTEGRAL =      0.87 TIME LEFT: 172799.13
 STEP:  32 TIME =     0.03 SECS, INTEGRAL =      0.89 TIME LEFT: 172799.10
 STEP:  33 TIME =     0.03 SECS, INTEGRAL =      0.92 TIME LEFT: 172799.07
 STEP:  34 TIME =     0.03 SECS, INTEGRAL =      0.95 TIME LEFT: 172799.04
 STEP:  35 TIME =     0.03 SECS, INTEGRAL =      0.97 TIME LEFT: 172799.02
 STEP:  36 TIME =     0.03 SECS, INTEGRAL =      1.00 TIME LEFT: 172798.99
 STEP:  37 TIME =     0.03 SECS, INTEGRAL =      1.03 TIME LEFT: 172798.96
 STEP:  38 TIME =     0.03 SECS, INTEGRAL =      1.06 TIME LEFT: 172798.93
 STEP:  39 TIME =     0.03 SECS, INTEGRAL =      1.09 TIME LEFT: 172798.91
 STEP:  40 TIME =     0.03 SECS, INTEGRAL =      1.11 TIME LEFT: 172798.88
 STEP:  41 TIME =     0.03 SECS, INTEGRAL =      1.14 TIME LEFT: 172798.85
 STEP:  42 TIME =     0.03 SECS, INTEGRAL =      1.17 TIME LEFT: 172798.82
 STEP:  43 TIME =     0.03 SECS, INTEGRAL =      1.20 TIME LEFT: 172798.80
 STEP:  44 TIME =     0.03 SECS, INTEGRAL =      1.22 TIME LEFT: 172798.77
 STEP:  45 TIME =     0.03 SECS, INTEGRAL =      1.26 TIME LEFT: 172798.73
 STEP:  46 TIME =     0.03 SECS, INTEGRAL =      1.29 TIME LEFT: 172798.70
 STEP:  47 TIME =     0.03 SECS, INTEGRAL =      1.31 TIME LEFT: 172798.68
 STEP:  48 TIME =     0.03 SECS, INTEGRAL =      1.35 TIME LEFT: 172798.64
 STEP:  49 TIME =     0.03 SECS, INTEGRAL =      1.38 TIME LEFT: 172798.61
 STEP:  50 TIME =     0.03 SECS, INTEGRAL =      1.41 TIME LEFT: 172798.58
 STEP:  51 TIME =     0.03 SECS, INTEGRAL =      1.44 TIME LEFT: 172798.55
 STEP:  52 TIME =     0.03 SECS, INTEGRAL =      1.47 TIME LEFT: 172798.52
 STEP:  53 TIME =     0.04 SECS, INTEGRAL =      1.51 TIME LEFT: 172798.48
 STEP:  54 TIME =     0.03 SECS, INTEGRAL =      1.54 TIME LEFT: 172798.45
 STEP:  55 TIME =     0.03 SECS, INTEGRAL =      1.57 TIME LEFT: 172798.42
 STEP:  56 TIME =     0.03 SECS, INTEGRAL =      1.60 TIME LEFT: 172798.40
 STEP:  57 TIME =     0.03 SECS, INTEGRAL =      1.62 TIME LEFT: 172798.37
 STEP:  58 TIME =     0.03 SECS, INTEGRAL =      1.65 TIME LEFT: 172798.34
 STEP:  59 TIME =     0.03 SECS, INTEGRAL =      1.68 TIME LEFT: 172798.31
 STEP:  60 TIME =     0.03 SECS, INTEGRAL =      1.71 TIME LEFT: 172798.29
 STEP:  61 TIME =     0.03 SECS, INTEGRAL =      1.73 TIME LEFT: 172798.26
 STEP:  62 TIME =     0.03 SECS, INTEGRAL =      1.76 TIME LEFT: 172798.23
 STEP:  63 TIME =     0.03 SECS, INTEGRAL =      1.79 TIME LEFT: 172798.20

(To convert to Hartree/Bohr^2, multiply by (10^(-21) x N x a0^2)/(4.184 x 627.51) = 0.0642)


           FORCE MATRIX IN MILLIDYNES/ANGSTROM


                  C  1       C  2       C  3       C  4       C  5       C  6
 ------------------------------------------------------------------------------
     C    1  14.319545
     C    2   2.974337  14.437082
     C    3   4.334097   0.534010  14.503818
     C    4   3.306500   1.840051   0.535074  14.099723
     C    5   0.661170   0.050861   4.467085   0.032045  14.373825
     C    6   2.045913   3.165836   0.062836   3.554392   0.009739  21.426537
     C    7   0.528817   5.109042   0.034229   0.061756   0.007182   0.591687
     C    8   0.049903   0.857271   0.004605   0.012690   0.000506   0.068980
     H    9   4.398176   0.434416   0.428328   0.427693   0.030075   0.043155
     H   10   0.438291   4.354499   0.035369   0.051432   0.003339   0.421802
     H   11   0.431390   0.018550   4.452866   0.048038   0.438932   0.009419
     H   12   0.451925   0.020397   4.439102   0.020433   0.437040   0.007075
     H   13   0.436027   0.056029   0.032607   4.708131   0.001905   0.443138
     H   14   0.448037   0.054147   0.023615   4.657576   0.008883   0.440466
     H   15   0.020399   0.002129   0.463311   0.006480   4.714019   0.003357
     H   16   0.024302   0.001532   0.463915   0.001713   4.727283   0.001476
     H   17   0.051943   0.008833   0.450926   0.002531   4.758088   0.002555
     O   18   0.040888   0.877200   0.012512   0.906761   0.006319  15.150665
     H   19   0.035336   0.431037   0.004711   0.003370   0.001455   0.046196
     H   20   0.019466   0.102469   0.004050   0.003783   0.000971   0.009955
     H   21   0.006999   0.138685   0.000772   0.004030   0.000444   0.013509


                  C  7       C  8       H  9       H 10       H 11       H 12
 ------------------------------------------------------------------------------
     C    7  18.271119
     C    8  11.050797  18.003276
     H    9   0.022015   0.016591   4.902861
     H   10   0.396469   0.023435   0.029236   4.834719
     H   11   0.001783   0.002055   0.026266   0.010472   5.054799
     H   12   0.001234   0.000976   0.042730   0.020692   0.567378   5.053288
     H   13   0.010483   0.002216   0.027356   0.003450   0.005686   0.001708
     H   14   0.003782   0.001105   0.030112   0.009433   0.003454   0.021235
     H   15   0.000694   0.000478   0.001998   0.000537   0.048848   0.024429
     H   16   0.000809   0.000373   0.021359   0.000494   0.024555   0.048086
     H   17   0.001494   0.000268   0.001998   0.000789   0.029054   0.030503
     O   18   0.063633   0.022527   0.008276   0.049580   0.003750   0.003388
     H   19   4.789592   0.453288   0.002904   0.014115   0.000388   0.000409
     H   20   0.493375   5.058311   0.026396   0.013409   0.007323   0.000761
     H   21   0.460319   5.110451   0.001222   0.017164   0.000463   0.000242


                  H 13       H 14       H 15       H 16       H 17       O 18
 ------------------------------------------------------------------------------
     H   13   5.320754
     H   14   0.550042   5.281356
     H   15   0.000790   0.012494   5.452000
     H   16   0.000342   0.000619   0.575397   5.467949
     H   17   0.000414   0.000828   0.571893   0.573209   5.491460
     O   18   0.048447   0.047760   0.002290   0.001217   0.001864  16.635207
     H   19   0.001179   0.000445   0.000151   0.000155   0.000331   0.018512
     H   20   0.000786   0.000356   0.000259   0.000269   0.000250   0.005484
     H   21   0.000595   0.000296   0.000168   0.000161   0.000119   0.003954


                  H 19       H 20       H 21
 ------------------------------------------
     H   19   5.142258
     H   20   0.121224   5.448035
     H   21   0.081971   0.419810   5.493825


          HEAT OF FORMATION =     -24.997137 KCALS/MOLE

          ZERO POINT ENERGY     112.627 KCAL/MOL


           NORMAL COORDINATE ANALYSIS (Total motion = 1 Angstrom)


   Root No.       1         2         3         4         5         6         7         8

                 1 A       2 A       3 A       4 A       5 A       6 A       7 A       8 A   

                  68.7      76.7      95.0     161.3     183.5     202.5     276.8     381.0
  
           1   -0.0017   -0.0027   -0.0030   -0.0058    0.0136   -0.0259    0.0024   -0.0155
           2   -0.0112   -0.0077   -0.0054    0.0167    0.0000   -0.0356    0.0003   -0.0140
           3    0.0171   -0.0192   -0.0025    0.0033   -0.0087    0.0087   -0.0042   -0.0076
           4   -0.0017   -0.0022   -0.0029   -0.0052    0.0128   -0.0251    0.0030   -0.0308
           5   -0.0170   -0.0094   -0.0100    0.0088   -0.0049   -0.0150    0.0309   -0.0042
           6    0.0036   -0.0105   -0.0088   -0.0077    0.0040   -0.0035    0.0203    0.0017
           7    0.0011    0.0001    0.0085   -0.0179    0.0110   -0.0004   -0.0061    0.0483
           8   -0.0104   -0.0063    0.0004    0.0119   -0.0023   -0.0229   -0.0041    0.0074
           9   -0.0196   -0.0255    0.0383    0.0145   -0.0260   -0.0125   -0.0320    0.0076
          10    0.0079   -0.0107   -0.0003    0.0017   -0.0011   -0.0031    0.0040   -0.0367
          11    0.0224   -0.0009   -0.0336    0.0268    0.0115   -0.0118   -0.0315    0.0066
          12    0.0352   -0.0155   -0.0176    0.0101   -0.0033    0.0232   -0.0198    0.0080
          13    0.0006    0.0033    0.0062   -0.0183    0.0131   -0.0011   -0.0051    0.0571
          14   -0.0067    0.0010    0.0117   -0.0125   -0.0189    0.0441    0.0180   -0.0383
          15   -0.0304    0.0629   -0.0127    0.0063    0.0083   -0.0016   -0.0040    0.0018
          16    0.0072   -0.0106    0.0010    0.0000   -0.0013   -0.0024    0.0075   -0.0347
          17   -0.0024    0.0054    0.0036    0.0107   -0.0016   -0.0046    0.0103    0.0114
          18    0.0117   -0.0024   -0.0010   -0.0069    0.0066    0.0013    0.0030   -0.0011
          19   -0.0255    0.0004   -0.0199   -0.0031    0.0022    0.0112   -0.0135   -0.0052
          20   -0.0245   -0.0227   -0.0305   -0.0219    0.0059    0.0195   -0.0109    0.0015
          21   -0.0062   -0.0009   -0.0072    0.0117   -0.0088   -0.0006    0.0380    0.0205
          22   -0.0004    0.0372    0.0022    0.0433   -0.0306    0.0213   -0.0191   -0.0048
          23    0.0575    0.0154    0.0094   -0.0172    0.0110    0.0026    0.0021    0.0080
          24   -0.0082   -0.0096   -0.0113   -0.0016    0.0011   -0.0046    0.0415    0.0218
          25   -0.0067    0.0003   -0.0103   -0.0102    0.0175   -0.0357    0.0247   -0.0299
          26   -0.0324   -0.0092    0.0188    0.0151   -0.0073   -0.0484   -0.0008   -0.0069
          27    0.0354   -0.0193   -0.0163    0.0073   -0.0056    0.0250   -0.0159   -0.0047
          28    0.0031   -0.0008    0.0039   -0.0003    0.0168   -0.0481   -0.0029   -0.0390
          29   -0.0179   -0.0091   -0.0114    0.0076   -0.0072   -0.0040    0.0329    0.0014
          30   -0.0071   -0.0193   -0.0253   -0.0216    0.0112   -0.0003    0.0098   -0.0034
          31    0.0094   -0.0491    0.0418   -0.0206   -0.0117    0.0120   -0.0191    0.0602
          32   -0.0338   -0.0346    0.0387    0.0305   -0.0154   -0.0498   -0.0370    0.0215
          33   -0.0306   -0.0594    0.0725    0.0250   -0.0413   -0.0244   -0.0568    0.0207
          34   -0.0041    0.0492   -0.0127   -0.0301    0.0246    0.0247    0.0127    0.0492
          35    0.0094    0.0178   -0.0409    0.0040    0.0140   -0.0196    0.0217   -0.0136
          36   -0.0312   -0.0648    0.0771    0.0256   -0.0436   -0.0255   -0.0590    0.0222
          37   -0.0092   -0.0063    0.0271   -0.0101   -0.0111    0.0013    0.0382   -0.0412
          38    0.0308   -0.0031   -0.0471    0.0327    0.0164   -0.0139   -0.0486    0.0092
          39    0.0687   -0.0150   -0.0470    0.0255    0.0026    0.0493   -0.0575    0.0241
          40    0.0316   -0.0199   -0.0272    0.0186    0.0005    0.0073   -0.0312   -0.0375
          41    0.0516    0.0011   -0.0651    0.0395    0.0225    0.0026   -0.0680    0.0249
          42    0.0274   -0.0216   -0.0101    0.0104   -0.0099    0.0186   -0.0142   -0.0046
          43   -0.0072    0.0527   -0.0272   -0.0128    0.0436   -0.0172    0.0047    0.0780
          44    0.0177    0.0401   -0.0418   -0.1113   -0.1670    0.0018    0.0045   -0.0495
          45   -0.0198    0.1036   -0.0553   -0.0467   -0.0625   -0.0315   -0.0080    0.0043
          46    0.0068   -0.0469    0.0275   -0.0100   -0.0084   -0.0365   -0.0323    0.0860
          47   -0.0286   -0.0333    0.0695    0.0707    0.1150    0.1219    0.0448   -0.0657
          48   -0.0195    0.1094   -0.0599   -0.0505   -0.0662   -0.0335   -0.0075    0.0043
          49    0.0020    0.0067    0.0163   -0.0313    0.0067    0.0496    0.0132    0.0118
          50   -0.0061    0.0024    0.0163   -0.0180   -0.0214    0.0670    0.0264   -0.0597
          51   -0.0605    0.0466    0.0363    0.1100    0.1826    0.0693    0.0275   -0.0075
          52    0.0111   -0.0149    0.0056    0.0048   -0.0149    0.0160    0.0258    0.0085
          53   -0.0110    0.0207    0.0464   -0.0164    0.0000    0.0106   -0.0070    0.0221
          54    0.0018    0.0125    0.0207   -0.0295    0.0234   -0.0105   -0.0289   -0.0478
          55   -0.0724   -0.0318   -0.0541   -0.0348    0.0141    0.0416   -0.0521    0.0039
          56   -0.0984   -0.0639   -0.0799   -0.0558    0.0139    0.0676   -0.0642    0.0198
          57   -0.0150    0.0129   -0.0039    0.0420   -0.0308    0.0060    0.0459    0.0290
          58    0.0443    0.0689    0.0363    0.0761   -0.0438   -0.0094    0.0197   -0.0173
          59    0.1330    0.0568    0.0591    0.0129    0.0060   -0.0472    0.0631   -0.0054
          60    0.0078   -0.0200   -0.0131   -0.0346    0.0267   -0.0115    0.0461    0.0310
          61   -0.0256    0.0368   -0.0130    0.0514   -0.0470    0.0605   -0.0649    0.0062
          62    0.0558    0.0079   -0.0048   -0.0452    0.0224    0.0362   -0.0436    0.0310
          63   -0.0233   -0.0051   -0.0123    0.0208   -0.0165    0.0000    0.0406    0.0153


   Root No.       9        10        11        12        13        14        15        16

                 9 A      10 A      11 A      12 A      13 A      14 A      15 A      16 A   

                 416.5     430.1     539.6     587.3     636.5     696.3     822.4     875.2
  
           1   -0.0031   -0.0017   -0.0126    0.0266    0.0083   -0.0316    0.0043    0.0012
           2    0.0291   -0.0256    0.0087    0.0010    0.0039   -0.0080    0.0035    0.0107
           3    0.0338    0.0024    0.0157   -0.0200    0.0328   -0.0322   -0.0020   -0.0030
           4   -0.0135   -0.0079   -0.0088    0.0158    0.0250   -0.0323    0.0068   -0.0082
           5   -0.0021    0.0467   -0.0122   -0.0161   -0.0121   -0.0295   -0.0021   -0.0319
           6    0.0146   -0.0015   -0.0185    0.0285   -0.0004   -0.0062    0.0060   -0.0019
           7    0.0057    0.0201    0.0004   -0.0056   -0.0018   -0.0009   -0.0024    0.0018
           8    0.0345   -0.0243    0.0202   -0.0149   -0.0036    0.0312    0.0036   -0.0181
           9   -0.0218    0.0040   -0.0041    0.0008    0.0058   -0.0104   -0.0369    0.0050
          10   -0.0047    0.0133    0.0119   -0.0294   -0.0300    0.0050    0.0074    0.0188
          11   -0.0264   -0.0059   -0.0093    0.0180   -0.0064    0.0114   -0.0046    0.0425
          12    0.0094    0.0076    0.0066   -0.0109    0.0267   -0.0141    0.0241    0.0008
          13    0.0086    0.0257    0.0006   -0.0099   -0.0049   -0.0013   -0.0023    0.0041
          14   -0.0104   -0.0058   -0.0024    0.0038    0.0003    0.0023    0.0025   -0.0102
          15   -0.0063    0.0005   -0.0023    0.0028   -0.0003   -0.0001   -0.0089    0.0031
          16   -0.0021    0.0112    0.0104   -0.0139   -0.0296    0.0201   -0.0076    0.0037
          17   -0.0318    0.0472    0.0457    0.0215    0.0180   -0.0007   -0.0006   -0.0083
          18    0.0037    0.0128    0.0127    0.0592    0.0164    0.0337   -0.0080   -0.0236
          19   -0.0332   -0.0374    0.0113   -0.0267    0.0493    0.0160   -0.0008   -0.0117
          20    0.0161    0.0318   -0.0296   -0.0048    0.0134    0.0207   -0.0001    0.0078
          21   -0.0082   -0.0099   -0.0018   -0.0098   -0.0275   -0.0030    0.0001    0.0118
          22    0.0140    0.0046    0.0022   -0.0006    0.0027   -0.0003   -0.0009   -0.0082
          23   -0.0094   -0.0115    0.0066    0.0001   -0.0075   -0.0005    0.0005    0.0099
          24   -0.0248   -0.0272    0.0034   -0.0208   -0.0183    0.0002    0.0001    0.0163
          25   -0.0086    0.0107   -0.0442    0.0619    0.0113   -0.0707    0.0176   -0.0284
          26    0.0360   -0.0360    0.0127    0.0076   -0.0024    0.0111   -0.0294   -0.0027
          27    0.0289    0.0044    0.0289   -0.0438    0.0357   -0.0244    0.0169    0.0207
          28    0.0109   -0.0400   -0.0114    0.0463    0.0282   -0.0856    0.0251    0.0252
          29   -0.0149    0.0624   -0.0037   -0.0287   -0.0157   -0.0064   -0.0126   -0.0511
          30    0.0400   -0.0268   -0.0831    0.0227    0.0201    0.0045    0.0327    0.0597
          31   -0.0131    0.0337   -0.0059   -0.0082   -0.0077    0.0077    0.0916   -0.0213
          32   -0.0182   -0.0267   -0.0040    0.0190   -0.0424    0.0787    0.1282   -0.0252
          33   -0.0599    0.0070   -0.0208    0.0204   -0.0197    0.0221    0.0746   -0.0080
          34    0.0088    0.0279    0.0019   -0.0126   -0.0011   -0.0064   -0.0918    0.0187
          35    0.0894   -0.0342    0.0431   -0.0385    0.0329   -0.0117   -0.1092   -0.0141
          36   -0.0638    0.0083   -0.0223    0.0216   -0.0214    0.0227    0.0886   -0.0059
          37   -0.0071    0.0656    0.1054    0.0010    0.0197    0.0412    0.0415    0.1168
          38   -0.0256   -0.0324   -0.0579    0.0024   -0.0335   -0.0067   -0.0227   -0.0091
          39   -0.0461    0.0172   -0.0498   -0.0428   -0.0297   -0.0116   -0.0016   -0.1159
          40   -0.0029   -0.0250   -0.0644   -0.1189   -0.0968   -0.0390    0.0063   -0.0667
          41   -0.0695   -0.0190   -0.0868    0.0123   -0.0655    0.0134   -0.0526   -0.0734
          42    0.0381   -0.0034    0.0167   -0.0541    0.0306   -0.0394    0.0544    0.0296
          43    0.0424    0.0176    0.0153   -0.0257   -0.0182    0.0410    0.1225   -0.0540
          44   -0.0337   -0.0011   -0.0137    0.0165    0.0011   -0.0151    0.0088    0.0140
          45   -0.0062    0.0002   -0.0029    0.0038   -0.0053    0.0073    0.0458   -0.0070
          46    0.0192    0.0220    0.0121   -0.0253   -0.0015    0.0090   -0.1114   -0.0025
          47   -0.0211   -0.0014   -0.0118    0.0150    0.0065   -0.0221   -0.0097    0.0172
          48   -0.0053   -0.0004   -0.0025    0.0039   -0.0060    0.0100    0.0563   -0.0112
          49   -0.0329    0.0397   -0.0252    0.0175    0.0029   -0.0537   -0.0092    0.0670
          50   -0.0293    0.0002   -0.0142    0.0166    0.0040   -0.0217   -0.0005    0.0185
          51    0.0079   -0.0012    0.0002    0.0021   -0.0023    0.0074    0.0499   -0.0133
          52    0.0165   -0.0302   -0.0126    0.0334   -0.0068    0.0309   -0.0093   -0.0092
          53    0.0077   -0.0282   -0.0180   -0.0089    0.0074   -0.0196    0.0052    0.0060
          54    0.0081    0.0122   -0.0008   -0.0119   -0.0228    0.0232   -0.0065   -0.0046
          55   -0.0298   -0.0696    0.0477   -0.0009    0.0234    0.0061   -0.0035    0.0143
          56    0.0236   -0.0075    0.0227    0.0206   -0.0318    0.0109   -0.0078    0.0409
          57    0.0017    0.0117   -0.0091   -0.0357   -0.0419    0.0061   -0.0069    0.0025
          58    0.0189    0.0505   -0.0592   -0.0317    0.0630    0.0502   -0.0019    0.0251
          59   -0.0368    0.0127   -0.0534   -0.0695    0.0996    0.0739   -0.0067    0.0139
          60   -0.0850   -0.1046    0.0582   -0.0611    0.0114   -0.0015   -0.0090   -0.0599
          61    0.0681    0.0137    0.0427    0.0876   -0.1420   -0.0891    0.0090    0.0317
          62   -0.0193   -0.0948    0.1223    0.0643   -0.1422   -0.1123    0.0013   -0.0524
          63    0.0151    0.0288   -0.0411   -0.0052   -0.0287    0.0123    0.0057    0.0803


   Root No.      17        18        19        20        21        22        23        24

                17 A      18 A      19 A      20 A      21 A      22 A      23 A      24 A   

                 890.4     922.0     955.5     978.9     986.7    1020.1    1024.9    1049.7
  
           1   -0.0046    0.0144   -0.0074   -0.0269   -0.0044   -0.0327    0.0010   -0.0260
           2   -0.0141    0.0062   -0.0028   -0.0161    0.0121    0.0027    0.0004   -0.0027
           3   -0.0193    0.0038    0.0199    0.0174    0.0003   -0.0029   -0.0014    0.0106
           4    0.0186   -0.0056    0.0118    0.0201   -0.0086    0.0124    0.0018    0.0209
           5   -0.0221   -0.0055   -0.0139    0.0092   -0.0122   -0.0050    0.0047    0.0211
           6    0.0179   -0.0050   -0.0055    0.0162    0.0089    0.0213   -0.0085    0.0066
           7   -0.0004    0.0000    0.0014    0.0001    0.0003   -0.0030   -0.0004   -0.0039
           8    0.0212   -0.0007   -0.0017   -0.0044    0.0005   -0.0021    0.0084    0.0129
           9    0.0030   -0.0011    0.0057    0.0101    0.0089   -0.0081   -0.0014   -0.0166
          10    0.0179   -0.0003   -0.0116   -0.0062    0.0134    0.0063   -0.0084   -0.0215
          11   -0.0208   -0.0173   -0.0031    0.0203   -0.0103   -0.0034   -0.0030   -0.0027
          12    0.0083   -0.0006   -0.0194   -0.0239   -0.0116   -0.0154    0.0111   -0.0008
          13   -0.0098   -0.0010   -0.0021   -0.0039    0.0071    0.0076    0.0042    0.0102
          14    0.0125   -0.0017   -0.0018    0.0127   -0.0202   -0.0088   -0.0100   -0.0162
          15    0.0040   -0.0027   -0.0082   -0.0062   -0.0093    0.0049    0.0000    0.0084
          16   -0.0089   -0.0012    0.0101    0.0126   -0.0038   -0.0007    0.0020    0.0158
          17    0.0165    0.0094    0.0114   -0.0006    0.0118    0.0282   -0.0083   -0.0080
          18   -0.0050    0.0054   -0.0011   -0.0146    0.0041    0.0141   -0.0030   -0.0156
          19   -0.0006   -0.0224    0.0132   -0.0076   -0.0035    0.0051    0.0255   -0.0030
          20    0.0024   -0.0250    0.0043   -0.0078    0.0044   -0.0025    0.0123   -0.0186
          21    0.0024    0.0069    0.0019   -0.0009   -0.0007   -0.0036   -0.0052    0.0001
          22   -0.0093   -0.0076   -0.0120    0.0000    0.0082   -0.0027   -0.0366    0.0071
          23    0.0075    0.0001    0.0214   -0.0158   -0.0042   -0.0089   -0.0323    0.0122
          24    0.0059    0.0053    0.0137   -0.0050   -0.0059   -0.0049    0.0106   -0.0015
          25    0.0138    0.0366   -0.0388   -0.0348   -0.0384   -0.0644   -0.0025   -0.0521
          26   -0.0035    0.0256    0.0217   -0.0276    0.0820   -0.0068    0.0192   -0.0312
          27   -0.0337   -0.0228    0.0177    0.0300   -0.0334    0.0208   -0.0124    0.0478
          28    0.0481    0.0240   -0.0011    0.0253    0.0115    0.0123   -0.0689    0.0331
          29   -0.0398   -0.0085    0.0003   -0.0021   -0.0277   -0.0110    0.0351    0.0149
          30    0.0666   -0.1026   -0.0949    0.1021    0.0820    0.0777   -0.0026    0.0081
          31   -0.0356    0.0068    0.0606    0.0920    0.0245   -0.0303   -0.0288   -0.0534
          32    0.0189    0.0004   -0.0472   -0.0816   -0.0387    0.0315    0.0304    0.0936
          33   -0.0111    0.0018    0.0005   -0.0013   -0.0069    0.0018    0.0007    0.0133
          34    0.0413   -0.0218   -0.0463   -0.0140   -0.0644    0.0368   -0.0228    0.0072
          35    0.0235    0.0093    0.0344    0.0168    0.0665   -0.0465    0.0241   -0.0317
          36   -0.0197    0.0021    0.0024    0.0012   -0.0072    0.0050   -0.0016    0.0114
          37    0.0734   -0.0476   -0.0693    0.0265    0.0433   -0.0998    0.0181    0.0226
          38   -0.0469    0.0080    0.0261    0.0030   -0.0229    0.0503   -0.0166   -0.0259
          39    0.1230    0.0316   -0.0145   -0.0184    0.0789   -0.0883    0.0349    0.0675
          40    0.0341    0.0479    0.0177   -0.0539    0.0259    0.1656   -0.0479   -0.0865
          41    0.0373    0.0229    0.0240    0.0231    0.0570   -0.0554    0.0068    0.0288
          42   -0.0220   -0.0012   -0.0206   -0.0502   -0.0494    0.1024   -0.0158   -0.0545
          43   -0.0105    0.0095    0.0514    0.0848    0.0056   -0.0404   -0.0266   -0.0740
          44   -0.0213    0.0066    0.0028   -0.0232    0.0298    0.0057    0.0155    0.0179
          45   -0.0156    0.0062    0.0165    0.0102    0.0183   -0.0070    0.0018   -0.0065
          46    0.0646   -0.0283   -0.0591   -0.0004   -0.1031    0.0206   -0.0257    0.0093
          47   -0.0175    0.0050   -0.0017   -0.0267    0.0261    0.0085    0.0155    0.0207
          48   -0.0156    0.0074    0.0215    0.0174    0.0181   -0.0132   -0.0008   -0.0148
          49   -0.0902    0.0161    0.0033   -0.0894    0.1203    0.0509    0.0613    0.0931
          50   -0.0241    0.0064    0.0005   -0.0273    0.0319    0.0105    0.0167    0.0220
          51   -0.0121    0.0067    0.0209    0.0214    0.0137   -0.0161   -0.0028   -0.0176
          52   -0.0142   -0.0024    0.0017    0.0010   -0.0045   -0.0008    0.0030    0.0061
          53    0.0060   -0.0011   -0.0022    0.0012    0.0010   -0.0018   -0.0009   -0.0020
          54   -0.0131   -0.0019    0.0005    0.0006   -0.0047   -0.0042    0.0036    0.0068
          55    0.0040    0.1678   -0.0120    0.0318   -0.0145    0.0150   -0.0229    0.0454
          56   -0.0146    0.2424   -0.0597    0.0409   -0.0019   -0.0135   -0.0739    0.0236
          57   -0.0448   -0.0288   -0.0500   -0.0214    0.0203   -0.0567   -0.0334   -0.0617
          58    0.0061    0.1115   -0.0242    0.0417   -0.0101    0.0239    0.1029   -0.0202
          59   -0.0159    0.1472   -0.0638    0.0615   -0.0041    0.0270    0.1287   -0.0359
          60   -0.0725   -0.0470   -0.0986    0.0209    0.0404   -0.0109   -0.0697   -0.0124
          61    0.0426   -0.0003    0.0501    0.0152   -0.0337    0.0162    0.1460   -0.0175
          62   -0.0283   -0.0368   -0.0672    0.0539    0.0027    0.0266    0.1437   -0.0420
          63    0.0598    0.0327    0.1067   -0.0383   -0.0366   -0.0158    0.0186    0.0151


   Root No.      25        26        27        28        29        30        31        32

                25 A      26 A      27 A      28 A      29 A      30 A      31 A      32 A   

                1085.1    1095.8    1111.6    1126.4    1129.8    1144.0    1175.0    1192.0
  
           1   -0.0059    0.0072    0.0368    0.0088   -0.0189    0.0038   -0.0080   -0.0199
           2    0.0059   -0.0001   -0.0052   -0.0036    0.0055    0.0159   -0.0335    0.0065
           3    0.0051    0.0244    0.0156   -0.0121   -0.0004   -0.0117   -0.0377    0.0298
           4    0.0061   -0.0182   -0.0035    0.0027    0.0030   -0.0235    0.0116   -0.0154
           5   -0.0021   -0.0393   -0.0140    0.0094    0.0026    0.0294    0.0058    0.0035
           6   -0.0121    0.0051   -0.0013   -0.0023    0.0107   -0.0461   -0.0043   -0.0092
           7    0.0083    0.0019    0.0128    0.0526    0.0050   -0.0080    0.0069    0.0004
           8   -0.0009    0.0000    0.0113    0.0145   -0.0011   -0.0140    0.0332    0.0163
           9   -0.0081   -0.0167   -0.0176    0.0043   -0.0255   -0.0074    0.0178    0.0031
          10    0.0081   -0.0325    0.0194   -0.0088   -0.0005   -0.0024   -0.0125    0.0032
          11   -0.0056   -0.0128   -0.0091   -0.0034    0.0087   -0.0149    0.0040    0.0082
          12   -0.0144    0.0029   -0.0203    0.0178    0.0005    0.0153    0.0149   -0.0301
          13   -0.0104   -0.0031   -0.0117   -0.0531   -0.0069    0.0060   -0.0029   -0.0070
          14   -0.0040    0.0014   -0.0010   -0.0168   -0.0047    0.0057   -0.0106   -0.0109
          15    0.0033    0.0101    0.0193   -0.0069    0.0298    0.0099    0.0006   -0.0050
          16   -0.0141    0.0576   -0.0091    0.0094   -0.0064    0.0007    0.0071   -0.0121
          17   -0.0051    0.0412    0.0068    0.0028   -0.0097    0.0070    0.0016   -0.0037
          18    0.0143   -0.0395    0.0065   -0.0071    0.0015    0.0134   -0.0042    0.0134
          19   -0.0041   -0.0052   -0.0056   -0.0028    0.0020    0.0197   -0.0050    0.0193
          20    0.0306    0.0217   -0.0016   -0.0074    0.0019   -0.0240    0.0018   -0.0145
          21    0.0020    0.0020    0.0003    0.0006    0.0006   -0.0078    0.0001   -0.0076
          22   -0.0038    0.0011    0.0000    0.0014    0.0021   -0.0144   -0.0010   -0.0115
          23   -0.0127   -0.0093    0.0001    0.0025   -0.0019    0.0139    0.0017    0.0080
          24    0.0038    0.0019   -0.0012   -0.0004   -0.0009    0.0039   -0.0012   -0.0036
          25   -0.1079    0.1253   -0.0558   -0.0656    0.0481   -0.0504    0.0552    0.2110
          26   -0.0371    0.0251   -0.1140    0.0636    0.0720    0.0317   -0.1476   -0.1174
          27    0.0907   -0.0580    0.1461   -0.0207   -0.0863    0.0036    0.0120   -0.0006
          28    0.2177    0.0517   -0.1267   -0.0390   -0.0009    0.1059    0.0831   -0.0085
          29   -0.0849   -0.0714    0.0347    0.0246    0.0117   -0.0503   -0.0263   -0.0061
          30   -0.1246    0.0437    0.0651    0.0498   -0.0742    0.1939   -0.0066    0.0376
          31    0.0274    0.0041    0.0600    0.0930    0.1934    0.0672    0.0334    0.0338
          32    0.0124    0.0452    0.0356   -0.0124   -0.0595   -0.0524   -0.0146    0.0042
          33    0.0072    0.0111    0.0143    0.0015    0.0058   -0.0034   -0.0021    0.0079
          34    0.0576   -0.0032   -0.0863    0.1849   -0.0796   -0.0442   -0.1119    0.1088
          35   -0.0527   -0.0357    0.0326   -0.0315   -0.0013   -0.0138    0.1661   -0.0419
          36    0.0055    0.0114    0.0141   -0.0235    0.0129    0.0080   -0.0212   -0.0024
          37    0.0144   -0.1032   -0.0368   -0.0334    0.0590   -0.0567   -0.0320    0.0670
          38   -0.0094    0.0239    0.0185    0.0086   -0.0200    0.0117    0.0113   -0.0228
          39    0.0280    0.0028   -0.0260   -0.0075    0.0182    0.0129   -0.0351    0.0220
          40    0.0046   -0.0443   -0.0053   -0.0223    0.0315   -0.0268    0.0080    0.0604
          41    0.0301    0.0165    0.0487   -0.0204   -0.0140    0.0013   -0.0675    0.0204
          42   -0.0392   -0.0224   -0.0722    0.0222    0.0317   -0.0064    0.0723   -0.0092
          43   -0.0344   -0.0442   -0.0983   -0.0830   -0.1192   -0.0082   -0.0331   -0.0073
          44   -0.0004   -0.0020    0.0029    0.0134   -0.0081   -0.0118    0.0175    0.0085
          45   -0.0040   -0.0080   -0.0120   -0.0002   -0.0161   -0.0055    0.0050    0.0053
          46   -0.0064    0.0370    0.0358   -0.1447    0.0833    0.0599   -0.0462   -0.0405
          47    0.0002    0.0015    0.0116    0.0092    0.0076   -0.0058    0.0191    0.0024
          48   -0.0023   -0.0102   -0.0129    0.0205   -0.0235   -0.0100    0.0048    0.0048
          49   -0.0071   -0.0088   -0.0134   -0.0320    0.0026   -0.0168    0.0450    0.0410
          50   -0.0028   -0.0010   -0.0002   -0.0061   -0.0011   -0.0057    0.0132    0.0099
          51   -0.0049   -0.0094   -0.0148    0.0080   -0.0256   -0.0090    0.0038    0.0081
          52    0.0021   -0.0044   -0.0089    0.0009    0.0019    0.0085    0.0038    0.0027
          53   -0.0005   -0.0045    0.0043   -0.0013    0.0006   -0.0069   -0.0024   -0.0006
          54   -0.0007    0.0033   -0.0092    0.0026    0.0008    0.0087    0.0040    0.0002
          55   -0.0545   -0.0484   -0.0028    0.0127    0.0037    0.0230   -0.0112    0.0044
          56    0.0008   -0.0037    0.0117    0.0082   -0.0132    0.0076    0.0223    0.0044
          57    0.0976    0.0843    0.0188   -0.0157   -0.0369    0.0518    0.0632    0.0836
          58    0.0229    0.0075    0.0014   -0.0046    0.0001   -0.0066   -0.0052   -0.0037
          59    0.0458    0.0224    0.0047   -0.0078   -0.0035   -0.0128   -0.0008   -0.0103
          60    0.0380    0.0394    0.0047   -0.0027    0.0002   -0.0627    0.0050   -0.0605
          61    0.0203   -0.0079    0.0042   -0.0019   -0.0085    0.0317    0.0001    0.0025
          62    0.0336    0.0181   -0.0030   -0.0045    0.0041   -0.0174   -0.0013   -0.0018
          63   -0.0067   -0.0191    0.0038    0.0015   -0.0120    0.0524    0.0021    0.0099


   Root No.      33        34        35        36        37        38        39        40

                33 A      34 A      35 A      36 A      37 A      38 A      39 A      40 A   

                1203.7    1242.6    1277.2    1307.0    1366.9    1386.4    1403.9    1406.2
  
           1   -0.0043   -0.0310   -0.0023   -0.0086    0.0203   -0.0059    0.0079    0.0020
           2   -0.0112   -0.0259    0.0363   -0.0055   -0.0293   -0.0048   -0.0164   -0.0028
           3    0.0057    0.0129   -0.0331    0.0061    0.0116    0.0096    0.0029   -0.0002
           4    0.0438    0.0074    0.0106    0.0275    0.0072    0.0234    0.0144    0.0060
           5   -0.0079    0.0060   -0.0132   -0.0059   -0.0016   -0.0112   -0.0029   -0.0017
           6    0.0077    0.0095    0.0221   -0.0271   -0.0218   -0.0354   -0.0217   -0.0077
           7    0.0016   -0.0024   -0.0353   -0.0153   -0.0278   -0.0005   -0.0081   -0.0064
           8   -0.0064    0.0113    0.0115    0.0110    0.0100    0.0133    0.0351    0.0061
           9   -0.0068   -0.0052    0.0084   -0.0012   -0.0020   -0.0022   -0.0013   -0.0010
          10   -0.0151    0.0635    0.0055    0.0045   -0.0080    0.0211   -0.0177   -0.0061
          11    0.0075   -0.0089   -0.0151   -0.0018    0.0049    0.0088   -0.0064   -0.0025
          12   -0.0038    0.0289    0.0177    0.0023   -0.0030   -0.0205    0.0148    0.0051
          13    0.0026    0.0023    0.0032    0.0000   -0.0223    0.0081    0.0097    0.0056
          14    0.0034   -0.0048   -0.0056   -0.0038   -0.0057   -0.0005    0.0031   -0.0105
          15    0.0021    0.0002   -0.0010    0.0001    0.0027   -0.0008    0.0026   -0.0326
          16   -0.0010   -0.0152    0.0084   -0.0082   -0.0018   -0.0089    0.0000    0.0000
          17   -0.0017   -0.0072    0.0042   -0.0006   -0.0006   -0.0012    0.0007    0.0005
          18   -0.0014    0.0051   -0.0101    0.0099    0.0037    0.0104    0.0018    0.0006
          19    0.0071    0.0076    0.0024   -0.0197   -0.0100   -0.0180   -0.0104   -0.0039
          20   -0.0140   -0.0054   -0.0011    0.0067    0.0073    0.0132    0.0068    0.0026
          21   -0.0112   -0.0015   -0.0008   -0.0200    0.0106    0.0145    0.0073    0.0027
          22   -0.0173   -0.0040   -0.0026    0.0012    0.0055    0.0086    0.0046    0.0017
          23    0.0121    0.0027    0.0006   -0.0002   -0.0020   -0.0032   -0.0015   -0.0006
          24   -0.0144   -0.0040   -0.0051   -0.0062    0.0112    0.0169    0.0094    0.0035
          25   -0.0896    0.0507   -0.0153    0.0392   -0.0319    0.0291   -0.0059   -0.0083
          26    0.1028    0.0626   -0.0802    0.0193    0.0469    0.0142    0.0133    0.0075
          27   -0.0321   -0.0953    0.0617   -0.0370   -0.0171   -0.0228   -0.0112   -0.0027
          28   -0.0890    0.0327   -0.0594   -0.0488    0.0043   -0.0279   -0.0054   -0.0046
          29    0.0516   -0.0039    0.0246    0.0207   -0.0044    0.0042    0.0020    0.0017
          30   -0.0047   -0.0250   -0.0398    0.0378    0.0243    0.0304    0.0204    0.0070
          31   -0.0379   -0.0024    0.1030    0.0304    0.0756   -0.0257   -0.0371    0.0037
          32    0.0287    0.0426   -0.1116   -0.0081    0.0637   -0.0461   -0.1123   -0.0217
          33   -0.0001    0.0115   -0.0148    0.0027    0.0571   -0.0396   -0.0843   -0.0125
          34   -0.0279    0.0099    0.0851    0.0385    0.0783   -0.0169   -0.0257    0.0027
          35   -0.0025    0.0120   -0.0653   -0.0201    0.0445   -0.0535   -0.1139   -0.0195
          36    0.0029   -0.0097    0.0067   -0.0031   -0.0651    0.0449    0.0971    0.0103
          37    0.0324   -0.1248   -0.0527   -0.0193    0.0181   -0.0956    0.0598    0.0185
          38   -0.0166    0.0847    0.0123    0.0084   -0.0074    0.0524   -0.0359   -0.0119
          39    0.0260   -0.1621    0.0275    0.0027   -0.0208    0.1540   -0.1103   -0.0325
          40    0.0329   -0.1292   -0.0622   -0.0102    0.0271   -0.0943    0.0714    0.0245
          41   -0.0265    0.0745   -0.0069   -0.0085    0.0032   -0.1531    0.1031    0.0303
          42    0.0447   -0.1266   -0.0214    0.0015    0.0149    0.0464   -0.0236   -0.0046
          43   -0.0024   -0.0116    0.0484    0.0180    0.1039   -0.0308   -0.0283   -0.1082
          44   -0.0029    0.0059   -0.0086   -0.0011   -0.0063    0.0016   -0.0571    0.2323
          45   -0.0034    0.0011    0.0117    0.0067    0.0391   -0.0113   -0.0429    0.0798
          46    0.0148   -0.0073    0.0390    0.0185    0.0969   -0.0241   -0.0454    0.1154
          47    0.0000    0.0038   -0.0093   -0.0016    0.0027   -0.0038   -0.0251   -0.0952
          48   -0.0029   -0.0004   -0.0126   -0.0084   -0.0511    0.0147    0.0403   -0.0065
          49   -0.0149    0.0183    0.0724    0.0386    0.1066   -0.0114    0.0239   -0.0278
          50   -0.0041    0.0028    0.0206    0.0115    0.0440   -0.0074    0.0070   -0.0167
          51   -0.0058    0.0014   -0.0021   -0.0017   -0.0177    0.0066   -0.0315    0.3291
          52    0.0009   -0.0099   -0.0015    0.0013   -0.0003    0.0009    0.0008    0.0005
          53    0.0009    0.0058    0.0002   -0.0004    0.0002   -0.0001   -0.0007   -0.0004
          54   -0.0011   -0.0083    0.0000   -0.0004   -0.0007   -0.0010    0.0007    0.0004
          55   -0.0301    0.0011   -0.0051   -0.0188   -0.0044   -0.0113   -0.0065   -0.0026
          56    0.0803    0.0079    0.0100    0.0197    0.0020    0.0081    0.0057    0.0023
          57    0.3134    0.0505    0.0488   -0.0019   -0.0209   -0.0221   -0.0103   -0.0033
          58   -0.0130    0.0002    0.0025   -0.0471    0.0135    0.0168    0.0083    0.0031
          59   -0.0061   -0.0101   -0.0022    0.0615   -0.0170   -0.0216   -0.0113   -0.0041
          60   -0.0650   -0.0434   -0.0276    0.2668   -0.0438   -0.0457   -0.0218   -0.0079
          61    0.0043   -0.0174   -0.0114    0.1640   -0.0442   -0.0552   -0.0269   -0.0099
          62    0.0000    0.0093    0.0057   -0.0933    0.0273    0.0346    0.0176    0.0065
          63    0.0065   -0.0187   -0.0154    0.1706   -0.0408   -0.0491   -0.0233   -0.0086


   Root No.      41        42        43        44        45        46        47        48

                41 A      42 A      43 A      44 A      45 A      46 A      47 A      48 A   

                1410.3    1422.7    1438.4    1861.4    2071.4    2928.7    2942.7    2952.9
  
           1    0.0016   -0.0081   -0.0406   -0.0009   -0.0283    0.0043   -0.0139   -0.0077
           2   -0.0026    0.0143    0.0441    0.0017    0.0200    0.0069   -0.0191   -0.0106
           3    0.0006   -0.0038   -0.0101    0.0031   -0.0230    0.0100   -0.0258   -0.0146
           4    0.0026    0.0216    0.0357    0.0161   -0.0003   -0.0220   -0.0042   -0.0012
           5   -0.0008   -0.0097   -0.0134   -0.0145    0.0153   -0.0511   -0.0084   -0.0020
           6   -0.0039   -0.0231   -0.0334   -0.0413   -0.0247   -0.0048   -0.0010   -0.0003
           7   -0.0040   -0.0283    0.0471   -0.0008    0.0024   -0.0007    0.0011   -0.0016
           8    0.0099   -0.0188   -0.0331   -0.0004   -0.0038   -0.0002    0.0009   -0.0017
           9    0.0001    0.0024    0.0015   -0.0002    0.0009   -0.0040    0.0219   -0.0399
          10   -0.0032   -0.0080   -0.0056   -0.0023   -0.0344    0.0004   -0.0001    0.0001
          11   -0.0012   -0.0078   -0.0161   -0.0012    0.0012   -0.0005    0.0023    0.0012
          12    0.0028    0.0096    0.0168    0.0013    0.0005   -0.0005    0.0006    0.0005
          13    0.0110    0.0409   -0.0361    0.0002    0.0003    0.0000    0.0000    0.0001
          14   -0.0328    0.0030    0.0019    0.0001   -0.0005    0.0000   -0.0001    0.0000
          15    0.0104    0.0000    0.0016    0.0000    0.0000    0.0002   -0.0013    0.0020
          16    0.0000   -0.0013   -0.0039    0.0007    0.3279   -0.0001    0.0005    0.0003
          17    0.0002    0.0017    0.0023   -0.0010   -0.1737   -0.0007   -0.0005   -0.0003
          18    0.0002    0.0027    0.0047   -0.0018    0.2762    0.0009    0.0005    0.0003
          19   -0.0019   -0.0122   -0.0169    0.0352    0.0028    0.0001    0.0000    0.0000
          20    0.0012    0.0085    0.0116    0.0109   -0.0025   -0.0002   -0.0001    0.0000
          21    0.0013    0.0073    0.0091    0.2420   -0.0006   -0.0005    0.0000    0.0001
          22    0.0008    0.0051    0.0069   -0.0579   -0.0009    0.0000   -0.0002   -0.0003
          23   -0.0003   -0.0018   -0.0023    0.0121    0.0011   -0.0001    0.0000    0.0001
          24    0.0017    0.0104    0.0142   -0.1989    0.0012    0.0003    0.0000   -0.0001
          25    0.0028    0.0143    0.0636    0.0087   -0.0083   -0.0603    0.1676    0.0921
          26    0.0006   -0.0143   -0.0565    0.0017   -0.0195   -0.0889    0.2311    0.1321
          27   -0.0018    0.0062    0.0094   -0.0017   -0.0197   -0.1193    0.3128    0.1735
          28   -0.0019   -0.0311   -0.0497    0.0044    0.0159    0.2757    0.0476    0.0125
          29    0.0005    0.0099    0.0185   -0.0097   -0.0076    0.6257    0.1033    0.0247
          30    0.0035    0.0172    0.0218    0.0089    0.0109    0.0597    0.0098    0.0017
          31   -0.0110    0.0793   -0.0559    0.0001    0.0015   -0.0091    0.0481   -0.0894
          32   -0.0453    0.0733    0.0214    0.0007   -0.0044   -0.0128    0.0784   -0.1503
          33   -0.0293    0.0812   -0.0025    0.0005   -0.0005    0.0221   -0.1320    0.2458
          34   -0.0052    0.0708   -0.0648    0.0001   -0.0029    0.0112   -0.0624    0.1080
          35   -0.0466    0.0728    0.0364   -0.0008    0.0024    0.0181   -0.0923    0.1697
          36    0.0350   -0.0926    0.0042   -0.0003   -0.0025    0.0261   -0.1311    0.2329
          37    0.0105    0.0165    0.0134   -0.0005    0.0143    0.0025   -0.0077   -0.0058
          38   -0.0064   -0.0168   -0.0210   -0.0028   -0.0139    0.0049   -0.0133   -0.0104
          39   -0.0198   -0.0338   -0.0425    0.0002    0.0223    0.0011   -0.0022   -0.0011
          40    0.0119    0.0231    0.0157   -0.0006    0.0110    0.0007    0.0074    0.0043
          41    0.0195    0.0417    0.0705    0.0022   -0.0104   -0.0004   -0.0099   -0.0068
          42   -0.0052   -0.0120   -0.0356    0.0003    0.0201   -0.0015   -0.0124   -0.0068
          43    0.0687   -0.0938    0.0833    0.0001   -0.0003    0.0003   -0.0013    0.0023
          44    0.1851   -0.0020   -0.0068   -0.0001    0.0006    0.0009   -0.0045    0.0079
          45    0.1365   -0.0437    0.0332   -0.0001    0.0003   -0.0014    0.0077   -0.0139
          46   -0.0178   -0.1052    0.0744    0.0000    0.0001   -0.0007    0.0032   -0.0026
          47    0.2818    0.0197   -0.0043    0.0000    0.0002   -0.0009    0.0050   -0.0082
          48   -0.1720    0.0473   -0.0395    0.0001   -0.0004   -0.0016    0.0086   -0.0125
          49   -0.1385   -0.0962    0.0367   -0.0004    0.0005   -0.0002    0.0004    0.0003
          50   -0.0740   -0.0492    0.0275   -0.0001   -0.0007    0.0004   -0.0005   -0.0009
          51   -0.0960   -0.0142   -0.0055    0.0000    0.0003    0.0000   -0.0003    0.0003
          52    0.0001    0.0022    0.0049    0.0009   -0.2044   -0.0003   -0.0001   -0.0001
          53   -0.0001   -0.0015   -0.0030   -0.0006    0.1106    0.0000    0.0001    0.0000
          54    0.0001    0.0016    0.0037    0.0007   -0.1754   -0.0003   -0.0001   -0.0001
          55   -0.0012   -0.0091   -0.0130    0.1085   -0.0003   -0.0010   -0.0019   -0.0011
          56    0.0011    0.0080    0.0125   -0.0837   -0.0001   -0.0014    0.0009    0.0007
          57   -0.0016   -0.0071   -0.0057   -0.0327    0.0067    0.0004   -0.0003   -0.0002
          58    0.0015    0.0088    0.0105   -0.1278   -0.0005    0.0010    0.0017    0.0027
          59   -0.0019   -0.0105   -0.0137    0.0958   -0.0014    0.0003   -0.0012   -0.0017
          60   -0.0037   -0.0177   -0.0190    0.0341   -0.0030   -0.0001    0.0008    0.0013
          61   -0.0046   -0.0265   -0.0323    0.1075    0.0013   -0.0013   -0.0004   -0.0002
          62    0.0030    0.0174    0.0218   -0.0871    0.0019    0.0000    0.0002    0.0001
          63   -0.0039   -0.0221   -0.0259   -0.0706    0.0038    0.0014    0.0004    0.0002


   Root No.      49        50        51        52        53        54        55        56

                49 A      50 A      51 A      52 A      53 A      54 A      55 A      56 A   

                3028.9    3035.3    3038.3    3076.9    3084.8    3102.6    3130.8    3146.6
  
           1    0.0001   -0.0009    0.0002    0.0002   -0.0004   -0.0004    0.0003    0.0000
           2    0.0009   -0.0014   -0.0003    0.0001    0.0001   -0.0006    0.0002    0.0001
           3    0.0005   -0.0020   -0.0005    0.0001    0.0000    0.0005    0.0003    0.0001
           4   -0.0001   -0.0002   -0.0003    0.0000    0.0000    0.0009    0.0000    0.0001
           5    0.0001   -0.0007    0.0000    0.0000    0.0000    0.0005    0.0001    0.0002
           6    0.0000   -0.0002   -0.0001    0.0000    0.0000   -0.0007   -0.0005    0.0005
           7    0.0190    0.0020    0.0001    0.0002   -0.0014   -0.0002   -0.0002    0.0000
           8    0.0302    0.0034    0.0002    0.0004   -0.0023   -0.0002   -0.0003    0.0000
           9   -0.0025   -0.0008    0.0000   -0.0028   -0.0002   -0.0003    0.0003    0.0000
          10   -0.0002    0.0009    0.0000    0.0007   -0.0002   -0.0293   -0.0001   -0.0001
          11    0.0042   -0.0445   -0.0007    0.0013   -0.0003   -0.0181    0.0000    0.0000
          12    0.0029   -0.0268   -0.0005    0.0000    0.0000    0.0235    0.0001    0.0001
          13    0.0007    0.0001    0.0000   -0.0018    0.0006   -0.0002    0.0000    0.0000
          14   -0.0037    0.0000    0.0000    0.0067   -0.0479    0.0007    0.0000    0.0000
          15    0.0004   -0.0009    0.0000   -0.0513   -0.0064   -0.0014    0.0001    0.0000
          16   -0.0001    0.0002    0.0000    0.0000    0.0000   -0.0012    0.0000    0.0000
          17    0.0000   -0.0002    0.0001    0.0000    0.0000    0.0000    0.0000    0.0001
          18    0.0000   -0.0001    0.0004    0.0000    0.0000    0.0000   -0.0001   -0.0002
          19    0.0001    0.0004   -0.0562    0.0000    0.0000    0.0000    0.0007    0.0062
          20   -0.0001   -0.0003    0.0369    0.0000    0.0000    0.0000    0.0002   -0.0034
          21    0.0001    0.0002   -0.0226    0.0000    0.0000    0.0000    0.0049    0.0075
          22   -0.0003   -0.0001    0.0044   -0.0001    0.0000    0.0000   -0.0575    0.0222
          23    0.0002    0.0001   -0.0031    0.0000    0.0000    0.0000    0.0391   -0.0242
          24   -0.0001    0.0000    0.0005    0.0000    0.0000    0.0001   -0.0180   -0.0541
          25   -0.0025    0.0117    0.0018   -0.0016   -0.0008    0.0010   -0.0015   -0.0007
          26   -0.0048    0.0142    0.0021   -0.0008    0.0006    0.0017   -0.0027   -0.0007
          27   -0.0069    0.0252    0.0028   -0.0021    0.0002    0.0036   -0.0048   -0.0008
          28   -0.0007    0.0020   -0.0008   -0.0001    0.0000   -0.0012   -0.0005   -0.0007
          29    0.0019    0.0045    0.0012   -0.0001   -0.0003   -0.0029   -0.0014   -0.0016
          30    0.0002    0.0006   -0.0007    0.0000    0.0000   -0.0005   -0.0003    0.0002
          31   -0.1044   -0.0120   -0.0006   -0.0113    0.0079    0.0000    0.0019    0.0002
          32   -0.1762   -0.0198   -0.0011   -0.0130    0.0100    0.0004    0.0024    0.0003
          33    0.3456    0.0389    0.0020    0.0216   -0.0219   -0.0009   -0.0056   -0.0006
          34   -0.1253   -0.0127   -0.0006    0.0080    0.0124    0.0015    0.0004    0.0000
          35   -0.1931   -0.0187   -0.0009    0.0084    0.0144    0.0021    0.0006    0.0000
          36   -0.3156   -0.0328   -0.0016    0.0095    0.0245    0.0040    0.0014    0.0000
          37   -0.0152    0.1641    0.0026   -0.0082    0.0021    0.2070    0.0004    0.0005
          38   -0.0291    0.3170    0.0052   -0.0173    0.0046    0.4506    0.0009    0.0010
          39    0.0010   -0.0070   -0.0001   -0.0003    0.0001    0.0202    0.0000    0.0000
          40    0.0186   -0.1742   -0.0027    0.0004   -0.0001    0.1459    0.0004    0.0003
          41   -0.0231    0.2204    0.0035    0.0009   -0.0005   -0.2310   -0.0006   -0.0005
          42   -0.0358    0.3332    0.0054    0.0007   -0.0004   -0.3065   -0.0009   -0.0008
          43    0.0052   -0.0032    0.0000   -0.1378    0.0530   -0.0035    0.0003    0.0000
          44    0.0075   -0.0043    0.0000   -0.2162    0.0602   -0.0057    0.0004    0.0000
          45   -0.0159    0.0073    0.0001    0.3675   -0.1553    0.0101   -0.0008   -0.0001
          46    0.0044    0.0021    0.0001    0.1351    0.1088    0.0036   -0.0001    0.0000
          47    0.0053    0.0029    0.0002    0.1932    0.1269    0.0054   -0.0002   -0.0001
          48    0.0109    0.0041    0.0003    0.2732    0.2362    0.0073   -0.0001   -0.0001
          49   -0.0105   -0.0002   -0.0001    0.0240   -0.1676    0.0031   -0.0002   -0.0001
          50    0.0331    0.0017    0.0003   -0.0575    0.3850   -0.0077    0.0002    0.0002
          51   -0.0001   -0.0005    0.0000   -0.0265   -0.0048   -0.0007    0.0000    0.0000
          52    0.0000   -0.0001   -0.0001    0.0000    0.0000    0.0003    0.0000    0.0000
          53    0.0000   -0.0001    0.0000    0.0000    0.0000   -0.0002    0.0000    0.0000
          54    0.0000   -0.0001    0.0000    0.0000    0.0000    0.0003    0.0000    0.0001
          55   -0.0011   -0.0054    0.6537   -0.0001   -0.0001    0.0000    0.0054   -0.0513
          56    0.0007    0.0036   -0.4374    0.0000    0.0001    0.0000   -0.0031    0.0338
          57   -0.0004   -0.0016    0.2053    0.0000    0.0000    0.0000    0.0056   -0.0193
          58    0.0029    0.0007    0.0063    0.0007   -0.0004   -0.0010    0.6398    0.0817
          59   -0.0018   -0.0004   -0.0040   -0.0005    0.0003    0.0007   -0.4307   -0.0574
          60    0.0013    0.0002    0.0045    0.0003   -0.0002   -0.0003    0.2337    0.0127
          61    0.0000    0.0003   -0.0400    0.0000    0.0001    0.0005    0.0304   -0.3690
          62   -0.0001   -0.0003    0.0370    0.0000    0.0000   -0.0005   -0.0334    0.3509
          63   -0.0002   -0.0004    0.0534    0.0000   -0.0001   -0.0008   -0.0758    0.5560


   Root No.      57

                57 A   

                3179.7
  
           1   -0.0001
           2    0.0000
           3   -0.0001
           4    0.0000
           5    0.0000
           6    0.0000
           7    0.0004
           8   -0.0002
           9    0.0000
          10   -0.0001
          11    0.0001
          12    0.0002
          13    0.0246
          14   -0.0013
          15   -0.0002
          16    0.0000
          17    0.0000
          18    0.0000
          19    0.0000
          20    0.0000
          21    0.0000
          22    0.0000
          23    0.0000
          24    0.0000
          25    0.0010
          26    0.0007
          27    0.0012
          28    0.0000
          29    0.0000
          30    0.0000
          31    0.0018
          32    0.0014
          33   -0.0027
          34    0.0019
          35    0.0015
[...]
 EFF. MASS   5.6070

 VIBRATION   36   36A       ATOM PAIR        ENERGY CONTRIBUTION    RADIAL
 FREQ.      1306.96        C  8 --  H 20          +22.9% ( 53.8%)     0.1%
 T-DIPOLE    0.1870        C  8 --  H 21          +18.7% ( 48.7%)     0.8%
 TRAVEL      0.1319        C  2 --  C  7          +10.6% ( 36.6%)    44.6%
 RED. MASS   0.4212        C  2 --  H 10           +8.4% ( 32.6%)     0.1%
 EFF. MASS   2.9641

 VIBRATION   37   37A       ATOM PAIR        ENERGY CONTRIBUTION    RADIAL
 FREQ.      1366.87        C  1 --  C  3          +11.4% ( 44.1%)    76.5%
 T-DIPOLE    0.0800        C  1 --  H  9           +8.0% ( 36.9%)     0.0%
 TRAVEL      0.1028        C  3 --  H 11           +7.9% ( 36.8%)     0.4%
 RED. MASS   0.4425        C  3 --  H 12           +7.8% ( 36.4%)     1.4%
 EFF. MASS   4.6695

 VIBRATION   38   38A       ATOM PAIR        ENERGY CONTRIBUTION    RADIAL
 FREQ.      1386.36        C  4 --  H 13          +13.3% ( 47.4%)     3.6%
 T-DIPOLE    0.3734        C  4 --  H 14          +12.9% ( 46.7%)     4.6%
 TRAVEL      0.1005        C  2 --  C  7          +12.8% ( 46.4%)    96.6%
 RED. MASS   0.5252        C  2 --  C  4           +8.6% ( 38.1%)     2.8%
 EFF. MASS   4.8186

 VIBRATION   39   39A       ATOM PAIR        ENERGY CONTRIBUTION    RADIAL
 FREQ.      1403.90        C  3 --  H 12          +14.1% ( 45.0%)     3.5%
 T-DIPOLE    0.0523        C  3 --  H 11          +13.1% ( 43.4%)     4.1%
 TRAVEL      0.1086        C  4 --  H 13           +8.8% ( 35.5%)     3.9%
 RED. MASS   0.3516        C  1 --  C  3           +8.6% ( 35.1%)    97.9%
 EFF. MASS   4.0755

 VIBRATION   40   40A       ATOM PAIR        ENERGY CONTRIBUTION    RADIAL
 FREQ.      1406.20        C  5 --  H 17          +45.6% ( 60.0%)     0.7%
 T-DIPOLE    0.0477        C  5 --  H 15          +30.6% ( 49.2%)     4.5%
 TRAVEL      0.1668        C  5 --  H 16          +10.3% ( 28.5%)    33.9%
 RED. MASS   0.3958        C  3 --  C  5           +5.2% ( 20.3%)    11.1%
 EFF. MASS   1.7231

 VIBRATION   41   41A       ATOM PAIR        ENERGY CONTRIBUTION    RADIAL
 FREQ.      1410.31        C  5 --  H 16          +46.9% ( 60.7%)     0.1%
 T-DIPOLE    0.0564        C  5 --  H 15          +25.7% ( 44.9%)     4.1%
 TRAVEL      0.1672        C  5 --  H 17          +15.2% ( 34.6%)    23.0%
 RED. MASS   0.3815        C  3 --  C  5           +6.2% ( 22.1%)     7.5%
 EFF. MASS   1.7113

 VIBRATION   42   42A       ATOM PAIR        ENERGY CONTRIBUTION    RADIAL
 FREQ.      1422.74        C  3 --  C  5          +11.9% ( 45.0%)    93.4%
 T-DIPOLE    0.0749        C  5 --  H 16          +10.0% ( 41.2%)     4.3%
 TRAVEL      0.0939        C  5 --  H 17           +9.5% ( 40.1%)     2.8%
 RED. MASS   0.5486        C  3 --  H 12           +9.3% ( 39.8%)     5.4%
 EFF. MASS   5.3747

 VIBRATION   43   43A       ATOM PAIR        ENERGY CONTRIBUTION    RADIAL
 FREQ.      1438.42        C  1 --  C  3          +13.6% ( 59.6%)    82.1%
 T-DIPOLE    0.1582        C  1 --  C  2          +10.8% ( 53.2%)    60.2%
 TRAVEL      0.0721        C  3 --  C  5           +8.3% ( 46.7%)    81.7%
 RED. MASS   1.5005        C  1 --  H  9           +7.3% ( 43.8%)     0.0%
 EFF. MASS   9.0275

 VIBRATION   44   44A       ATOM PAIR        ENERGY CONTRIBUTION    RADIAL
 FREQ.      1861.43        C  7 --  C  8          +44.8% ( 99.0%)    98.7%
 T-DIPOLE    0.2888        C  2 --  C  7          +17.1% ( 61.3%)    57.9%
 TRAVEL      0.0553        C  7 --  H 19          +15.5% ( 58.2%)     3.7%
 RED. MASS   5.3003        C  8 --  H 20          +10.7% ( 48.5%)    10.9%
 EFF. MASS  11.8286        C  8 --  H 21          +10.5% ( 48.0%)    13.1%

 VIBRATION   45   45A       ATOM PAIR        ENERGY CONTRIBUTION    RADIAL
 FREQ.      2071.40        C  6 --  O 18          +42.2% ( 99.0%)   100.0%
 T-DIPOLE    4.8870        C  1 --  C  6          +19.1% ( 66.6%)    99.9%
 TRAVEL      0.0495        C  4 --  C  6          +19.1% ( 66.5%)    54.3%
 RED. MASS   6.8847        C  2 --  C  6          +19.0% ( 66.3%)    51.1%
 EFF. MASS  13.3051

 VIBRATION   46   46A       ATOM PAIR        ENERGY CONTRIBUTION    RADIAL
 FREQ.      2928.67        C  2 --  H 10          +90.7% ( 97.2%)   100.0%
 T-DIPOLE    0.2218        C  1 --  H  9           +5.0% ( 22.8%)    99.9%
 TRAVEL      0.1267        C  1 --  C  2           +1.0% ( 10.3%)    16.2%
 RED. MASS   0.8322        C  2 --  C  4           +0.9% (  9.7%)    29.5%
 EFF. MASS   1.4340

 VIBRATION   47   47A       ATOM PAIR        ENERGY CONTRIBUTION    RADIAL
 FREQ.      2942.67        C  1 --  H  9          +68.2% ( 84.8%)   100.0%
 T-DIPOLE    0.1534        C  3 --  H 12          +12.1% ( 35.7%)    96.6%
 TRAVEL      0.1247        C  3 --  H 11          +10.7% ( 33.6%)    96.0%
 RED. MASS   0.5088        C  2 --  H 10           +4.9% ( 22.7%)    99.9%
 EFF. MASS   1.4727

 VIBRATION   48   48A       ATOM PAIR        ENERGY CONTRIBUTION    RADIAL
 FREQ.      2952.89        C  3 --  H 12          +38.5% ( 64.1%)    96.7%
 T-DIPOLE    0.0850        C  3 --  H 11          +37.1% ( 62.9%)    96.4%
 TRAVEL      0.1227        C  1 --  H  9          +21.1% ( 47.5%)   100.0%
 RED. MASS   0.3529        C  1 --  C  3           +1.0% ( 10.5%)     4.2%
 EFF. MASS   1.5157

 VIBRATION   49   49A       ATOM PAIR        ENERGY CONTRIBUTION    RADIAL
 FREQ.      3028.93        C  3 --  H 11          +49.9% ( 69.7%)    97.9%
 T-DIPOLE    0.0542        C  3 --  H 12          +47.0% ( 67.6%)    97.5%
 TRAVEL      0.1320        C  4 --  H 14           +0.8% (  8.6%)    98.6%
 RED. MASS   0.4686        C  3 --  C  5           +0.6% (  7.8%)    26.3%
 EFF. MASS   1.2776

 VIBRATION   50   50A       ATOM PAIR        ENERGY CONTRIBUTION    RADIAL
 FREQ.      3035.34        C  4 --  H 14          +56.5% ( 78.1%)    97.8%
 T-DIPOLE    0.2197        C  4 --  H 13          +39.1% ( 65.0%)    95.7%
 TRAVEL      0.1205        C  2 --  C  4           +1.1% ( 10.7%)     0.3%
 RED. MASS   0.5181        C  4 --  C  6           +1.0% ( 10.6%)     0.2%
 EFF. MASS   1.5292

 VIBRATION   51   51A       ATOM PAIR        ENERGY CONTRIBUTION    RADIAL
 FREQ.      3038.26        C  7 --  H 19          +96.3% ( 99.6%)   100.0%
 T-DIPOLE    0.3105        C  7 --  C  8           +1.4% ( 12.2%)    31.2%
 TRAVEL      0.1213        C  2 --  C  7           +1.4% ( 11.9%)    13.6%
 RED. MASS   0.9141        C  8 --  H 21           +0.8% (  9.3%)    94.8%
 EFF. MASS   1.5074

 VIBRATION   52   52A       ATOM PAIR        ENERGY CONTRIBUTION    RADIAL
 FREQ.      3076.94        C  5 --  H 15          +58.3% ( 78.7%)    98.1%
 T-DIPOLE    0.0167        C  5 --  H 16          +38.3% ( 63.8%)    95.2%
 TRAVEL      0.1208        C  5 --  H 17           +2.1% ( 14.8%)    24.8%
 RED. MASS   0.5142        C  3 --  C  5           +1.0% ( 10.2%)     0.0%
 EFF. MASS   1.5015

 VIBRATION   53   53A       ATOM PAIR        ENERGY CONTRIBUTION    RADIAL
 FREQ.      3084.76        C  5 --  H 17          +59.5% ( 79.6%)    98.6%
 T-DIPOLE    0.0210        C  5 --  H 16          +28.3% ( 54.8%)    91.7%
 TRAVEL      0.1206        C  5 --  H 15          +10.7% ( 33.8%)    74.9%
 RED. MASS   0.4746        C  3 --  C  5           +1.0% ( 10.3%)     0.0%
 EFF. MASS   1.5040

 VIBRATION   54   54A       ATOM PAIR        ENERGY CONTRIBUTION    RADIAL
 FREQ.      3102.61        C  4 --  H 13          +58.6% ( 75.9%)    98.2%
 T-DIPOLE    0.2620        C  4 --  H 14          +39.3% ( 62.2%)    95.6%
 TRAVEL      0.1301        C  2 --  C  4           +0.7% (  8.3%)    98.7%
 RED. MASS   0.4993        C  1 --  C  4           +0.7% (  8.2%)    48.9%
 EFF. MASS   1.2849

 VIBRATION   55   55A       ATOM PAIR        ENERGY CONTRIBUTION    RADIAL
 FREQ.      3130.81        C  8 --  H 20          +95.8% ( 99.4%)   100.0%
 T-DIPOLE    0.2083        C  8 --  H 21           +2.8% ( 17.1%)    48.1%
 TRAVEL      0.1191        C  7 --  C  8           +1.4% ( 11.8%)    31.9%
 RED. MASS   0.9099
 EFF. MASS   1.5181

 VIBRATION   56   56A       ATOM PAIR        ENERGY CONTRIBUTION    RADIAL
 FREQ.      3146.61        C  8 --  H 21          +95.4% ( 98.6%)    99.9%
 T-DIPOLE    0.2746        C  8 --  H 20           +2.3% ( 15.2%)     5.8%
 TRAVEL      0.1201        C  7 --  C  8           +1.5% ( 12.6%)    61.7%
 RED. MASS   0.8850        C  7 --  H 19           +0.7% (  8.7%)    95.0%
 EFF. MASS   1.4865

 VIBRATION   57   57A       ATOM PAIR        ENERGY CONTRIBUTION    RADIAL
 FREQ.      3179.73        C  5 --  H 17          +37.8% ( 59.2%)    97.7%
 T-DIPOLE    0.0253        C  5 --  H 16          +32.4% ( 54.8%)    96.9%
 TRAVEL      0.1366        C  5 --  H 15          +29.5% ( 52.3%)    96.4%
 RED. MASS   0.3299        C  3 --  C  5           +0.3% (  5.1%)    99.1%
 EFF. MASS   1.1371

 SYMMETRY NUMBER FOR POINT-GROUP C1  =  1


          SYSTEM IS A GROUND STATE


    NULL



          MOLECULE IS NOT LINEAR

          THERE ARE 57 GENUINE VIBRATIONS IN THIS SYSTEM
          THIS THERMODYNAMICS CALCULATION IS LIMITED TO
          MOLECULES WHICH HAVE NO INTERNAL ROTATIONS




                    CALCULATED THERMODYNAMIC PROPERTIES
                                          *
   TEMP. (K)   PARTITION FUNCTION   H.O.F.    ENTHALPY  HEAT CAPACITY ENTROPY
                                   KCAL/MOL   CAL/MOLE    CAL/K/MOL  CAL/K/MOL


 298.00  VIB.     0.4874D+03                  4263.2745    29.4073    26.6055
         ROT.     0.5797D+06                   888.2813     2.9808    29.3514
         INT.     0.2826D+09                  5151.5559    32.3881    55.9569
         TRA.     0.1338D+28                  1480.4688     4.9680    40.3614
         TOT.                      -24.997    6632.0247    37.3561    96.3183

 200.00  VIB.     0.4619D+02                  1912.5930    18.8924    17.1794
         ROT.     0.3187D+06                   596.1620     2.9808    28.1627
         INT.     0.1472D+08                  2508.7550    21.8732    45.3421
         TRA.     0.7356D+27                   993.6033     4.9680    38.3802
         TOT.                      -28.127    3502.3582    26.8412    83.7223

 210.00  VIB.     0.5874D+02                  2106.3448    19.8626    18.1245
         ROT.     0.3429D+06                   625.9700     2.9808    28.3082
         INT.     0.2014D+08                  2732.3148    22.8434    46.4327
         TRA.     0.7914D+27                  1043.2834     4.9680    38.6226
         TOT.                      -27.854    3775.5982    27.8114    85.0553

 220.00  VIB.     0.7470D+02                  2309.9383    20.8607    19.0714
         ROT.     0.3677D+06                   655.7781     2.9808    28.4468
         INT.     0.2747D+08                  2965.7165    23.8415    47.5183
         TRA.     0.8486D+27                  1092.9636     4.9680    38.8537
         TOT.                      -27.570    4058.6801    28.8095    86.3720

 230.00  VIB.     0.9497D+02                  2523.6499    21.8860    20.0212
         ROT.     0.3930D+06                   685.5862     2.9808    28.5793
         INT.     0.3733D+08                  3209.2361    24.8668    48.6006
         TRA.     0.9072D+27                  1142.6437     4.9680    39.0746
         TOT.                      -27.277    4351.8799    29.8348    87.6752

 240.00  VIB.     0.1207D+03                  2747.7445    22.9370    20.9748
         ROT.     0.4190D+06                   715.3943     2.9808    28.7062
         INT.     0.5058D+08                  3463.1388    25.9178    49.6810
         TRA.     0.9670D+27                  1192.3239     4.9680    39.2860
         TOT.                      -26.974    4655.4627    30.8859    88.9670

 250.00  VIB.     0.1535D+03                  2982.4690    24.0116    21.9329
         ROT.     0.4454D+06                   745.2024     2.9808    28.8279
         INT.     0.6837D+08                  3727.6714    26.9924    50.7608
         TRA.     0.1028D+28                  1242.0041     4.9680    39.4888
         TOT.                      -26.659    4969.6755    31.9604    90.2496

 260.00  VIB.     0.1952D+03                  3228.0465    25.1071    22.8959
         ROT.     0.4724D+06                   775.0105     2.9808    28.9448
         INT.     0.9220D+08                  4003.0570    28.0880    51.8407
         TRA.     0.1090D+28                  1291.6842     4.9680    39.6837
         TOT.                      -26.334    5294.7412    33.0560    91.5244

 270.00  VIB.     0.2482D+03                  3484.6719    26.2207    23.8643
         ROT.     0.4999D+06                   804.8186     2.9808    29.0573
         INT.     0.1241D+09                  4289.4905    29.2015    52.9216
         TRA.     0.1154D+28                  1341.3644     4.9680    39.8712
         TOT.                      -25.998    5630.8549    34.1695    92.7927

 280.00  VIB.     0.3158D+03                  3752.5097    27.3491    24.8382
         ROT.     0.5279D+06                   834.6267     2.9808    29.1657
         INT.     0.1667D+09                  4587.1364    30.3299    54.0039
         TRA.     0.1219D+28                  1391.0445     4.9680    40.0518
         TOT.                      -25.651    5978.1810    35.2979    94.0558

 290.00  VIB.     0.4018D+03                  4031.6922    28.4891    25.8178
         ROT.     0.5565D+06                   864.4348     2.9808    29.2703
         INT.     0.2236D+09                  4896.1270    31.4699    55.0881
         TRA.     0.1284D+28                  1440.7247     4.9680    40.2262
         TOT.                      -25.292    6336.8517    36.4379    95.3143

 300.00  VIB.     0.5116D+03                  4322.3192    29.6375    26.8030
         ROT.     0.5855D+06                   894.2429     2.9808    29.3714
         INT.     0.2995D+09                  5216.5622    32.6183    56.1743
         TRA.     0.1351D+28                  1490.4049     4.9680    40.3946
         TOT.                      -24.922    6706.9670    37.5863    96.5689

 310.00  VIB.     0.6516D+03                  4624.4587    30.7911    27.7936
         ROT.     0.6150D+06                   924.0510     2.9808    29.4691
         INT.     0.4007D+09                  5548.5097    33.7719    57.2627
         TRA.     0.1419D+28                  1540.0850     4.9680    40.5575
         TOT.                      -24.541    7088.5948    38.7399    97.8201

 320.00  VIB.     0.8303D+03                  4938.1477    31.9469    28.7894
         ROT.     0.6450D+06                   953.8591     2.9808    29.5637
         INT.     0.5356D+09                  5892.0068    34.9277    58.3531
         TRA.     0.1489D+28                  1589.7652     4.9680    40.7152
         TOT.                      -24.147    7481.7720    39.8957    99.0683

 330.00  VIB.     0.1059D+04                  5263.3940    33.1021    29.7901
         ROT.     0.6755D+06                   983.6672     2.9808    29.6555
         INT.     0.7151D+09                  6247.0612    36.0829    59.4456
         TRA.     0.1559D+28                  1639.4454     4.9680    40.8681
         TOT.                      -23.743    7886.5066    41.0509   100.3137

 340.00  VIB.     0.1351D+04                  5600.1783    34.2540    30.7954
         ROT.     0.7064D+06                  1013.4753     2.9808    29.7444
         INT.     0.9541D+09                  6613.6536    37.2349    60.5399
         TRA.     0.1630D+28                  1689.1255     4.9680    41.0164
         TOT.                      -23.326    8302.7792    42.2029   101.5563

 350.00  VIB.     0.1724D+04                  5948.4563    35.4004    31.8049
         ROT.     0.7378D+06                  1043.2834     2.9808    29.8309
         INT.     0.1272D+10                  6991.7397    38.3812    61.6358
         TRA.     0.1703D+28                  1738.8057     4.9680    41.1604
         TOT.                      -22.899    8730.5454    43.3493   102.7962

 360.00  VIB.     0.2202D+04                  6308.1611    36.5391    32.8182
         ROT.     0.7697D+06                  1073.0915     2.9808    29.9148
         INT.     0.1695D+10                  7381.2526    39.5199    62.7330
         TRA.     0.1776D+28                  1788.4859     4.9680    41.3004
         TOT.                      -22.459    9169.7384    44.4879   104.0334

 370.00  VIB.     0.2814D+04                  6679.2055    37.6681    33.8347
         ROT.     0.8020D+06                  1102.8996     2.9808    29.9965
         INT.     0.2256D+10                  7782.1051    40.6489    63.8312
         TRA.     0.1851D+28                  1838.1660     4.9680    41.4365
         TOT.                      -22.009    9620.2711    45.6169   105.2677

 380.00  VIB.     0.3598D+04                  7061.4847    38.7858    34.8541
         ROT.     0.8347D+06                  1132.7077     2.9808    30.0760
         INT.     0.3003D+10                  8194.1924    41.7666    64.9301
         TRA.     0.1926D+28                  1887.8462     4.9680    41.5690
         TOT.                      -21.547   10082.0386    46.7346   106.4991

 390.00  VIB.     0.4603D+04                  7454.8785    39.8907    35.8759
         ROT.     0.8678D+06                  1162.5158     2.9808    30.1534
         INT.     0.3994D+10                  8617.3943    42.8716    66.0294
         TRA.     0.2003D+28                  1937.5263     4.9680    41.6980
         TOT.                      -21.074   10554.9206    47.8396   107.7274

 400.00  VIB.     0.5892D+04                  7859.2531    40.9818    36.8997
         ROT.     0.9014D+06                  1192.3239     2.9808    30.2289
         INT.     0.5311D+10                  9051.5770    43.9626    67.1286
         TRA.     0.2081D+28                  1987.2065     4.9680    41.8238
         TOT.                      -20.590   11038.7835    48.9306   108.9524

   *: NOTE: HEATS OF FORMATION ARE RELATIVE TO THE
            ELEMENTS IN THEIR STANDARD STATE AT 298K
              (=  Standard Enthalpy of Formation).

            Hvib:  Zero-point energy is not included.
                   frequencies of less than zero cm-1 are not included.
            Hrot = (3/2)RT
            Htra = (3/2)RT + pV = (5/2)RT

            Heat capacity is Cp, not Cv

           For more information, see: HTTP://OpenMOPAC.net/Manual/thermochemistry.html


           FORCE CONSTANT IN CARTESIAN COORDINATES (Millidynes/A)

    ATOM   CHEMICAL       X               Y               Z
   NUMBER   SYMBOL  FORCE CONSTANT  FORCE CONSTANT  FORCE CONSTANT

      1       C        7.729668        8.510919        8.108253
      2       C        7.844499        8.040918        8.654984
      3       C        8.490611        8.347276        8.281867
      4       C        8.057533        8.098942        7.816407
      5       C        8.313017        8.381371        8.199071
      6       C       13.204821        5.692014       10.315855
      7       C        7.463779        4.794957       14.979448
      8       C        7.113773        4.485436       14.851065
      9       H        1.353771        1.968842        2.927708
     10       H        1.341722        4.050692        0.645939
     11       H        1.046930        1.625594        3.686989
     12       H        1.218807        1.878979        3.294040
     13       H        1.494939        4.362423        0.695598
     14       H        1.293624        1.958489        3.275125
     15       H        1.124762        1.683613        3.944015
     16       H        1.339338        1.842672        3.596119
     17       H        1.410593        4.716854        0.665258
     18       O        8.632425        2.755169        6.467329
     19       H        3.413636        1.740990        1.025537
     20       H        3.539543        1.806699        1.088680
     21       H        1.693507        1.483208        3.292833



 TOTAL CPU TIME:             2.54 SECONDS

 == MOPAC DONE ==
