 *******************************************************************************
 ** Site#: 14399           For non-commercial use only        Version 13.159M **
 *******************************************************************************
 ** Cite this work as: MOPAC2012, James J. P. Stewart, Stewart Computational  **
 ** Chemistry, Version 13.159M web: HTTP://OpenMOPAC.net  Days remaining:   6 **
 *******************************************************************************
 **                                                                           **
 **                                MOPAC2012                                  **
 **                                                                           **
 *******************************************************************************

                            PM3 CALCULATION RESULTS


 *******************************************************************************
 *  CALCULATION DONE:                                Mon Jun  2 11:12:46 2014  *
 *  PM3      - The PM3 Hamiltonian to be used
 *  PRECISE  - CRITERIA TO BE INCREASED BY 100 TIMES
 *  NOSYM    - POINT-GROUP SYMMETRY SET TO C1
 *  T=       - A TIME OF 172800.0 SECONDS REQUESTED
 *  DUMP=N   - RESTART FILE WRITTEN EVERY  7200.000 SECONDS
 *******************************************************************************
pm3  precise nosym
 InChI=1S/C11H16/c1-2-3-4-5-8-11-9-6-7-10-11/h4-7,9-11H,2-3,8H2,1H3

   ATOM   CHEMICAL          X               Y               Z
  NUMBER   SYMBOL      (ANGSTROMS)     (ANGSTROMS)     (ANGSTROMS)
 
     1       C         -1.83700000  *   0.03050000  *  -0.11880000  *
     2       C          3.04140000  *  -0.90120000  *   0.70570000  *
     3       C         -1.27280000  *  -0.56180000  *  -1.41730000  *
     4       C          2.45670000  *  -1.35310000  *  -0.63450000  *
     5       C          2.76100000  *   0.56350000  *   1.03190000  *
     6       C         -3.33420000  *   0.07800000  *  -0.13420000  *
     7       C         -1.52940000  *   1.48900000  *   0.04490000  *
     8       C          0.23020000  *  -0.58400000  *  -1.45210000  *
     9       C          0.95360000  *  -1.35370000  *  -0.62760000  *
    10       C         -3.77550000  *   1.31860000  *  -0.01270000  *
    11       C         -2.63730000  *   2.20840000  *   0.10030000  *
    12       H         -1.49400000  *  -0.54070000  *   0.77450000  *
    13       H          2.65750000  *  -1.54510000  *   1.53110000  *
    14       H          4.14630000  *  -1.04520000  *   0.67440000  *
    15       H         -1.63750000  *   0.02660000  *  -2.29230000  *
    16       H         -1.65010000  *  -1.60170000  *  -1.55740000  *
    17       H          2.88060000  *  -0.72530000  *  -1.45350000  *
    18       H          2.79070000  *  -2.39610000  *  -0.83830000  *
    19       H          1.66880000  *   0.74510000  *   1.15200000  *
    20       H          3.15380000  *   1.23080000  *   0.23130000  *
    21       H          3.25890000  *   0.83860000  *   1.98920000  *
    22       H         -3.98230000  *  -0.78790000  *  -0.22590000  *
    23       H         -0.53160000  *   1.91020000  *   0.11660000  *
    24       H          0.73080000  *   0.05630000  *  -2.17800000  *
    25       H          0.45010000  *  -1.99830000  *   0.09260000  *
    26       H         -4.81970000  *   1.61260000  *   0.00620000  *
    27       H         -2.67870000  *   3.28610000  *   0.21860000  *
 


          CARTESIAN COORDINATES 

    NO.       ATOM         X         Y         Z

     1         C       -1.8370    0.0305   -0.1188
     2         C        3.0414   -0.9012    0.7057
     3         C       -1.2728   -0.5618   -1.4173
     4         C        2.4567   -1.3531   -0.6345
     5         C        2.7610    0.5635    1.0319
     6         C       -3.3342    0.0780   -0.1342
     7         C       -1.5294    1.4890    0.0449
     8         C        0.2302   -0.5840   -1.4521
     9         C        0.9536   -1.3537   -0.6276
    10         C       -3.7755    1.3186   -0.0127
    11         C       -2.6373    2.2084    0.1003
    12         H       -1.4940   -0.5407    0.7745
    13         H        2.6575   -1.5451    1.5311
    14         H        4.1463   -1.0452    0.6744
    15         H       -1.6375    0.0266   -2.2923
    16         H       -1.6501   -1.6017   -1.5574
    17         H        2.8806   -0.7253   -1.4535
    18         H        2.7907   -2.3961   -0.8383
    19         H        1.6688    0.7451    1.1520
    20         H        3.1538    1.2308    0.2313
    21         H        3.2589    0.8386    1.9892
    22         H       -3.9823   -0.7879   -0.2259
    23         H       -0.5316    1.9102    0.1166
    24         H        0.7308    0.0563   -2.1780
    25         H        0.4501   -1.9983    0.0926
    26         H       -4.8197    1.6126    0.0062
    27         H       -2.6787    3.2861    0.2186

  H: (PM3): J. J. P. STEWART, J. COMP. CHEM. 10, 209 (1989).
  C: (PM3): J. J. P. STEWART, J. COMP. CHEM. 10, 209 (1989).

           Empirical Formula: C11 H16  =    27 atoms



      MOLECULAR POINT GROUP   :   C1  


      RHF CALCULATION, NO. OF DOUBLY OCCUPIED LEVELS =   30

      Geometry optimization using EF

          DIAGONAL MATRIX USED AS START HESSIAN

 CYCLE:     1 TIME:   0.018 TIME LEFT:  2.00D  GRAD.:   112.736 HEAT: 32.20056
 CYCLE:     2 TIME:   0.028 TIME LEFT:  2.00D  GRAD.:    72.000 HEAT: 30.47893
 CYCLE:     3 TIME:   0.010 TIME LEFT:  2.00D  GRAD.:    35.139 HEAT: 29.11700
 CYCLE:     4 TIME:   0.019 TIME LEFT:  2.00D  GRAD.:    48.259 HEAT: 28.89094
 CYCLE:     5 TIME:   0.011 TIME LEFT:  2.00D  GRAD.:    50.983 HEAT: 28.82795
 CYCLE:     6 TIME:   0.011 TIME LEFT:  2.00D  GRAD.:    55.697 HEAT: 28.64309
 CYCLE:     7 TIME:   0.019 TIME LEFT:  2.00D  GRAD.:    19.761 HEAT: 28.22557
 CYCLE:     8 TIME:   0.010 TIME LEFT:  2.00D  GRAD.:    25.537 HEAT: 28.18193
 CYCLE:     9 TIME:   0.010 TIME LEFT:  2.00D  GRAD.:    14.439 HEAT: 27.97096
 CYCLE:    10 TIME:   0.027 TIME LEFT:  2.00D  GRAD.:    11.448 HEAT: 27.91232
 CYCLE:    11 TIME:   0.010 TIME LEFT:  2.00D  GRAD.:     8.017 HEAT: 27.84953
 CYCLE:    12 TIME:   0.010 TIME LEFT:  2.00D  GRAD.:    10.675 HEAT: 27.78532
 CYCLE:    13 TIME:   0.018 TIME LEFT:  2.00D  GRAD.:    12.372 HEAT: 27.76925
 CYCLE:    14 TIME:   0.010 TIME LEFT:  2.00D  GRAD.:    11.567 HEAT: 27.73907
 CYCLE:    15 TIME:   0.018 TIME LEFT:  2.00D  GRAD.:     8.210 HEAT: 27.71991
 CYCLE:    16 TIME:   0.010 TIME LEFT:  2.00D  GRAD.:    10.291 HEAT: 27.71895
 CYCLE:    17 TIME:   0.010 TIME LEFT:  2.00D  GRAD.:     6.907 HEAT: 27.70222
 CYCLE:    18 TIME:   0.019 TIME LEFT:  2.00D  GRAD.:     5.647 HEAT: 27.69195
 CYCLE:    19 TIME:   0.010 TIME LEFT:  2.00D  GRAD.:     2.610 HEAT: 27.68068
 CYCLE:    20 TIME:   0.010 TIME LEFT:  2.00D  GRAD.:     5.954 HEAT: 27.67835
 CYCLE:    21 TIME:   0.010 TIME LEFT:  2.00D  GRAD.:     3.076 HEAT: 27.66532
 CYCLE:    22 TIME:   0.010 TIME LEFT:  2.00D  GRAD.:     4.969 HEAT: 27.66269
 CYCLE:    23 TIME:   0.010 TIME LEFT:  2.00D  GRAD.:     3.144 HEAT: 27.65221
 CYCLE:    24 TIME:   0.010 TIME LEFT:  2.00D  GRAD.:     4.836 HEAT: 27.65342
 CYCLE:    25 TIME:   0.010 TIME LEFT:  2.00D  GRAD.:     2.695 HEAT: 27.64719
 CYCLE:    26 TIME:   0.010 TIME LEFT:  2.00D  GRAD.:     3.758 HEAT: 27.64820
 CYCLE:    27 TIME:   0.010 TIME LEFT:  2.00D  GRAD.:     1.392 HEAT: 27.64222
 CYCLE:    28 TIME:   0.010 TIME LEFT:  2.00D  GRAD.:     1.951 HEAT: 27.64042
 CYCLE:    29 TIME:   0.010 TIME LEFT:  2.00D  GRAD.:     2.191 HEAT: 27.63662
 CYCLE:    30 TIME:   0.011 TIME LEFT:  2.00D  GRAD.:     2.518 HEAT: 27.63117
 CYCLE:    31 TIME:   0.010 TIME LEFT:  2.00D  GRAD.:     2.144 HEAT: 27.62761
 CYCLE:    32 TIME:   0.010 TIME LEFT:  2.00D  GRAD.:     2.760 HEAT: 27.62396
 CYCLE:    33 TIME:   0.010 TIME LEFT:  2.00D  GRAD.:     2.192 HEAT: 27.61861
 CYCLE:    34 TIME:   0.011 TIME LEFT:  2.00D  GRAD.:     2.556 HEAT: 27.60955
 CYCLE:    35 TIME:   0.014 TIME LEFT:  2.00D  GRAD.:     2.542 HEAT: 27.60533
 CYCLE:    36 TIME:   0.010 TIME LEFT:  2.00D  GRAD.:     2.098 HEAT: 27.60011
 CYCLE:    37 TIME:   0.011 TIME LEFT:  2.00D  GRAD.:     2.704 HEAT: 27.59338
 CYCLE:    38 TIME:   0.010 TIME LEFT:  2.00D  GRAD.:     2.826 HEAT: 27.58666
 CYCLE:    39 TIME:   0.010 TIME LEFT:  2.00D  GRAD.:     1.890 HEAT: 27.58183
 CYCLE:    40 TIME:   0.010 TIME LEFT:  2.00D  GRAD.:     2.093 HEAT: 27.57689
 CYCLE:    41 TIME:   0.010 TIME LEFT:  2.00D  GRAD.:     1.848 HEAT: 27.57239
 CYCLE:    42 TIME:   0.011 TIME LEFT:  2.00D  GRAD.:     1.490 HEAT: 27.56692
 CYCLE:    43 TIME:   0.011 TIME LEFT:  2.00D  GRAD.:     1.895 HEAT: 27.56081
 CYCLE:    44 TIME:   0.011 TIME LEFT:  2.00D  GRAD.:     2.128 HEAT: 27.55408
 CYCLE:    45 TIME:   0.010 TIME LEFT:  2.00D  GRAD.:     1.683 HEAT: 27.54897
 CYCLE:    46 TIME:   0.010 TIME LEFT:  2.00D  GRAD.:     1.272 HEAT: 27.54539
 CYCLE:    47 TIME:   0.010 TIME LEFT:  2.00D  GRAD.:     1.676 HEAT: 27.54204
 CYCLE:    48 TIME:   0.010 TIME LEFT:  2.00D  GRAD.:     1.858 HEAT: 27.53875
 CYCLE:    49 TIME:   0.011 TIME LEFT:  2.00D  GRAD.:     1.180 HEAT: 27.53551
 CYCLE:    50 TIME:   0.010 TIME LEFT:  2.00D  GRAD.:     0.770 HEAT: 27.53309
 CYCLE:    51 TIME:   0.011 TIME LEFT:  2.00D  GRAD.:     0.778 HEAT: 27.53203
 CYCLE:    52 TIME:   0.010 TIME LEFT:  2.00D  GRAD.:     0.597 HEAT: 27.53113
 CYCLE:    53 TIME:   0.010 TIME LEFT:  2.00D  GRAD.:     0.412 HEAT: 27.53063
 CYCLE:    54 TIME:   0.011 TIME LEFT:  2.00D  GRAD.:     0.425 HEAT: 27.53027
 CYCLE:    55 TIME:   0.010 TIME LEFT:  2.00D  GRAD.:     0.412 HEAT: 27.52993
 CYCLE:    56 TIME:   0.010 TIME LEFT:  2.00D  GRAD.:     0.330 HEAT: 27.52964
 CYCLE:    57 TIME:   0.010 TIME LEFT:  2.00D  GRAD.:     0.331 HEAT: 27.52936
 CYCLE:    58 TIME:   0.010 TIME LEFT:  2.00D  GRAD.:     0.460 HEAT: 27.52897
 CYCLE:    59 TIME:   0.010 TIME LEFT:  2.00D  GRAD.:     0.532 HEAT: 27.52845
 CYCLE:    60 TIME:   0.010 TIME LEFT:  2.00D  GRAD.:     0.490 HEAT: 27.52793
 CYCLE:    61 TIME:   0.010 TIME LEFT:  2.00D  GRAD.:     0.475 HEAT: 27.52735
 CYCLE:    62 TIME:   0.010 TIME LEFT:  2.00D  GRAD.:     0.630 HEAT: 27.52647
 CYCLE:    63 TIME:   0.011 TIME LEFT:  2.00D  GRAD.:     0.847 HEAT: 27.52528
 CYCLE:    64 TIME:   0.011 TIME LEFT:  2.00D  GRAD.:     0.863 HEAT: 27.52356
 CYCLE:    65 TIME:   0.010 TIME LEFT:  2.00D  GRAD.:     0.678 HEAT: 27.52241
 CYCLE:    66 TIME:   0.011 TIME LEFT:  2.00D  GRAD.:     0.742 HEAT: 27.52066
 CYCLE:    67 TIME:   0.011 TIME LEFT:  2.00D  GRAD.:     0.936 HEAT: 27.51944
 CYCLE:    68 TIME:   0.011 TIME LEFT:  2.00D  GRAD.:     0.966 HEAT: 27.51733
 CYCLE:    69 TIME:   0.011 TIME LEFT:  2.00D  GRAD.:     0.759 HEAT: 27.51620
 CYCLE:    70 TIME:   0.011 TIME LEFT:  2.00D  GRAD.:     0.688 HEAT: 27.51510
 CYCLE:    71 TIME:   0.010 TIME LEFT:  2.00D  GRAD.:     0.602 HEAT: 27.51457
 CYCLE:    72 TIME:   0.010 TIME LEFT:  2.00D  GRAD.:     0.468 HEAT: 27.51395
 CYCLE:    73 TIME:   0.010 TIME LEFT:  2.00D  GRAD.:     0.328 HEAT: 27.51349
 CYCLE:    74 TIME:   0.010 TIME LEFT:  2.00D  GRAD.:     0.295 HEAT: 27.51331
 CYCLE:    75 TIME:   0.010 TIME LEFT:  2.00D  GRAD.:     0.242 HEAT: 27.51313
 CYCLE:    76 TIME:   0.010 TIME LEFT:  2.00D  GRAD.:     0.164 HEAT: 27.51303
 CYCLE:    77 TIME:   0.010 TIME LEFT:  2.00D  GRAD.:     0.174 HEAT: 27.51299
 CYCLE:    78 TIME:   0.012 TIME LEFT:  2.00D  GRAD.:     0.191 HEAT: 27.51294
 CYCLE:    79 TIME:   0.012 TIME LEFT:  2.00D  GRAD.:     0.117 HEAT: 27.51291
 CYCLE:    80 TIME:   0.010 TIME LEFT:  2.00D  GRAD.:     0.129 HEAT: 27.51286
 CYCLE:    81 TIME:   0.010 TIME LEFT:  2.00D  GRAD.:     0.155 HEAT: 27.51280
 CYCLE:    82 TIME:   0.010 TIME LEFT:  2.00D  GRAD.:     0.339 HEAT: 27.51262
 CYCLE:    83 TIME:   0.010 TIME LEFT:  2.00D  GRAD.:     0.244 HEAT: 27.51253
 CYCLE:    84 TIME:   0.010 TIME LEFT:  2.00D  GRAD.:     0.349 HEAT: 27.51233
 CYCLE:    85 TIME:   0.010 TIME LEFT:  2.00D  GRAD.:     0.207 HEAT: 27.51224
 CYCLE:    86 TIME:   0.014 TIME LEFT:  2.00D  GRAD.:     0.210 HEAT: 27.51212
 CYCLE:    87 TIME:   0.010 TIME LEFT:  2.00D  GRAD.:     0.163 HEAT: 27.51205
 CYCLE:    88 TIME:   0.010 TIME LEFT:  2.00D  GRAD.:     0.119 HEAT: 27.51199
 CYCLE:    89 TIME:   0.010 TIME LEFT:  2.00D  GRAD.:     0.142 HEAT: 27.51194
 CYCLE:    90 TIME:   0.010 TIME LEFT:  2.00D  GRAD.:     0.240 HEAT: 27.51183
 CYCLE:    91 TIME:   0.009 TIME LEFT:  2.00D  GRAD.:     0.215 HEAT: 27.51176
 CYCLE:    92 TIME:   0.010 TIME LEFT:  2.00D  GRAD.:     0.200 HEAT: 27.51158
 CYCLE:    93 TIME:   0.010 TIME LEFT:  2.00D  GRAD.:     0.145 HEAT: 27.51141
 CYCLE:    94 TIME:   0.010 TIME LEFT:  2.00D  GRAD.:     0.117 HEAT: 27.51134
 CYCLE:    95 TIME:   0.010 TIME LEFT:  2.00D  GRAD.:     0.076 HEAT: 27.51127
 CYCLE:    96 TIME:   0.010 TIME LEFT:  2.00D  GRAD.:     0.068 HEAT: 27.51125
 CYCLE:    97 TIME:   0.010 TIME LEFT:  2.00D  GRAD.:     0.114 HEAT: 27.51123
 CYCLE:    98 TIME:   0.010 TIME LEFT:  2.00D  GRAD.:     0.081 HEAT: 27.51121
 CYCLE:    99 TIME:   0.011 TIME LEFT:  2.00D  GRAD.:     0.182 HEAT: 27.51117
 CYCLE:   100 TIME:   0.010 TIME LEFT:  2.00D  GRAD.:     0.122 HEAT: 27.51114
 CYCLE:   101 TIME:   0.010 TIME LEFT:  2.00D  GRAD.:     0.182 HEAT: 27.51101
 CYCLE:   102 TIME:   0.010 TIME LEFT:  2.00D  GRAD.:     0.277 HEAT: 27.51083
 CYCLE:   103 TIME:   0.011 TIME LEFT:  2.00D  GRAD.:     0.362 HEAT: 27.51050
 CYCLE:   104 TIME:   0.011 TIME LEFT:  2.00D  GRAD.:     0.434 HEAT: 27.50999
 CYCLE:   105 TIME:   0.010 TIME LEFT:  2.00D  GRAD.:     0.247 HEAT: 27.50971
 CYCLE:   106 TIME:   0.011 TIME LEFT:  2.00D  GRAD.:     0.230 HEAT: 27.50939
 CYCLE:   107 TIME:   0.011 TIME LEFT:  2.00D  GRAD.:     0.227 HEAT: 27.50920
 CYCLE:   108 TIME:   0.010 TIME LEFT:  2.00D  GRAD.:     0.172 HEAT: 27.50902
 CYCLE:   109 TIME:   0.010 TIME LEFT:  2.00D  GRAD.:     0.119 HEAT: 27.50892
 CYCLE:   110 TIME:   0.010 TIME LEFT:  2.00D  GRAD.:     0.532 HEAT: 27.50908
 CYCLE:   111 TIME:   0.011 TIME LEFT:  2.00D  GRAD.:     0.140 HEAT: 27.50889
 CYCLE:   112 TIME:   0.010 TIME LEFT:  2.00D  GRAD.:     0.089 HEAT: 27.50886
 CYCLE:   113 TIME:   0.010 TIME LEFT:  2.00D  GRAD.:     0.144 HEAT: 27.50882
 CYCLE:   114 TIME:   0.010 TIME LEFT:  2.00D  GRAD.:     0.154 HEAT: 27.50877
 CYCLE:   115 TIME:   0.014 TIME LEFT:  2.00D  GRAD.:     0.122 HEAT: 27.50870
 CYCLE:   116 TIME:   0.010 TIME LEFT:  2.00D  GRAD.:     0.114 HEAT: 27.50864
 CYCLE:   117 TIME:   0.011 TIME LEFT:  2.00D  GRAD.:     0.169 HEAT: 27.50851
 CYCLE:   118 TIME:   0.010 TIME LEFT:  2.00D  GRAD.:     0.171 HEAT: 27.50845
 CYCLE:   119 TIME:   0.010 TIME LEFT:  2.00D  GRAD.:     0.172 HEAT: 27.50832
 CYCLE:   120 TIME:   0.011 TIME LEFT:  2.00D  GRAD.:     0.208 HEAT: 27.50819
 CYCLE:   121 TIME:   0.014 TIME LEFT:  2.00D  GRAD.:     0.279 HEAT: 27.50797
 CYCLE:   122 TIME:   0.011 TIME LEFT:  2.00D  GRAD.:     0.292 HEAT: 27.50781
 CYCLE:   123 TIME:   0.013 TIME LEFT:  2.00D  GRAD.:     0.320 HEAT: 27.50751
 CYCLE:   124 TIME:   0.011 TIME LEFT:  2.00D  GRAD.:     0.314 HEAT: 27.50721
 CYCLE:   125 TIME:   0.011 TIME LEFT:  2.00D  GRAD.:     0.488 HEAT: 27.50543
 CYCLE:   126 TIME:   0.011 TIME LEFT:  2.00D  GRAD.:     0.746 HEAT: 27.50387
 CYCLE:   127 TIME:   0.011 TIME LEFT:  2.00D  GRAD.:     1.028 HEAT: 27.50250
 CYCLE:   128 TIME:   0.015 TIME LEFT:  2.00D  GRAD.:     2.041 HEAT: 27.49959
 CYCLE:   129 TIME:   0.010 TIME LEFT:  2.00D  GRAD.:     1.203 HEAT: 27.49808
 CYCLE:   130 TIME:   0.011 TIME LEFT:  2.00D  GRAD.:     1.615 HEAT: 27.49529
 CYCLE:   131 TIME:   0.011 TIME LEFT:  2.00D  GRAD.:     2.373 HEAT: 27.49219
 CYCLE:   132 TIME:   0.010 TIME LEFT:  2.00D  GRAD.:     2.429 HEAT: 27.48952
 CYCLE:   133 TIME:   0.011 TIME LEFT:  2.00D  GRAD.:     1.841 HEAT: 27.48391
 CYCLE:   134 TIME:   0.010 TIME LEFT:  2.00D  GRAD.:     1.490 HEAT: 27.48149
 CYCLE:   135 TIME:   0.011 TIME LEFT:  2.00D  GRAD.:     1.872 HEAT: 27.47893
 CYCLE:   136 TIME:   0.011 TIME LEFT:  2.00D  GRAD.:     2.164 HEAT: 27.47436
 CYCLE:   137 TIME:   0.010 TIME LEFT:  2.00D  GRAD.:     2.007 HEAT: 27.47137
 CYCLE:   138 TIME:   0.011 TIME LEFT:  2.00D  GRAD.:     1.491 HEAT: 27.46544
 CYCLE:   139 TIME:   0.011 TIME LEFT:  2.00D  GRAD.:     2.238 HEAT: 27.46181
 CYCLE:   140 TIME:   0.011 TIME LEFT:  2.00D  GRAD.:     2.263 HEAT: 27.45728
 CYCLE:   141 TIME:   0.011 TIME LEFT:  2.00D  GRAD.:     1.811 HEAT: 27.45020
 CYCLE:   142 TIME:   0.011 TIME LEFT:  2.00D  GRAD.:     2.211 HEAT: 27.44233
 CYCLE:   143 TIME:   0.011 TIME LEFT:  2.00D  GRAD.:     1.500 HEAT: 27.43407
 CYCLE:   144 TIME:   0.011 TIME LEFT:  2.00D  GRAD.:     3.747 HEAT: 27.42685
 CYCLE:   145 TIME:   0.010 TIME LEFT:  2.00D  GRAD.:     4.582 HEAT: 27.41500
 CYCLE:   146 TIME:   0.012 TIME LEFT:  2.00D  GRAD.:     4.469 HEAT: 27.40893
 CYCLE:   147 TIME:   0.011 TIME LEFT:  2.00D  GRAD.:     4.630 HEAT: 27.38134
 CYCLE:   148 TIME:   0.010 TIME LEFT:  2.00D  GRAD.:     8.722 HEAT: 27.35975
 CYCLE:   149 TIME:   0.019 TIME LEFT:  2.00D  GRAD.:     9.720 HEAT: 27.34592
 CYCLE:   150 TIME:   0.010 TIME LEFT:  2.00D  GRAD.:     7.577 HEAT: 27.33152
 CYCLE:   151 TIME:   0.010 TIME LEFT:  2.00D  GRAD.:     4.112 HEAT: 27.29046
 CYCLE:   152 TIME:   0.010 TIME LEFT:  2.00D  GRAD.:     4.794 HEAT: 27.27685
 CYCLE:   153 TIME:   0.010 TIME LEFT:  2.00D  GRAD.:     7.855 HEAT: 27.25557
 CYCLE:   154 TIME:   0.011 TIME LEFT:  2.00D  GRAD.:     6.655 HEAT: 27.22788
 CYCLE:   155 TIME:   0.010 TIME LEFT:  2.00D  GRAD.:     7.965 HEAT: 27.20504
 CYCLE:   156 TIME:   0.013 TIME LEFT:  2.00D  GRAD.:     6.226 HEAT: 27.17042
 CYCLE:   157 TIME:   0.010 TIME LEFT:  2.00D  GRAD.:     6.853 HEAT: 27.16273
 CYCLE:   158 TIME:   0.010 TIME LEFT:  2.00D  GRAD.:     4.922 HEAT: 27.14875
 CYCLE:   159 TIME:   0.010 TIME LEFT:  2.00D  GRAD.:     8.528 HEAT: 27.14714
 CYCLE:   160 TIME:   0.010 TIME LEFT:  2.00D  GRAD.:     4.185 HEAT: 27.12835
 CYCLE:   161 TIME:   0.011 TIME LEFT:  2.00D  GRAD.:     5.510 HEAT: 27.12396
 CYCLE:   162 TIME:   0.010 TIME LEFT:  2.00D  GRAD.:     2.500 HEAT: 27.10809
 CYCLE:   163 TIME:   0.010 TIME LEFT:  2.00D  GRAD.:     4.070 HEAT: 27.10667
 CYCLE:   164 TIME:   0.010 TIME LEFT:  2.00D  GRAD.:     1.984 HEAT: 27.09506
 CYCLE:   165 TIME:   0.011 TIME LEFT:  2.00D  GRAD.:     3.273 HEAT: 27.08922
 CYCLE:   166 TIME:   0.010 TIME LEFT:  2.00D  GRAD.:     2.869 HEAT: 27.07701
 CYCLE:   167 TIME:   0.010 TIME LEFT:  2.00D  GRAD.:     2.443 HEAT: 27.06660
 CYCLE:   168 TIME:   0.010 TIME LEFT:  2.00D  GRAD.:     3.588 HEAT: 27.06287
 CYCLE:   169 TIME:   0.010 TIME LEFT:  2.00D  GRAD.:     5.386 HEAT: 27.05990
 CYCLE:   170 TIME:   0.010 TIME LEFT:  2.00D  GRAD.:     2.915 HEAT: 27.04892
 CYCLE:   171 TIME:   0.010 TIME LEFT:  2.00D  GRAD.:     2.780 HEAT: 27.04395
 CYCLE:   172 TIME:   0.010 TIME LEFT:  2.00D  GRAD.:     2.593 HEAT: 27.04074
 CYCLE:   173 TIME:   0.010 TIME LEFT:  2.00D  GRAD.:     1.818 HEAT: 27.03468
 CYCLE:   174 TIME:   0.010 TIME LEFT:  2.00D  GRAD.:     2.219 HEAT: 27.02993
 CYCLE:   175 TIME:   0.010 TIME LEFT:  2.00D  GRAD.:     3.069 HEAT: 27.02785
 CYCLE:   176 TIME:   0.010 TIME LEFT:  2.00D  GRAD.:     1.386 HEAT: 27.02274
 CYCLE:   177 TIME:   0.010 TIME LEFT:  2.00D  GRAD.:     2.835 HEAT: 27.02197
 CYCLE:   178 TIME:   0.010 TIME LEFT:  2.00D  GRAD.:     1.485 HEAT: 27.01758
 CYCLE:   179 TIME:   0.010 TIME LEFT:  2.00D  GRAD.:     1.126 HEAT: 27.01539
 CYCLE:   180 TIME:   0.011 TIME LEFT:  2.00D  GRAD.:     1.260 HEAT: 27.01317
 CYCLE:   181 TIME:   0.010 TIME LEFT:  2.00D  GRAD.:     1.123 HEAT: 27.01020
 CYCLE:   182 TIME:   0.011 TIME LEFT:  2.00D  GRAD.:     1.937 HEAT: 27.00642
 CYCLE:   183 TIME:   0.020 TIME LEFT:  2.00D  GRAD.:     2.438 HEAT: 27.00403
 CYCLE:   184 TIME:   0.010 TIME LEFT:  2.00D  GRAD.:     4.346 HEAT: 27.00768
 CYCLE:   185 TIME:   0.010 TIME LEFT:  2.00D  GRAD.:     2.332 HEAT: 26.99680
 CYCLE:   186 TIME:   0.010 TIME LEFT:  2.00D  GRAD.:     2.510 HEAT: 26.99488
 CYCLE:   187 TIME:   0.010 TIME LEFT:  2.00D  GRAD.:     1.458 HEAT: 26.99030
 CYCLE:   188 TIME:   0.011 TIME LEFT:  2.00D  GRAD.:     2.658 HEAT: 26.98008
 CYCLE:   189 TIME:   0.011 TIME LEFT:  2.00D  GRAD.:     3.476 HEAT: 26.97204
 CYCLE:   190 TIME:   0.027 TIME LEFT:  2.00D  GRAD.:     3.342 HEAT: 26.96590
 CYCLE:   191 TIME:   0.010 TIME LEFT:  2.00D  GRAD.:     2.245 HEAT: 26.95849
 CYCLE:   192 TIME:   0.011 TIME LEFT:  2.00D  GRAD.:     1.737 HEAT: 26.95175
 CYCLE:   193 TIME:   0.011 TIME LEFT:  2.00D  GRAD.:     2.047 HEAT: 26.94549
 CYCLE:   194 TIME:   0.011 TIME LEFT:  2.00D  GRAD.:     2.116 HEAT: 26.93815
 CYCLE:   195 TIME:   0.011 TIME LEFT:  2.00D  GRAD.:     2.540 HEAT: 26.93438
 CYCLE:   196 TIME:   0.011 TIME LEFT:  2.00D  GRAD.:     2.124 HEAT: 26.92999
 CYCLE:   197 TIME:   0.010 TIME LEFT:  2.00D  GRAD.:     2.313 HEAT: 26.92505
 CYCLE:   198 TIME:   0.011 TIME LEFT:  2.00D  GRAD.:     2.221 HEAT: 26.91999
 CYCLE:   199 TIME:   0.011 TIME LEFT:  2.00D  GRAD.:     2.348 HEAT: 26.91755
 CYCLE:   200 TIME:   0.011 TIME LEFT:  2.00D  GRAD.:     2.620 HEAT: 26.91330
 CYCLE:   201 TIME:   0.010 TIME LEFT:  2.00D  GRAD.:     2.158 HEAT: 26.90944
 CYCLE:   202 TIME:   0.011 TIME LEFT:  2.00D  GRAD.:     1.968 HEAT: 26.90484
 CYCLE:   203 TIME:   0.011 TIME LEFT:  2.00D  GRAD.:     2.027 HEAT: 26.89991
 CYCLE:   204 TIME:   0.010 TIME LEFT:  2.00D  GRAD.:     2.685 HEAT: 26.89548
 CYCLE:   205 TIME:   0.010 TIME LEFT:  2.00D  GRAD.:     1.682 HEAT: 26.89201
 CYCLE:   206 TIME:   0.010 TIME LEFT:  2.00D  GRAD.:     1.824 HEAT: 26.88927
 CYCLE:   207 TIME:   0.010 TIME LEFT:  2.00D  GRAD.:     1.609 HEAT: 26.88668
 CYCLE:   208 TIME:   0.010 TIME LEFT:  2.00D  GRAD.:     1.091 HEAT: 26.88503
 CYCLE:   209 TIME:   0.011 TIME LEFT:  2.00D  GRAD.:     0.984 HEAT: 26.88361
 CYCLE:   210 TIME:   0.011 TIME LEFT:  2.00D  GRAD.:     1.074 HEAT: 26.88232
 CYCLE:   211 TIME:   0.010 TIME LEFT:  2.00D  GRAD.:     0.922 HEAT: 26.88142
 CYCLE:   212 TIME:   0.010 TIME LEFT:  2.00D  GRAD.:     0.783 HEAT: 26.88057
 CYCLE:   213 TIME:   0.010 TIME LEFT:  2.00D  GRAD.:     0.953 HEAT: 26.87936
 CYCLE:   214 TIME:   0.011 TIME LEFT:  2.00D  GRAD.:     0.884 HEAT: 26.87852
 CYCLE:   215 TIME:   0.011 TIME LEFT:  2.00D  GRAD.:     0.812 HEAT: 26.87773
 CYCLE:   216 TIME:   0.011 TIME LEFT:  2.00D  GRAD.:     0.994 HEAT: 26.87686
 CYCLE:   217 TIME:   0.011 TIME LEFT:  2.00D  GRAD.:     0.966 HEAT: 26.87619
 CYCLE:   218 TIME:   0.010 TIME LEFT:  2.00D  GRAD.:     0.831 HEAT: 26.87546
 CYCLE:   219 TIME:   0.010 TIME LEFT:  2.00D  GRAD.:     0.666 HEAT: 26.87451
 CYCLE:   220 TIME:   0.010 TIME LEFT:  2.00D  GRAD.:     0.741 HEAT: 26.87372
 CYCLE:   221 TIME:   0.010 TIME LEFT:  2.00D  GRAD.:     0.797 HEAT: 26.87300
 CYCLE:   222 TIME:   0.010 TIME LEFT:  2.00D  GRAD.:     0.862 HEAT: 26.87213
 CYCLE:   223 TIME:   0.010 TIME LEFT:  2.00D  GRAD.:     0.874 HEAT: 26.87104
 CYCLE:   224 TIME:   0.011 TIME LEFT:  2.00D  GRAD.:     0.861 HEAT: 26.86988
 CYCLE:   225 TIME:   0.010 TIME LEFT:  2.00D  GRAD.:     0.913 HEAT: 26.86874
 CYCLE:   226 TIME:   0.010 TIME LEFT:  2.00D  GRAD.:     0.837 HEAT: 26.86782
 CYCLE:   227 TIME:   0.010 TIME LEFT:  2.00D  GRAD.:     0.874 HEAT: 26.86707
 CYCLE:   228 TIME:   0.010 TIME LEFT:  2.00D  GRAD.:     0.685 HEAT: 26.86638
 CYCLE:   229 TIME:   0.011 TIME LEFT:  2.00D  GRAD.:     0.668 HEAT: 26.86561
 CYCLE:   230 TIME:   0.010 TIME LEFT:  2.00D  GRAD.:     0.645 HEAT: 26.86509
 CYCLE:   231 TIME:   0.011 TIME LEFT:  2.00D  GRAD.:     0.648 HEAT: 26.86475
 CYCLE:   232 TIME:   0.011 TIME LEFT:  2.00D  GRAD.:     0.555 HEAT: 26.86448
 CYCLE:   233 TIME:   0.010 TIME LEFT:  2.00D  GRAD.:     0.554 HEAT: 26.86416
 CYCLE:   234 TIME:   0.010 TIME LEFT:  2.00D  GRAD.:     0.680 HEAT: 26.86366
 CYCLE:   235 TIME:   0.011 TIME LEFT:  2.00D  GRAD.:     0.694 HEAT: 26.86285
 CYCLE:   236 TIME:   0.011 TIME LEFT:  2.00D  GRAD.:     0.851 HEAT: 26.86182
 CYCLE:   237 TIME:   0.010 TIME LEFT:  2.00D  GRAD.:     0.626 HEAT: 26.86113
 CYCLE:   238 TIME:   0.011 TIME LEFT:  2.00D  GRAD.:     0.586 HEAT: 26.86024
 CYCLE:   239 TIME:   0.010 TIME LEFT:  2.00D  GRAD.:     0.492 HEAT: 26.85996
 CYCLE:   240 TIME:   0.010 TIME LEFT:  2.00D  GRAD.:     0.340 HEAT: 26.85964
 CYCLE:   241 TIME:   0.010 TIME LEFT:  2.00D  GRAD.:     0.271 HEAT: 26.85954
 CYCLE:   242 TIME:   0.010 TIME LEFT:  2.00D  GRAD.:     0.266 HEAT: 26.85947
 CYCLE:   243 TIME:   0.010 TIME LEFT:  2.00D  GRAD.:     0.198 HEAT: 26.85941
 CYCLE:   244 TIME:   0.010 TIME LEFT:  2.00D  GRAD.:     0.204 HEAT: 26.85933
 CYCLE:   245 TIME:   0.010 TIME LEFT:  2.00D  GRAD.:     0.258 HEAT: 26.85927
 CYCLE:   246 TIME:   0.010 TIME LEFT:  2.00D  GRAD.:     0.292 HEAT: 26.85919
 CYCLE:   247 TIME:   0.011 TIME LEFT:  2.00D  GRAD.:     0.402 HEAT: 26.85900
 CYCLE:   248 TIME:   0.011 TIME LEFT:  2.00D  GRAD.:     0.451 HEAT: 26.85879
 CYCLE:   249 TIME:   0.010 TIME LEFT:  2.00D  GRAD.:     0.605 HEAT: 26.85827
 CYCLE:   250 TIME:   0.010 TIME LEFT:  2.00D  GRAD.:     0.485 HEAT: 26.85803
 CYCLE:   251 TIME:   0.011 TIME LEFT:  2.00D  GRAD.:     0.489 HEAT: 26.85760
 CYCLE:   252 TIME:   0.010 TIME LEFT:  2.00D  GRAD.:     0.365 HEAT: 26.85743
 CYCLE:   253 TIME:   0.011 TIME LEFT:  2.00D  GRAD.:     0.397 HEAT: 26.85714
 CYCLE:   254 TIME:   0.011 TIME LEFT:  2.00D  GRAD.:     0.329 HEAT: 26.85694
 CYCLE:   255 TIME:   0.010 TIME LEFT:  2.00D  GRAD.:     0.291 HEAT: 26.85675
 CYCLE:   256 TIME:   0.010 TIME LEFT:  2.00D  GRAD.:     0.267 HEAT: 26.85662
 CYCLE:   257 TIME:   0.010 TIME LEFT:  2.00D  GRAD.:     0.267 HEAT: 26.85643
 CYCLE:   258 TIME:   0.011 TIME LEFT:  2.00D  GRAD.:     0.266 HEAT: 26.85626
 CYCLE:   259 TIME:   0.011 TIME LEFT:  2.00D  GRAD.:     0.220 HEAT: 26.85611
 CYCLE:   260 TIME:   0.010 TIME LEFT:  2.00D  GRAD.:     0.113 HEAT: 26.85604
 CYCLE:   261 TIME:   0.010 TIME LEFT:  2.00D  GRAD.:     0.066 HEAT: 26.85603
 CYCLE:   262 TIME:   0.010 TIME LEFT:  2.00D  GRAD.:     0.144 HEAT: 26.85603
 CYCLE:   263 TIME:   0.010 TIME LEFT:  2.00D  GRAD.:     0.052 HEAT: 26.85602
 CYCLE:   264 TIME:   0.010 TIME LEFT:  2.00D  GRAD.:     0.038 HEAT: 26.85601

     RMS GRADIENT =  0.03811  IS LESS THAN CUTOFF =  0.05000



 -------------------------------------------------------------------------------
pm3  precise nosym
 InChI=1S/C11H16/c1-2-3-4-5-8-11-9-6-7-10-11/h4-7,9-11H,2-3,8H2,1H3



     GEOMETRY OPTIMISED USING EIGENVECTOR FOLLOWING (EF).     
     SCF FIELD WAS ACHIEVED                                   


                              PM3 CALCULATION
                                                       MOPAC2012 (Version: 13.159M)
                                                       Mon Jun  2 11:12:49 2014
                                                       No. of days left =   6




          FINAL HEAT OF FORMATION =         26.85601 KCAL/MOL =     112.36556 KJ/MOL


          TOTAL ENERGY            =      -1549.20285 EV
          ELECTRONIC ENERGY       =      -8736.21169 EV  POINT GROUP:     C1  
          CORE-CORE REPULSION     =       7187.00885 EV
          COSMO AREA              =        217.45 SQUARE ANGSTROMS
          COSMO VOLUME            =        220.36 CUBIC ANGSTROMS

          GRADIENT NORM           =          0.03811
          IONIZATION POTENTIAL    =          9.248151 EV
          HOMO LUMO ENERGIES (EV) =         -9.248  0.291
          NO. OF FILLED LEVELS    =         30
          MOLECULAR WEIGHT        =        148.247

          MOLECULAR DIMENSIONS (Angstroms)

            Atom       Atom       Distance
            H    14    H    26    10.11799
            H    15    H    21     4.32814
            H    22    H    23     3.98958


          SCF CALCULATIONS        =        278
          COMPUTATION TIME        =          2.891 SECONDS




   ATOM   CHEMICAL          X               Y               Z
  NUMBER   SYMBOL      (ANGSTROMS)     (ANGSTROMS)     (ANGSTROMS)
 
     1       C         -1.89387127  *   0.62558345  *  -0.02600281  *
     2       C          3.44851660  *  -1.40415678  *   0.36856013  *
     3       C         -1.20940065  *  -0.49945779  *  -0.79266215  *
     4       C          2.63161776  *  -0.92702163  *  -0.82406072  *
     5       C          3.23131044  *  -0.54186455  *   1.59162301  *
     6       C         -3.31546610  *   0.27597747  *   0.34910225  *
     7       C         -2.07702667  *   1.88486819  *  -0.84066869  *
     8       C          0.25000018  *  -0.24842473  *  -0.93910347  *
     9       C          1.17412975  *  -1.16086297  *  -0.63537744  *
    10       C         -4.15862239  *   1.20745106  *  -0.14618344  *
    11       C         -3.38714733  *   2.20953839  *  -0.88744631  *
    12       H         -1.31842981  *   0.86677318  *   0.89917779  *
    13       H          3.19918758  *  -2.45881123  *   0.60062944  *
    14       H          4.52285101  *  -1.40433169  *   0.09816891  *
    15       H         -1.65672696  *  -0.60240429  *  -1.80149961  *
    16       H         -1.40158229  *  -1.46127738  *  -0.27513066  *
    17       H          2.84338097  *   0.14313902  *  -1.02304844  *
    18       H          2.94880473  *  -1.47229804  *  -1.73602331  *
    19       H          2.17559169  *  -0.53460392  *   1.89457610  *
    20       H          3.52480205  *   0.50056097  *   1.40955028  *
    21       H          3.81786486  *  -0.90446856  *   2.44524374  *
    22       H         -3.56123726  *  -0.60713043  *   0.93492031  *
    23       H         -1.23999079  *   2.41019584  *  -1.29612380  *
    24       H          0.53073179  *   0.73995343  *  -1.32621433  *
    25       H          0.89155539  *  -2.14450940  *  -0.23776650  *
    26       H         -5.24060711  *   1.24712380  *  -0.03758644  *
    27       H         -3.84066571  *   3.06544089  *  -1.38323871  *

           Empirical Formula: C11 H16  =    27 atoms



      MOLECULAR POINT GROUP   :   C1  


                  EIGENVALUES  
 -40.71006 -38.11172 -33.61601 -29.24734 -27.34117 -25.81629 -23.03340 -20.53187
 -20.00367 -18.97332 -18.41663 -17.90926 -16.29207 -15.81042 -15.67333 -14.65326
 -14.22094 -14.13537 -13.92807 -13.63825 -13.27622 -12.87125 -12.64650 -12.37600
 -12.04858 -11.96659 -11.63429 -11.08068  -9.79278  -9.24815   0.29075   1.05165
   2.00699   3.17836   3.33610   3.40775   3.56478   3.65437   3.72823   3.76823
   3.81407   3.96387   4.03555   4.06663   4.20018   4.30898   4.33336   4.41345
   4.50255   4.53262   4.63504   4.75978   4.91147   4.95205   5.00349   5.64665
   5.75979   5.78688   5.93746   6.14228


              NET ATOMIC CHARGES AND DIPOLE CONTRIBUTIONS

  ATOM NO.   TYPE          CHARGE      No. of ELECS.   s-Pop       p-Pop       
    1          C          -0.033403        4.0334     1.16550     2.86790
    2          C          -0.091304        4.0913     1.15768     2.93363
    3          C          -0.036914        4.0369     1.14364     2.89328
    4          C          -0.065719        4.0657     1.14971     2.91601
    5          C          -0.112793        4.1128     1.13875     2.97404
    6          C          -0.160460        4.1605     1.21026     2.95020
    7          C          -0.157364        4.1574     1.20947     2.94789
    8          C          -0.160785        4.1608     1.19727     2.96352
    9          C          -0.144189        4.1442     1.19720     2.94699
   10          C          -0.118111        4.1181     1.19245     2.92566
   11          C          -0.119751        4.1198     1.19254     2.92721
   12          H           0.094388        0.9056     0.90561
   13          H           0.048696        0.9513     0.95130
   14          H           0.046209        0.9538     0.95379
   15          H           0.062825        0.9372     0.93717
   16          H           0.054573        0.9454     0.94543
   17          H           0.054823        0.9452     0.94518
   18          H           0.054195        0.9458     0.94580
   19          H           0.042218        0.9578     0.95778
   20          H           0.038131        0.9619     0.96187
   21          H           0.036881        0.9631     0.96312
   22          H           0.116842        0.8832     0.88316
   23          H           0.117275        0.8827     0.88273
   24          H           0.104103        0.8959     0.89590
   25          H           0.102187        0.8978     0.89781
   26          H           0.113715        0.8863     0.88628
   27          H           0.113733        0.8863     0.88627
 DIPOLE           X         Y         Z       TOTAL
 POINT-CHG.     0.463    -0.298     0.053     0.553
 HYBRID        -0.033     0.059     0.033     0.075
 SUM            0.430    -0.239     0.086     0.500


          ATOMIC ORBITAL ELECTRON POPULATIONS

    Atom      s        px        py        pz   
    1  C   1.16550   0.95131   0.93921   0.97738
    2  C   1.15768   0.99055   0.99008   0.95300
    3  C   1.14364   0.92791   0.96472   1.00065
    4  C   1.14971   0.93216   1.01018   0.97367
    5  C   1.13875   1.01233   0.99155   0.97016
    6  C   1.21026   0.95378   0.98997   1.00645
    7  C   1.20947   0.97129   0.98141   0.99519
    8  C   1.19727   0.95459   0.99333   1.01560
    9  C   1.19720   0.95457   0.98802   1.00439
   10  C   1.19245   0.97735   0.96037   0.98793
   11  C   1.19254   0.94740   0.98370   0.99611
   12  H   0.90561
   13  H   0.95130
   14  H   0.95379
   15  H   0.93717
   16  H   0.94543
   17  H   0.94518
   18  H   0.94580
   19  H   0.95778
   20  H   0.96187
   21  H   0.96312
   22  H   0.88316
   23  H   0.88273
   24  H   0.89590
   25  H   0.89781
   26  H   0.88628
   27  H   0.88627
 *******************************************************************************
 ** Site#: 14399           For non-commercial use only        Version 13.159M **
 *******************************************************************************
 ** Cite this work as: MOPAC2012, James J. P. Stewart, Stewart Computational  **
 ** Chemistry, Version 13.159M web: HTTP://OpenMOPAC.net  Days remaining:   6 **
 *******************************************************************************
 **                                                                           **
 **                                MOPAC2012                                  **
 **                                                                           **
 *******************************************************************************

                            PM3 CALCULATION RESULTS


 *******************************************************************************
 *  CALCULATION DONE:                                Mon Jun  2 11:12:49 2014  *
 *  PM3      - The PM3 Hamiltonian to be used
 *  OLDGEO   - PREVIOUS GEOMETRY TO BE USED
 *  PRECISE  - CRITERIA TO BE INCREASED BY 100 TIMES
 *  NOSYM    - POINT-GROUP SYMMETRY SET TO C1
 *  T=       - A TIME OF 172800.0 SECONDS REQUESTED
 *  DUMP=N   - RESTART FILE WRITTEN EVERY  7200.000 SECONDS
 *  THERMO   - THERMODYNAMIC QUANTITIES TO BE CALCULATED
 *******************************************************************************
oldgeo thermo nosym precise  pm3

   ATOM   CHEMICAL          X               Y               Z
  NUMBER   SYMBOL      (ANGSTROMS)     (ANGSTROMS)     (ANGSTROMS)
 
     1       C         -1.89387127  *   0.62558345  *  -0.02600281  *
     2       C          3.44851660  *  -1.40415678  *   0.36856013  *
     3       C         -1.20940065  *  -0.49945779  *  -0.79266215  *
     4       C          2.63161776  *  -0.92702163  *  -0.82406072  *
     5       C          3.23131044  *  -0.54186455  *   1.59162301  *
     6       C         -3.31546610  *   0.27597747  *   0.34910225  *
     7       C         -2.07702667  *   1.88486819  *  -0.84066869  *
     8       C          0.25000018  *  -0.24842473  *  -0.93910347  *
     9       C          1.17412975  *  -1.16086297  *  -0.63537744  *
    10       C         -4.15862239  *   1.20745106  *  -0.14618344  *
    11       C         -3.38714733  *   2.20953839  *  -0.88744631  *
    12       H         -1.31842981  *   0.86677318  *   0.89917779  *
    13       H          3.19918758  *  -2.45881123  *   0.60062944  *
    14       H          4.52285101  *  -1.40433169  *   0.09816891  *
    15       H         -1.65672696  *  -0.60240429  *  -1.80149961  *
    16       H         -1.40158229  *  -1.46127738  *  -0.27513066  *
    17       H          2.84338097  *   0.14313902  *  -1.02304844  *
    18       H          2.94880473  *  -1.47229804  *  -1.73602331  *
    19       H          2.17559169  *  -0.53460392  *   1.89457610  *
    20       H          3.52480205  *   0.50056097  *   1.40955028  *
    21       H          3.81786486  *  -0.90446856  *   2.44524374  *
    22       H         -3.56123726  *  -0.60713043  *   0.93492031  *
    23       H         -1.23999079  *   2.41019584  *  -1.29612380  *
    24       H          0.53073179  *   0.73995343  *  -1.32621433  *
    25       H          0.89155539  *  -2.14450940  *  -0.23776650  *
    26       H         -5.24060711  *   1.24712380  *  -0.03758644  *
    27       H         -3.84066571  *   3.06544089  *  -1.38323871  *
 


          CARTESIAN COORDINATES 

    NO.       ATOM         X         Y         Z

     1         C       -1.8939    0.6256   -0.0260
     2         C        3.4485   -1.4042    0.3686
     3         C       -1.2094   -0.4995   -0.7927
     4         C        2.6316   -0.9270   -0.8241
     5         C        3.2313   -0.5419    1.5916
     6         C       -3.3155    0.2760    0.3491
     7         C       -2.0770    1.8849   -0.8407
     8         C        0.2500   -0.2484   -0.9391
     9         C        1.1741   -1.1609   -0.6354
    10         C       -4.1586    1.2075   -0.1462
    11         C       -3.3871    2.2095   -0.8874
    12         H       -1.3184    0.8668    0.8992
    13         H        3.1992   -2.4588    0.6006
    14         H        4.5229   -1.4043    0.0982
    15         H       -1.6567   -0.6024   -1.8015
    16         H       -1.4016   -1.4613   -0.2751
    17         H        2.8434    0.1431   -1.0230
    18         H        2.9488   -1.4723   -1.7360
    19         H        2.1756   -0.5346    1.8946
    20         H        3.5248    0.5006    1.4096
    21         H        3.8179   -0.9045    2.4452
    22         H       -3.5612   -0.6071    0.9349
    23         H       -1.2400    2.4102   -1.2961
    24         H        0.5307    0.7400   -1.3262
    25         H        0.8916   -2.1445   -0.2378
    26         H       -5.2406    1.2471   -0.0376
    27         H       -3.8407    3.0654   -1.3832

  H: (PM3): J. J. P. STEWART, J. COMP. CHEM. 10, 209 (1989).
  C: (PM3): J. J. P. STEWART, J. COMP. CHEM. 10, 209 (1989).

           Empirical Formula: C11 H16  =    27 atoms



      MOLECULAR POINT GROUP   :   C1  


      RHF CALCULATION, NO. OF DOUBLY OCCUPIED LEVELS =   30



          HEAT OF FORMATION =      26.856014 KCALS/MOLE


          INTERNAL COORDINATE DERIVATIVES

   NUMBER  ATOM       BOND         ANGLE      DIHEDRAL

     1       C     -0.000385     0.000264    -0.003695
     2       C      0.007435     0.008718     0.001298
     3       C      0.005170    -0.002009     0.000549
     4       C      0.000747    -0.001079     0.002559
     5       C     -0.007155     0.003811     0.000985
     6       C      0.012233     0.002492    -0.002582
     7       C      0.009468     0.000710    -0.002143
     8       C      0.000859     0.000727     0.003325
     9       C      0.000392    -0.003278     0.007368
    10       C     -0.011829    -0.011093     0.019289
    11       C     -0.016260     0.001052    -0.009699
    12       H     -0.001095     0.000042     0.005420
    13       H     -0.001161     0.001673    -0.002358
    14       H     -0.001039     0.000921     0.001000
    15       H     -0.001062     0.003766    -0.000391
    16       H     -0.006196     0.002658    -0.005338
    17       H      0.000096     0.002784    -0.003042
    18       H     -0.002148    -0.004725     0.003517
    19       H     -0.004125     0.001854    -0.001796
    20       H     -0.003067    -0.003412     0.008333
    21       H      0.008643    -0.006341    -0.006889
    22       H     -0.000655     0.003869    -0.004991
    23       H      0.000584    -0.000511    -0.001925
    24       H      0.006577    -0.003880    -0.000223
    25       H     -0.000161    -0.002182    -0.008097
    26       H      0.000766    -0.000891     0.000614
    27       H      0.003369     0.004061    -0.001089


          GRADIENT NORM =   0.04745


          TIME FOR SCF CALCULATION =    0.01

          TIME FOR DERIVATIVES     =    0.01

          MOLECULAR WEIGHT =  148.25



          ROTATIONAL CONSTANTS IN CM(-1)

          A =    0.10053875   B =    0.01286845   C =    0.01274476



           PRINCIPAL MOMENTS OF INERTIA IN UNITS OF 10**(-40)*GRAM-CM**2

          A =      278.4277   B =     2175.3019   C =     2196.4149


          ORIENTATION OF MOLECULE IN FORCE CALCULATION

    NO.       ATOM         X         Y         Z

     1          C      -1.5776   -0.1975   -0.2482
     2          C       4.1510   -0.1975   -0.2482
     3          C      -0.5934    0.9659   -0.2482
     4          C       3.1380    0.5034    0.6462
     5          C       3.7271   -1.6066   -0.5965
     6          C      -2.7536    0.0519   -1.1639
     7          C      -2.2507   -0.4168    1.0867
     8          C       0.6685    0.6107    0.4558
     9          C       1.8746    0.8164   -0.0752
    10          C      -3.9041   -0.0454   -0.4633
    11          C      -3.5908   -0.3371    0.9386
    12          H      -1.0627   -1.1375   -0.5590
    13          H       4.3081    0.3898   -1.1748
    14          H       5.1343   -0.2189    0.2616
    15          H      -1.0436    1.8479    0.2497
    16          H      -0.3962    1.2750   -1.2948
    17          H       2.9426   -0.1105    1.5488
    18          H       3.5642    1.4577    1.0165
    19          H       2.7609   -1.6170   -1.1187
    20          H       3.6190   -2.2305    0.3007
    21          H       4.4614   -2.0946   -1.2499
    22          H      -2.6296    0.2703   -2.2224
    23          H      -1.6876   -0.6085    1.9978
    24          H       0.5535    0.1725    1.4559
    25          H       1.9870    1.2443   -1.0801
    26          H      -4.9197    0.0673   -0.8373
    27          H      -4.3511   -0.4617    1.7070


    FIRST DERIVATIVES WILL BE USED IN THE CALCULATION OF SECOND DERIVATIVES

          ESTIMATED TIME TO COMPLETE CALCULATION =        4.84 SECONDS

    FOR POINT-GROUP C1   THERE ARE   1 UNIQUE SYMMETRY FUNCTIONS.

 STEP:   1 TIME =     0.05 SECS, INTEGRAL =      0.05 TIME LEFT: 172799.93
 STEP:   2 TIME =     0.05 SECS, INTEGRAL =      0.10 TIME LEFT: 172799.89
 STEP:   3 TIME =     0.05 SECS, INTEGRAL =      0.14 TIME LEFT: 172799.84
 STEP:   4 TIME =     0.04 SECS, INTEGRAL =      0.19 TIME LEFT: 172799.80
 STEP:   5 TIME =     0.05 SECS, INTEGRAL =      0.23 TIME LEFT: 172799.75
 STEP:   6 TIME =     0.04 SECS, INTEGRAL =      0.28 TIME LEFT: 172799.71
 STEP:   7 TIME =     0.05 SECS, INTEGRAL =      0.32 TIME LEFT: 172799.66
 STEP:   8 TIME =     0.05 SECS, INTEGRAL =      0.37 TIME LEFT: 172799.62
 STEP:   9 TIME =     0.05 SECS, INTEGRAL =      0.42 TIME LEFT: 172799.57
 STEP:  10 TIME =     0.05 SECS, INTEGRAL =      0.47 TIME LEFT: 172799.51
 STEP:  11 TIME =     0.05 SECS, INTEGRAL =      0.52 TIME LEFT: 172799.47
 STEP:  12 TIME =     0.05 SECS, INTEGRAL =      0.56 TIME LEFT: 172799.42
 STEP:  13 TIME =     0.04 SECS, INTEGRAL =      0.60 TIME LEFT: 172799.38
 STEP:  14 TIME =     0.04 SECS, INTEGRAL =      0.65 TIME LEFT: 172799.34
 STEP:  15 TIME =     0.04 SECS, INTEGRAL =      0.69 TIME LEFT: 172799.29
 STEP:  16 TIME =     0.05 SECS, INTEGRAL =      0.74 TIME LEFT: 172799.25
 STEP:  17 TIME =     0.05 SECS, INTEGRAL =      0.79 TIME LEFT: 172799.20
 STEP:  18 TIME =     0.04 SECS, INTEGRAL =      0.83 TIME LEFT: 172799.15
 STEP:  19 TIME =     0.05 SECS, INTEGRAL =      0.88 TIME LEFT: 172799.11
 STEP:  20 TIME =     0.05 SECS, INTEGRAL =      0.93 TIME LEFT: 172799.06
 STEP:  21 TIME =     0.05 SECS, INTEGRAL =      0.97 TIME LEFT: 172799.01
 STEP:  22 TIME =     0.04 SECS, INTEGRAL =      1.02 TIME LEFT: 172798.97
 STEP:  23 TIME =     0.05 SECS, INTEGRAL =      1.06 TIME LEFT: 172798.92
 STEP:  24 TIME =     0.05 SECS, INTEGRAL =      1.11 TIME LEFT: 172798.87
 STEP:  25 TIME =     0.04 SECS, INTEGRAL =      1.16 TIME LEFT: 172798.83
 STEP:  26 TIME =     0.05 SECS, INTEGRAL =      1.21 TIME LEFT: 172798.78
 STEP:  27 TIME =     0.05 SECS, INTEGRAL =      1.25 TIME LEFT: 172798.73
 STEP:  28 TIME =     0.05 SECS, INTEGRAL =      1.30 TIME LEFT: 172798.69
 STEP:  29 TIME =     0.05 SECS, INTEGRAL =      1.34 TIME LEFT: 172798.64
 STEP:  30 TIME =     0.05 SECS, INTEGRAL =      1.39 TIME LEFT: 172798.59
 STEP:  31 TIME =     0.05 SECS, INTEGRAL =      1.44 TIME LEFT: 172798.55
 STEP:  32 TIME =     0.05 SECS, INTEGRAL =      1.49 TIME LEFT: 172798.50
 STEP:  33 TIME =     0.05 SECS, INTEGRAL =      1.53 TIME LEFT: 172798.45
 STEP:  34 TIME =     0.05 SECS, INTEGRAL =      1.58 TIME LEFT: 172798.41
 STEP:  35 TIME =     0.04 SECS, INTEGRAL =      1.62 TIME LEFT: 172798.36
 STEP:  36 TIME =     0.05 SECS, INTEGRAL =      1.67 TIME LEFT: 172798.32
 STEP:  37 TIME =     0.05 SECS, INTEGRAL =      1.71 TIME LEFT: 172798.27
 STEP:  38 TIME =     0.05 SECS, INTEGRAL =      1.76 TIME LEFT: 172798.23
 STEP:  39 TIME =     0.04 SECS, INTEGRAL =      1.80 TIME LEFT: 172798.18
 STEP:  40 TIME =     0.04 SECS, INTEGRAL =      1.85 TIME LEFT: 172798.14
 STEP:  41 TIME =     0.05 SECS, INTEGRAL =      1.89 TIME LEFT: 172798.09
 STEP:  42 TIME =     0.05 SECS, INTEGRAL =      1.94 TIME LEFT: 172798.05
 STEP:  43 TIME =     0.05 SECS, INTEGRAL =      1.99 TIME LEFT: 172798.00
 STEP:  44 TIME =     0.04 SECS, INTEGRAL =      2.03 TIME LEFT: 172797.95
 STEP:  45 TIME =     0.05 SECS, INTEGRAL =      2.08 TIME LEFT: 172797.91
 STEP:  46 TIME =     0.05 SECS, INTEGRAL =      2.12 TIME LEFT: 172797.86
 STEP:  47 TIME =     0.05 SECS, INTEGRAL =      2.17 TIME LEFT: 172797.82
 STEP:  48 TIME =     0.04 SECS, INTEGRAL =      2.21 TIME LEFT: 172797.77
 STEP:  49 TIME =     0.05 SECS, INTEGRAL =      2.26 TIME LEFT: 172797.72
 STEP:  50 TIME =     0.05 SECS, INTEGRAL =      2.31 TIME LEFT: 172797.68
 STEP:  51 TIME =     0.04 SECS, INTEGRAL =      2.35 TIME LEFT: 172797.63
 STEP:  52 TIME =     0.05 SECS, INTEGRAL =      2.40 TIME LEFT: 172797.59
 STEP:  53 TIME =     0.05 SECS, INTEGRAL =      2.45 TIME LEFT: 172797.54
 STEP:  54 TIME =     0.05 SECS, INTEGRAL =      2.49 TIME LEFT: 172797.49
 STEP:  55 TIME =     0.04 SECS, INTEGRAL =      2.54 TIME LEFT: 172797.45
 STEP:  56 TIME =     0.05 SECS, INTEGRAL =      2.59 TIME LEFT: 172797.40
 STEP:  57 TIME =     0.04 SECS, INTEGRAL =      2.63 TIME LEFT: 172797.35
 STEP:  58 TIME =     0.05 SECS, INTEGRAL =      2.68 TIME LEFT: 172797.30
 STEP:  59 TIME =     0.05 SECS, INTEGRAL =      2.73 TIME LEFT: 172797.26
 STEP:  60 TIME =     0.04 SECS, INTEGRAL =      2.77 TIME LEFT: 172797.21
 STEP:  61 TIME =     0.04 SECS, INTEGRAL =      2.82 TIME LEFT: 172797.17
 STEP:  62 TIME =     0.05 SECS, INTEGRAL =      2.86 TIME LEFT: 172797.12
 STEP:  63 TIME =     0.05 SECS, INTEGRAL =      2.91 TIME LEFT: 172797.08
 STEP:  64 TIME =     0.05 SECS, INTEGRAL =      2.95 TIME LEFT: 172797.03
 STEP:  65 TIME =     0.05 SECS, INTEGRAL =      3.00 TIME LEFT: 172796.98
 STEP:  66 TIME =     0.04 SECS, INTEGRAL =      3.04 TIME LEFT: 172796.94
 STEP:  67 TIME =     0.04 SECS, INTEGRAL =      3.09 TIME LEFT: 172796.90
 STEP:  68 TIME =     0.05 SECS, INTEGRAL =      3.14 TIME LEFT: 172796.85
 STEP:  69 TIME =     0.05 SECS, INTEGRAL =      3.18 TIME LEFT: 172796.80
 STEP:  70 TIME =     0.05 SECS, INTEGRAL =      3.23 TIME LEFT: 172796.75
 STEP:  71 TIME =     0.05 SECS, INTEGRAL =      3.28 TIME LEFT: 172796.71
 STEP:  72 TIME =     0.05 SECS, INTEGRAL =      3.32 TIME LEFT: 172796.66
 STEP:  73 TIME =     0.05 SECS, INTEGRAL =      3.37 TIME LEFT: 172796.62
 STEP:  74 TIME =     0.05 SECS, INTEGRAL =      3.42 TIME LEFT: 172796.57
 STEP:  75 TIME =     0.04 SECS, INTEGRAL =      3.46 TIME LEFT: 172796.52
 STEP:  76 TIME =     0.04 SECS, INTEGRAL =      3.50 TIME LEFT: 172796.48
 STEP:  77 TIME =     0.05 SECS, INTEGRAL =      3.55 TIME LEFT: 172796.43
 STEP:  78 TIME =     0.05 SECS, INTEGRAL =      3.60 TIME LEFT: 172796.39
 STEP:  79 TIME =     0.04 SECS, INTEGRAL =      3.64 TIME LEFT: 172796.34
 STEP:  80 TIME =     0.05 SECS, INTEGRAL =      3.69 TIME LEFT: 172796.30
 STEP:  81 TIME =     0.05 SECS, INTEGRAL =      3.73 TIME LEFT: 172796.25

(To convert to Hartree/Bohr^2, multiply by (10^(-21) x N x a0^2)/(4.184 x 627.51) = 0.0642)


           FORCE MATRIX IN MILLIDYNES/ANGSTROM


                  C  1       C  2       C  3       C  4       C  5       C  6
 ------------------------------------------------------------------------------
     C    1  14.839306
     C    2   0.003525  14.333845
     C    3   3.967489   0.016881  14.643449
     C    4   0.019009   4.101725   0.140925  14.631963
     C    5   0.000500   4.468909   0.001343   0.648772  14.370688
     C    6   4.125873   0.001338   0.609741   0.003122   0.000570  17.917417
     C    7   4.130369   0.001383   0.591386   0.001834   0.000947   1.094497
     C    8   0.684356   0.042972   4.955406   0.823703   0.005121   0.046598
     C    9   0.041095   0.687035   0.828527   4.950332   0.042051   0.007399
     C   10   1.204704   0.000825   0.049532   0.001490   0.000433   9.792741
     C   11   1.205698   0.001090   0.052421   0.001547   0.001036   1.572643
     H   12   4.243298   0.000355   0.443733   0.000975   0.000556   0.386802
     H   13   0.000317   4.448420   0.000844   0.445882   0.438006   0.000291
     H   14   0.000686   4.466171   0.002512   0.428793   0.437784   0.000396
     H   15   0.449594   0.001665   4.443215   0.018667   0.000514   0.011143
     H   16   0.436357   0.000691   4.428599   0.002793   0.000340   0.040858
     H   17   0.000492   0.440718   0.003819   4.427610   0.026628   0.000462
     H   18   0.001841   0.437705   0.019842   4.420487   0.050678   0.000485
     H   19   0.000275   0.464007   0.000530   0.020674   4.722556   0.000380
     H   20   0.000258   0.463186   0.000264   0.021445   4.725696   0.000241
     H   21   0.000341   0.450475   0.000327   0.051537   4.752245   0.000297
     H   22   0.403718   0.000292   0.014110   0.000538   0.000271   5.074274
     H   23   0.404119   0.000359   0.009146   0.000614   0.000283   0.042386
     H   24   0.022908   0.007510   0.430776   0.082172   0.000986   0.002707
     H   25   0.008124   0.028875   0.082762   0.430957   0.005356   0.002378
     H   26   0.113490   0.000319   0.016195   0.000219   0.000153   0.445744
     H   27   0.113896   0.000373   0.016196   0.000342   0.000243   0.049044


                  C  7       C  8       C  9       C 10       C 11       H 12
 ------------------------------------------------------------------------------
     C    7  17.902111
     C    8   0.044581  18.183903
     C    9   0.004219  10.684669  18.173179
     C   10   1.570064   0.009372   0.002109  18.326176
     C   11   9.790964   0.009501   0.001548   5.154747  18.325128
     H   12   0.387314   0.030702   0.003184   0.051202   0.051149   4.721234
     H   13   0.000229   0.002399   0.033625   0.000322   0.000294   0.000150
     H   14   0.000501   0.007177   0.050325   0.000431   0.000367   0.000133
     H   15   0.022182   0.410710   0.030778   0.004981   0.005858   0.041965
     H   16   0.044275   0.459158   0.051115   0.005962   0.007134   0.017645
     H   17   0.000368   0.049705   0.458613   0.000346   0.000445   0.000271
     H   18   0.000459   0.030207   0.405003   0.000550   0.000492   0.000351
     H   19   0.000586   0.003908   0.010593   0.000378   0.000506   0.000751
     H   20   0.000331   0.000816   0.002492   0.000162   0.000362   0.000151
     H   21   0.000352   0.000769   0.003230   0.000240   0.000336   0.000184
     H   22   0.041870   0.002078   0.000725   0.443092   0.100983   0.011172
     H   23   5.062637   0.011762   0.002836   0.101844   0.442916   0.011113
     H   24   0.010821   4.752054   0.468460   0.001714   0.002390   0.004143
     H   25   0.001550   0.468905   4.754782   0.000886   0.001038   0.000866
     H   26   0.049273   0.002316   0.000550   5.070539   0.419283   0.014628
     H   27   0.445930   0.000901   0.000524   0.419823   5.070664   0.014635


                  H 13       H 14       H 15       H 16       H 17       H 18
 ------------------------------------------------------------------------------
     H   13   5.069864
     H   14   0.570692   5.077473
     H   15   0.000216   0.000259   5.031288
     H   16   0.000262   0.000149   0.556552   5.032335
     H   17   0.044534   0.025316   0.000842   0.000498   5.040221
     H   18   0.024418   0.037521   0.003191   0.000814   0.560510   5.011999
     H   19   0.024177   0.048952   0.000233   0.000219   0.002029   0.002083
     H   20   0.047764   0.025746   0.000142   0.000157   0.019433   0.002023
     H   21   0.030801   0.029707   0.000138   0.000169   0.002340   0.008513
     H   22   0.000094   0.000237   0.001800   0.013478   0.000111   0.000170
     H   23   0.000167   0.000150   0.002605   0.001833   0.000309   0.000297
     H   24   0.000683   0.001425   0.017444   0.039005   0.030012   0.009760
     H   25   0.026821   0.002244   0.009190   0.030053   0.038047   0.015867
     H   26   0.000123   0.000083   0.000397   0.000637   0.000094   0.000160
     H   27   0.000105   0.000099   0.000892   0.002719   0.000112   0.000151


                  H 19       H 20       H 21       H 22       H 23       H 24
 ------------------------------------------------------------------------------
     H   19   5.457246
     H   20   0.577245   5.468235
     H   21   0.567298   0.572108   5.488873
     H   22   0.000128   0.000048   0.000129   5.475194
     H   23   0.000146   0.000140   0.000087   0.010359   5.463561
     H   24   0.000479   0.000358   0.000395   0.000803   0.021619   5.135570
     H   25   0.002511   0.000638   0.000639   0.000601   0.000651   0.102609
     H   26   0.000202   0.000072   0.000097   0.042113   0.005429   0.000389
     H   27   0.000089   0.000031   0.000087   0.005456   0.042219   0.000543


                  H 25       H 26       H 27
 ------------------------------------------
     H   25   5.136899
     H   26   0.000251   5.461275
     H   27   0.000365   0.009508   5.460720


          HEAT OF FORMATION =      26.856014 KCALS/MOLE

          ZERO POINT ENERGY     149.039 KCAL/MOL


           NORMAL COORDINATE ANALYSIS (Total motion = 1 Angstrom)


   Root No.       1         2         3         4         5         6         7         8

                 1 A       2 A       3 A       4 A       5 A       6 A       7 A       8 A   

                  30.0      51.9      71.5      87.5     150.8     157.3     200.4     234.5
  
           1   -0.0141   -0.0093   -0.0027    0.0050   -0.0022    0.0145   -0.0045   -0.0045
           2   -0.0098    0.0034    0.0101    0.0222    0.0149   -0.0246    0.0056    0.0078
           3    0.0064   -0.0285    0.0120   -0.0007   -0.0045   -0.0114    0.0018   -0.0063
           4    0.0197    0.0045   -0.0012    0.0030   -0.0133   -0.0219    0.0121   -0.0056
           5    0.0207    0.0040    0.0050   -0.0097   -0.0010    0.0087    0.0009    0.0108
           6    0.0075    0.0128   -0.0325    0.0158   -0.0109   -0.0150    0.0086   -0.0251
           7   -0.0003   -0.0034   -0.0078   -0.0088    0.0062   -0.0081    0.0084    0.0183
           8   -0.0216   -0.0019    0.0144    0.0341    0.0074   -0.0046   -0.0061   -0.0139
           9   -0.0108   -0.0238    0.0317   -0.0062   -0.0165   -0.0041   -0.0063   -0.0203
          10   -0.0049   -0.0086    0.0027   -0.0184   -0.0021   -0.0148    0.0108    0.0161
          11   -0.0173    0.0015   -0.0034   -0.0275   -0.0185   -0.0099    0.0098    0.0031
          12    0.0094   -0.0004   -0.0213    0.0053    0.0166    0.0082    0.0002    0.0078
          13    0.0539    0.0284    0.0387    0.0170    0.0048   -0.0027   -0.0132   -0.0064
          14    0.0179   -0.0084   -0.0209   -0.0056   -0.0099   -0.0006    0.0106    0.0045
          15   -0.0223    0.0341    0.0241   -0.0175    0.0025   -0.0014    0.0004    0.0010
          16   -0.0100   -0.0297    0.0070   -0.0011   -0.0084    0.0133   -0.0043   -0.0086
          17   -0.0100    0.0343    0.0107   -0.0031   -0.0037   -0.0202    0.0112    0.0134
          18    0.0010    0.0059   -0.0003    0.0009   -0.0010   -0.0085    0.0023   -0.0007
          19   -0.0185    0.0208   -0.0174    0.0120    0.0062    0.0188   -0.0060    0.0007
          20    0.0188   -0.0281   -0.0026    0.0150    0.0226   -0.0164    0.0033    0.0123
          21    0.0088   -0.0185    0.0024    0.0017    0.0010   -0.0078    0.0005   -0.0036
          22   -0.0041   -0.0068   -0.0009   -0.0128    0.0006   -0.0164    0.0049   -0.0032
          23   -0.0237   -0.0051    0.0048    0.0438   -0.0081    0.0186    0.0003    0.0010
          24   -0.0050   -0.0195    0.0148    0.0059   -0.0131    0.0208    0.0048    0.0306
          25   -0.0015   -0.0036   -0.0074   -0.0087    0.0081   -0.0159    0.0049   -0.0002
          26   -0.0225   -0.0057   -0.0067   -0.0229    0.0317   -0.0022   -0.0245   -0.0213
          27    0.0012   -0.0125   -0.0048   -0.0102    0.0200    0.0154   -0.0052    0.0291
          28   -0.0121   -0.0137   -0.0009    0.0019   -0.0049    0.0171   -0.0056   -0.0068
          29    0.0139    0.0227   -0.0011   -0.0277   -0.0238    0.0240   -0.0038   -0.0086
          30    0.0007    0.0306   -0.0150    0.0025    0.0023    0.0033   -0.0018   -0.0004
          31   -0.0175    0.0177   -0.0161    0.0100    0.0043    0.0205   -0.0067   -0.0009
          32    0.0318   -0.0166   -0.0094   -0.0158   -0.0051    0.0269   -0.0103   -0.0093
          33    0.0056    0.0154   -0.0133    0.0032    0.0041    0.0034   -0.0030   -0.0021
          34   -0.0250   -0.0215    0.0050    0.0179   -0.0059    0.0264   -0.0138   -0.0222
          35   -0.0208    0.0087    0.0145    0.0281    0.0103   -0.0167    0.0003   -0.0025
          36    0.0217   -0.0646    0.0111    0.0019    0.0014   -0.0121    0.0013   -0.0065
          37    0.0171   -0.0026   -0.0497    0.0215   -0.0496   -0.0567    0.0253   -0.0445
          38    0.0408   -0.0079   -0.0174    0.0062    0.0013    0.0101    0.0032    0.0056
          39    0.0198    0.0040   -0.0549    0.0290   -0.0157   -0.0202    0.0122   -0.0352
          40    0.0147    0.0037    0.0153   -0.0081    0.0016   -0.0084    0.0090    0.0130
          41    0.0326    0.0276    0.0543   -0.0144    0.0172    0.0292   -0.0158    0.0249
          42    0.0176    0.0154   -0.0623    0.0371   -0.0388   -0.0405    0.0133   -0.0608
          43    0.0096   -0.0014   -0.0081   -0.0200    0.0160   -0.0345    0.0135    0.0183
          44   -0.0090   -0.0006    0.0017    0.0342    0.0154   -0.0091    0.0056    0.0164
          45   -0.0240   -0.0241    0.0539   -0.0169   -0.0220   -0.0200   -0.0224   -0.0744
          46    0.0035    0.0005   -0.0162   -0.0044    0.0098    0.0050    0.0158    0.0539
          47   -0.0394   -0.0017    0.0383    0.0264   -0.0021   -0.0094   -0.0238   -0.0644
          48   -0.0153   -0.0230    0.0371   -0.0075   -0.0184   -0.0031   -0.0104   -0.0291
          49   -0.0058   -0.0141    0.0166   -0.0315   -0.0166   -0.0097    0.0221    0.0461
          50   -0.0403    0.0038   -0.0053   -0.0404   -0.0520   -0.0271    0.0280    0.0071
          51   -0.0065    0.0001   -0.0196   -0.0063   -0.0094   -0.0026    0.0145    0.0164
          52   -0.0265   -0.0175    0.0004   -0.0297    0.0140   -0.0143    0.0006    0.0152
          53   -0.0178    0.0052   -0.0008   -0.0302   -0.0417   -0.0162    0.0239    0.0105
          54    0.0357    0.0004   -0.0250    0.0256    0.0575    0.0237   -0.0246   -0.0106
          55    0.0573    0.0278    0.0218    0.0278   -0.0243   -0.0313   -0.0917    0.0184
          56    0.0060   -0.0329   -0.0727   -0.0011   -0.0330   -0.0240    0.0213   -0.0011
          57   -0.0284    0.0359    0.0567   -0.0377    0.0572    0.0522    0.1449   -0.0448
          58    0.0625    0.0410    0.0921    0.0014    0.0733    0.0649    0.1325   -0.0576
          59   -0.0018    0.0026    0.0018   -0.0217   -0.0198   -0.0097   -0.0361    0.0362
          60   -0.0349    0.0433    0.0463   -0.0305    0.0039    0.0003   -0.0147    0.0171
          61    0.0688    0.0358    0.0349    0.0329   -0.0188   -0.0255   -0.1031    0.0186
          62    0.0469   -0.0051   -0.0134    0.0093    0.0151    0.0243    0.0565   -0.0271
          63   -0.0272    0.0398    0.0141   -0.0108   -0.0428   -0.0456   -0.1348    0.0529
          64   -0.0059   -0.0537    0.0187   -0.0073   -0.0154    0.0107   -0.0034   -0.0129
          65   -0.0275    0.0615    0.0193   -0.0022   -0.0055   -0.0422    0.0230    0.0272
          66   -0.0021    0.0086    0.0028    0.0004   -0.0021   -0.0134    0.0048    0.0017
          67   -0.0221    0.0404   -0.0265    0.0173    0.0118    0.0204   -0.0066    0.0041
          68    0.0263   -0.0562   -0.0049    0.0318    0.0447   -0.0352    0.0075    0.0246
          69    0.0126   -0.0365    0.0075    0.0019    0.0023   -0.0128    0.0017   -0.0031
          70   -0.0089   -0.0114    0.0095   -0.0199   -0.0103   -0.0227    0.0023   -0.0215
          71   -0.0237   -0.0038    0.0096    0.1000   -0.0633    0.0455    0.0365    0.0415
          72   -0.0056   -0.0194    0.0180    0.0299   -0.0383    0.0316    0.0200    0.0451
          73    0.0029    0.0029   -0.0212    0.0017    0.0220   -0.0175    0.0011   -0.0102
          74   -0.0228   -0.0085   -0.0133   -0.0778    0.0943   -0.0214   -0.0641   -0.0551
          75    0.0016   -0.0129   -0.0093   -0.0323    0.0483    0.0068   -0.0228    0.0124
          76   -0.0103   -0.0219    0.0030   -0.0011   -0.0081    0.0170   -0.0055   -0.0089
          77    0.0200    0.0386   -0.0042   -0.0519   -0.0476    0.0497   -0.0086   -0.0204
          78   -0.0025    0.0576   -0.0265    0.0034    0.0039    0.0112   -0.0036    0.0016
          79   -0.0200    0.0353   -0.0247    0.0139    0.0090    0.0232   -0.0075    0.0023
          80    0.0521   -0.0329   -0.0191   -0.0298   -0.0117    0.0557   -0.0222   -0.0220
          81    0.0064    0.0301   -0.0234    0.0047    0.0077    0.0107   -0.0058   -0.0010


   Root No.       9        10        11        12        13        14        15        16

                 9 A      10 A      11 A      12 A      13 A      14 A      15 A      16 A   

                 280.1     329.7     377.4     471.8     492.6     516.5     559.1     744.7
  
           1   -0.0011    0.0122   -0.0061    0.0014   -0.0004   -0.0024    0.0016    0.0328
           2   -0.0145    0.0044   -0.0021    0.0193   -0.0039   -0.0172    0.0364   -0.0156
           3    0.0254    0.0212   -0.0059    0.0092   -0.0016   -0.0158    0.0027   -0.0122
           4   -0.0015   -0.0160    0.0221    0.0126    0.0463   -0.0077   -0.0141   -0.0040
           5   -0.0095    0.0235    0.0145   -0.0028   -0.0002    0.0007    0.0038    0.0015
           6    0.0007   -0.0054   -0.0145   -0.0048   -0.0071    0.0022    0.0055    0.0009
           7    0.0038    0.0071   -0.0041   -0.0129   -0.0051    0.0011    0.0417    0.0199
           8   -0.0152    0.0005    0.0063    0.0376   -0.0042   -0.0219    0.0065    0.0236
           9   -0.0273   -0.0110    0.0089   -0.0203   -0.0031    0.0179    0.0088   -0.0085
          10    0.0018   -0.0274    0.0172    0.0191   -0.0047   -0.0041   -0.0211   -0.0050
          11   -0.0049   -0.0169   -0.0264    0.0035   -0.0224    0.0006    0.0002   -0.0029
          12    0.0032    0.0059    0.0127    0.0047   -0.0423    0.0034   -0.0122   -0.0044
          13    0.0086   -0.0186   -0.0171    0.0014   -0.0041   -0.0003   -0.0015   -0.0006
          14   -0.0111    0.0194    0.0187    0.0001    0.0111   -0.0012    0.0010    0.0019
          15   -0.0069    0.0158    0.0175   -0.0012    0.0151   -0.0008    0.0015    0.0008
          16    0.0109    0.0293   -0.0159    0.0030    0.0025   -0.0118   -0.0108    0.0031
          17    0.0082    0.0177   -0.0150   -0.0340    0.0030   -0.0171   -0.0261   -0.0188
          18    0.0150    0.0104   -0.0025   -0.0017   -0.0021   -0.0118   -0.0033    0.0288
          19   -0.0231    0.0043   -0.0092   -0.0040    0.0046    0.0077   -0.0049   -0.0166
          20   -0.0232    0.0071   -0.0137   -0.0034    0.0083    0.0452   -0.0139   -0.0061
          21    0.0144    0.0179   -0.0083    0.0051    0.0017   -0.0035   -0.0109   -0.0278
          22    0.0077   -0.0022    0.0171   -0.0212   -0.0186    0.0139    0.0233    0.0047
          23    0.0439   -0.0247    0.0207   -0.0102   -0.0008    0.0057   -0.0114    0.0000
          24   -0.0072   -0.0229   -0.0141   -0.0165    0.0262    0.0088    0.0286    0.0074
          25    0.0127   -0.0069    0.0267   -0.0017   -0.0255    0.0056   -0.0029    0.0000
          26    0.0347   -0.0249   -0.0079   -0.0192    0.0161    0.0083    0.0082   -0.0060
          27   -0.0018   -0.0263   -0.0067    0.0244    0.0098   -0.0099   -0.0215   -0.0019
          28    0.0004    0.0227   -0.0149    0.0030    0.0040   -0.0050   -0.0108   -0.0151
          29    0.0208    0.0077   -0.0005    0.0298    0.0024    0.0306    0.0106   -0.0138
          30   -0.0015   -0.0037    0.0026    0.0072   -0.0003    0.0077    0.0048    0.0076
          31   -0.0219    0.0053   -0.0095   -0.0045    0.0046    0.0045   -0.0059   -0.0244
          32   -0.0205   -0.0154    0.0081   -0.0197   -0.0051   -0.0382    0.0020   -0.0106
          33   -0.0054   -0.0041    0.0026   -0.0015   -0.0015   -0.0086    0.0007    0.0023
          34   -0.0090    0.0079    0.0023    0.0365   -0.0033   -0.0138    0.0132    0.0835
          35   -0.0228   -0.0028    0.0052    0.0289   -0.0071   -0.0317    0.0412    0.0129
          36    0.0373    0.0339   -0.0128    0.0358    0.0032    0.0125    0.0011   -0.0118
          37   -0.0002   -0.0438   -0.0081    0.0065    0.1099   -0.0123    0.0011    0.0009
          38   -0.0072    0.0255    0.0158   -0.0043   -0.0080    0.0021    0.0037    0.0027
          39    0.0023   -0.0089   -0.0185   -0.0069    0.0013    0.0022    0.0082    0.0025
          40   -0.0020   -0.0069    0.0371    0.0175    0.0167   -0.0060   -0.0240   -0.0077
          41   -0.0103    0.0423    0.0180   -0.0064   -0.0209    0.0032    0.0064    0.0033
          42    0.0020   -0.0237   -0.0451   -0.0145    0.0504   -0.0011    0.0250    0.0084
          43   -0.0057    0.0250   -0.0075    0.0005   -0.0195   -0.0145    0.0763    0.0091
          44    0.0144    0.0115   -0.0115    0.0438    0.0105   -0.0485    0.0498    0.0184
          45   -0.0892   -0.0148    0.0378   -0.0206   -0.0431    0.0534   -0.0398   -0.0109
          46    0.0087   -0.0005   -0.0241   -0.0174    0.0218   -0.0057    0.0812    0.0376
          47   -0.0835   -0.0131    0.0334    0.0307   -0.0351    0.0221   -0.0475    0.0350
          48   -0.0474   -0.0169    0.0139   -0.0226   -0.0080    0.0306   -0.0011   -0.0021
          49   -0.0212   -0.0399    0.0032    0.0526   -0.0137   -0.0186   -0.0461    0.0002
          50   -0.0210   -0.0499   -0.0778    0.0313   -0.0677   -0.0100   -0.0158    0.0071
          51   -0.0125   -0.0184   -0.0245    0.0293   -0.0730   -0.0064   -0.0270    0.0034
          52    0.0214   -0.0553    0.0053    0.0169   -0.0173    0.0002   -0.0274   -0.0142
          53   -0.0239   -0.0219   -0.0464    0.0227   -0.0377   -0.0086   -0.0084    0.0068
          54    0.0292    0.0488    0.0751   -0.0407    0.0101    0.0216    0.0166   -0.0179
          55    0.0105   -0.0166   -0.0211   -0.0002   -0.0180    0.0016    0.0003   -0.0001
          56   -0.0170    0.0163    0.0416    0.0090    0.0527   -0.0078   -0.0107   -0.0028
          57   -0.0099    0.0115    0.0233    0.0014    0.0390   -0.0040   -0.0014    0.0001
          58    0.0118   -0.0282   -0.0377   -0.0031   -0.0177    0.0022    0.0049    0.0018
          59   -0.0172    0.0378    0.0473    0.0040    0.0333   -0.0046   -0.0038    0.0019
          60   -0.0108    0.0278    0.0356    0.0010    0.0298   -0.0029   -0.0010    0.0012
          61    0.0147   -0.0188   -0.0393   -0.0055   -0.0451    0.0057    0.0075    0.0026
          62   -0.0013    0.0016   -0.0272   -0.0095   -0.0398    0.0064    0.0137    0.0057
          63   -0.0077    0.0297    0.0282   -0.0017    0.0088    0.0000    0.0021    0.0017
          64    0.0280    0.0457   -0.0232    0.0038    0.0037   -0.0228   -0.0223   -0.0106
          65    0.0256    0.0409   -0.0359   -0.0953    0.0116   -0.0331   -0.1207    0.1220
          66    0.0204    0.0170   -0.0076   -0.0142   -0.0002   -0.0162   -0.0239    0.0564
          67   -0.0390   -0.0052   -0.0076   -0.0101    0.0061    0.0208   -0.0065   -0.0285
          68   -0.0457    0.0131   -0.0307   -0.0315    0.0252    0.1428   -0.0836    0.1111
          69    0.0193    0.0249   -0.0129    0.0030    0.0043    0.0091   -0.0246    0.0037
          70    0.0046   -0.0021    0.0218   -0.0558   -0.0228    0.0379    0.0423   -0.0063
          71    0.0697   -0.0334    0.0439   -0.0459   -0.0329    0.0332   -0.0131   -0.0350
          72    0.0039   -0.0265   -0.0026   -0.0361    0.0110    0.0238    0.0290   -0.0096
          73    0.0257    0.0017    0.0458    0.0057   -0.0518    0.0037   -0.0237   -0.0044
          74    0.0261   -0.0264   -0.0291    0.0050    0.0675   -0.0137    0.0093    0.0184
          75   -0.0037   -0.0256   -0.0133    0.0345    0.0289   -0.0189   -0.0228    0.0078
          76    0.0080    0.0278   -0.0161    0.0070    0.0037   -0.0059   -0.0121    0.0011
          77    0.0550    0.0191   -0.0014    0.0898    0.0118    0.1251    0.0036    0.1296
          78   -0.0118   -0.0136    0.0053    0.0146    0.0033    0.0381    0.0058    0.0063
          79   -0.0352   -0.0064   -0.0051   -0.0098    0.0043    0.0100   -0.0014   -0.0040
          80   -0.0440   -0.0416    0.0232   -0.0808   -0.0147   -0.1241   -0.0309    0.1205
          81   -0.0222   -0.0199    0.0095   -0.0166   -0.0035   -0.0172   -0.0001    0.0443


   Root No.      17        18        19        20        21        22        23        24

                17 A      18 A      19 A      20 A      21 A      22 A      23 A      24 A   

                 798.1     810.0     816.5     824.5     852.3     886.8     930.6     943.6
  
           1   -0.0197   -0.0094   -0.0120   -0.0216    0.0044   -0.0054    0.0012   -0.0003
           2    0.0110    0.0056    0.0116    0.0147    0.0037    0.0107    0.0028   -0.0069
           3    0.0173    0.0117    0.0007   -0.0216    0.0035    0.0049    0.0017   -0.0023
           4    0.0043    0.0000   -0.0101    0.0102    0.0148   -0.0012    0.0021   -0.0101
           5   -0.0030   -0.0001    0.0071   -0.0065   -0.0068   -0.0016    0.0010    0.0042
           6    0.0063    0.0003   -0.0145    0.0118    0.0104    0.0003   -0.0001    0.0069
           7   -0.0134   -0.0040   -0.0009   -0.0019    0.0028    0.0230   -0.0173    0.0059
           8    0.0032    0.0000    0.0005   -0.0025    0.0008   -0.0102    0.0013    0.0064
           9    0.0188    0.0059   -0.0037    0.0029   -0.0103   -0.0237    0.0158   -0.0098
          10    0.0011    0.0019    0.0073   -0.0013    0.0062   -0.0131    0.0066    0.0163
          11   -0.0048    0.0029    0.0171   -0.0034    0.0249   -0.0204    0.0099    0.0105
          12    0.0039    0.0009    0.0010    0.0004   -0.0013   -0.0075    0.0044   -0.0169
          13    0.0013   -0.0003   -0.0045    0.0037    0.0036    0.0035   -0.0024   -0.0143
          14    0.0008   -0.0010   -0.0037   -0.0010   -0.0120    0.0069   -0.0037    0.0031
          15    0.0009   -0.0001   -0.0037    0.0026    0.0022    0.0016   -0.0012    0.0157
          16   -0.0124   -0.0147    0.0016    0.0157    0.0003   -0.0039    0.0060   -0.0062
          17    0.0004   -0.0335   -0.0015   -0.0034   -0.0008    0.0004   -0.0041    0.0009
          18   -0.0154   -0.0138   -0.0149   -0.0458    0.0111   -0.0027    0.0075   -0.0092
          19    0.0161    0.0158   -0.0026   -0.0263    0.0032    0.0032   -0.0005   -0.0004
          20   -0.0239    0.0228   -0.0103    0.0017   -0.0030   -0.0068    0.0018   -0.0047
          21    0.0160    0.0143    0.0079   -0.0002    0.0001    0.0175   -0.0201    0.0164
          22    0.0027    0.0023   -0.0020    0.0014   -0.0083    0.0005   -0.0040    0.0048
          23    0.0038   -0.0030   -0.0117    0.0011   -0.0187   -0.0035   -0.0297    0.0118
          24    0.0002    0.0019   -0.0051    0.0044   -0.0005   -0.0031   -0.0155    0.0089
          25    0.0022    0.0011    0.0022   -0.0021   -0.0102   -0.0020   -0.0016    0.0062
          26   -0.0029    0.0018    0.0054    0.0039    0.0157    0.0033   -0.0146   -0.0267
          27   -0.0092   -0.0017    0.0102   -0.0081    0.0035    0.0086   -0.0085   -0.0038
          28   -0.0079   -0.0161    0.0127    0.0562   -0.0082   -0.0029   -0.0002    0.0012
          29    0.0000   -0.0244   -0.0047   -0.0154    0.0014   -0.0041    0.0028    0.0022
          30   -0.0139   -0.0161    0.0009    0.0209   -0.0030   -0.0052    0.0018    0.0001
          31    0.0224    0.0203   -0.0008   -0.0273    0.0028    0.0056   -0.0035    0.0026
          32   -0.0131    0.0208   -0.0086   -0.0088   -0.0016   -0.0074    0.0042    0.0007
          33   -0.0181   -0.0123    0.0057    0.0447   -0.0070   -0.0068    0.0042   -0.0023
          34   -0.0101    0.0050   -0.0105   -0.0246    0.0097   -0.0430    0.0479   -0.0172
          35    0.0242   -0.0049    0.0131    0.0060    0.0081   -0.0098    0.0272   -0.0157
          36   -0.0075    0.0668   -0.0019    0.0000   -0.0019    0.0048    0.0019    0.0001
          37   -0.0424   -0.0006    0.0930   -0.0740   -0.0586   -0.0074    0.0038    0.0007
          38   -0.0065   -0.0012    0.0193   -0.0237   -0.0492    0.0048    0.0013   -0.0436
          39   -0.0053   -0.0005    0.0141   -0.0160   -0.0308    0.0029    0.0010   -0.0221
          40    0.0229    0.0010   -0.0468    0.0420    0.0451   -0.0058    0.0048   -0.0127
          41    0.0241   -0.0017   -0.0682    0.0525    0.0489    0.0209   -0.0144    0.0097
          42   -0.0306   -0.0017    0.0583   -0.0516   -0.0508    0.0101   -0.0058    0.0130
          43    0.0073    0.0112    0.0284    0.0020    0.0257    0.0583    0.0156   -0.0325
          44    0.0571    0.0126    0.0036    0.0070   -0.0095   -0.0583    0.0451   -0.0192
          45   -0.0619   -0.0033    0.0179   -0.0110    0.0303    0.0983   -0.0343    0.0019
          46    0.0045   -0.0020   -0.0121    0.0212   -0.0150   -0.0251   -0.0171    0.0121
          47   -0.0925   -0.0170    0.0119   -0.0109    0.0361    0.0998   -0.0703    0.0409
          48   -0.0077    0.0013   -0.0022    0.0041   -0.0028    0.0022   -0.0065    0.0021
          49    0.0047   -0.0045   -0.0081   -0.0102   -0.0468    0.0099    0.0053    0.0280
          50    0.0168   -0.0059   -0.0449    0.0151   -0.0400    0.0332   -0.0148   -0.0602
          51    0.0186   -0.0061   -0.0421    0.0102   -0.0551    0.0321   -0.0121   -0.0606
          52   -0.0026    0.0045    0.0207   -0.0018    0.0181   -0.0098   -0.0028   -0.0213
          53    0.0065   -0.0035   -0.0190    0.0031   -0.0189    0.0081    0.0017    0.0009
          54   -0.0195    0.0138    0.0752   -0.0155    0.0919   -0.0813    0.0353    0.0482
          55    0.0021    0.0003   -0.0048    0.0050    0.0077   -0.0009   -0.0002    0.0141
          56    0.0289   -0.0021   -0.0822    0.0669    0.0695    0.0272   -0.0182   -0.0261
          57   -0.0027   -0.0012    0.0025   -0.0048   -0.0110    0.0083   -0.0041   -0.0353
          58   -0.0128    0.0001    0.0336   -0.0297   -0.0375   -0.0045    0.0033   -0.0016
          59   -0.0139   -0.0026    0.0326   -0.0370   -0.0677    0.0138   -0.0052   -0.0857
          60   -0.0119   -0.0012    0.0282   -0.0284   -0.0438    0.0053   -0.0014   -0.0468
          61   -0.0060    0.0011    0.0189   -0.0156   -0.0177   -0.0090    0.0053    0.0555
          62    0.0021    0.0009   -0.0026    0.0004   -0.0049   -0.0061    0.0027    0.1191
          63   -0.0081   -0.0001    0.0208   -0.0197   -0.0277   -0.0015    0.0020    0.0035
          64    0.0103    0.0107   -0.0007   -0.0305    0.0104    0.0034    0.0175   -0.0215
          65   -0.0102    0.2347    0.0104    0.0613   -0.0120   -0.0203    0.0185    0.0088
          66   -0.0150    0.0444   -0.0130   -0.0387    0.0102   -0.0062    0.0135   -0.0095
          67    0.0186    0.0035    0.0081    0.0241   -0.0073   -0.0106    0.0269   -0.0218
          68    0.1106   -0.1971    0.0337   -0.0165    0.0099   -0.0132    0.0246    0.0016
          69    0.0434   -0.0239    0.0106   -0.0356    0.0094    0.0249   -0.0324    0.0311
          70    0.0279    0.0080   -0.0124    0.0154   -0.0275   -0.0276    0.0194   -0.0134
          71   -0.0297    0.0029    0.0341    0.0033    0.0420    0.1169    0.2159   -0.0231
          72   -0.0116    0.0052    0.0139    0.0067    0.0241    0.0466    0.0948   -0.0087
          73    0.0100   -0.0014   -0.0020   -0.0066   -0.0468   -0.0015    0.0065   -0.0077
          74    0.0240   -0.0093   -0.0697    0.0179   -0.0786    0.0664    0.1700    0.0899
          75    0.0031   -0.0065   -0.0220   -0.0027   -0.0404    0.0355    0.0712    0.0441
          76   -0.0170   -0.0200    0.0125    0.0609   -0.0059   -0.0053    0.0073   -0.0083
          77    0.0676    0.1540    0.0474    0.0638    0.0042    0.0426   -0.0145   -0.0177
          78    0.0303    0.0469    0.0179    0.0343   -0.0085    0.0148   -0.0229    0.0192
          79    0.0218    0.0218   -0.0105   -0.0556    0.0076   -0.0066    0.0186   -0.0205
          80    0.1284   -0.0635    0.0670    0.0262    0.0207    0.0654   -0.0322    0.0016
          81    0.0036   -0.0250    0.0086    0.0237    0.0012   -0.0070    0.0197   -0.0245


   Root No.      25        26        27        28        29        30        31        32

                25 A      26 A      27 A      28 A      29 A      30 A      31 A      32 A   

                 957.7     968.3     977.2     998.7    1011.0    1022.3    1049.7    1062.2
  
           1   -0.0012   -0.0040    0.0014    0.0115   -0.0161    0.0040   -0.0060    0.0024
           2   -0.0047    0.0057   -0.0018   -0.0095    0.0126   -0.0018    0.0009   -0.0041
           3   -0.0014    0.0040    0.0054   -0.0066    0.0030    0.0107   -0.0008    0.0026
           4   -0.0003   -0.0157    0.0011    0.0030    0.0082    0.0045   -0.0219   -0.0163
           5   -0.0014   -0.0066    0.0005   -0.0095   -0.0057   -0.0026   -0.0015   -0.0032
           6   -0.0006    0.0049   -0.0002    0.0087    0.0091    0.0048   -0.0066   -0.0013
           7    0.0082   -0.0096    0.0010   -0.0030    0.0032    0.0050   -0.0005    0.0010
           8    0.0090   -0.0042    0.0012    0.0086   -0.0038   -0.0013    0.0130   -0.0104
           9   -0.0047    0.0061   -0.0009   -0.0014   -0.0098   -0.0051   -0.0036    0.0034
          10   -0.0050    0.0082   -0.0011    0.0079    0.0069    0.0022    0.0028    0.0055
          11   -0.0052   -0.0293    0.0019   -0.0043    0.0032    0.0021    0.0039    0.0089
          12   -0.0004   -0.0219    0.0016    0.0002    0.0014   -0.0007   -0.0006   -0.0032
          13    0.0036   -0.0076    0.0009   -0.0025   -0.0060   -0.0029    0.0177    0.0134
          14    0.0015    0.0278   -0.0023    0.0139    0.0058    0.0021    0.0037    0.0041
[...]
 TRAVEL      0.0998        C  2 --  H 13          +14.1% ( 45.9%)     4.1%
 RED. MASS   0.8528        C  2 --  H 14          +13.9% ( 45.4%)     4.2%
 EFF. MASS   4.7504        C  5 --  H 19          +13.8% ( 45.4%)     3.1%
                           C  5 --  H 21          +13.5% ( 44.7%)     3.3%

 VIBRATION   56   56A       ATOM PAIR        ENERGY CONTRIBUTION    RADIAL
 FREQ.      1432.35        C  1 --  C  3          +13.4% ( 57.6%)    59.7%
 T-DIPOLE    0.1641        C  3 --  C  8          +11.0% ( 52.1%)    90.9%
 TRAVEL      0.0702        C  3 --  H 16           +8.2% ( 45.1%)     0.3%
 RED. MASS   1.3749        C  3 --  H 15           +7.6% ( 43.4%)     1.0%
 EFF. MASS   9.5432

 VIBRATION   57   57A       ATOM PAIR        ENERGY CONTRIBUTION    RADIAL
 FREQ.      1732.62        C  7 --  C 11          +18.2% ( 72.7%)    99.9%
 T-DIPOLE    0.4301        C  6 --  C 10          +18.2% ( 72.6%)    99.9%
 TRAVEL      0.0569        C  6 --  C 11          +10.7% ( 55.7%)    25.8%
 RED. MASS   2.7216        C  7 --  C 10          +10.7% ( 55.7%)    25.9%
 EFF. MASS  12.0235

 VIBRATION   58   58A       ATOM PAIR        ENERGY CONTRIBUTION    RADIAL
 FREQ.      1789.47        C  6 --  C 10          +17.9% ( 70.2%)    99.8%
 T-DIPOLE    0.3040        C  7 --  C 11          +17.9% ( 70.1%)    99.8%
 TRAVEL      0.0565        C 10 --  C 11          +12.1% ( 57.7%)     0.0%
 RED. MASS   2.6855        C  6 --  C 11          +10.9% ( 54.7%)    66.5%
 EFF. MASS  11.7987        C  7 --  C 10          +10.9% ( 54.7%)    65.9%

 VIBRATION   59   59A       ATOM PAIR        ENERGY CONTRIBUTION    RADIAL
 FREQ.      1888.25        C  8 --  C  9          +43.9% ( 97.7%)    96.6%
 T-DIPOLE    0.1454        C  3 --  C  8          +14.2% ( 55.6%)    54.5%
 TRAVEL      0.0550        C  4 --  C  9          +14.2% ( 55.6%)    54.4%
 RED. MASS   5.3831        C  8 --  H 24          +13.3% ( 53.7%)     3.7%
 EFF. MASS  11.7993        C  9 --  H 25          +13.3% ( 53.7%)     3.7%

 VIBRATION   60   60A       ATOM PAIR        ENERGY CONTRIBUTION    RADIAL
 FREQ.      2894.84        C  1 --  H 12          +96.3% ( 99.7%)   100.0%
 T-DIPOLE    0.2133        C  1 --  C  3           +1.0% ( 10.3%)     9.3%
 TRAVEL      0.1273        C  1 --  C  6           +1.0% ( 10.1%)    10.7%
 RED. MASS   0.9185        C  1 --  C  7           +1.0% ( 10.1%)    10.6%
 EFF. MASS   1.4363

 VIBRATION   61   61A       ATOM PAIR        ENERGY CONTRIBUTION    RADIAL
 FREQ.      2942.96        C  4 --  H 18          +48.1% ( 72.1%)    96.6%
 T-DIPOLE    0.0154        C  4 --  H 17          +45.2% ( 69.9%)    96.4%
 TRAVEL      0.1217        C  2 --  H 13           +2.9% ( 17.7%)    97.9%
 RED. MASS   0.4758        C  2 --  H 14           +1.2% ( 11.4%)    92.9%
 EFF. MASS   1.5471

 VIBRATION   62   62A       ATOM PAIR        ENERGY CONTRIBUTION    RADIAL
 FREQ.      2946.63        C  3 --  H 16          +51.1% ( 74.2%)    96.8%
 T-DIPOLE    0.0625        C  3 --  H 15          +45.8% ( 70.3%)    96.1%
 TRAVEL      0.1217        C  3 --  C  8           +1.2% ( 11.2%)     0.4%
 RED. MASS   0.5122        C  1 --  C  3           +1.1% ( 11.1%)     0.1%
 EFF. MASS   1.5460

 VIBRATION   63   63A       ATOM PAIR        ENERGY CONTRIBUTION    RADIAL
 FREQ.      2954.97        C  2 --  H 13          +47.6% ( 71.6%)    96.7%
 T-DIPOLE    0.0250        C  2 --  H 14          +45.6% ( 70.1%)    96.4%
 TRAVEL      0.1216        C  4 --  H 18           +3.3% ( 18.8%)    98.7%
 RED. MASS   0.4727        C  2 --  C  4           +1.1% ( 11.1%)     0.1%
 EFF. MASS   1.5423

 VIBRATION   64   64A       ATOM PAIR        ENERGY CONTRIBUTION    RADIAL
 FREQ.      3020.49        C  4 --  H 17          +49.7% ( 69.5%)    98.0%
 T-DIPOLE    0.0457        C  4 --  H 18          +44.2% ( 65.6%)    97.4%
 TRAVEL      0.1320        C  2 --  H 13           +1.8% ( 13.2%)    99.5%
 RED. MASS   0.4416        C  9 --  H 25           +1.4% ( 11.5%)    99.7%
 EFF. MASS   1.2818

 VIBRATION   65   65A       ATOM PAIR        ENERGY CONTRIBUTION    RADIAL
 FREQ.      3021.92        C  3 --  H 15          +51.5% ( 70.7%)    98.0%
 T-DIPOLE    0.0733        C  3 --  H 16          +44.8% ( 66.0%)    97.3%
 TRAVEL      0.1321        C  8 --  H 24           +1.0% (  9.9%)    99.7%
 RED. MASS   0.4634        C  3 --  C  8           +0.6% (  7.9%)    31.2%
 EFF. MASS   1.2783

 VIBRATION   66   66A       ATOM PAIR        ENERGY CONTRIBUTION    RADIAL
 FREQ.      3033.18        C  9 --  H 25          +51.7% ( 72.3%)   100.0%
 T-DIPOLE    0.3260        C  8 --  H 24          +29.7% ( 54.8%)   100.0%
 TRAVEL      0.1257        C  2 --  H 14           +8.7% ( 29.7%)    98.0%
 RED. MASS   0.3531        C  2 --  H 13           +7.7% ( 27.8%)    97.2%
 EFF. MASS   1.4077

 VIBRATION   67   67A       ATOM PAIR        ENERGY CONTRIBUTION    RADIAL
 FREQ.      3034.59        C  8 --  H 24          +54.3% ( 73.9%)   100.0%
 T-DIPOLE    0.1352        C  2 --  H 14          +19.8% ( 44.7%)    97.9%
 TRAVEL      0.1244        C  2 --  H 13          +18.2% ( 42.8%)    97.4%
 RED. MASS   0.3574        C  9 --  H 25           +3.7% ( 19.4%)    99.7%
 EFF. MASS   1.4361

 VIBRATION   68   68A       ATOM PAIR        ENERGY CONTRIBUTION    RADIAL
 FREQ.      3036.18        C  9 --  H 25          +41.7% ( 64.8%)   100.0%
 T-DIPOLE    0.0576        C  2 --  H 14          +20.4% ( 45.3%)    98.1%
 TRAVEL      0.1240        C  2 --  H 13          +17.8% ( 42.3%)    97.3%
 RED. MASS   0.2608        C  8 --  H 24          +13.5% ( 36.8%)    99.9%
 EFF. MASS   1.4450

 VIBRATION   69   69A       ATOM PAIR        ENERGY CONTRIBUTION    RADIAL
 FREQ.      3077.58        C  5 --  H 19          +52.1% ( 74.5%)    97.5%
 T-DIPOLE    0.0190        C  5 --  H 20          +45.6% ( 69.7%)    96.6%
 TRAVEL      0.1208        C  5 --  H 21           +1.0% ( 10.3%)     1.9%
 RED. MASS   0.5077        C  2 --  C  5           +1.0% ( 10.2%)     0.0%
 EFF. MASS   1.5018

 VIBRATION   70   70A       ATOM PAIR        ENERGY CONTRIBUTION    RADIAL
 FREQ.      3084.93        C  5 --  H 21          +61.7% ( 81.0%)    98.8%
 T-DIPOLE    0.0071        C  5 --  H 20          +20.8% ( 47.0%)    87.7%
 TRAVEL      0.1206        C  5 --  H 19          +15.9% ( 41.2%)    83.4%
 RED. MASS   0.4775        C  2 --  C  5           +1.0% ( 10.3%)     0.0%
 EFF. MASS   1.5038

 VIBRATION   71   71A       ATOM PAIR        ENERGY CONTRIBUTION    RADIAL
 FREQ.      3130.64        C 11 --  H 27          +44.0% ( 67.9%)   100.0%
 T-DIPOLE    0.2421        C  7 --  H 23          +36.4% ( 61.8%)   100.0%
 TRAVEL      0.1207        C 10 --  H 26          +11.1% ( 34.1%)   100.0%
 RED. MASS   0.3450        C  6 --  H 22           +4.3% ( 21.2%)   100.0%
 EFF. MASS   1.4785

 VIBRATION   72   72A       ATOM PAIR        ENERGY CONTRIBUTION    RADIAL
 FREQ.      3132.97        C 10 --  H 26          +47.7% ( 70.7%)   100.0%
 T-DIPOLE    0.4633        C  6 --  H 22          +32.0% ( 57.9%)   100.0%
 TRAVEL      0.1208        C  7 --  H 23          +11.6% ( 34.8%)   100.0%
 RED. MASS   0.3500        C 11 --  H 27           +4.5% ( 21.8%)    99.9%
 EFF. MASS   1.4741

 VIBRATION   73   73A       ATOM PAIR        ENERGY CONTRIBUTION    RADIAL
 FREQ.      3144.27        C  7 --  H 23          +29.8% ( 56.1%)    99.9%
 T-DIPOLE    0.5391        C  6 --  H 22          +28.8% ( 55.2%)   100.0%
 TRAVEL      0.1158        C 11 --  H 27          +25.1% ( 51.5%)    99.9%
 RED. MASS   0.2583        C 10 --  H 26          +10.5% ( 33.3%)    99.8%
 EFF. MASS   1.6003

 VIBRATION   74   74A       ATOM PAIR        ENERGY CONTRIBUTION    RADIAL
 FREQ.      3154.64        C  6 --  H 22          +29.6% ( 56.0%)    99.9%
 T-DIPOLE    0.2413        C 10 --  H 26          +25.6% ( 52.1%)   100.0%
 TRAVEL      0.1121        C 11 --  H 27          +21.1% ( 47.4%)   100.0%
 RED. MASS   0.2442        C  7 --  H 23          +17.0% ( 42.4%)    99.9%
 EFF. MASS   1.7006

 VIBRATION   75   75A       ATOM PAIR        ENERGY CONTRIBUTION    RADIAL
 FREQ.      3179.81        C  5 --  H 21          +36.5% ( 58.1%)    97.6%
 T-DIPOLE    0.0149        C  5 --  H 20          +32.6% ( 54.9%)    97.0%
 TRAVEL      0.1366        C  5 --  H 19          +30.6% ( 53.2%)    96.6%
 RED. MASS   0.3285        C  2 --  C  5           +0.3% (  5.1%)    99.6%
 EFF. MASS   1.1364

 SYMMETRY NUMBER FOR POINT-GROUP C1  =  1


          SYSTEM IS A GROUND STATE


    NULL



          MOLECULE IS NOT LINEAR

          THERE ARE 75 GENUINE VIBRATIONS IN THIS SYSTEM
          THIS THERMODYNAMICS CALCULATION IS LIMITED TO
          MOLECULES WHICH HAVE NO INTERNAL ROTATIONS




                    CALCULATED THERMODYNAMIC PROPERTIES
                                          *
   TEMP. (K)   PARTITION FUNCTION   H.O.F.    ENTHALPY  HEAT CAPACITY ENTROPY
                                   KCAL/MOL   CAL/MOLE    CAL/K/MOL  CAL/K/MOL


 298.00  VIB.     0.1112D+05                  5570.1086    37.6273    37.2047
         ROT.     0.1301D+07                   888.2813     2.9808    30.9581
         INT.     0.1446D+11                  6458.3899    40.6081    68.1629
         TRA.     0.1745D+28                  1480.4688     4.9680    40.8894
         TOT.                       26.856    7938.8587    45.5762   109.0522

 200.00  VIB.     0.4937D+03                  2571.7612    24.0898    25.1832
         ROT.     0.7154D+06                   596.1620     2.9808    29.7695
         INT.     0.3532D+09                  3167.9231    27.0706    54.9527
         TRA.     0.9595D+27                   993.6033     4.9680    38.9082
         TOT.                       23.079    4161.5264    32.0386    93.8609

 210.00  VIB.     0.6816D+03                  2818.7031    25.3061    26.3878
         ROT.     0.7697D+06                   625.9700     2.9808    29.9149
         INT.     0.5246D+09                  3444.6731    28.2869    56.3027
         TRA.     0.1032D+28                  1043.2834     4.9680    39.1506
         TOT.                       23.405    4487.9565    33.2550    95.4533

 220.00  VIB.     0.9394D+03                  3078.0336    26.5674    27.5940
         ROT.     0.8253D+06                   655.7781     2.9808    30.0536
         INT.     0.7753D+09                  3733.8118    29.5482    57.6475
         TRA.     0.1107D+28                  1092.9636     4.9680    39.3817
         TOT.                       23.744    4826.7754    34.5162    97.0293

 230.00  VIB.     0.1293D+04                  3350.1964    27.8722    28.8036
         ROT.     0.8822D+06                   685.5862     2.9808    30.1861
         INT.     0.1141D+10                  4035.7827    30.8530    58.9896
         TRA.     0.1183D+28                  1142.6437     4.9680    39.6026
         TOT.                       24.096    5178.4264    35.8211    98.5922

 240.00  VIB.     0.1777D+04                  3635.6150    29.2181    30.0181
         ROT.     0.9404D+06                   715.3943     2.9808    30.3129
         INT.     0.1671D+10                  4351.0093    32.1989    60.3310
         TRA.     0.1261D+28                  1192.3239     4.9680    39.8140
         TOT.                       24.460    5543.3332    37.1669   100.1450

 250.00  VIB.     0.2440D+04                  3934.6829    30.6015    31.2387
         ROT.     0.9998D+06                   745.2024     2.9808    30.4346
         INT.     0.2440D+10                  4679.8853    33.5823    61.6734
         TRA.     0.1341D+28                  1242.0041     4.9680    40.0168
         TOT.                       24.839    5921.8894    38.5503   101.6902

 260.00  VIB.     0.3349D+04                  4247.7561    32.0184    32.4665
         ROT.     0.1060D+07                   775.0105     2.9808    30.5515
         INT.     0.3551D+10                  5022.7666    34.9992    63.0180
         TRA.     0.1422D+28                  1291.6842     4.9680    40.2117
         TOT.                       25.232    6314.4508    39.9672   103.2296

 270.00  VIB.     0.4593D+04                  4575.1476    33.4644    33.7019
         ROT.     0.1122D+07                   804.8186     2.9808    30.6640
         INT.     0.5154D+10                  5379.9663    36.4452    64.3659
         TRA.     0.1505D+28                  1341.3644     4.9680    40.3992
         TOT.                       25.638    6721.3307    41.4132   104.7651

 280.00  VIB.     0.6299D+04                  4917.1246    34.9347    34.9454
         ROT.     0.1185D+07                   834.6267     2.9808    30.7724
         INT.     0.7464D+10                  5751.7514    37.9155    65.7178
         TRA.     0.1589D+28                  1391.0445     4.9680    40.5798
         TOT.                       26.060    7142.7959    42.8835   106.2977

 290.00  VIB.     0.8636D+04                  5273.9065    36.4246    36.1972
         ROT.     0.1249D+07                   864.4348     2.9808    30.8770
         INT.     0.1079D+11                  6138.3414    39.4054    67.0743
         TRA.     0.1675D+28                  1440.7247     4.9680    40.7542
         TOT.                       26.496    7579.0661    44.3734   107.8284

 300.00  VIB.     0.1184D+05                  5645.6651    37.9292    37.4574
         ROT.     0.1314D+07                   894.2429     2.9808    30.9781
         INT.     0.1556D+11                  6539.9080    40.9100    68.4355
         TRA.     0.1763D+28                  1490.4049     4.9680    40.9226
         TOT.                       26.947    8030.3129    45.8781   109.3581

 310.00  VIB.     0.1624D+05                  6032.5254    39.4442    38.7258
         ROT.     0.1380D+07                   924.0510     2.9808    31.0758
         INT.     0.2241D+11                  6956.5765    42.4250    69.8016
         TRA.     0.1851D+28                  1540.0850     4.9680    41.0855
         TOT.                       27.414    8496.6615    47.3930   110.8871

 320.00  VIB.     0.2227D+05                  6434.5681    40.9650    40.0021
         ROT.     0.1448D+07                   953.8591     2.9808    31.1705
         INT.     0.3225D+11                  7388.4272    43.9458    71.1726
         TRA.     0.1942D+28                  1589.7652     4.9680    41.2432
         TOT.                       27.895    8978.1924    48.9138   112.4158

 330.00  VIB.     0.3056D+05                  6851.8312    42.4876    41.2860
         ROT.     0.1516D+07                   983.6672     2.9808    31.2622
         INT.     0.4634D+11                  7835.4985    45.4684    72.5481
         TRA.     0.2034D+28                  1639.4454     4.9680    41.3961
         TOT.                       28.392    9474.9438    50.4365   113.9442

 340.00  VIB.     0.4195D+05                  7284.3141    44.0083    42.5769
         ROT.     0.1586D+07                  1013.4753     2.9808    31.3512
         INT.     0.6652D+11                  8297.7894    46.9891    73.9281
         TRA.     0.2127D+28                  1689.1255     4.9680    41.5444
         TOT.                       28.904    9986.9150    51.9572   115.4725

 350.00  VIB.     0.5762D+05                  7731.9799    45.5237    43.8745
         ROT.     0.1656D+07                  1043.2834     2.9808    31.4376
         INT.     0.9543D+11                  8775.2634    48.5045    75.3121
         TRA.     0.2221D+28                  1738.8057     4.9680    41.6884
         TOT.                       29.431   10514.0690    53.4725   117.0005

 360.00  VIB.     0.7919D+05                  8194.7595    47.0306    45.1781
         ROT.     0.1728D+07                  1073.0915     2.9808    31.5216
         INT.     0.1368D+12                  9267.8510    50.0114    76.6996
         TRA.     0.2317D+28                  1788.4859     4.9680    41.8284
         TOT.                       29.973   11056.3369    54.9794   118.5280

 370.00  VIB.     0.1089D+06                  8672.5547    48.5264    46.4871
         ROT.     0.1800D+07                  1102.8996     2.9808    31.6032
         INT.     0.1960D+12                  9775.4543    51.5072    78.0903
         TRA.     0.2414D+28                  1838.1660     4.9680    41.9645
         TOT.                       30.531   11613.6203    56.4752   120.0548

 380.00  VIB.     0.1498D+06                  9165.2415    50.0086    47.8009
         ROT.     0.1874D+07                  1132.7077     2.9808    31.6827
         INT.     0.2807D+12                 10297.9492    52.9894    79.4836
         TRA.     0.2513D+28                  1887.8462     4.9680    42.0970
         TOT.                       31.103   12185.7953    57.9574   121.5806

 390.00  VIB.     0.2063D+06                  9672.6738    51.4751    49.1189
         ROT.     0.1948D+07                  1162.5158     2.9808    31.7601
         INT.     0.4018D+12                 10835.1896    54.4559    80.8791
         TRA.     0.2613D+28                  1937.5263     4.9680    42.2260
         TOT.                       31.690   12772.7159    59.4240   123.1051

 400.00  VIB.     0.2841D+06                 10194.6862    52.9243    50.4405
         ROT.     0.2023D+07                  1192.3239     2.9808    31.8356
         INT.     0.5749D+12                 11387.0101    55.9051    82.2761
         TRA.     0.2714D+28                  1987.2065     4.9680    42.3518
         TOT.                       32.291   13374.2166    60.8731   124.6279

   *: NOTE: HEATS OF FORMATION ARE RELATIVE TO THE
            ELEMENTS IN THEIR STANDARD STATE AT 298K
              (=  Standard Enthalpy of Formation).

            Hvib:  Zero-point energy is not included.
                   frequencies of less than zero cm-1 are not included.
            Hrot = (3/2)RT
            Htra = (3/2)RT + pV = (5/2)RT

            Heat capacity is Cp, not Cv

           For more information, see: HTTP://OpenMOPAC.net/Manual/thermochemistry.html


           FORCE CONSTANT IN CARTESIAN COORDINATES (Millidynes/A)

    ATOM   CHEMICAL       X               Y               Z
   NUMBER   SYMBOL  FORCE CONSTANT  FORCE CONSTANT  FORCE CONSTANT

      1       C        9.835488        7.840594        7.855640
      2       C        8.371738        8.279346        8.172170
      3       C        8.813776        7.968067        8.538670
      4       C        8.693663        8.183142        8.442834
      5       C        8.294549        8.316553        8.276760
      6       C       11.505673        2.797537       12.465242
      7       C       13.980744        2.751458       10.019327
      8       C       14.518620        3.711919        8.954878
      9       C       14.499510        3.607156        9.055678
     10       C       15.024622        2.530475        9.891517
     11       C       14.707284        2.530795       10.204008
     12       H        1.505905        3.481647        0.908261
     13       H        0.780156        1.904631        3.732548
     14       H        3.997815        0.730944        1.682167
     15       H        1.368254        3.307637        1.609782
     16       H        0.917318        0.961766        4.501995
     17       H        0.901600        2.078111        3.410923
     18       H        1.302221        3.886524        1.081464
     19       H        4.306423        0.713402        1.731820
     20       H        0.713503        2.144256        3.921737
     21       H        2.876127        1.574005        2.343455
     22       H        0.756458        0.543844        5.159189
     23       H        1.947192        0.498105        4.006604
     24       H        0.830307        1.110526        4.268654
     25       H        0.835681        1.077357        4.303534
     26       H        4.793317        0.417271        1.248124
     27       H        2.987609        0.427896        3.041300



 TOTAL CPU TIME:             6.67 SECONDS

 == MOPAC DONE ==
