 *******************************************************************************
 ** Site#: 14399           For non-commercial use only        Version 13.159M **
 *******************************************************************************
 ** Cite this work as: MOPAC2012, James J. P. Stewart, Stewart Computational  **
 ** Chemistry, Version 13.159M web: HTTP://OpenMOPAC.net  Days remaining:   6 **
 *******************************************************************************
 **                                                                           **
 **                                MOPAC2012                                  **
 **                                                                           **
 *******************************************************************************

                            PM3 CALCULATION RESULTS


 *******************************************************************************
 *  CALCULATION DONE:                                Mon Jun  2 11:07:52 2014  *
 *  PM3      - The PM3 Hamiltonian to be used
 *  PRECISE  - CRITERIA TO BE INCREASED BY 100 TIMES
 *  NOSYM    - POINT-GROUP SYMMETRY SET TO C1
 *  T=       - A TIME OF 172800.0 SECONDS REQUESTED
 *  DUMP=N   - RESTART FILE WRITTEN EVERY  7200.000 SECONDS
 *******************************************************************************
pm3  precise nosym
 InChI=1S/C10H16/c1-4-6-9-7-8(3)10(9)5-2/h4-5,8-10H,1-2,6-7H2,3H3

   ATOM   CHEMICAL          X               Y               Z
  NUMBER   SYMBOL      (ANGSTROMS)     (ANGSTROMS)     (ANGSTROMS)
 
     1       C          0.39690000  *  -0.99650000  *   0.25840000  *
     2       C         -1.71600000  *  -0.68840000  *  -0.01690000  *
     3       C         -0.55410000  *   0.20420000  *   0.29460000  *
     4       C         -0.77240000  *  -1.84640000  *  -0.33450000  *
     5       C          1.61490000  *  -0.85080000  *  -0.65990000  *
     6       C         -2.59410000  *  -0.23870000  *  -1.18500000  *
     7       C         -0.62440000  *   0.87600000  *   1.64210000  *
     8       C          2.62020000  *   0.09270000  *  -0.06300000  *
     9       C         -0.42260000  *   2.18630000  *   1.79730000  *
    10       C          2.97820000  *   1.23420000  *  -0.65550000  *
    11       H          0.68050000  *  -1.38860000  *   1.26620000  *
    12       H         -2.34890000  *  -0.93570000  *   0.87040000  *
    13       H         -0.33940000  *   0.92830000  *  -0.53080000  *
    14       H         -0.98680000  *  -2.76540000  *   0.25890000  *
    15       H         -0.66280000  *  -2.06430000  *  -1.42380000  *
    16       H          2.10240000  *  -1.84570000  *  -0.77330000  *
    17       H          1.30090000  *  -0.53430000  *  -1.68310000  *
    18       H         -3.14830000  *   0.68530000  *  -0.90400000  *
    19       H         -1.99890000  *  -0.02730000  *  -2.10320000  *
    20       H         -3.33780000  *  -1.03170000  *  -1.42550000  *
    21       H         -0.83900000  *   0.27450000  *   2.52520000  *
    22       H          3.06690000  *  -0.16290000  *   0.89710000  *
    23       H          3.70640000  *   1.88910000  *  -0.18100000  *
    24       H          2.55420000  *   1.53940000  *  -1.61070000  *
    25       H         -0.47780000  *   2.63240000  *   2.78850000  *
    26       H         -0.19830000  *   2.83410000  *   0.95150000  *
 


          CARTESIAN COORDINATES 

    NO.       ATOM         X         Y         Z

     1         C        0.3969   -0.9965    0.2584
     2         C       -1.7160   -0.6884   -0.0169
     3         C       -0.5541    0.2042    0.2946
     4         C       -0.7724   -1.8464   -0.3345
     5         C        1.6149   -0.8508   -0.6599
     6         C       -2.5941   -0.2387   -1.1850
     7         C       -0.6244    0.8760    1.6421
     8         C        2.6202    0.0927   -0.0630
     9         C       -0.4226    2.1863    1.7973
    10         C        2.9782    1.2342   -0.6555
    11         H        0.6805   -1.3886    1.2662
    12         H       -2.3489   -0.9357    0.8704
    13         H       -0.3394    0.9283   -0.5308
    14         H       -0.9868   -2.7654    0.2589
    15         H       -0.6628   -2.0643   -1.4238
    16         H        2.1024   -1.8457   -0.7733
    17         H        1.3009   -0.5343   -1.6831
    18         H       -3.1483    0.6853   -0.9040
    19         H       -1.9989   -0.0273   -2.1032
    20         H       -3.3378   -1.0317   -1.4255
    21         H       -0.8390    0.2745    2.5252
    22         H        3.0669   -0.1629    0.8971
    23         H        3.7064    1.8891   -0.1810
    24         H        2.5542    1.5394   -1.6107
    25         H       -0.4778    2.6324    2.7885
    26         H       -0.1983    2.8341    0.9515

  H: (PM3): J. J. P. STEWART, J. COMP. CHEM. 10, 209 (1989).
  C: (PM3): J. J. P. STEWART, J. COMP. CHEM. 10, 209 (1989).

           Empirical Formula: C10 H16  =    26 atoms



      MOLECULAR POINT GROUP   :   C1  


      RHF CALCULATION, NO. OF DOUBLY OCCUPIED LEVELS =   28

      Geometry optimization using EF

          DIAGONAL MATRIX USED AS START HESSIAN

 CYCLE:     1 TIME:   0.014 TIME LEFT:  2.00D  GRAD.:   108.833 HEAT: 26.92770
 CYCLE:     2 TIME:   0.019 TIME LEFT:  2.00D  GRAD.:   118.396 HEAT: 25.99654
 CYCLE:     3 TIME:   0.016 TIME LEFT:  2.00D  GRAD.:    55.352 HEAT: 23.61539
 CYCLE:     4 TIME:   0.019 TIME LEFT:  2.00D  GRAD.:    43.171 HEAT: 23.10293
 CYCLE:     5 TIME:   0.010 TIME LEFT:  2.00D  GRAD.:    41.921 HEAT: 22.89711
 CYCLE:     6 TIME:   0.009 TIME LEFT:  2.00D  GRAD.:    31.602 HEAT: 22.53034
 CYCLE:     7 TIME:   0.009 TIME LEFT:  2.00D  GRAD.:    31.409 HEAT: 22.46199
 CYCLE:     8 TIME:   0.009 TIME LEFT:  2.00D  GRAD.:    31.918 HEAT: 22.33609
 CYCLE:     9 TIME:   0.016 TIME LEFT:  2.00D  GRAD.:    11.645 HEAT: 22.08382
 CYCLE:    10 TIME:   0.016 TIME LEFT:  2.00D  GRAD.:    18.108 HEAT: 22.08216
 CYCLE:    11 TIME:   0.009 TIME LEFT:  2.00D  GRAD.:    15.917 HEAT: 22.05150
 CYCLE:    12 TIME:   0.009 TIME LEFT:  2.00D  GRAD.:    10.032 HEAT: 22.00980
 CYCLE:    13 TIME:   0.009 TIME LEFT:  2.00D  GRAD.:    12.008 HEAT: 22.00417
 CYCLE:    14 TIME:   0.009 TIME LEFT:  2.00D  GRAD.:    11.240 HEAT: 21.98141
 CYCLE:    15 TIME:   0.016 TIME LEFT:  2.00D  GRAD.:     5.603 HEAT: 21.95405
 CYCLE:    16 TIME:   0.016 TIME LEFT:  2.00D  GRAD.:     4.174 HEAT: 21.94496
 CYCLE:    17 TIME:   0.008 TIME LEFT:  2.00D  GRAD.:     3.115 HEAT: 21.93293
 CYCLE:    18 TIME:   0.009 TIME LEFT:  2.00D  GRAD.:     5.499 HEAT: 21.92254
 CYCLE:    19 TIME:   0.009 TIME LEFT:  2.00D  GRAD.:     4.534 HEAT: 21.90322
 CYCLE:    20 TIME:   0.009 TIME LEFT:  2.00D  GRAD.:     9.534 HEAT: 21.89814
 CYCLE:    21 TIME:   0.009 TIME LEFT:  2.00D  GRAD.:    11.459 HEAT: 21.89699
 CYCLE:    22 TIME:   0.016 TIME LEFT:  2.00D  GRAD.:     8.482 HEAT: 21.87497
 CYCLE:    23 TIME:   0.015 TIME LEFT:  2.00D  GRAD.:     3.825 HEAT: 21.85641
 CYCLE:    24 TIME:   0.009 TIME LEFT:  2.00D  GRAD.:     6.264 HEAT: 21.85414
 CYCLE:    25 TIME:   0.009 TIME LEFT:  2.00D  GRAD.:     3.947 HEAT: 21.84130
 CYCLE:    26 TIME:   0.009 TIME LEFT:  2.00D  GRAD.:     8.152 HEAT: 21.83704
 CYCLE:    27 TIME:   0.008 TIME LEFT:  2.00D  GRAD.:     5.103 HEAT: 21.81200
 CYCLE:    28 TIME:   0.009 TIME LEFT:  2.00D  GRAD.:     9.917 HEAT: 21.80903
 CYCLE:    29 TIME:   0.009 TIME LEFT:  2.00D  GRAD.:     4.043 HEAT: 21.76934
 CYCLE:    30 TIME:   0.009 TIME LEFT:  2.00D  GRAD.:     6.549 HEAT: 21.75284
 CYCLE:    31 TIME:   0.009 TIME LEFT:  2.00D  GRAD.:     5.345 HEAT: 21.71446
 CYCLE:    32 TIME:   0.009 TIME LEFT:  2.00D  GRAD.:     7.782 HEAT: 21.67975
 CYCLE:    33 TIME:   0.009 TIME LEFT:  2.00D  GRAD.:     6.228 HEAT: 21.63880
 CYCLE:    34 TIME:   0.009 TIME LEFT:  2.00D  GRAD.:     6.852 HEAT: 21.61926
 CYCLE:    35 TIME:   0.008 TIME LEFT:  2.00D  GRAD.:     4.320 HEAT: 21.59149
 CYCLE:    36 TIME:   0.009 TIME LEFT:  2.00D  GRAD.:     7.043 HEAT: 21.54510
 CYCLE:    37 TIME:   0.009 TIME LEFT:  2.00D  GRAD.:     7.820 HEAT: 21.50124
 CYCLE:    38 TIME:   0.009 TIME LEFT:  2.00D  GRAD.:     8.453 HEAT: 21.46592
 CYCLE:    39 TIME:   0.009 TIME LEFT:  2.00D  GRAD.:     4.583 HEAT: 21.42739
 CYCLE:    40 TIME:   0.009 TIME LEFT:  2.00D  GRAD.:     4.302 HEAT: 21.40444
 CYCLE:    41 TIME:   0.009 TIME LEFT:  2.00D  GRAD.:     3.311 HEAT: 21.37674
 CYCLE:    42 TIME:   0.009 TIME LEFT:  2.00D  GRAD.:     2.704 HEAT: 21.35977
 CYCLE:    43 TIME:   0.009 TIME LEFT:  2.00D  GRAD.:     3.350 HEAT: 21.34807
 CYCLE:    44 TIME:   0.009 TIME LEFT:  2.00D  GRAD.:     3.080 HEAT: 21.33219
 CYCLE:    45 TIME:   0.009 TIME LEFT:  2.00D  GRAD.:     2.816 HEAT: 21.31671
 CYCLE:    46 TIME:   0.008 TIME LEFT:  2.00D  GRAD.:     2.379 HEAT: 21.31069
 CYCLE:    47 TIME:   0.009 TIME LEFT:  2.00D  GRAD.:     1.826 HEAT: 21.30490
 CYCLE:    48 TIME:   0.009 TIME LEFT:  2.00D  GRAD.:     3.132 HEAT: 21.29186
 CYCLE:    49 TIME:   0.009 TIME LEFT:  2.00D  GRAD.:     2.005 HEAT: 21.28551
 CYCLE:    50 TIME:   0.009 TIME LEFT:  2.00D  GRAD.:     1.485 HEAT: 21.27854
 CYCLE:    51 TIME:   0.009 TIME LEFT:  2.00D  GRAD.:     1.746 HEAT: 21.27199
 CYCLE:    52 TIME:   0.009 TIME LEFT:  2.00D  GRAD.:     1.820 HEAT: 21.26647
 CYCLE:    53 TIME:   0.009 TIME LEFT:  2.00D  GRAD.:     1.566 HEAT: 21.26074
 CYCLE:    54 TIME:   0.009 TIME LEFT:  2.00D  GRAD.:     1.325 HEAT: 21.25663
 CYCLE:    55 TIME:   0.009 TIME LEFT:  2.00D  GRAD.:     1.293 HEAT: 21.25325
 CYCLE:    56 TIME:   0.009 TIME LEFT:  2.00D  GRAD.:     1.184 HEAT: 21.25026
 CYCLE:    57 TIME:   0.009 TIME LEFT:  2.00D  GRAD.:     1.072 HEAT: 21.24778
 CYCLE:    58 TIME:   0.009 TIME LEFT:  2.00D  GRAD.:     1.016 HEAT: 21.24506
 CYCLE:    59 TIME:   0.009 TIME LEFT:  2.00D  GRAD.:     1.005 HEAT: 21.24282
 CYCLE:    60 TIME:   0.009 TIME LEFT:  2.00D  GRAD.:     0.907 HEAT: 21.24068
 CYCLE:    61 TIME:   0.009 TIME LEFT:  2.00D  GRAD.:     0.871 HEAT: 21.23869
 CYCLE:    62 TIME:   0.009 TIME LEFT:  2.00D  GRAD.:     0.882 HEAT: 21.23679
 CYCLE:    63 TIME:   0.009 TIME LEFT:  2.00D  GRAD.:     0.862 HEAT: 21.23502
 CYCLE:    64 TIME:   0.009 TIME LEFT:  2.00D  GRAD.:     0.780 HEAT: 21.23329
 CYCLE:    65 TIME:   0.009 TIME LEFT:  2.00D  GRAD.:     0.648 HEAT: 21.23181
 CYCLE:    66 TIME:   0.009 TIME LEFT:  2.00D  GRAD.:     0.549 HEAT: 21.23066
 CYCLE:    67 TIME:   0.009 TIME LEFT:  2.00D  GRAD.:     0.472 HEAT: 21.22988
 CYCLE:    68 TIME:   0.009 TIME LEFT:  2.00D  GRAD.:     0.389 HEAT: 21.22939
 CYCLE:    69 TIME:   0.009 TIME LEFT:  2.00D  GRAD.:     0.347 HEAT: 21.22904
 CYCLE:    70 TIME:   0.009 TIME LEFT:  2.00D  GRAD.:     0.357 HEAT: 21.22871
 CYCLE:    71 TIME:   0.009 TIME LEFT:  2.00D  GRAD.:     0.394 HEAT: 21.22836
 CYCLE:    72 TIME:   0.009 TIME LEFT:  2.00D  GRAD.:     0.433 HEAT: 21.22794
 CYCLE:    73 TIME:   0.009 TIME LEFT:  2.00D  GRAD.:     0.482 HEAT: 21.22743
 CYCLE:    74 TIME:   0.009 TIME LEFT:  2.00D  GRAD.:     0.610 HEAT: 21.22659
 CYCLE:    75 TIME:   0.009 TIME LEFT:  2.00D  GRAD.:     0.793 HEAT: 21.22542
 CYCLE:    76 TIME:   0.009 TIME LEFT:  2.00D  GRAD.:     1.123 HEAT: 21.22301
 CYCLE:    77 TIME:   0.009 TIME LEFT:  2.00D  GRAD.:     1.108 HEAT: 21.22099
 CYCLE:    78 TIME:   0.009 TIME LEFT:  2.00D  GRAD.:     1.553 HEAT: 21.21660
 CYCLE:    79 TIME:   0.009 TIME LEFT:  2.00D  GRAD.:     1.226 HEAT: 21.21451
 CYCLE:    80 TIME:   0.009 TIME LEFT:  2.00D  GRAD.:     0.997 HEAT: 21.20952
 CYCLE:    81 TIME:   0.009 TIME LEFT:  2.00D  GRAD.:     0.971 HEAT: 21.20597
 CYCLE:    82 TIME:   0.009 TIME LEFT:  2.00D  GRAD.:     1.176 HEAT: 21.20409
 CYCLE:    83 TIME:   0.009 TIME LEFT:  2.00D  GRAD.:     0.981 HEAT: 21.20201
 CYCLE:    84 TIME:   0.009 TIME LEFT:  2.00D  GRAD.:     0.751 HEAT: 21.20057
 CYCLE:    85 TIME:   0.009 TIME LEFT:  2.00D  GRAD.:     0.522 HEAT: 21.19953
 CYCLE:    86 TIME:   0.009 TIME LEFT:  2.00D  GRAD.:     0.365 HEAT: 21.19924
 CYCLE:    87 TIME:   0.009 TIME LEFT:  2.00D  GRAD.:     0.904 HEAT: 21.19975
 CYCLE:    88 TIME:   0.009 TIME LEFT:  2.00D  GRAD.:     0.390 HEAT: 21.19890
 CYCLE:    89 TIME:   0.009 TIME LEFT:  2.00D  GRAD.:     0.181 HEAT: 21.19883
 CYCLE:    90 TIME:   0.008 TIME LEFT:  2.00D  GRAD.:     0.129 HEAT: 21.19879
 CYCLE:    91 TIME:   0.008 TIME LEFT:  2.00D  GRAD.:     0.127 HEAT: 21.19870
 CYCLE:    92 TIME:   0.008 TIME LEFT:  2.00D  GRAD.:     0.126 HEAT: 21.19866
 CYCLE:    93 TIME:   0.009 TIME LEFT:  2.00D  GRAD.:     0.126 HEAT: 21.19863
 CYCLE:    94 TIME:   0.008 TIME LEFT:  2.00D  GRAD.:     0.122 HEAT: 21.19860
 CYCLE:    95 TIME:   0.008 TIME LEFT:  2.00D  GRAD.:     0.131 HEAT: 21.19857
 CYCLE:    96 TIME:   0.008 TIME LEFT:  2.00D  GRAD.:     0.155 HEAT: 21.19852
 CYCLE:    97 TIME:   0.008 TIME LEFT:  2.00D  GRAD.:     0.161 HEAT: 21.19845
 CYCLE:    98 TIME:   0.009 TIME LEFT:  2.00D  GRAD.:     0.187 HEAT: 21.19833
 CYCLE:    99 TIME:   0.008 TIME LEFT:  2.00D  GRAD.:     0.152 HEAT: 21.19829
 CYCLE:   100 TIME:   0.009 TIME LEFT:  2.00D  GRAD.:     0.179 HEAT: 21.19815
 CYCLE:   101 TIME:   0.008 TIME LEFT:  2.00D  GRAD.:     0.189 HEAT: 21.19808
 CYCLE:   102 TIME:   0.009 TIME LEFT:  2.00D  GRAD.:     0.173 HEAT: 21.19789
 CYCLE:   103 TIME:   0.008 TIME LEFT:  2.00D  GRAD.:     0.182 HEAT: 21.19782
 CYCLE:   104 TIME:   0.009 TIME LEFT:  2.00D  GRAD.:     0.366 HEAT: 21.19761
 CYCLE:   105 TIME:   0.009 TIME LEFT:  2.00D  GRAD.:     0.260 HEAT: 21.19743
 CYCLE:   106 TIME:   0.009 TIME LEFT:  2.00D  GRAD.:     0.177 HEAT: 21.19717
 CYCLE:   107 TIME:   0.009 TIME LEFT:  2.00D  GRAD.:     0.183 HEAT: 21.19704
 CYCLE:   108 TIME:   0.009 TIME LEFT:  2.00D  GRAD.:     0.221 HEAT: 21.19677
 CYCLE:   109 TIME:   0.009 TIME LEFT:  2.00D  GRAD.:     0.209 HEAT: 21.19667
 CYCLE:   110 TIME:   0.009 TIME LEFT:  2.00D  GRAD.:     0.222 HEAT: 21.19644
 CYCLE:   111 TIME:   0.009 TIME LEFT:  2.00D  GRAD.:     0.231 HEAT: 21.19630
 CYCLE:   112 TIME:   0.009 TIME LEFT:  2.00D  GRAD.:     0.284 HEAT: 21.19593
 CYCLE:   113 TIME:   0.009 TIME LEFT:  2.00D  GRAD.:     0.252 HEAT: 21.19578
 CYCLE:   114 TIME:   0.009 TIME LEFT:  2.00D  GRAD.:     0.180 HEAT: 21.19550
 CYCLE:   115 TIME:   0.009 TIME LEFT:  2.00D  GRAD.:     0.143 HEAT: 21.19545
 CYCLE:   116 TIME:   0.008 TIME LEFT:  2.00D  GRAD.:     0.124 HEAT: 21.19539
 CYCLE:   117 TIME:   0.009 TIME LEFT:  2.00D  GRAD.:     0.111 HEAT: 21.19534
 CYCLE:   118 TIME:   0.009 TIME LEFT:  2.00D  GRAD.:     0.124 HEAT: 21.19528
 CYCLE:   119 TIME:   0.008 TIME LEFT:  2.00D  GRAD.:     0.111 HEAT: 21.19525
 CYCLE:   120 TIME:   0.009 TIME LEFT:  2.00D  GRAD.:     0.158 HEAT: 21.19518
 CYCLE:   121 TIME:   0.009 TIME LEFT:  2.00D  GRAD.:     0.132 HEAT: 21.19515
 CYCLE:   122 TIME:   0.009 TIME LEFT:  2.00D  GRAD.:     0.171 HEAT: 21.19507
 CYCLE:   123 TIME:   0.009 TIME LEFT:  2.00D  GRAD.:     0.181 HEAT: 21.19497
 CYCLE:   124 TIME:   0.009 TIME LEFT:  2.00D  GRAD.:     0.263 HEAT: 21.19464
 CYCLE:   125 TIME:   0.009 TIME LEFT:  2.00D  GRAD.:     0.229 HEAT: 21.19446
 CYCLE:   126 TIME:   0.009 TIME LEFT:  2.00D  GRAD.:     0.225 HEAT: 21.19416
 CYCLE:   127 TIME:   0.009 TIME LEFT:  2.00D  GRAD.:     0.237 HEAT: 21.19405
 CYCLE:   128 TIME:   0.009 TIME LEFT:  2.00D  GRAD.:     0.201 HEAT: 21.19377
 CYCLE:   129 TIME:   0.009 TIME LEFT:  2.00D  GRAD.:     0.137 HEAT: 21.19369
 CYCLE:   130 TIME:   0.009 TIME LEFT:  2.00D  GRAD.:     0.177 HEAT: 21.19362
 CYCLE:   131 TIME:   0.009 TIME LEFT:  2.00D  GRAD.:     0.111 HEAT: 21.19358
 CYCLE:   132 TIME:   0.009 TIME LEFT:  2.00D  GRAD.:     0.108 HEAT: 21.19354
 CYCLE:   133 TIME:   0.008 TIME LEFT:  2.00D  GRAD.:     0.059 HEAT: 21.19352
 CYCLE:   134 TIME:   0.008 TIME LEFT:  2.00D  GRAD.:     0.059 HEAT: 21.19352
 CYCLE:   135 TIME:   0.008 TIME LEFT:  2.00D  GRAD.:     0.034 HEAT: 21.19351

     RMS GRADIENT =  0.03406  IS LESS THAN CUTOFF =  0.05000



 -------------------------------------------------------------------------------
pm3  precise nosym
 InChI=1S/C10H16/c1-4-6-9-7-8(3)10(9)5-2/h4-5,8-10H,1-2,6-7H2,3H3



     GEOMETRY OPTIMISED USING EIGENVECTOR FOLLOWING (EF).     
     SCF FIELD WAS ACHIEVED                                   


                              PM3 CALCULATION
                                                       MOPAC2012 (Version: 13.159M)
                                                       Mon Jun  2 11:07:53 2014
                                                       No. of days left =   6




          FINAL HEAT OF FORMATION =         21.19351 KCAL/MOL =      88.67365 KJ/MOL


          TOTAL ENERGY            =      -1430.80798 EV
          ELECTRONIC ENERGY       =      -8237.71863 EV  POINT GROUP:     C1  
          CORE-CORE REPULSION     =       6806.91065 EV
          COSMO AREA              =        201.66 SQUARE ANGSTROMS
          COSMO VOLUME            =        213.39 CUBIC ANGSTROMS

          GRADIENT NORM           =          0.03406
          IONIZATION POTENTIAL    =          9.965894 EV
          HOMO LUMO ENERGIES (EV) =         -9.966  1.113
          NO. OF FILLED LEVELS    =         28
          MOLECULAR WEIGHT        =        136.236

          MOLECULAR DIMENSIONS (Angstroms)

            Atom       Atom       Distance
            H    23    H    20     7.66942
            H    23    H    20     7.47240
            H    24    H    14     3.92403


          SCF CALCULATIONS        =        145
          COMPUTATION TIME        =          1.266 SECONDS




   ATOM   CHEMICAL          X               Y               Z
  NUMBER   SYMBOL      (ANGSTROMS)     (ANGSTROMS)     (ANGSTROMS)
 
     1       C          0.40642092  *  -0.92388790  *   0.30733360  *
     2       C         -1.74778933  *  -0.65993439  *  -0.03953658  *
     3       C         -0.58219396  *   0.27686603  *   0.39562268  *
     4       C         -0.75146255  *  -1.83584446  *  -0.16176547  *
     5       C          1.52350431  *  -0.76905823  *  -0.70517461  *
     6       C         -2.42468937  *  -0.26512050  *  -1.32490515  *
     7       C         -0.73308790  *   0.83879168  *   1.76092294  *
     8       C          2.61542503  *   0.10525147  *  -0.19644053  *
     9       C         -0.59490534  *   2.13234994  *   2.02774186  *
    10       C          3.14625939  *   1.09180044  *  -0.90917270  *
    11       H          0.82091442  *  -1.21651769  *   1.29588393  *
    12       H         -2.50395484  *  -0.81143428  *   0.75975023  *
    13       H         -0.36515767  *   1.07523527  *  -0.34784045  *
    14       H         -0.96158119  *  -2.68767133  *   0.50143810  *
    15       H         -0.63742136  *  -2.23635167  *  -1.18193606  *
    16       H          1.95076362  *  -1.76756372  *  -0.93041040  *
    17       H          1.11952996  *  -0.39038251  *  -1.66702491  *
    18       H         -2.98998995  *   0.66770972  *  -1.20365269  *
    19       H         -1.70124430  *  -0.10868865  *  -2.13731694  *
    20       H         -3.12671849  *  -1.04139133  *  -1.65529934  *
    21       H         -0.96847411  *   0.11848025  *   2.55449166  *
    22       H          2.97271196  *  -0.11470837  *   0.81718079  *
    23       H          3.95294146  *   1.71497206  *  -0.53574644  *
    24       H          2.81645301  *   1.34704096  *  -1.91266134  *
    25       H         -0.70587503  *   2.53781322  *   3.02873490  *
    26       H         -0.36099382  *   2.87640081  *   1.27090888  *

           Empirical Formula: C10 H16  =    26 atoms



      MOLECULAR POINT GROUP   :   C1  


                  EIGENVALUES  
 -41.85545 -35.07872 -32.78265 -29.96072 -26.15625 -24.85918 -21.05202 -20.24742
 -19.61817 -18.72656 -16.99435 -16.38646 -15.67313 -15.24913 -14.96044 -14.83575
 -14.33843 -13.64547 -13.32590 -12.99335 -12.40251 -12.19302 -12.14167 -11.61875
 -11.41817 -11.30086 -10.24712  -9.96589   1.11325   1.18461   3.17108   3.26650
   3.49271   3.60869   3.64510   3.74983   3.89657   3.93939   3.95999   4.02799
   4.07213   4.10290   4.24285   4.30206   4.38945   4.47914   4.59432   4.71990
   4.82684   4.85741   5.25562   5.38574   5.63344   5.78413   5.91638   5.97741


              NET ATOMIC CHARGES AND DIPOLE CONTRIBUTIONS

  ATOM NO.   TYPE          CHARGE      No. of ELECS.   s-Pop       p-Pop       
    1          C          -0.084094        4.0841     1.19220     2.89190
    2          C          -0.086211        4.0862     1.18920     2.89701
    3          C          -0.067160        4.0672     1.18626     2.88090
    4          C          -0.114405        4.1144     1.17809     2.93631
    5          C          -0.061818        4.0618     1.14923     2.91259
    6          C          -0.102073        4.1021     1.13735     2.96472
    7          C          -0.127748        4.1277     1.19334     2.93440
    8          C          -0.133013        4.1330     1.19516     2.93785
    9          C          -0.159172        4.1592     1.18301     2.97616
   10          C          -0.169837        4.1698     1.18263     2.98721
   11          H           0.076094        0.9239     0.92391
   12          H           0.073672        0.9263     0.92633
   13          H           0.084275        0.9157     0.91573
   14          H           0.055646        0.9444     0.94435
   15          H           0.062479        0.9375     0.93752
   16          H           0.057488        0.9425     0.94251
   17          H           0.058088        0.9419     0.94191
   18          H           0.041545        0.9585     0.95846
   19          H           0.040403        0.9596     0.95960
   20          H           0.039631        0.9604     0.96037
   21          H           0.097617        0.9024     0.90238
   22          H           0.097843        0.9022     0.90216
   23          H           0.079408        0.9206     0.92059
   24          H           0.081109        0.9189     0.91889
   25          H           0.078012        0.9220     0.92199
   26          H           0.082221        0.9178     0.91778
 DIPOLE           X         Y         Z       TOTAL
 POINT-CHG.    -0.148    -0.280    -0.093     0.330
 HYBRID         0.025     0.022     0.007     0.035
 SUM           -0.123    -0.258    -0.086     0.298


          ATOMIC ORBITAL ELECTRON POPULATIONS

    Atom      s        px        py        pz   
    1  C   1.19220   0.93857   0.96213   0.99120
    2  C   1.18920   0.95639   0.95987   0.98076
    3  C   1.18626   0.96071   0.96297   0.95722
    4  C   1.17809   0.96184   0.95902   1.01545
    5  C   1.14923   0.94561   0.99125   0.97573
    6  C   1.13735   0.99679   1.00464   0.96329
    7  C   1.19334   0.99768   0.96806   0.96866
    8  C   1.19516   0.97446   0.97151   0.99188
    9  C   1.18301   1.00819   0.95986   1.00811
   10  C   1.18263   1.00735   0.98193   0.99793
   11  H   0.92391
   12  H   0.92633
   13  H   0.91573
   14  H   0.94435
   15  H   0.93752
   16  H   0.94251
   17  H   0.94191
   18  H   0.95846
   19  H   0.95960
   20  H   0.96037
   21  H   0.90238
   22  H   0.90216
   23  H   0.92059
   24  H   0.91889
   25  H   0.92199
   26  H   0.91778
 *******************************************************************************
 ** Site#: 14399           For non-commercial use only        Version 13.159M **
 *******************************************************************************
 ** Cite this work as: MOPAC2012, James J. P. Stewart, Stewart Computational  **
 ** Chemistry, Version 13.159M web: HTTP://OpenMOPAC.net  Days remaining:   6 **
 *******************************************************************************
 **                                                                           **
 **                                MOPAC2012                                  **
 **                                                                           **
 *******************************************************************************

                            PM3 CALCULATION RESULTS


 *******************************************************************************
 *  CALCULATION DONE:                                Mon Jun  2 11:07:53 2014  *
 *  PM3      - The PM3 Hamiltonian to be used
 *  OLDGEO   - PREVIOUS GEOMETRY TO BE USED
 *  PRECISE  - CRITERIA TO BE INCREASED BY 100 TIMES
 *  NOSYM    - POINT-GROUP SYMMETRY SET TO C1
 *  T=       - A TIME OF 172800.0 SECONDS REQUESTED
 *  DUMP=N   - RESTART FILE WRITTEN EVERY  7200.000 SECONDS
 *  THERMO   - THERMODYNAMIC QUANTITIES TO BE CALCULATED
 *******************************************************************************
oldgeo thermo nosym precise  pm3

   ATOM   CHEMICAL          X               Y               Z
  NUMBER   SYMBOL      (ANGSTROMS)     (ANGSTROMS)     (ANGSTROMS)
 
     1       C          0.40642092  *  -0.92388790  *   0.30733360  *
     2       C         -1.74778933  *  -0.65993439  *  -0.03953658  *
     3       C         -0.58219396  *   0.27686603  *   0.39562268  *
     4       C         -0.75146255  *  -1.83584446  *  -0.16176547  *
     5       C          1.52350431  *  -0.76905823  *  -0.70517461  *
     6       C         -2.42468937  *  -0.26512050  *  -1.32490515  *
     7       C         -0.73308790  *   0.83879168  *   1.76092294  *
     8       C          2.61542503  *   0.10525147  *  -0.19644053  *
     9       C         -0.59490534  *   2.13234994  *   2.02774186  *
    10       C          3.14625939  *   1.09180044  *  -0.90917270  *
    11       H          0.82091442  *  -1.21651769  *   1.29588393  *
    12       H         -2.50395484  *  -0.81143428  *   0.75975023  *
    13       H         -0.36515767  *   1.07523527  *  -0.34784045  *
    14       H         -0.96158119  *  -2.68767133  *   0.50143810  *
    15       H         -0.63742136  *  -2.23635167  *  -1.18193606  *
    16       H          1.95076362  *  -1.76756372  *  -0.93041040  *
    17       H          1.11952996  *  -0.39038251  *  -1.66702491  *
    18       H         -2.98998995  *   0.66770972  *  -1.20365269  *
    19       H         -1.70124430  *  -0.10868865  *  -2.13731694  *
    20       H         -3.12671849  *  -1.04139133  *  -1.65529934  *
    21       H         -0.96847411  *   0.11848025  *   2.55449166  *
    22       H          2.97271196  *  -0.11470837  *   0.81718079  *
    23       H          3.95294146  *   1.71497206  *  -0.53574644  *
    24       H          2.81645301  *   1.34704096  *  -1.91266134  *
    25       H         -0.70587503  *   2.53781322  *   3.02873490  *
    26       H         -0.36099382  *   2.87640081  *   1.27090888  *
 


          CARTESIAN COORDINATES 

    NO.       ATOM         X         Y         Z

     1         C        0.4064   -0.9239    0.3073
     2         C       -1.7478   -0.6599   -0.0395
     3         C       -0.5822    0.2769    0.3956
     4         C       -0.7515   -1.8358   -0.1618
     5         C        1.5235   -0.7691   -0.7052
     6         C       -2.4247   -0.2651   -1.3249
     7         C       -0.7331    0.8388    1.7609
     8         C        2.6154    0.1053   -0.1964
     9         C       -0.5949    2.1323    2.0277
    10         C        3.1463    1.0918   -0.9092
    11         H        0.8209   -1.2165    1.2959
    12         H       -2.5040   -0.8114    0.7598
    13         H       -0.3652    1.0752   -0.3478
    14         H       -0.9616   -2.6877    0.5014
    15         H       -0.6374   -2.2364   -1.1819
    16         H        1.9508   -1.7676   -0.9304
    17         H        1.1195   -0.3904   -1.6670
    18         H       -2.9900    0.6677   -1.2037
    19         H       -1.7012   -0.1087   -2.1373
    20         H       -3.1267   -1.0414   -1.6553
    21         H       -0.9685    0.1185    2.5545
    22         H        2.9727   -0.1147    0.8172
    23         H        3.9529    1.7150   -0.5357
    24         H        2.8165    1.3470   -1.9127
    25         H       -0.7059    2.5378    3.0287
    26         H       -0.3610    2.8764    1.2709

  H: (PM3): J. J. P. STEWART, J. COMP. CHEM. 10, 209 (1989).
  C: (PM3): J. J. P. STEWART, J. COMP. CHEM. 10, 209 (1989).

           Empirical Formula: C10 H16  =    26 atoms



      MOLECULAR POINT GROUP   :   C1  


      RHF CALCULATION, NO. OF DOUBLY OCCUPIED LEVELS =   28



          HEAT OF FORMATION =      21.193512 KCALS/MOLE


          INTERNAL COORDINATE DERIVATIVES

   NUMBER  ATOM       BOND         ANGLE      DIHEDRAL

     1       C      0.003779     0.000806    -0.001489
     2       C      0.001469    -0.003638     0.000609
     3       C      0.005915     0.000294    -0.001246
     4       C      0.000272    -0.001042    -0.001858
     5       C      0.004011     0.003147     0.001018
     6       C     -0.001757    -0.001755    -0.003437
     7       C      0.000536     0.002432     0.001125
     8       C      0.009973     0.005193     0.006953
     9       C     -0.009285    -0.001573     0.005766
    10       C     -0.003436    -0.000019    -0.005535
    11       H     -0.003121     0.002790     0.003228
    12       H     -0.002516    -0.007958    -0.002569
    13       H      0.006066     0.003212    -0.000670
    14       H     -0.001649     0.001467     0.001786
    15       H      0.007083     0.006255     0.001565
    16       H      0.003698     0.004125    -0.000670
    17       H     -0.003930    -0.002795     0.000161
    18       H      0.001624    -0.004351    -0.002031
    19       H      0.002989    -0.001724    -0.001057
    20       H     -0.006036    -0.001919     0.000308
    21       H      0.007078     0.000764     0.001083
    22       H     -0.001775    -0.003018    -0.009641
    23       H     -0.004684     0.000232     0.001603
    24       H     -0.007125     0.001083     0.005185
    25       H     -0.000670    -0.003188     0.001013
    26       H     -0.008508     0.001179    -0.001201


          GRADIENT NORM =   0.03461


          TIME FOR SCF CALCULATION =    0.01

          TIME FOR DERIVATIVES     =    0.01

          MOLECULAR WEIGHT =  136.24



          ROTATIONAL CONSTANTS IN CM(-1)

          A =    0.05043879   B =    0.03231107   C =    0.02421049



           PRINCIPAL MOMENTS OF INERTIA IN UNITS OF 10**(-40)*GRAM-CM**2

          A =      554.9851   B =      866.3525   C =     1156.2250


          ORIENTATION OF MOLECULE IN FORCE CALCULATION

    NO.       ATOM         X         Y         Z

     1          C      -0.4741   -0.8153   -0.3484
     2          C       1.7238   -0.8153   -0.3484
     3          C       0.6252    0.2886   -0.3484
     4          C       0.6253   -1.9026   -0.3090
     5          C      -1.3906   -0.8157    0.8586
     6          C       2.6375   -0.7923    0.8477
     7          C       0.6251    1.1442   -1.5611
     8          C      -2.4361    0.2393    0.7610
     9          C       0.6029    2.4710   -1.5075
    10          C      -2.7254    1.0681    1.7572
    11          H      -1.0715   -0.8309   -1.2852
    12          H       2.3206   -0.8333   -1.2850
    13          H       0.6257    0.9027    0.5790
    14          H       0.6243   -2.5869   -1.1700
    15          H       0.6264   -2.5231    0.6015
    16          H      -1.8937   -1.8014    0.9326
    17          H      -0.7974   -0.7096    1.7906
    18          H       3.2845    0.0941    0.8340
    19          H       2.0754   -0.7753    1.7920
    20          H       3.2845   -1.6787    0.8666
    21          H       0.6440    0.6161   -2.5227
    22          H      -2.9727    0.2954   -0.1942
    23          H      -3.5002    1.8248    1.6824
    24          H      -2.2131    1.0507    2.7155
    25          H       0.6024    3.0920   -2.3981
    26          H       0.5824    3.0307   -0.5762


    FIRST DERIVATIVES WILL BE USED IN THE CALCULATION OF SECOND DERIVATIVES

          ESTIMATED TIME TO COMPLETE CALCULATION =        4.01 SECONDS

    FOR POINT-GROUP C1   THERE ARE   1 UNIQUE SYMMETRY FUNCTIONS.

 STEP:   1 TIME =     0.04 SECS, INTEGRAL =      0.04 TIME LEFT: 172799.95
 STEP:   2 TIME =     0.04 SECS, INTEGRAL =      0.08 TIME LEFT: 172799.91
 STEP:   3 TIME =     0.04 SECS, INTEGRAL =      0.12 TIME LEFT: 172799.87
 STEP:   4 TIME =     0.04 SECS, INTEGRAL =      0.16 TIME LEFT: 172799.83
 STEP:   5 TIME =     0.04 SECS, INTEGRAL =      0.19 TIME LEFT: 172799.79
 STEP:   6 TIME =     0.04 SECS, INTEGRAL =      0.23 TIME LEFT: 172799.75
 STEP:   7 TIME =     0.04 SECS, INTEGRAL =      0.27 TIME LEFT: 172799.71
 STEP:   8 TIME =     0.04 SECS, INTEGRAL =      0.31 TIME LEFT: 172799.67
 STEP:   9 TIME =     0.04 SECS, INTEGRAL =      0.35 TIME LEFT: 172799.63
 STEP:  10 TIME =     0.04 SECS, INTEGRAL =      0.39 TIME LEFT: 172799.59
 STEP:  11 TIME =     0.04 SECS, INTEGRAL =      0.43 TIME LEFT: 172799.56
 STEP:  12 TIME =     0.04 SECS, INTEGRAL =      0.47 TIME LEFT: 172799.52
 STEP:  13 TIME =     0.04 SECS, INTEGRAL =      0.51 TIME LEFT: 172799.48
 STEP:  14 TIME =     0.04 SECS, INTEGRAL =      0.55 TIME LEFT: 172799.44
 STEP:  15 TIME =     0.04 SECS, INTEGRAL =      0.59 TIME LEFT: 172799.40
 STEP:  16 TIME =     0.04 SECS, INTEGRAL =      0.62 TIME LEFT: 172799.36
 STEP:  17 TIME =     0.04 SECS, INTEGRAL =      0.66 TIME LEFT: 172799.33
 STEP:  18 TIME =     0.04 SECS, INTEGRAL =      0.70 TIME LEFT: 172799.29
 STEP:  19 TIME =     0.04 SECS, INTEGRAL =      0.74 TIME LEFT: 172799.25
 STEP:  20 TIME =     0.04 SECS, INTEGRAL =      0.78 TIME LEFT: 172799.21
 STEP:  21 TIME =     0.04 SECS, INTEGRAL =      0.82 TIME LEFT: 172799.17
 STEP:  22 TIME =     0.04 SECS, INTEGRAL =      0.86 TIME LEFT: 172799.13
 STEP:  23 TIME =     0.04 SECS, INTEGRAL =      0.90 TIME LEFT: 172799.09
 STEP:  24 TIME =     0.04 SECS, INTEGRAL =      0.94 TIME LEFT: 172799.05
 STEP:  25 TIME =     0.04 SECS, INTEGRAL =      0.98 TIME LEFT: 172799.01
 STEP:  26 TIME =     0.04 SECS, INTEGRAL =      1.02 TIME LEFT: 172798.97
 STEP:  27 TIME =     0.04 SECS, INTEGRAL =      1.06 TIME LEFT: 172798.93
 STEP:  28 TIME =     0.04 SECS, INTEGRAL =      1.09 TIME LEFT: 172798.89
 STEP:  29 TIME =     0.04 SECS, INTEGRAL =      1.13 TIME LEFT: 172798.85
 STEP:  30 TIME =     0.04 SECS, INTEGRAL =      1.17 TIME LEFT: 172798.82
 STEP:  31 TIME =     0.04 SECS, INTEGRAL =      1.21 TIME LEFT: 172798.78
 STEP:  32 TIME =     0.04 SECS, INTEGRAL =      1.25 TIME LEFT: 172798.74
 STEP:  33 TIME =     0.04 SECS, INTEGRAL =      1.29 TIME LEFT: 172798.70
 STEP:  34 TIME =     0.04 SECS, INTEGRAL =      1.33 TIME LEFT: 172798.66
 STEP:  35 TIME =     0.04 SECS, INTEGRAL =      1.37 TIME LEFT: 172798.62
 STEP:  36 TIME =     0.04 SECS, INTEGRAL =      1.41 TIME LEFT: 172798.58
 STEP:  37 TIME =     0.04 SECS, INTEGRAL =      1.45 TIME LEFT: 172798.54
 STEP:  38 TIME =     0.04 SECS, INTEGRAL =      1.49 TIME LEFT: 172798.50
 STEP:  39 TIME =     0.04 SECS, INTEGRAL =      1.52 TIME LEFT: 172798.46
 STEP:  40 TIME =     0.04 SECS, INTEGRAL =      1.56 TIME LEFT: 172798.42
 STEP:  41 TIME =     0.04 SECS, INTEGRAL =      1.60 TIME LEFT: 172798.38
 STEP:  42 TIME =     0.04 SECS, INTEGRAL =      1.64 TIME LEFT: 172798.35
 STEP:  43 TIME =     0.04 SECS, INTEGRAL =      1.68 TIME LEFT: 172798.31
 STEP:  44 TIME =     0.04 SECS, INTEGRAL =      1.72 TIME LEFT: 172798.27
 STEP:  45 TIME =     0.04 SECS, INTEGRAL =      1.76 TIME LEFT: 172798.23
 STEP:  46 TIME =     0.04 SECS, INTEGRAL =      1.80 TIME LEFT: 172798.19
 STEP:  47 TIME =     0.04 SECS, INTEGRAL =      1.84 TIME LEFT: 172798.15
 STEP:  48 TIME =     0.04 SECS, INTEGRAL =      1.88 TIME LEFT: 172798.11
 STEP:  49 TIME =     0.04 SECS, INTEGRAL =      1.92 TIME LEFT: 172798.07
 STEP:  50 TIME =     0.04 SECS, INTEGRAL =      1.96 TIME LEFT: 172798.03
 STEP:  51 TIME =     0.04 SECS, INTEGRAL =      1.99 TIME LEFT: 172797.99
 STEP:  52 TIME =     0.04 SECS, INTEGRAL =      2.03 TIME LEFT: 172797.95
 STEP:  53 TIME =     0.04 SECS, INTEGRAL =      2.07 TIME LEFT: 172797.92
 STEP:  54 TIME =     0.04 SECS, INTEGRAL =      2.11 TIME LEFT: 172797.88
 STEP:  55 TIME =     0.04 SECS, INTEGRAL =      2.15 TIME LEFT: 172797.84
 STEP:  56 TIME =     0.04 SECS, INTEGRAL =      2.19 TIME LEFT: 172797.80
 STEP:  57 TIME =     0.04 SECS, INTEGRAL =      2.23 TIME LEFT: 172797.76
 STEP:  58 TIME =     0.04 SECS, INTEGRAL =      2.27 TIME LEFT: 172797.72
 STEP:  59 TIME =     0.04 SECS, INTEGRAL =      2.31 TIME LEFT: 172797.68
 STEP:  60 TIME =     0.04 SECS, INTEGRAL =      2.35 TIME LEFT: 172797.64
 STEP:  61 TIME =     0.04 SECS, INTEGRAL =      2.39 TIME LEFT: 172797.60
 STEP:  62 TIME =     0.04 SECS, INTEGRAL =      2.43 TIME LEFT: 172797.56
 STEP:  63 TIME =     0.04 SECS, INTEGRAL =      2.47 TIME LEFT: 172797.52
 STEP:  64 TIME =     0.04 SECS, INTEGRAL =      2.51 TIME LEFT: 172797.48
 STEP:  65 TIME =     0.04 SECS, INTEGRAL =      2.55 TIME LEFT: 172797.44
 STEP:  66 TIME =     0.04 SECS, INTEGRAL =      2.59 TIME LEFT: 172797.40
 STEP:  67 TIME =     0.04 SECS, INTEGRAL =      2.62 TIME LEFT: 172797.36
 STEP:  68 TIME =     0.04 SECS, INTEGRAL =      2.66 TIME LEFT: 172797.32
 STEP:  69 TIME =     0.04 SECS, INTEGRAL =      2.70 TIME LEFT: 172797.28
 STEP:  70 TIME =     0.04 SECS, INTEGRAL =      2.75 TIME LEFT: 172797.24
 STEP:  71 TIME =     0.04 SECS, INTEGRAL =      2.79 TIME LEFT: 172797.20
 STEP:  72 TIME =     0.04 SECS, INTEGRAL =      2.83 TIME LEFT: 172797.16
 STEP:  73 TIME =     0.04 SECS, INTEGRAL =      2.87 TIME LEFT: 172797.12
 STEP:  74 TIME =     0.04 SECS, INTEGRAL =      2.91 TIME LEFT: 172797.08
 STEP:  75 TIME =     0.04 SECS, INTEGRAL =      2.95 TIME LEFT: 172797.04
 STEP:  76 TIME =     0.04 SECS, INTEGRAL =      2.99 TIME LEFT: 172797.00
 STEP:  77 TIME =     0.04 SECS, INTEGRAL =      3.03 TIME LEFT: 172796.96
 STEP:  78 TIME =     0.04 SECS, INTEGRAL =      3.07 TIME LEFT: 172796.92

(To convert to Hartree/Bohr^2, multiply by (10^(-21) x N x a0^2)/(4.184 x 627.51) = 0.0642)


           FORCE MATRIX IN MILLIDYNES/ANGSTROM


                  C  1       C  2       C  3       C  4       C  5       C  6
 ------------------------------------------------------------------------------
     C    1  14.396398
     C    2   1.793296  14.503648
     C    3   3.129525   3.142732  14.742917
     C    4   3.500696   3.517693   1.794640  14.371526
     C    5   4.257830   0.040300   0.534034   0.550598  14.782649
     C    6   0.040014   4.627087   0.556970   0.561189   0.005872  14.516446
     C    7   0.583136   0.585132   5.052304   0.043788   0.032679   0.034883
     C    8   0.691527   0.004567   0.023169   0.050362   4.954233   0.001344
     C    9   0.034604   0.035802   0.856086   0.005295   0.005349   0.006106
     C   10   0.043343   0.001006   0.003561   0.007808   0.835089   0.001032
     H   11   4.404093   0.027374   0.437328   0.427597   0.431579   0.002345
     H   12   0.027610   4.420444   0.436809   0.429053   0.001973   0.422222
     H   13   0.435416   0.434919   4.371471   0.025246   0.032313   0.034622
     H   14   0.442191   0.441249   0.030433   4.713293   0.033048   0.033851
     H   15   0.452026   0.453213   0.028186   4.643160   0.032039   0.028009
     H   16   0.438456   0.003383   0.046668   0.020080   4.409280   0.001282
     H   17   0.445964   0.002445   0.025709   0.020501   4.403409   0.003271
     H   18   0.003506   0.452934   0.012621   0.048897   0.000979   4.749088
     H   19   0.002456   0.468304   0.021167   0.020471   0.003250   4.697651
     H   20   0.003742   0.451539   0.048315   0.011947   0.000856   4.744353
     H   21   0.018494   0.020282   0.436320   0.001090   0.001394   0.001492
     H   22   0.029242   0.000606   0.003372   0.002379   0.432512   0.000679
     H   23   0.017227   0.000469   0.001039   0.002470   0.134969   0.000379
     H   24   0.010288   0.000487   0.000595   0.001553   0.096530   0.000582
     H   25   0.017031   0.016570   0.139714   0.001700   0.001897   0.001751
     H   26   0.010162   0.009571   0.100021   0.001281   0.001598   0.001428


                  C  7       C  8       C  9       C 10       H 11       H 12
 ------------------------------------------------------------------------------
     C    7  18.314697
     C    8   0.004601  18.185018
     C    9  11.067523   0.002236  18.039971
     C   10   0.002585  11.079819   0.002524  18.038546
     H   11   0.037883   0.039034   0.002950   0.002174   4.914728
     H   12   0.038410   0.000776   0.002967   0.000289   0.002500   4.924285
     H   13   0.443582   0.004168   0.052686   0.002655   0.028143   0.028401
     H   14   0.004499   0.006046   0.000930   0.001370   0.027087   0.027326
     H   15   0.002711   0.002665   0.000492   0.001069   0.030757   0.030632
     H   16   0.006263   0.410706   0.001385   0.033569   0.023630   0.000581
     H   17   0.001078   0.458452   0.000793   0.047336   0.041259   0.000565
     H   18   0.002616   0.000494   0.000659   0.000338   0.000619   0.029297
     H   19   0.000884   0.000402   0.000741   0.000537   0.000529   0.044483
     H   20   0.006268   0.000353   0.001353   0.000509   0.000651   0.029446
     H   21   4.774500   0.000930   0.454369   0.000492   0.019456   0.021574
     H   22   0.001446   4.785321   0.001055   0.453613   0.027570   0.000232
     H   23   0.000739   0.462855   0.000817   5.109640   0.000554   0.000107
     H   24   0.000839   0.489980   0.000891   5.071856   0.000571   0.000282
     H   25   0.461014   0.000599   5.105255   0.000708   0.001102   0.000964
     H   26   0.491011   0.001098   5.070758   0.001445   0.000823   0.000770


                  H 13       H 14       H 15       H 16       H 17       H 18
 ------------------------------------------------------------------------------
     H   13   4.878724
     H   14   0.000974   5.331058
     H   15   0.002623   0.550893   5.277633
     H   16   0.003017   0.002063   0.012392   4.998847
     H   17   0.027615   0.001196   0.016001   0.560176   5.011295
     H   18   0.005745   0.005713   0.003257   0.000230   0.000328   5.474501
     H   19   0.022334   0.001637   0.018887   0.000243   0.009235   0.570547
     H   20   0.002978   0.001803   0.005567   0.000329   0.000307   0.564382
     H   21   0.036477   0.000764   0.000837   0.000324   0.000626   0.000494
     H   22   0.001017   0.000456   0.000619   0.017298   0.038635   0.000126
     H   23   0.000536   0.000519   0.000195   0.017320   0.003261   0.000119
     H   24   0.000667   0.000302   0.000361   0.011568   0.028776   0.000124
     H   25   0.002074   0.000449   0.000247   0.000351   0.000112   0.000327
     H   26   0.029711   0.000182   0.000159   0.000490   0.000288   0.000271


                  H 19       H 20       H 21       H 22       H 23       H 24
 ------------------------------------------------------------------------------
     H   19   5.432743
     H   20   0.571671   5.471190
     H   21   0.000660   0.000387   5.147834
     H   22   0.000182   0.000096   0.000866   5.159016
     H   23   0.000143   0.000089   0.000224   0.078199   5.499164
     H   24   0.000178   0.000196   0.000187   0.116170   0.423014   5.469403
     H   25   0.000150   0.000440   0.080549   0.000525   0.000288   0.000280
     H   26   0.000234   0.000448   0.119465   0.000564   0.000572   0.000560


                  H 25       H 26
 ------------------------------
     H   25   5.493513
     H   26   0.423194   5.465565


          HEAT OF FORMATION =      21.193512 KCALS/MOLE

          ZERO POINT ENERGY     144.868 KCAL/MOL


           NORMAL COORDINATE ANALYSIS (Total motion = 1 Angstrom)


   Root No.       1         2         3         4         5         6         7         8

                 1 A       2 A       3 A       4 A       5 A       6 A       7 A       8 A   

                  47.3      51.0      69.7     115.5     184.9     193.9     219.6     301.3
  
           1    0.0060   -0.0044   -0.0071    0.0004   -0.0013    0.0051   -0.0068    0.0110
           2    0.0020    0.0080   -0.0206   -0.0098    0.0069   -0.0156   -0.0067    0.0086
           3    0.0151    0.0102    0.0025   -0.0084   -0.0025    0.0003   -0.0138   -0.0109
           4    0.0058   -0.0042   -0.0075    0.0005   -0.0008    0.0031   -0.0078    0.0106
           5   -0.0147    0.0036    0.0074   -0.0043    0.0043   -0.0019   -0.0174   -0.0089
           6   -0.0119   -0.0098   -0.0028    0.0029    0.0037   -0.0078   -0.0081    0.0014
           7    0.0144   -0.0024   -0.0216   -0.0024    0.0005   -0.0034   -0.0011    0.0181
           8   -0.0063    0.0059   -0.0067   -0.0075    0.0066   -0.0092   -0.0132    0.0015
           9    0.0081   -0.0047    0.0049   -0.0039    0.0021   -0.0121   -0.0276   -0.0190
          10   -0.0019   -0.0058    0.0066    0.0033   -0.0021    0.0099   -0.0115    0.0020
          11   -0.0057    0.0061   -0.0063   -0.0064    0.0067   -0.0100   -0.0127    0.0010
          12    0.0195    0.0064    0.0148    0.0254    0.0086   -0.0130    0.0114    0.0296
          13    0.0013    0.0053   -0.0177   -0.0224   -0.0093    0.0242    0.0113    0.0024
          14    0.0164    0.0114   -0.0232    0.0008   -0.0081    0.0113    0.0104    0.0160
          15    0.0113    0.0177   -0.0058   -0.0266   -0.0086    0.0148    0.0016   -0.0199
          16    0.0383    0.0090    0.0095    0.0154    0.0075   -0.0209   -0.0163   -0.0021
          17   -0.0159    0.0083    0.0263    0.0174   -0.0036    0.0016    0.0323   -0.0193
          18   -0.0370   -0.0202   -0.0165   -0.0092   -0.0028    0.0115   -0.0027    0.0138
          19    0.0025   -0.0025   -0.0289    0.0026    0.0095   -0.0290    0.0315   -0.0243
          20    0.0043   -0.0006    0.0028   -0.0052    0.0042    0.0008    0.0047    0.0096
          21    0.0158   -0.0093    0.0119   -0.0020    0.0000   -0.0040   -0.0138   -0.0148
          22   -0.0096   -0.0184   -0.0019    0.0178   -0.0146    0.0306   -0.0069   -0.0178
          23    0.0034   -0.0127   -0.0077    0.0418   -0.0130    0.0163   -0.0082   -0.0038
          24   -0.0151    0.0114   -0.0090   -0.0131    0.0033   -0.0074    0.0092   -0.0047
          25   -0.0261    0.0746    0.0304   -0.0046   -0.0003   -0.0034    0.0043   -0.0058
          26    0.0033    0.0010    0.0033   -0.0054    0.0043    0.0006    0.0033    0.0098
          27    0.0281   -0.0161    0.0245    0.0018   -0.0065    0.0204    0.0270    0.0042
          28   -0.0318   -0.0550    0.0318   -0.0099    0.0089   -0.0121    0.0030    0.0093
          29    0.0134   -0.0307    0.0202   -0.0210   -0.0048    0.0024   -0.0007   -0.0088
          30   -0.0299    0.0157   -0.0225    0.0314    0.0035   -0.0086    0.0061    0.0079
          31    0.0087   -0.0119    0.0001    0.0180    0.0052   -0.0079   -0.0113    0.0215
          32    0.0009    0.0041   -0.0329   -0.0226    0.0082   -0.0249   -0.0177   -0.0045
          33    0.0132    0.0149   -0.0020   -0.0194   -0.0065    0.0087   -0.0095   -0.0172
          34   -0.0186   -0.0143   -0.0206   -0.0096   -0.0051    0.0150   -0.0045    0.0128
          35   -0.0245   -0.0020    0.0107   -0.0162   -0.0023    0.0025   -0.0425   -0.0287
          36   -0.0275   -0.0162   -0.0112   -0.0036    0.0008    0.0006   -0.0053    0.0043
          37    0.0314    0.0068   -0.0283   -0.0096   -0.0044   -0.0016   -0.0044    0.0280
          38   -0.0138    0.0104   -0.0134   -0.0093    0.0075   -0.0087   -0.0139    0.0029
          39    0.0132   -0.0078    0.0095   -0.0026    0.0012   -0.0113   -0.0254   -0.0195
          40   -0.0179   -0.0149    0.0134    0.0098   -0.0001    0.0105   -0.0120    0.0010
          41   -0.0213    0.0010   -0.0191   -0.0303   -0.0017   -0.0007   -0.0312   -0.0332
          42    0.0320    0.0104    0.0250    0.0445    0.0154   -0.0205    0.0263    0.0574
          43    0.0044    0.0013    0.0166    0.0004   -0.0035    0.0174   -0.0167   -0.0084
          44    0.0108    0.0115    0.0073    0.0189    0.0156   -0.0192    0.0068    0.0350
          45    0.0308    0.0100    0.0241    0.0427    0.0149   -0.0195    0.0248    0.0538
          46    0.0108    0.0253   -0.0297   -0.0622   -0.0047    0.0201    0.0263    0.0157
          47    0.0128    0.0026   -0.0179    0.0185   -0.0117    0.0162    0.0048    0.0092
          48    0.0281    0.0377   -0.0191   -0.0593   -0.0237    0.0478    0.0317   -0.0160
          49   -0.0047    0.0108   -0.0253   -0.0347   -0.0139    0.0359    0.0288    0.0027
          50    0.0406    0.0379   -0.0380   -0.0447   -0.0171    0.0337    0.0360    0.0257
          51    0.0122    0.0112    0.0007   -0.0136   -0.0046    0.0048   -0.0118   -0.0204
          52    0.0430    0.0110   -0.0004    0.0129    0.1561    0.0255   -0.0369   -0.0074
          53   -0.0196    0.0066    0.0333    0.0189   -0.1139   -0.0328    0.0473   -0.0153
          54   -0.0578   -0.0326   -0.0328   -0.0325   -0.1091   -0.0098   -0.0249    0.0394
          55    0.0646    0.0196    0.0236    0.0279    0.0151   -0.0419   -0.0239   -0.0147
          56   -0.0096    0.0150    0.0271    0.0316    0.1997    0.0695    0.0482   -0.0401
          57   -0.0216   -0.0140   -0.0082   -0.0021   -0.0020   -0.0018   -0.0072    0.0070
          58    0.0340    0.0070    0.0196    0.0181   -0.1407   -0.0681    0.0039    0.0030
          59   -0.0194    0.0068    0.0336    0.0195   -0.1099   -0.0316    0.0482   -0.0159
          60   -0.0519   -0.0224   -0.0195   -0.0030    0.0974    0.0632    0.0293    0.0068
          61    0.0165   -0.0651   -0.0824    0.0129    0.0258   -0.0741    0.0868   -0.0942
          62    0.0135   -0.0069    0.0102   -0.0026    0.0012    0.0132    0.0284    0.0192
          63    0.0110   -0.0070    0.0068   -0.0032    0.0019   -0.0113   -0.0249   -0.0210
          64    0.0008   -0.0055   -0.0173    0.0689   -0.0362    0.0680   -0.0296   -0.0523
          65   -0.0155   -0.0161   -0.0191    0.1244   -0.0237    0.0324   -0.0306   -0.0213
          66   -0.0221    0.0039   -0.0010   -0.0367    0.0150   -0.0278    0.0207    0.0143
          67   -0.0395   -0.0724    0.0448    0.0131    0.0067   -0.0098   -0.0113   -0.0073
          68    0.0035   -0.0489    0.0332    0.0041   -0.0058    0.0025   -0.0143   -0.0223
          69   -0.0499    0.0119   -0.0259    0.0478    0.0165   -0.0322    0.0156    0.0452
          70   -0.0434   -0.0694    0.0485   -0.0578    0.0325   -0.0534    0.0264    0.0531
          71    0.0325   -0.0284    0.0323   -0.1038    0.0037   -0.0103    0.0201   -0.0007
          72   -0.0234    0.0235   -0.0312    0.0554   -0.0089    0.0131   -0.0059   -0.0149
          73   -0.0368    0.0798    0.0294   -0.0008    0.0073   -0.0263    0.0356   -0.0628
          74    0.0117   -0.0041    0.0114   -0.0026   -0.0002    0.0177    0.0338    0.0237
          75    0.0339   -0.0196    0.0301    0.0038   -0.0098    0.0324    0.0484    0.0139
          76   -0.0411    0.1379    0.0843   -0.0149   -0.0167    0.0427   -0.0522    0.0683
          77   -0.0058    0.0075   -0.0041   -0.0085    0.0089   -0.0162   -0.0278   -0.0032
          78    0.0332   -0.0187    0.0301    0.0034   -0.0097    0.0317    0.0449    0.0139


   Root No.       9        10        11        12        13        14        15        16

                 9 A      10 A      11 A      12 A      13 A      14 A      15 A      16 A   

                 347.1     389.4     407.6     448.3     464.4     528.9     614.8     642.0
  
           1   -0.0061    0.0086    0.0098    0.0086   -0.0087    0.0052   -0.0093    0.0065
           2   -0.0090    0.0206   -0.0036   -0.0337    0.0069    0.0132   -0.0034    0.0153
           3    0.0010    0.0199    0.0188   -0.0110   -0.0321   -0.0233   -0.0209   -0.0083
           4   -0.0174    0.0007    0.0171    0.0080   -0.0069   -0.0049    0.0065    0.0175
           5    0.0091   -0.0275    0.0097   -0.0157   -0.0131    0.0140    0.0060   -0.0142
           6    0.0002   -0.0166   -0.0222   -0.0107    0.0331   -0.0215   -0.0077   -0.0056
           7   -0.0203    0.0292    0.0085   -0.0008    0.0004   -0.0007    0.0033    0.0045
           8    0.0113    0.0026    0.0011   -0.0175   -0.0009    0.0068   -0.0055   -0.0043
           9   -0.0096    0.0069   -0.0228    0.0065   -0.0097    0.0265    0.0019   -0.0003
          10   -0.0047   -0.0210    0.0240    0.0223   -0.0213    0.0009    0.0071   -0.0041
          11    0.0009   -0.0048    0.0059   -0.0299   -0.0022    0.0121    0.0066    0.0042
          12    0.0336    0.0034    0.0052   -0.0062   -0.0027    0.0125   -0.0010   -0.0011
          13    0.0133   -0.0035   -0.0230   -0.0027    0.0128    0.0195   -0.0038    0.0056
          14   -0.0147   -0.0181   -0.0250    0.0089   -0.0183    0.0014   -0.0012    0.0035
          15    0.0140    0.0077    0.0047   -0.0133   -0.0117   -0.0213   -0.0028   -0.0097
          16   -0.0118   -0.0193   -0.0110   -0.0061    0.0267   -0.0251   -0.0016    0.0100
          17   -0.0254    0.0176   -0.0105    0.0013    0.0021    0.0011    0.0007   -0.0012
          18   -0.0053   -0.0032    0.0006    0.0000    0.0121   -0.0155   -0.0014    0.0091
          19    0.0061    0.0018    0.0070   -0.0006   -0.0035    0.0003    0.0172   -0.0522
          20    0.0271    0.0107    0.0015    0.0268    0.0074   -0.0219   -0.0028   -0.0018
          21   -0.0028    0.0120   -0.0268    0.0377   -0.0077    0.0206    0.0100    0.0047
          22    0.0255    0.0102   -0.0045   -0.0100    0.0241    0.0205   -0.0267   -0.0092
          23   -0.0097   -0.0093   -0.0001    0.0110   -0.0081   -0.0005   -0.0167   -0.0095
          24   -0.0062   -0.0048    0.0292    0.0161    0.0314    0.0125    0.0151    0.0087
          25    0.0029   -0.0028    0.0016    0.0004   -0.0032    0.0003   -0.0019    0.0033
          26    0.0289    0.0119    0.0009    0.0306    0.0082   -0.0251   -0.0037   -0.0012
          27   -0.0157   -0.0110    0.0075   -0.0258   -0.0026    0.0077    0.0005    0.0004
          28    0.0087    0.0059   -0.0214   -0.0156   -0.0167   -0.0069    0.0004    0.0001
          29   -0.0112   -0.0074    0.0245    0.0170    0.0163    0.0041    0.0096    0.0037
          30   -0.0114   -0.0091    0.0049    0.0121   -0.0012    0.0001    0.0036    0.0012
          31   -0.0068    0.0090    0.0110    0.0189   -0.0097    0.0222   -0.0031    0.0110
          32   -0.0309    0.0467   -0.0155   -0.0472    0.0176    0.0236   -0.0069    0.0293
          33    0.0028    0.0178    0.0175   -0.0163   -0.0308   -0.0338   -0.0233   -0.0121
          34   -0.0272   -0.0015    0.0258    0.0093   -0.0055   -0.0187    0.0080    0.0217
          35    0.0038   -0.0540    0.0096   -0.0069   -0.0282    0.0253    0.0129   -0.0274
          36   -0.0057   -0.0161   -0.0155   -0.0094    0.0332   -0.0300   -0.0069   -0.0012
          37   -0.0311    0.0652    0.0180   -0.0081   -0.0175   -0.0029   -0.0076    0.0346
          38    0.0092   -0.0023    0.0076   -0.0424   -0.0007   -0.0034   -0.0158   -0.0097
          39   -0.0083    0.0099   -0.0270    0.0230   -0.0100    0.0331    0.0088    0.0032
          40    0.0005   -0.0556    0.0103    0.0307    0.0038    0.0021    0.0215   -0.0171
          41   -0.0365   -0.0075   -0.0021   -0.0341    0.0021   -0.0439   -0.0202   -0.0083
          42    0.0639    0.0056    0.0118   -0.0031   -0.0064    0.0591    0.0214    0.0094
          43    0.0007   -0.0203    0.0500    0.0308   -0.0626    0.0013    0.0050   -0.0183
          44    0.0358   -0.0030    0.0136   -0.0263   -0.0073    0.0695    0.0354    0.0180
          45    0.0591    0.0048    0.0108   -0.0040   -0.0062    0.0541    0.0196    0.0087
          46    0.0148   -0.0083   -0.0522   -0.0170    0.0002    0.0124    0.0529    0.0341
          47   -0.0142   -0.0193   -0.0161    0.0173   -0.0147    0.0032   -0.0239   -0.0107
          48    0.0281   -0.0371   -0.0663    0.0016   -0.0425   -0.0401    0.0586   -0.0108
          49    0.0212   -0.0250   -0.0493    0.0059    0.0286    0.0309    0.0289    0.0118
          50   -0.0050   -0.0482   -0.0892    0.0090   -0.0595   -0.0241    0.0668    0.0163
          51    0.0082    0.0240    0.0266   -0.0186   -0.0182   -0.0255   -0.0296   -0.0147
          52   -0.0028   -0.0411   -0.0027   -0.0129    0.0196   -0.0202    0.0016    0.0007
          53   -0.0324    0.0337   -0.0167    0.0063    0.0076   -0.0028   -0.0016    0.0058
          54    0.0213   -0.0223    0.0388   -0.0016   -0.0246    0.0084    0.0124    0.0089
          55   -0.0073   -0.0398   -0.0401   -0.0219    0.0637   -0.0484   -0.0137   -0.0054
          56   -0.0513    0.0395   -0.0240    0.0108    0.0091   -0.0043   -0.0025    0.0067
          57   -0.0019   -0.0151   -0.0158   -0.0091    0.0328   -0.0281   -0.0080    0.0001
          58   -0.0214    0.0008   -0.0208   -0.0002    0.0376   -0.0341   -0.0057    0.0205
          59   -0.0337    0.0343   -0.0178    0.0065    0.0095   -0.0049   -0.0021    0.0072
          60   -0.0384    0.0441    0.0039    0.0242   -0.0019   -0.0098    0.0021    0.0355
          61    0.0462   -0.0321    0.0210    0.0042   -0.0357   -0.0003   -0.0100    0.0084
          62    0.0298    0.0051    0.0151    0.0226    0.0127   -0.0411   -0.0057   -0.0012
          63   -0.0039    0.0138   -0.0331    0.0383   -0.0111    0.0306    0.0107    0.0053
          64    0.0561    0.0336    0.0007   -0.0425    0.0273    0.0004    0.0183    0.0061
          65    0.0042    0.0066    0.0030   -0.0111   -0.0131   -0.0206    0.0372    0.0117
          66   -0.0227   -0.0173    0.0253    0.0328    0.0275    0.0216   -0.0065    0.0013
          67    0.0246    0.0272   -0.0156   -0.0508   -0.0303   -0.0517    0.1326    0.0575
          68    0.0027    0.0125    0.0270   -0.0176   -0.0029   -0.0427    0.1386    0.0590
          69   -0.0340   -0.0268   -0.0417    0.0179   -0.0695   -0.0192   -0.0645   -0.0370
          70   -0.0236   -0.0193   -0.0500    0.0099   -0.0573   -0.0020   -0.0938   -0.0454
          71   -0.0268   -0.0257    0.0514    0.0607    0.0688    0.0607   -0.0802   -0.0297
          72    0.0053    0.0039    0.0199   -0.0009    0.0200   -0.0023    0.0523    0.0247
          73    0.0442   -0.0466    0.0118    0.0083   -0.0438   -0.0004   -0.0859    0.2449
          74    0.0182   -0.0092    0.0321   -0.0327    0.0123   -0.0381   -0.0184   -0.0057
          75   -0.0238   -0.0261    0.0296   -0.0716    0.0002   -0.0007   -0.0098   -0.0030
          76   -0.0410    0.0359   -0.0141   -0.0061    0.0372    0.0008    0.0544   -0.1506
          77    0.0414    0.0339   -0.0302    0.0965    0.0051   -0.0170    0.0091    0.0040
          78   -0.0245   -0.0237    0.0264   -0.0670    0.0002    0.0025   -0.0064   -0.0064


   Root No.      17        18        19        20        21        22        23        24

                17 A      18 A      19 A      20 A      21 A      22 A      23 A      24 A   

                 737.5     867.7     895.2     911.6     929.8     935.5     941.2     946.9
  
           1    0.0380   -0.0034   -0.0032    0.0030    0.0067    0.0102   -0.0034   -0.0035
           2    0.0009   -0.0097   -0.0010    0.0002    0.0121   -0.0056   -0.0001   -0.0056
           3    0.0130   -0.0026    0.0053    0.0079    0.0006    0.0067    0.0046   -0.0084
           4   -0.0346   -0.0027   -0.0015    0.0127   -0.0031    0.0030   -0.0061    0.0011
           5   -0.0007   -0.0044    0.0098   -0.0096   -0.0043    0.0227   -0.0007    0.0021
           6    0.0202    0.0009    0.0027   -0.0087    0.0027   -0.0079    0.0024    0.0017
           7    0.0019    0.0167    0.0120   -0.0243   -0.0078    0.0061    0.0071    0.0127
           8    0.0254    0.0176   -0.0091    0.0064   -0.0026   -0.0080   -0.0014    0.0025
           9    0.0155    0.0187   -0.0159    0.0089   -0.0088    0.0025   -0.0037    0.0036
          10    0.0117    0.0024   -0.0049   -0.0048    0.0090   -0.0293    0.0066   -0.0023
          11   -0.0377   -0.0013    0.0116    0.0066   -0.0012   -0.0387    0.0032    0.0045
          12    0.0074   -0.0054    0.0242    0.0119   -0.0042   -0.0134   -0.0106    0.0121
          13    0.0141   -0.0255   -0.0080   -0.0005    0.0041   -0.0015   -0.0103    0.0019
          14    0.0124   -0.0299   -0.0023    0.0076   -0.0041    0.0018    0.0024   -0.0158
          15   -0.0204   -0.0076   -0.0148   -0.0137    0.0024   -0.0032   -0.0020    0.0027
          16   -0.0205   -0.0016   -0.0070    0.0151   -0.0056    0.0169   -0.0106   -0.0013
          17   -0.0002   -0.0035    0.0100   -0.0087   -0.0041    0.0301   -0.0027    0.0069
          18   -0.0145   -0.0003   -0.0071   -0.0014    0.0017    0.0100    0.0057   -0.0068
          19   -0.0022    0.0000    0.0016   -0.0092   -0.0185   -0.0063   -0.0128   -0.0141
          20    0.0005    0.0030   -0.0033    0.0014   -0.0025    0.0014   -0.0008    0.0003
          21   -0.0150   -0.0105    0.0073   -0.0020    0.0006   -0.0023   -0.0008    0.0011
          22   -0.0107    0.0010    0.0028    0.0038   -0.0145   -0.0019    0.0104    0.0061
          23   -0.0060    0.0030   -0.0040   -0.0023   -0.0086   -0.0018    0.0063    0.0087
          24    0.0076    0.0013    0.0019    0.0001    0.0056   -0.0001   -0.0065    0.0007
          25   -0.0001   -0.0003    0.0000   -0.0009   -0.0050   -0.0017   -0.0042   -0.0056
          26    0.0008    0.0050   -0.0054    0.0026   -0.0038    0.0024   -0.0010    0.0007
          27   -0.0023   -0.0112    0.0131   -0.0076    0.0105   -0.0051    0.0045   -0.0044
          28   -0.0022    0.0029    0.0081    0.0087   -0.0084    0.0035    0.0144   -0.0125
          29    0.0042    0.0028   -0.0059   -0.0071    0.0030   -0.0036   -0.0068    0.0156
          30    0.0037    0.0055    0.0044    0.0040    0.0006    0.0031    0.0031   -0.0079
          31    0.0678    0.0286    0.0105    0.0139    0.0059    0.0111   -0.0054    0.0127
          32   -0.0003    0.0168   -0.0325   -0.0290    0.0241    0.0527    0.0193   -0.0019
          33   -0.0066   -0.0223   -0.0039    0.0001    0.0005    0.0045    0.0060   -0.0181
          34   -0.0526   -0.0069   -0.0022   -0.0145    0.0133   -0.0041    0.0264   -0.0098
          35    0.0090   -0.0014   -0.0356   -0.0191   -0.0021    0.0584    0.0072   -0.0401
          36    0.0068   -0.0019    0.0020   -0.0244    0.0128   -0.0111    0.0223   -0.0051
          37    0.0014    0.0489    0.0364   -0.0569   -0.0047    0.0132    0.0473    0.0389
          38    0.0515    0.0218   -0.0032    0.0017    0.0092   -0.0061    0.0060   -0.0056
          39   -0.0016    0.0149   -0.0191    0.0117   -0.0164    0.0018   -0.0086    0.0090
          40    0.0222    0.0168   -0.0052   -0.0595    0.0117   -0.0879    0.0104    0.0411
          41    0.0061   -0.0218    0.1017    0.0505   -0.0170   -0.0872   -0.0302    0.0431
          42   -0.0301    0.0109   -0.0509   -0.0253    0.0092    0.0275    0.0177   -0.0204
          43    0.0136    0.0027   -0.0023    0.0124    0.0109   -0.0274    0.0287   -0.0370
          44   -0.0915    0.0153   -0.0783   -0.0407    0.0163    0.0066    0.0417   -0.0378
          45   -0.0308    0.0072   -0.0414   -0.0223    0.0085    0.0190    0.0171   -0.0182
          46    0.0342    0.0228    0.0194    0.0113    0.0554    0.0046   -0.0304   -0.0103
          47   -0.0004   -0.0410   -0.0130    0.0024   -0.0321   -0.0008    0.0154   -0.0072
          48   -0.0542    0.1380    0.0216   -0.0071   -0.0251    0.0011    0.0287    0.0353
          49   -0.0023    0.0272    0.0067   -0.0020   -0.0106   -0.0140   -0.0136    0.0458
          50    0.0051    0.0960    0.0420    0.0254    0.0035    0.0184    0.0260   -0.0225
          51   -0.0094   -0.0521   -0.0283   -0.0142    0.0110    0.0031   -0.0025   -0.0240
          52   -0.0225   -0.0169    0.0258   -0.0106   -0.0157    0.1045   -0.0175    0.0178
          53    0.0007    0.0079   -0.0149    0.0104    0.0032   -0.0339    0.0026   -0.0077
          54   -0.0534   -0.0213    0.0305    0.0246   -0.0376    0.1495   -0.0560    0.0328
          55    0.0227    0.0000   -0.0044   -0.0611    0.0288   -0.0117    0.0599   -0.0248
          56    0.0013    0.0096   -0.0207    0.0107    0.0050   -0.0390    0.0058   -0.0124
          57    0.0101    0.0007   -0.0052   -0.0450    0.0209   -0.0047    0.0456   -0.0198
          58   -0.0215    0.0131   -0.0435    0.0392    0.0060   -0.0643    0.0001   -0.0247
          59   -0.0017    0.0083   -0.0188    0.0121    0.0039   -0.0333    0.0038   -0.0108
          60   -0.0506    0.0179   -0.0580    0.0882   -0.0110   -0.0651   -0.0345   -0.0197
          61   -0.0029   -0.0229   -0.0203    0.0986    0.1398    0.0562    0.0917    0.0934
          62   -0.0103   -0.0198    0.0188   -0.0139    0.0202    0.0061    0.0114   -0.0097
          63   -0.0085    0.0021   -0.0057    0.0088   -0.0090   -0.0037   -0.0055    0.0088
          64   -0.0171    0.0401    0.0108   -0.0188    0.1042    0.0019   -0.0817   -0.0238
          65   -0.0002    0.0804    0.0387    0.0046    0.1059    0.0224   -0.0534   -0.0658
          66    0.0116   -0.0159   -0.0003    0.0129   -0.0541   -0.0009    0.0414    0.0135
          67    0.0452   -0.0476   -0.0126    0.0011   -0.0060    0.0003   -0.0075   -0.0064
          68    0.0503   -0.0481   -0.0313   -0.0200    0.0089   -0.0092   -0.0350    0.0303
          69   -0.0274   -0.0013   -0.0516   -0.0591    0.0368   -0.0268   -0.0650    0.0931
          70   -0.0366    0.0195   -0.0144   -0.0329    0.0803   -0.0053   -0.0775    0.0067
          71   -0.0183    0.0690    0.0541    0.0327    0.0501    0.0285   -0.0023   -0.0908
          72    0.0215   -0.0026    0.0161    0.0255   -0.0450    0.0078    0.0506   -0.0180
          73    0.0102    0.0190    0.0120   -0.0290   -0.0012    0.0002    0.0105    0.0197
          74    0.0366    0.0668   -0.0689    0.0393   -0.0511    0.0213   -0.0207    0.0205
          75    0.0234    0.0329   -0.0323    0.0187   -0.0232    0.0082   -0.0097    0.0099
          76   -0.0064   -0.0182   -0.0153    0.0651    0.0958    0.0360    0.0629    0.0684
          77   -0.0335   -0.0542    0.0558   -0.0324    0.0445   -0.0139    0.0206   -0.0182
          78    0.0193    0.0258   -0.0258    0.0160   -0.0176    0.0060   -0.0076    0.0091


   Root No.      25        26        27        28        29        30        31        32

                25 A      26 A      27 A      28 A      29 A      30 A      31 A      32 A   

                 972.0     989.9    1007.3    1027.6    1047.2    1056.6    1072.7    1079.8
  
           1   -0.0117    0.0026   -0.0004    0.0000    0.0009   -0.0284   -0.0059   -0.0201
           2   -0.0043    0.0053    0.0167   -0.0036    0.0146    0.0252   -0.0112   -0.0070
           3   -0.0076   -0.0051    0.0001   -0.0009    0.0051   -0.0055    0.0039   -0.0006
           4    0.0005   -0.0013    0.0036   -0.0006    0.0032   -0.0135   -0.0017   -0.0231
           5   -0.0007   -0.0011   -0.0066    0.0038   -0.0068   -0.0021    0.0228   -0.0034
           6    0.0013    0.0081    0.0010    0.0014    0.0009    0.0018    0.0018    0.0023
           7    0.0110    0.0026   -0.0112    0.0058   -0.0124   -0.0070    0.0176    0.0032
           8   -0.0096    0.0072   -0.0175   -0.0013   -0.0125   -0.0184   -0.0190    0.0161
           9    0.0045    0.0004   -0.0039   -0.0007   -0.0034   -0.0004   -0.0033    0.0025
          10    0.0048    0.0068    0.0115   -0.0042    0.0104    0.0220   -0.0187    0.0051
          11    0.0082   -0.0114   -0.0015    0.0009   -0.0016   -0.0194   -0.0028    0.0025
          12    0.0034   -0.0035    0.0039    0.0000    0.0046    0.0165    0.0119   -0.0132
          13    0.0027   -0.0077    0.0003    0.0020   -0.0036   -0.0037    0.0053    0.0083
          14    0.0206    0.0033   -0.0047    0.0015   -0.0186    0.0070   -0.0015    0.0012
          15    0.0083    0.0131    0.0037    0.0012   -0.0030   -0.0001   -0.0049   -0.0025
          16   -0.0090    0.0089   -0.0057    0.0004   -0.0031    0.0086    0.0006    0.0148
          17    0.0056   -0.0020    0.0056   -0.0028    0.0031   -0.0023   -0.0150    0.0037
          18   -0.0031   -0.0139   -0.0032   -0.0013   -0.0020    0.0019   -0.0030    0.0061
          19   -0.0037   -0.0008   -0.0012    0.0340    0.0069    0.0032   -0.0049    0.0004
          20    0.0032   -0.0016    0.0020    0.0007    0.0008    0.0006    0.0005   -0.0003
          21    0.0077   -0.0068    0.0076    0.0011    0.0024   -0.0021    0.0015   -0.0006
          22   -0.0056   -0.0017   -0.0054   -0.0046    0.0228    0.0000    0.0033    0.0000
          23   -0.0104   -0.0004    0.0020   -0.0023    0.0277   -0.0063    0.0048    0.0065
          24    0.0018   -0.0033   -0.0030    0.0006   -0.0149    0.0040   -0.0025   -0.0056
          25   -0.0038   -0.0030    0.0055   -0.0561   -0.0069   -0.0027    0.0039    0.0001
          26    0.0051   -0.0024    0.0031   -0.0008    0.0012    0.0013    0.0014   -0.0008
          27   -0.0193    0.0106   -0.0121   -0.0015   -0.0045   -0.0039   -0.0054    0.0042
          28    0.0013    0.0073    0.0175    0.0073   -0.0289    0.0046   -0.0043   -0.0020
          29   -0.0169   -0.0067    0.0161    0.0066   -0.0217   -0.0004   -0.0004   -0.0017
          30    0.0042    0.0029   -0.0046   -0.0024    0.0150   -0.0057    0.0018    0.0024
          31   -0.0234   -0.0057   -0.0282   -0.0123   -0.0188   -0.0132   -0.0260   -0.0723
          32   -0.0233    0.0465    0.0440   -0.0308    0.0897    0.1556   -0.0379   -0.0894
          33    0.0010    0.0012    0.0173    0.0075    0.0162   -0.0179    0.0171    0.0348
          34    0.0136   -0.0402    0.0128   -0.0056    0.0078   -0.0415    0.0014   -0.0735
          35   -0.0260    0.0023   -0.0206    0.0269   -0.0176    0.0669    0.2073   -0.0790
          36    0.0090   -0.0177    0.0066   -0.0024    0.0038   -0.0176   -0.0006   -0.0280
          37    0.0374   -0.0155   -0.0300   -0.0513   -0.0454    0.0680    0.0922    0.1282
          38   -0.0518    0.0368   -0.0495   -0.0055   -0.0218   -0.0163   -0.0278    0.0257
          39    0.0331   -0.0197    0.0183    0.0022    0.0032   -0.0016    0.0030   -0.0042
          40    0.0684    0.1519    0.0598   -0.0310    0.0208    0.0036    0.0162    0.0326
          41    0.0224   -0.0247    0.0078    0.0010    0.0071    0.0162    0.0222   -0.0283
          42   -0.0083    0.0072   -0.0029    0.0000   -0.0014   -0.0111   -0.0066    0.0105
          43   -0.0267   -0.1202   -0.0286    0.0166    0.0031    0.1483   -0.0641    0.0835
          44   -0.0019   -0.0029   -0.0058    0.0016   -0.0054   -0.0530   -0.0190    0.0248
          45   -0.0044    0.0031    0.0005    0.0004    0.0018   -0.0085    0.0001    0.0034
          46   -0.0613   -0.0369    0.1131    0.0295    0.0833   -0.0448    0.0688    0.0834
          47    0.0497    0.0187   -0.0663   -0.0149   -0.0616    0.0300   -0.0382   -0.0436
          48   -0.0281    0.0186   -0.0477   -0.0231    0.0115    0.0126   -0.0468   -0.0709
          49   -0.0151   -0.0317   -0.0558   -0.0197   -0.0204    0.0665   -0.0200   -0.0199
          50   -0.0318    0.0053    0.0296    0.0021    0.0369   -0.0292    0.0074   -0.0069
          51    0.0241    0.0279    0.0359    0.0148    0.0029   -0.0413    0.0100    0.0153
          52    0.0063   -0.0002    0.0113   -0.0089    0.0064    0.0032   -0.0458    0.0273
          53   -0.0061    0.0043   -0.0075    0.0041   -0.0045    0.0018    0.0205   -0.0055
          54   -0.0046    0.0383    0.0070   -0.0079    0.0045    0.0242   -0.0525    0.0618
          55    0.0152   -0.0805    0.0060   -0.0064    0.0021   -0.0228   -0.0132   -0.0243
          56   -0.0087    0.0011   -0.0106    0.0054   -0.0066    0.0034    0.0293   -0.0074
          57    0.0109   -0.0650    0.0035   -0.0054    0.0010   -0.0151   -0.0116   -0.0145
          58   -0.0266    0.0091   -0.0247    0.0086   -0.0143    0.0141    0.0442    0.0069
          59   -0.0087    0.0010   -0.0100    0.0041   -0.0061    0.0031    0.0211   -0.0016
          60   -0.0438    0.0514   -0.0373    0.0128   -0.0220    0.0385    0.0633    0.0369
          61    0.0215    0.0028   -0.0037   -0.0953   -0.0249   -0.0110    0.0249    0.0066
          62   -0.0329    0.0215   -0.0122   -0.0030    0.0067    0.0335    0.0263   -0.0251
          63    0.0282   -0.0195    0.0153    0.0006   -0.0015   -0.0207   -0.0123    0.0133
          64    0.0396   -0.0082   -0.0131    0.0047   -0.0885    0.0277   -0.0182   -0.0277
          65    0.0259    0.0027    0.0306    0.0153   -0.0412   -0.0037    0.0037    0.0174
          66   -0.0220    0.0004    0.0034   -0.0035    0.0439   -0.0122    0.0097    0.0107
          67    0.0369   -0.0002   -0.0734   -0.0282    0.0952   -0.0117    0.0084    0.0062
          68    0.0126   -0.0180   -0.0726   -0.0281    0.1013   -0.0182    0.0133    0.0067
          69   -0.0638   -0.0375    0.0288    0.0114   -0.0352   -0.0048    0.0044   -0.0061
          70    0.0335   -0.0148   -0.0720   -0.0267    0.0790   -0.0016    0.0067    0.0006
          71    0.0625    0.0236   -0.0410   -0.0176    0.0836   -0.0203    0.0084    0.0154
          72   -0.0128    0.0144    0.0422    0.0154   -0.0402   -0.0035   -0.0037    0.0012
          73    0.0187    0.0148   -0.0264    0.2272    0.0225    0.0090   -0.0099    0.0011
          74    0.0822   -0.0431    0.0457    0.0070    0.0152    0.0106    0.0159   -0.0113
          75    0.0359   -0.0186    0.0182    0.0039    0.0053    0.0021    0.0044   -0.0029
          76    0.0250    0.0124   -0.0215    0.1899    0.0200    0.0075   -0.0080    0.0010
          77   -0.0729    0.0413   -0.0422    0.0002   -0.0108   -0.0032   -0.0109    0.0077
          78    0.0302   -0.0163    0.0155    0.0033    0.0035   -0.0010    0.0018   -0.0009


   Root No.      33        34        35        36        37        38        39        40

                33 A      34 A      35 A      36 A      37 A      38 A      39 A      40 A   

                1137.4    1146.2    1157.5    1172.4    1185.6    1196.7    1207.6    1209.6
  
           1   -0.0038   -0.0020   -0.0111    0.0060    0.0019   -0.0070    0.0236    0.0050
           2   -0.0258    0.0119    0.0205   -0.0122   -0.0186   -0.0266    0.0069    0.0088
           3   -0.0146   -0.0279   -0.0076    0.0258    0.0183   -0.0073   -0.0033    0.0153
           4   -0.0060   -0.0077    0.0004   -0.0089   -0.0049    0.0063   -0.0189   -0.0059
           5    0.0208    0.0008   -0.0157   -0.0166    0.0280    0.0127    0.0117    0.0118
           6    0.0229   -0.0028    0.0257    0.0308   -0.0050   -0.0108    0.0191    0.0024
           7    0.0499    0.0114   -0.0007   -0.0057   -0.0076   -0.0231   -0.0143    0.0055
           8   -0.0031    0.0006    0.0064   -0.0264   -0.0059    0.0117   -0.0160   -0.0171
           9   -0.0001    0.0015   -0.0061    0.0154   -0.0151    0.0168   -0.0268   -0.0197
          10   -0.0117    0.0011    0.0062    0.0010   -0.0149   -0.0150    0.0059   -0.0071
          11    0.0042   -0.0023   -0.0121    0.0310   -0.0021   -0.0013    0.0106    0.0028
          12    0.0012    0.0004   -0.0017   -0.0204   -0.0031    0.0070   -0.0082   -0.0101
          13    0.0092   -0.0203   -0.0114   -0.0005   -0.0103    0.0126    0.0096   -0.0044
          14   -0.0019    0.0058    0.0013    0.0076    0.0117    0.0015   -0.0095   -0.0037
          15    0.0094    0.0227    0.0046   -0.0178   -0.0227    0.0198    0.0075    0.0127
          16   -0.0012    0.0020    0.0016    0.0003    0.0041    0.0007    0.0056    0.0022
          17   -0.0063    0.0003    0.0048    0.0070   -0.0093   -0.0034   -0.0044   -0.0037
          18   -0.0158    0.0073   -0.0312   -0.0176    0.0005   -0.0047   -0.0064    0.0033
          19   -0.0151   -0.0049   -0.0025    0.0014    0.0045    0.0072    0.0026   -0.0009
          20   -0.0003   -0.0004    0.0013   -0.0047    0.0019   -0.0009    0.0028   -0.0001
          21    0.0005   -0.0042    0.0052    0.0020    0.0086   -0.0131    0.0123    0.0218
          22   -0.0074    0.0090    0.0042    0.0056    0.0140   -0.0143    0.0029   -0.0204
          23    0.0027    0.0042    0.0027   -0.0057   -0.0093    0.0087   -0.0059    0.0172
          24   -0.0063    0.0013    0.0004    0.0083    0.0152   -0.0127    0.0007   -0.0164
          25    0.0066    0.0019    0.0005   -0.0003   -0.0015   -0.0023   -0.0010    0.0004
          26    0.0006   -0.0030    0.0038   -0.0040    0.0031   -0.0015    0.0008   -0.0007
          27   -0.0011    0.0004    0.0028   -0.0132    0.0004    0.0029   -0.0022   -0.0070
          28    0.0014    0.0015    0.0005   -0.0014   -0.0022    0.0039   -0.0034    0.0070
          29   -0.0004   -0.0024   -0.0018    0.0027    0.0034   -0.0014    0.0000   -0.0016
          30    0.0011    0.0083    0.0023   -0.0010   -0.0001    0.0051   -0.0079    0.0132
          31   -0.0471    0.1307   -0.0026    0.0500    0.0030    0.1051    0.0878    0.0889
          32    0.0890   -0.0615   -0.0830   -0.0075    0.1018    0.0799    0.0090   -0.0285
          33    0.0121   -0.1128   -0.0116   -0.0031    0.0135   -0.0825   -0.0453   -0.0378
          34   -0.0058   -0.0637    0.1786   -0.0119    0.0338    0.1296   -0.0396   -0.0470
          35   -0.0559    0.0132    0.0644   -0.0105   -0.0862   -0.0706   -0.0170   -0.0182
          36    0.0240   -0.0393    0.1402    0.0297    0.0227    0.0725    0.0073   -0.0243
          37   -0.1538   -0.0177    0.0179    0.0242    0.0297    0.0972    0.0789   -0.0357
          38   -0.0001   -0.0517    0.0592   -0.0052    0.0227   -0.0204   -0.0508    0.0526
          39   -0.0019    0.0363   -0.0413    0.0022   -0.0345    0.0382   -0.0035   -0.0668
          40   -0.0376   -0.0244   -0.0410   -0.0043    0.0553    0.0158   -0.0569    0.0335
          41    0.0062    0.0077   -0.0261   -0.0005   -0.0065    0.0089    0.0032   -0.0176
          42    0.0004   -0.0097    0.0105    0.0075    0.0011   -0.0022   -0.0016    0.0064
          43    0.1210    0.0539    0.0442    0.0106    0.0102    0.0050   -0.0064   -0.0016
          44    0.0079   -0.0199   -0.0028    0.0943    0.0100   -0.0208    0.0327    0.0210
          45    0.0040   -0.0138    0.0060    0.0243    0.0049   -0.0061    0.0062    0.0025
          46    0.0128    0.0360    0.0148    0.0049    0.0036    0.0462   -0.0558    0.0456
          47   -0.0062   -0.0250   -0.0128    0.0054    0.0053   -0.0207    0.0278   -0.0315
          48   -0.0114    0.0000   -0.0023   -0.0238   -0.0312   -0.0369    0.0499   -0.0103
          49   -0.0303   -0.1241   -0.0038    0.0053   -0.0544    0.0198   -0.0456    0.1351
          50   -0.0175    0.0485    0.0045    0.0340    0.0856   -0.0604    0.0121   -0.0931
          51    0.0365    0.0841   -0.0011   -0.0247   -0.0052    0.0232    0.0419   -0.0651
          52   -0.0276    0.0037    0.0049    0.0049   -0.0140   -0.0021   -0.0095   -0.0066
          53    0.0122   -0.0008    0.0023    0.0018    0.0051    0.0002    0.0061    0.0026
          54   -0.0165    0.0085    0.0223    0.0252   -0.0134   -0.0062    0.0050   -0.0061
          55   -0.0528    0.0109   -0.0787   -0.0634    0.0019    0.0054   -0.0350   -0.0006
          56    0.0076    0.0009   -0.0065   -0.0096    0.0089    0.0009    0.0025    0.0052
          57   -0.0462    0.0131   -0.0787   -0.0542   -0.0009   -0.0020   -0.0293    0.0015
          58    0.0054    0.0043   -0.0225   -0.0309    0.0304    0.0136    0.0095    0.0114
          59    0.0014    0.0022   -0.0122   -0.0147    0.0107    0.0052    0.0005    0.0038
          60    0.0176    0.0096   -0.0130   -0.0186    0.0398    0.0181    0.0314    0.0114
          61    0.0297    0.0085    0.0017   -0.0066   -0.0098   -0.0194   -0.0061    0.0011
          62    0.0076    0.0287   -0.0825    0.1983   -0.0795    0.0495   -0.0649   -0.0232
          63   -0.0028   -0.0204    0.0513   -0.1076    0.0524   -0.0410    0.0483    0.0347
          64   -0.0351    0.0713    0.0276    0.0397    0.0905   -0.0335   -0.0751    0.0217
[...]
 EFF. MASS   2.0880

 VIBRATION   52   52A       ATOM PAIR        ENERGY CONTRIBUTION    RADIAL
 FREQ.      1414.54        C  1 --  C  5          +14.6% ( 52.4%)    67.4%
 T-DIPOLE    0.0523        C  5 --  C  8          +11.7% ( 46.9%)    92.2%
 TRAVEL      0.0887        C  5 --  H 17          +11.0% ( 45.4%)     0.7%
 RED. MASS   0.8434        C  5 --  H 16           +9.9% ( 43.1%)     0.3%
 EFF. MASS   6.0591

 VIBRATION   53   53A       ATOM PAIR        ENERGY CONTRIBUTION    RADIAL
 FREQ.      1422.44        C  4 --  H 14          +13.3% ( 45.1%)     3.3%
 T-DIPOLE    0.0300        C  4 --  H 15          +12.9% ( 44.4%)     4.6%
 TRAVEL      0.1049        C  2 --  C  6          +12.8% ( 44.3%)    99.9%
 RED. MASS   0.4994        C  6 --  H 19          +11.6% ( 42.0%)     4.2%
 EFF. MASS   4.3072        C  6 --  H 18          +10.1% ( 39.4%)     3.8%

 VIBRATION   54   54A       ATOM PAIR        ENERGY CONTRIBUTION    RADIAL
 FREQ.      1469.60        C  1 --  C  2           +9.4% ( 51.4%)    99.6%
 T-DIPOLE    0.0714        C  2 --  C  3           +9.4% ( 51.3%)    51.8%
 TRAVEL      0.0692        C  2 --  C  6           +8.7% ( 49.4%)    94.1%
 RED. MASS   1.3699        C  1 --  C  3           +8.2% ( 48.0%)    52.5%
 EFF. MASS   9.5771

 VIBRATION   55   55A       ATOM PAIR        ENERGY CONTRIBUTION    RADIAL
 FREQ.      1861.13        C  8 --  C 10          +45.3% ( 99.2%)    98.9%
 T-DIPOLE    0.2360        C  5 --  C  8          +16.7% ( 60.3%)    54.6%
 TRAVEL      0.0554        C  8 --  H 22          +15.4% ( 57.9%)     3.9%
 RED. MASS   5.2927        C 10 --  H 24          +11.0% ( 48.8%)    10.9%
 EFF. MASS  11.7917        C 10 --  H 23          +10.8% ( 48.4%)    12.9%

 VIBRATION   56   56A       ATOM PAIR        ENERGY CONTRIBUTION    RADIAL
 FREQ.      1863.47        C  7 --  C  9          +44.8% ( 99.0%)    98.8%
 T-DIPOLE    0.1456        C  3 --  C  7          +17.0% ( 60.9%)    55.7%
 TRAVEL      0.0554        C  7 --  H 21          +15.5% ( 58.2%)     3.8%
 RED. MASS   5.2798        C  9 --  H 26          +10.7% ( 48.5%)    11.1%
 EFF. MASS  11.7919        C  9 --  H 25          +10.5% ( 48.0%)    12.9%

 VIBRATION   57   57A       ATOM PAIR        ENERGY CONTRIBUTION    RADIAL
 FREQ.      2933.26        C  3 --  H 13          +71.1% ( 86.5%)   100.0%
 T-DIPOLE    0.0685        C  1 --  H 11           +9.5% ( 31.6%)   100.0%
 TRAVEL      0.1249        C  5 --  H 17           +7.0% ( 27.2%)    97.0%
 RED. MASS   0.5387        C  5 --  H 16           +5.7% ( 24.6%)    95.7%
 EFF. MASS   1.4736

 VIBRATION   58   58A       ATOM PAIR        ENERGY CONTRIBUTION    RADIAL
 FREQ.      2936.28        C  5 --  H 17          +37.8% ( 63.7%)    96.6%
 T-DIPOLE    0.0378        C  5 --  H 16          +36.5% ( 62.5%)    96.3%
 TRAVEL      0.1229        C  3 --  H 13          +16.7% ( 42.4%)   100.0%
 RED. MASS   0.3286        C  1 --  H 11           +5.0% ( 23.1%)    99.9%
 EFF. MASS   1.5206

 VIBRATION   59   59A       ATOM PAIR        ENERGY CONTRIBUTION    RADIAL
 FREQ.      2948.47        C  1 --  H 11          +67.3% ( 83.8%)   100.0%
 T-DIPOLE    0.0914        C  2 --  H 12          +17.5% ( 42.8%)   100.0%
 TRAVEL      0.1260        C  5 --  H 16           +5.4% ( 23.7%)    96.8%
 RED. MASS   0.4971        C  5 --  H 17           +4.9% ( 22.6%)    96.6%
 EFF. MASS   1.4411

 VIBRATION   60   60A       ATOM PAIR        ENERGY CONTRIBUTION    RADIAL
 FREQ.      2952.00        C  2 --  H 12          +74.4% ( 88.1%)   100.0%
 T-DIPOLE    0.1297        C  1 --  H 11          +13.3% ( 37.3%)   100.0%
 TRAVEL      0.1253        C  3 --  H 13           +5.8% ( 24.5%)    99.9%
 RED. MASS   0.5832        C  1 --  C  2           +1.0% ( 10.4%)    73.2%
 EFF. MASS   1.4548

 VIBRATION   61   61A       ATOM PAIR        ENERGY CONTRIBUTION    RADIAL
 FREQ.      3014.54        C  5 --  H 16          +50.5% ( 70.1%)    97.9%
 T-DIPOLE    0.0553        C  5 --  H 17          +47.8% ( 68.1%)    97.5%
 TRAVEL      0.1324        C  5 --  C  8           +0.6% (  7.9%)    30.9%
 RED. MASS   0.4810        C  1 --  C  5           +0.6% (  7.7%)    29.4%
 EFF. MASS   1.2756

 VIBRATION   62   62A       ATOM PAIR        ENERGY CONTRIBUTION    RADIAL
 FREQ.      3033.25        C  4 --  H 15          +60.3% ( 80.8%)    98.1%
 T-DIPOLE    0.0868        C  4 --  H 14          +35.6% ( 62.1%)    95.0%
 TRAVEL      0.1202        C  3 --  C  4           +1.1% ( 11.1%)     0.8%
 RED. MASS   0.5410        C  1 --  C  4           +1.1% ( 11.0%)     0.2%
 EFF. MASS   1.5379

 VIBRATION   63   63A       ATOM PAIR        ENERGY CONTRIBUTION    RADIAL
 FREQ.      3038.23        C  7 --  H 21          +96.2% ( 99.5%)   100.0%
 T-DIPOLE    0.2301        C  7 --  C  9           +1.4% ( 12.1%)    30.9%
 TRAVEL      0.1215        C  3 --  C  7           +1.3% ( 11.8%)    14.7%
 RED. MASS   0.9112        C  9 --  H 25           +0.9% (  9.5%)    95.1%
 EFF. MASS   1.5031

 VIBRATION   64   64A       ATOM PAIR        ENERGY CONTRIBUTION    RADIAL
 FREQ.      3041.17        C  8 --  H 22          +96.0% ( 99.3%)   100.0%
 T-DIPOLE    0.2291        C  8 --  C 10           +1.4% ( 12.0%)    30.6%
 TRAVEL      0.1216        C  5 --  C  8           +1.3% ( 11.7%)    14.2%
 RED. MASS   0.9054        C 10 --  H 23           +0.9% (  9.5%)    95.3%
 EFF. MASS   1.5003

 VIBRATION   65   65A       ATOM PAIR        ENERGY CONTRIBUTION    RADIAL
 FREQ.      3073.32        C  6 --  H 19          +69.5% ( 86.0%)    99.1%
 T-DIPOLE    0.0076        C  6 --  H 20          +16.4% ( 41.8%)    84.6%
 TRAVEL      0.1208        C  6 --  H 18          +12.8% ( 36.9%)    79.9%
 RED. MASS   0.5547        C  2 --  C  6           +1.0% ( 10.3%)     0.1%
 EFF. MASS   1.5036

 VIBRATION   66   66A       ATOM PAIR        ENERGY CONTRIBUTION    RADIAL
 FREQ.      3084.57        C  6 --  H 18          +50.4% ( 73.3%)    97.3%
 T-DIPOLE    0.0200        C  6 --  H 20          +47.5% ( 71.1%)    96.8%
 TRAVEL      0.1204        C  6 --  H 19           +1.1% ( 10.6%)     2.5%
 RED. MASS   0.5096        C  2 --  C  6           +1.0% ( 10.4%)     0.0%
 EFF. MASS   1.5081

 VIBRATION   67   67A       ATOM PAIR        ENERGY CONTRIBUTION    RADIAL
 FREQ.      3100.81        C  4 --  H 14          +62.5% ( 78.5%)    98.5%
 T-DIPOLE    0.0837        C  4 --  H 15          +35.4% ( 59.0%)    94.6%
 TRAVEL      0.1300        C  3 --  C  4           +0.7% (  8.3%)    97.0%
 RED. MASS   0.5156        C  2 --  C  4           +0.7% (  8.3%)    47.9%
 EFF. MASS   1.2875

 VIBRATION   68   68A       ATOM PAIR        ENERGY CONTRIBUTION    RADIAL
 FREQ.      3134.87        C  9 --  H 26          +91.2% ( 97.2%)    99.8%
 T-DIPOLE    0.1859        C  9 --  H 25           +7.5% ( 27.8%)    73.3%
 TRAVEL      0.1181        C  7 --  C  9           +1.3% ( 11.7%)    21.1%
 RED. MASS   0.8447
 EFF. MASS   1.5413

 VIBRATION   69   69A       ATOM PAIR        ENERGY CONTRIBUTION    RADIAL
 FREQ.      3135.80        C 10 --  H 24          +91.2% ( 97.2%)    99.8%
 T-DIPOLE    0.1864        C 10 --  H 23           +7.5% ( 27.8%)    73.4%
 TRAVEL      0.1181        C  8 --  C 10           +1.3% ( 11.7%)    21.0%
 RED. MASS   0.8445
 EFF. MASS   1.5406

 VIBRATION   70   70A       ATOM PAIR        ENERGY CONTRIBUTION    RADIAL
 FREQ.      3146.68        C  9 --  H 25          +91.1% ( 96.1%)    99.6%
 T-DIPOLE    0.2483        C  9 --  H 26           +6.4% ( 25.4%)    45.7%
 TRAVEL      0.1210        C  7 --  C  9           +1.6% ( 12.7%)    74.3%
 RED. MASS   0.8078        C  7 --  H 21           +0.7% (  8.7%)    94.4%
 EFF. MASS   1.4631

 VIBRATION   71   71A       ATOM PAIR        ENERGY CONTRIBUTION    RADIAL
 FREQ.      3148.19        C 10 --  H 23          +91.1% ( 96.1%)    99.6%
 T-DIPOLE    0.2549        C 10 --  H 24           +6.4% ( 25.5%)    45.5%
 TRAVEL      0.1210        C  8 --  C 10           +1.6% ( 12.7%)    74.5%
 RED. MASS   0.8074        C  8 --  H 22           +0.8% (  8.7%)    94.6%
 EFF. MASS   1.4626

 VIBRATION   72   72A       ATOM PAIR        ENERGY CONTRIBUTION    RADIAL
 FREQ.      3175.77        C  6 --  H 18          +36.3% ( 58.0%)    97.5%
 T-DIPOLE    0.0281        C  6 --  H 20          +35.6% ( 57.5%)    97.4%
 TRAVEL      0.1366        C  6 --  H 19          +27.8% ( 50.7%)    96.0%
 RED. MASS   0.3306        C  2 --  C  6           +0.3% (  5.2%)    98.8%
 EFF. MASS   1.1376

 SYMMETRY NUMBER FOR POINT-GROUP C1  =  1


          SYSTEM IS A GROUND STATE


    NULL



          MOLECULE IS NOT LINEAR

          THERE ARE 72 GENUINE VIBRATIONS IN THIS SYSTEM
          THIS THERMODYNAMICS CALCULATION IS LIMITED TO
          MOLECULES WHICH HAVE NO INTERNAL ROTATIONS




                    CALCULATED THERMODYNAMIC PROPERTIES
                                          *
   TEMP. (K)   PARTITION FUNCTION   H.O.F.    ENTHALPY  HEAT CAPACITY ENTROPY
                                   KCAL/MOL   CAL/MOLE    CAL/K/MOL  CAL/K/MOL


 298.00  VIB.     0.3248D+04                  5188.2698    35.8825    33.4786
         ROT.     0.8411D+06                   888.2813     2.9808    30.0912
         INT.     0.2732D+10                  6076.5511    38.8634    63.5698
         TRA.     0.1537D+28                  1480.4688     4.9680    40.6375
         TOT.                       21.194    7557.0199    43.8314   104.2073

 200.00  VIB.     0.1844D+03                  2332.9003    22.8277    22.0324
         ROT.     0.4625D+06                   596.1620     2.9808    28.9025
         INT.     0.8529D+08                  2929.0622    25.8086    50.9349
         TRA.     0.8452D+27                   993.6033     4.9680    38.6564
         TOT.                       17.559    3922.6655    30.7766    89.5913

 210.00  VIB.     0.2473D+03                  2567.1364    24.0253    23.1750
         ROT.     0.4976D+06                   625.9700     2.9808    29.0480
         INT.     0.1230D+09                  3193.1064    27.0061    52.2229
         TRA.     0.9094D+27                  1043.2834     4.9680    38.8988
         TOT.                       17.873    4236.3898    31.9741    91.1217

 220.00  VIB.     0.3314D+03                  2813.5231    25.2579    24.3209
         ROT.     0.5335D+06                   655.7781     2.9808    29.1866
         INT.     0.1768D+09                  3469.3013    28.2388    53.5076
         TRA.     0.9752D+27                  1092.9636     4.9680    39.1299
         TOT.                       18.199    4562.2649    33.2068    92.6374

 230.00  VIB.     0.4439D+03                  3072.4117    26.5255    25.4715
         ROT.     0.5703D+06                   685.5862     2.9808    29.3191
         INT.     0.2532D+09                  3757.9979    29.5063    54.7907
         TRA.     0.1042D+28                  1142.6437     4.9680    39.3507
         TOT.                       18.537    4900.6417    34.4743    94.1414

 240.00  VIB.     0.5945D+03                  3344.1450    27.8266    26.6278
         ROT.     0.6079D+06                   715.3943     2.9808    29.4460
         INT.     0.3614D+09                  4059.5394    30.8074    56.0738
         TRA.     0.1111D+28                  1192.3239     4.9680    39.5621
         TOT.                       18.888    5251.8633    35.7754    95.6360

 250.00  VIB.     0.7963D+03                  3629.0480    29.1590    27.7907
         ROT.     0.6463D+06                   745.2024     2.9808    29.5677
         INT.     0.5146D+09                  4374.2504    32.1398    57.3584
         TRA.     0.1181D+28                  1242.0041     4.9680    39.7650
         TOT.                       19.253    5616.2545    37.1078    97.1233

 260.00  VIB.     0.1067D+04                  3927.4187    30.5196    28.9607
         ROT.     0.6855D+06                   775.0105     2.9808    29.6846
         INT.     0.7311D+09                  4702.4292    33.5004    58.6453
         TRA.     0.1253D+28                  1291.6842     4.9680    39.9598
         TOT.                       19.631    5994.1134    38.4684    98.6051

 270.00  VIB.     0.1429D+04                  4239.5228    31.9050    30.1385
         ROT.     0.7254D+06                   804.8186     2.9808    29.7971
         INT.     0.1037D+10                  5044.3414    34.8858    59.9355
         TRA.     0.1326D+28                  1341.3644     4.9680    40.1473
         TOT.                       20.022    6385.7058    39.8538   100.0828

 280.00  VIB.     0.1915D+04                  4565.5889    33.3114    31.3241
         ROT.     0.7661D+06                   834.6267     2.9808    29.9055
         INT.     0.1467D+10                  5400.2156    36.2922    61.2296
         TRA.     0.1400D+28                  1391.0445     4.9680    40.3280
         TOT.                       20.428    6791.2602    41.2602   101.5576

 290.00  VIB.     0.2568D+04                  4905.8061    34.7346    32.5178
         ROT.     0.8075D+06                   864.4348     2.9808    30.0101
         INT.     0.2074D+10                  5770.2409    37.7154    62.5279
         TRA.     0.1476D+28                  1440.7247     4.9680    40.5023
         TOT.                       20.847    7210.9656    42.6834   103.0303

 300.00  VIB.     0.3445D+04                  5260.3228    36.1706    33.7196
         ROT.     0.8496D+06                   894.2429     2.9808    30.1112
         INT.     0.2927D+10                  6154.5657    39.1514    63.8307
         TRA.     0.1553D+28                  1490.4049     4.9680    40.6707
         TOT.                       21.281    7644.9706    44.1194   104.5015

 310.00  VIB.     0.4624D+04                  5629.2468    37.6153    34.9291
         ROT.     0.8924D+06                   924.0510     2.9808    30.2089
         INT.     0.4127D+10                  6553.2978    40.5962    65.1380
         TRA.     0.1631D+28                  1540.0850     4.9680    40.8336
         TOT.                       21.730    8093.3828    45.5642   105.9717

 320.00  VIB.     0.6212D+04                  6012.6460    39.0650    36.1463
         ROT.     0.9359D+06                   953.8591     2.9808    30.3035
         INT.     0.5814D+10                  6966.5052    42.0458    66.4498
         TRA.     0.1711D+28                  1589.7652     4.9680    40.9914
         TOT.                       22.193    8556.2704    47.0138   107.4412

 330.00  VIB.     0.8351D+04                  6410.5509    40.5159    37.3706
         ROT.     0.9802D+06                   983.6672     2.9808    30.3953
         INT.     0.8185D+10                  7394.2181    43.4967    67.7658
         TRA.     0.1791D+28                  1639.4454     4.9680    41.1442
         TOT.                       22.670    9033.6635    48.4647   108.9101

 340.00  VIB.     0.1123D+05                  6822.9561    41.9645    38.6016
         ROT.     0.1025D+07                  1013.4753     2.9808    30.4842
         INT.     0.1152D+11                  7836.4314    44.9453    69.0858
         TRA.     0.1874D+28                  1689.1255     4.9680    41.2926
         TOT.                       23.162    9525.5569    49.9133   110.3784

 350.00  VIB.     0.1513D+05                  7249.8233    43.4078    39.8389
         ROT.     0.1071D+07                  1043.2834     2.9808    30.5706
         INT.     0.1619D+11                  8293.1068    46.3886    70.4095
         TRA.     0.1957D+28                  1738.8057     4.9680    41.4366
         TOT.                       23.668   10031.9124    51.3566   111.8461

 360.00  VIB.     0.2038D+05                  7691.0845    44.8428    41.0819
         ROT.     0.1117D+07                  1073.0915     2.9808    30.6546
         INT.     0.2276D+11                  8764.1760    47.8237    71.7365
         TRA.     0.2041D+28                  1788.4859     4.9680    41.5765
         TOT.                       24.189   10552.6618    52.7917   113.3130

 370.00  VIB.     0.2748D+05                  8146.6443    46.2671    42.3300
         ROT.     0.1164D+07                  1102.8996     2.9808    30.7363
         INT.     0.3198D+11                  9249.5439    49.2479    73.0663
         TRA.     0.2127D+28                  1838.1660     4.9680    41.7126
         TOT.                       24.724   11087.7100    54.2160   114.7789

 380.00  VIB.     0.3710D+05                  8616.3839    47.6784    43.5826
         ROT.     0.1211D+07                  1132.7077     2.9808    30.8158
         INT.     0.4493D+11                  9749.0916    50.6592    74.3984
         TRA.     0.2214D+28                  1887.8462     4.9680    41.8451
         TOT.                       25.273   11636.9377    55.6273   116.2435

 390.00  VIB.     0.5011D+05                  9100.1630    49.0748    44.8392
         ROT.     0.1259D+07                  1162.5158     2.9808    30.8932
         INT.     0.6310D+11                 10262.6788    52.0556    75.7324
         TRA.     0.2302D+28                  1937.5263     4.9680    41.9742
         TOT.                       25.837   12200.2051    57.0236   117.7065

 400.00  VIB.     0.6774D+05                  9597.8236    50.4545    46.0990
         ROT.     0.1308D+07                  1192.3239     2.9808    30.9687
         INT.     0.8860D+11                 10790.1475    53.4353    77.0677
         TRA.     0.2391D+28                  1987.2065     4.9680    42.1000
         TOT.                       26.414   12777.3540    58.4033   119.1677

   *: NOTE: HEATS OF FORMATION ARE RELATIVE TO THE
            ELEMENTS IN THEIR STANDARD STATE AT 298K
              (=  Standard Enthalpy of Formation).

            Hvib:  Zero-point energy is not included.
                   frequencies of less than zero cm-1 are not included.
            Hrot = (3/2)RT
            Htra = (3/2)RT + pV = (5/2)RT

            Heat capacity is Cp, not Cv

           For more information, see: HTTP://OpenMOPAC.net/Manual/thermochemistry.html


           FORCE CONSTANT IN CARTESIAN COORDINATES (Millidynes/A)

    ATOM   CHEMICAL       X               Y               Z
   NUMBER   SYMBOL  FORCE CONSTANT  FORCE CONSTANT  FORCE CONSTANT

      1       C        9.655812        6.200013        8.687381
      2       C        9.658830        6.166787        8.887011
      3       C        5.797442        9.784386        9.371079
      4       C        6.043939        9.758634        8.647470
      5       C        8.688941        8.508683        8.368968
      6       C        8.458602        8.353057        8.329337
      7       C        2.531054       15.627659        9.201710
      8       C        6.461668        8.753049       11.945272
      9       C        1.970099       15.483583        9.038413
     10       C        6.198162        8.631367       11.677884
     11       H        1.982034        0.680551        3.613994
     12       H        1.979394        0.679759        3.610782
     13       H        0.670955        2.065019        3.520063
     14       H        0.667415        2.420109        3.547687
     15       H        0.685352        2.117394        3.809551
     16       H        1.583861        3.972172        0.683355
     17       H        1.964336        0.774532        3.631075
     18       H        2.257089        3.791720        0.705212
     19       H        2.013547        0.676360        4.058620
     20       H        2.255121        3.795942        0.699957
     21       H        0.363301        1.743237        4.104466
     22       H        1.646359        0.606619        3.978862
     23       H        2.965593        2.841293        0.680770
     24       H        1.602028        0.553729        4.314714
     25       H        0.339200        2.218166        3.917483
     26       H        0.344692        1.942646        4.175873



 TOTAL CPU TIME:             4.37 SECONDS

 == MOPAC DONE ==
