 *******************************************************************************
 ** Site#: 14399           For non-commercial use only        Version 13.159M **
 *******************************************************************************
 ** Cite this work as: MOPAC2012, James J. P. Stewart, Stewart Computational  **
 ** Chemistry, Version 13.159M web: HTTP://OpenMOPAC.net  Days remaining:   6 **
 *******************************************************************************
 **                                                                           **
 **                                MOPAC2012                                  **
 **                                                                           **
 *******************************************************************************

                            PM3 CALCULATION RESULTS


 *******************************************************************************
 *  CALCULATION DONE:                                Mon Jun  2 11:10:12 2014  *
 *  PM3      - The PM3 Hamiltonian to be used
 *  PRECISE  - CRITERIA TO BE INCREASED BY 100 TIMES
 *  NOSYM    - POINT-GROUP SYMMETRY SET TO C1
 *  T=       - A TIME OF 172800.0 SECONDS REQUESTED
 *  DUMP=N   - RESTART FILE WRITTEN EVERY  7200.000 SECONDS
 *******************************************************************************
pm3  precise nosym
 InChI=1S/C11H16/c1-2-3-5-9-8-10-6-4-7-11(9)10/h3-5,7,9-11H,2,6,8H2,1H3

   ATOM   CHEMICAL          X               Y               Z
  NUMBER   SYMBOL      (ANGSTROMS)     (ANGSTROMS)     (ANGSTROMS)
 
     1       C         -2.15230000  *   0.36040000  *  -1.01700000  *
     2       C         -1.04550000  *  -0.56270000  *  -0.51790000  *
     3       C         -0.56850000  *   0.46040000  *   0.46660000  *
     4       C         -1.68340000  *   1.41460000  *   0.03880000  *
     5       C         -3.48510000  *  -0.34810000  *  -0.74750000  *
     6       C          3.29180000  *   0.68360000  *   0.17230000  *
     7       C          4.35410000  *  -0.36320000  *   0.48560000  *
     8       C         -1.77810000  *  -1.71730000  *   0.08130000  *
     9       C          0.82930000  *   0.95850000  *   0.20170000  *
    10       C         -3.09100000  *  -1.60150000  *  -0.04740000  *
    11       C          1.89800000  *   0.18340000  *   0.42820000  *
    12       H         -2.01030000  *   0.70250000  *  -2.06950000  *
    13       H         -0.33690000  *  -0.87120000  *  -1.32330000  *
    14       H         -0.68150000  *   0.16300000  *   1.53750000  *
    15       H         -2.41960000  *   1.60220000  *   0.85500000  *
    16       H         -1.35370000  *   2.36320000  *  -0.44570000  *
    17       H         -3.99090000  *  -0.61190000  *  -1.70410000  *
    18       H         -4.17880000  *   0.25870000  *  -0.12240000  *
    19       H          3.48180000  *   1.58550000  *   0.79910000  *
    20       H          3.38690000  *   0.97910000  *  -0.89830000  *
    21       H          4.31230000  *  -0.66250000  *   1.55820000  *
    22       H          4.21660000  *  -1.26780000  *  -0.15000000  *
    23       H          5.36650000  *   0.05130000  *   0.27910000  *
    24       H         -3.79740000  *  -2.34480000  *   0.31650000  *
    25       H         -1.29280000  *  -2.55900000  *   0.57100000  *
    26       H          1.75120000  *  -0.83060000  *   0.80280000  *
    27       H          0.97710000  *   1.97450000  *  -0.16470000  *
 


          CARTESIAN COORDINATES 

    NO.       ATOM         X         Y         Z

     1         C       -2.1523    0.3604   -1.0170
     2         C       -1.0455   -0.5627   -0.5179
     3         C       -0.5685    0.4604    0.4666
     4         C       -1.6834    1.4146    0.0388
     5         C       -3.4851   -0.3481   -0.7475
     6         C        3.2918    0.6836    0.1723
     7         C        4.3541   -0.3632    0.4856
     8         C       -1.7781   -1.7173    0.0813
     9         C        0.8293    0.9585    0.2017
    10         C       -3.0910   -1.6015   -0.0474
    11         C        1.8980    0.1834    0.4282
    12         H       -2.0103    0.7025   -2.0695
    13         H       -0.3369   -0.8712   -1.3233
    14         H       -0.6815    0.1630    1.5375
    15         H       -2.4196    1.6022    0.8550
    16         H       -1.3537    2.3632   -0.4457
    17         H       -3.9909   -0.6119   -1.7041
    18         H       -4.1788    0.2587   -0.1224
    19         H        3.4818    1.5855    0.7991
    20         H        3.3869    0.9791   -0.8983
    21         H        4.3123   -0.6625    1.5582
    22         H        4.2166   -1.2678   -0.1500
    23         H        5.3665    0.0513    0.2791
    24         H       -3.7974   -2.3448    0.3165
    25         H       -1.2928   -2.5590    0.5710
    26         H        1.7512   -0.8306    0.8028
    27         H        0.9771    1.9745   -0.1647

  H: (PM3): J. J. P. STEWART, J. COMP. CHEM. 10, 209 (1989).
  C: (PM3): J. J. P. STEWART, J. COMP. CHEM. 10, 209 (1989).

           Empirical Formula: C11 H16  =    27 atoms



      MOLECULAR POINT GROUP   :   C1  


      RHF CALCULATION, NO. OF DOUBLY OCCUPIED LEVELS =   30

      Geometry optimization using EF

          DIAGONAL MATRIX USED AS START HESSIAN

 CYCLE:     1 TIME:   0.014 TIME LEFT:  2.00D  GRAD.:   111.249 HEAT: 25.82464
 CYCLE:     2 TIME:   0.022 TIME LEFT:  2.00D  GRAD.:   101.517 HEAT: 24.25076
 CYCLE:     3 TIME:   0.011 TIME LEFT:  2.00D  GRAD.:    96.467 HEAT: 23.91729
 CYCLE:     4 TIME:   0.023 TIME LEFT:  2.00D  GRAD.:    42.011 HEAT: 21.70080
 CYCLE:     5 TIME:   0.022 TIME LEFT:  2.00D  GRAD.:    29.609 HEAT: 21.18179
 CYCLE:     6 TIME:   0.023 TIME LEFT:  2.00D  GRAD.:    22.575 HEAT: 20.95041
 CYCLE:     7 TIME:   0.010 TIME LEFT:  2.00D  GRAD.:    33.630 HEAT: 20.82773
 CYCLE:     8 TIME:   0.010 TIME LEFT:  2.00D  GRAD.:    28.309 HEAT: 20.60980
 CYCLE:     9 TIME:   0.018 TIME LEFT:  2.00D  GRAD.:    12.516 HEAT: 20.41574
 CYCLE:    10 TIME:   0.018 TIME LEFT:  2.00D  GRAD.:    11.446 HEAT: 20.36495
 CYCLE:    11 TIME:   0.010 TIME LEFT:  2.00D  GRAD.:     9.682 HEAT: 20.31735
 CYCLE:    12 TIME:   0.010 TIME LEFT:  2.00D  GRAD.:    12.513 HEAT: 20.29319
 CYCLE:    13 TIME:   0.010 TIME LEFT:  2.00D  GRAD.:    10.831 HEAT: 20.26261
 CYCLE:    14 TIME:   0.018 TIME LEFT:  2.00D  GRAD.:     7.167 HEAT: 20.23519
 CYCLE:    15 TIME:   0.018 TIME LEFT:  2.00D  GRAD.:     5.283 HEAT: 20.22344
 CYCLE:    16 TIME:   0.010 TIME LEFT:  2.00D  GRAD.:     4.967 HEAT: 20.21609
 CYCLE:    17 TIME:   0.010 TIME LEFT:  2.00D  GRAD.:     6.982 HEAT: 20.21423
 CYCLE:    18 TIME:   0.010 TIME LEFT:  2.00D  GRAD.:     6.351 HEAT: 20.20540
 CYCLE:    19 TIME:   0.010 TIME LEFT:  2.00D  GRAD.:     8.027 HEAT: 20.20498
 CYCLE:    20 TIME:   0.010 TIME LEFT:  2.00D  GRAD.:     9.663 HEAT: 20.20288
 CYCLE:    21 TIME:   0.010 TIME LEFT:  2.00D  GRAD.:     7.370 HEAT: 20.19292
 CYCLE:    22 TIME:   0.010 TIME LEFT:  2.00D  GRAD.:     4.666 HEAT: 20.17849
 CYCLE:    23 TIME:   0.018 TIME LEFT:  2.00D  GRAD.:     4.375 HEAT: 20.17341
 CYCLE:    24 TIME:   0.010 TIME LEFT:  2.00D  GRAD.:     3.387 HEAT: 20.16674
 CYCLE:    25 TIME:   0.010 TIME LEFT:  2.00D  GRAD.:     6.471 HEAT: 20.16290
 CYCLE:    26 TIME:   0.010 TIME LEFT:  2.00D  GRAD.:     5.725 HEAT: 20.15079
 CYCLE:    27 TIME:   0.010 TIME LEFT:  2.00D  GRAD.:     6.516 HEAT: 20.14393
 CYCLE:    28 TIME:   0.010 TIME LEFT:  2.00D  GRAD.:     6.038 HEAT: 20.13736
 CYCLE:    29 TIME:   0.010 TIME LEFT:  2.00D  GRAD.:     3.298 HEAT: 20.12731
 CYCLE:    30 TIME:   0.010 TIME LEFT:  2.00D  GRAD.:     2.803 HEAT: 20.12372
 CYCLE:    31 TIME:   0.010 TIME LEFT:  2.00D  GRAD.:     2.251 HEAT: 20.12048
 CYCLE:    32 TIME:   0.010 TIME LEFT:  2.00D  GRAD.:     2.281 HEAT: 20.11794
 CYCLE:    33 TIME:   0.010 TIME LEFT:  2.00D  GRAD.:     1.860 HEAT: 20.11486
 CYCLE:    34 TIME:   0.010 TIME LEFT:  2.00D  GRAD.:     2.336 HEAT: 20.11214
 CYCLE:    35 TIME:   0.010 TIME LEFT:  2.00D  GRAD.:     1.793 HEAT: 20.10957
 CYCLE:    36 TIME:   0.010 TIME LEFT:  2.00D  GRAD.:     1.877 HEAT: 20.10695
 CYCLE:    37 TIME:   0.010 TIME LEFT:  2.00D  GRAD.:     2.113 HEAT: 20.10359
 CYCLE:    38 TIME:   0.010 TIME LEFT:  2.00D  GRAD.:     1.564 HEAT: 20.09774
 CYCLE:    39 TIME:   0.010 TIME LEFT:  2.00D  GRAD.:     1.355 HEAT: 20.09484
 CYCLE:    40 TIME:   0.010 TIME LEFT:  2.00D  GRAD.:     1.163 HEAT: 20.09257
 CYCLE:    41 TIME:   0.010 TIME LEFT:  2.00D  GRAD.:     1.063 HEAT: 20.09012
 CYCLE:    42 TIME:   0.010 TIME LEFT:  2.00D  GRAD.:     1.066 HEAT: 20.08770
 CYCLE:    43 TIME:   0.010 TIME LEFT:  2.00D  GRAD.:     0.989 HEAT: 20.08560
 CYCLE:    44 TIME:   0.010 TIME LEFT:  2.00D  GRAD.:     1.177 HEAT: 20.08234
 CYCLE:    45 TIME:   0.010 TIME LEFT:  2.00D  GRAD.:     1.167 HEAT: 20.07893
 CYCLE:    46 TIME:   0.010 TIME LEFT:  2.00D  GRAD.:     1.069 HEAT: 20.07644
 CYCLE:    47 TIME:   0.010 TIME LEFT:  2.00D  GRAD.:     1.021 HEAT: 20.07393
 CYCLE:    48 TIME:   0.010 TIME LEFT:  2.00D  GRAD.:     1.125 HEAT: 20.07153
 CYCLE:    49 TIME:   0.010 TIME LEFT:  2.00D  GRAD.:     1.004 HEAT: 20.06921
 CYCLE:    50 TIME:   0.011 TIME LEFT:  2.00D  GRAD.:     0.807 HEAT: 20.06692
 CYCLE:    51 TIME:   0.010 TIME LEFT:  2.00D  GRAD.:     0.661 HEAT: 20.06529
 CYCLE:    52 TIME:   0.010 TIME LEFT:  2.00D  GRAD.:     0.628 HEAT: 20.06435
 CYCLE:    53 TIME:   0.011 TIME LEFT:  2.00D  GRAD.:     0.608 HEAT: 20.06347
 CYCLE:    54 TIME:   0.010 TIME LEFT:  2.00D  GRAD.:     0.654 HEAT: 20.06239
 CYCLE:    55 TIME:   0.010 TIME LEFT:  2.00D  GRAD.:     0.791 HEAT: 20.06097
 CYCLE:    56 TIME:   0.010 TIME LEFT:  2.00D  GRAD.:     0.925 HEAT: 20.05896
 CYCLE:    57 TIME:   0.011 TIME LEFT:  2.00D  GRAD.:     1.142 HEAT: 20.05575
 CYCLE:    58 TIME:   0.011 TIME LEFT:  2.00D  GRAD.:     1.758 HEAT: 20.05054
 CYCLE:    59 TIME:   0.011 TIME LEFT:  2.00D  GRAD.:     1.950 HEAT: 20.04416
 CYCLE:    60 TIME:   0.011 TIME LEFT:  2.00D  GRAD.:     2.980 HEAT: 20.03635
 CYCLE:    61 TIME:   0.014 TIME LEFT:  2.00D  GRAD.:     2.086 HEAT: 20.02358
 CYCLE:    62 TIME:   0.011 TIME LEFT:  2.00D  GRAD.:     2.629 HEAT: 20.01155
 CYCLE:    63 TIME:   0.012 TIME LEFT:  2.00D  GRAD.:     3.003 HEAT: 19.99349
 CYCLE:    64 TIME:   0.011 TIME LEFT:  2.00D  GRAD.:     4.489 HEAT: 19.97585
 CYCLE:    65 TIME:   0.011 TIME LEFT:  2.00D  GRAD.:     4.322 HEAT: 19.94512
 CYCLE:    66 TIME:   0.011 TIME LEFT:  2.00D  GRAD.:     5.490 HEAT: 19.92508
 CYCLE:    67 TIME:   0.010 TIME LEFT:  2.00D  GRAD.:     2.754 HEAT: 19.90973
 CYCLE:    68 TIME:   0.010 TIME LEFT:  2.00D  GRAD.:     1.887 HEAT: 19.89527
 CYCLE:    69 TIME:   0.010 TIME LEFT:  2.00D  GRAD.:     1.859 HEAT: 19.88647
 CYCLE:    70 TIME:   0.011 TIME LEFT:  2.00D  GRAD.:     1.929 HEAT: 19.87677
 CYCLE:    71 TIME:   0.010 TIME LEFT:  2.00D  GRAD.:     1.614 HEAT: 19.86773
 CYCLE:    72 TIME:   0.011 TIME LEFT:  2.00D  GRAD.:     1.717 HEAT: 19.85967
 CYCLE:    73 TIME:   0.010 TIME LEFT:  2.00D  GRAD.:     1.858 HEAT: 19.85357
 CYCLE:    74 TIME:   0.010 TIME LEFT:  2.00D  GRAD.:     1.429 HEAT: 19.84829
 CYCLE:    75 TIME:   0.010 TIME LEFT:  2.00D  GRAD.:     1.566 HEAT: 19.84359
 CYCLE:    76 TIME:   0.010 TIME LEFT:  2.00D  GRAD.:     1.681 HEAT: 19.83908
 CYCLE:    77 TIME:   0.010 TIME LEFT:  2.00D  GRAD.:     1.480 HEAT: 19.83456
 CYCLE:    78 TIME:   0.010 TIME LEFT:  2.00D  GRAD.:     1.464 HEAT: 19.82810
 CYCLE:    79 TIME:   0.010 TIME LEFT:  2.00D  GRAD.:     1.658 HEAT: 19.82281
 CYCLE:    80 TIME:   0.010 TIME LEFT:  2.00D  GRAD.:     2.041 HEAT: 19.81706
 CYCLE:    81 TIME:   0.010 TIME LEFT:  2.00D  GRAD.:     2.113 HEAT: 19.80889
 CYCLE:    82 TIME:   0.010 TIME LEFT:  2.00D  GRAD.:     2.137 HEAT: 19.79596
 CYCLE:    83 TIME:   0.010 TIME LEFT:  2.00D  GRAD.:     1.730 HEAT: 19.78741
 CYCLE:    84 TIME:   0.010 TIME LEFT:  2.00D  GRAD.:     1.881 HEAT: 19.78114
 CYCLE:    85 TIME:   0.010 TIME LEFT:  2.00D  GRAD.:     1.840 HEAT: 19.77561
 CYCLE:    86 TIME:   0.010 TIME LEFT:  2.00D  GRAD.:     1.605 HEAT: 19.76961
 CYCLE:    87 TIME:   0.010 TIME LEFT:  2.00D  GRAD.:     1.566 HEAT: 19.76265
 CYCLE:    88 TIME:   0.010 TIME LEFT:  2.00D  GRAD.:     1.388 HEAT: 19.75698
 CYCLE:    89 TIME:   0.010 TIME LEFT:  2.00D  GRAD.:     1.389 HEAT: 19.75270
 CYCLE:    90 TIME:   0.010 TIME LEFT:  2.00D  GRAD.:     1.493 HEAT: 19.74714
 CYCLE:    91 TIME:   0.010 TIME LEFT:  2.00D  GRAD.:     1.487 HEAT: 19.74170
 CYCLE:    92 TIME:   0.010 TIME LEFT:  2.00D  GRAD.:     1.532 HEAT: 19.73626
 CYCLE:    93 TIME:   0.010 TIME LEFT:  2.00D  GRAD.:     1.280 HEAT: 19.73250
 CYCLE:    94 TIME:   0.010 TIME LEFT:  2.00D  GRAD.:     1.283 HEAT: 19.72887
 CYCLE:    95 TIME:   0.010 TIME LEFT:  2.00D  GRAD.:     1.033 HEAT: 19.72535
 CYCLE:    96 TIME:   0.010 TIME LEFT:  2.00D  GRAD.:     1.014 HEAT: 19.72154
 CYCLE:    97 TIME:   0.010 TIME LEFT:  2.00D  GRAD.:     1.058 HEAT: 19.71952
 CYCLE:    98 TIME:   0.010 TIME LEFT:  2.00D  GRAD.:     1.060 HEAT: 19.71709
 CYCLE:    99 TIME:   0.010 TIME LEFT:  2.00D  GRAD.:     0.977 HEAT: 19.71502
 CYCLE:   100 TIME:   0.010 TIME LEFT:  2.00D  GRAD.:     0.802 HEAT: 19.71298
 CYCLE:   101 TIME:   0.010 TIME LEFT:  2.00D  GRAD.:     0.700 HEAT: 19.71206
 CYCLE:   102 TIME:   0.010 TIME LEFT:  2.00D  GRAD.:     0.981 HEAT: 19.70965
 CYCLE:   103 TIME:   0.010 TIME LEFT:  2.00D  GRAD.:     0.817 HEAT: 19.70848
 CYCLE:   104 TIME:   0.011 TIME LEFT:  2.00D  GRAD.:     1.118 HEAT: 19.70545
 CYCLE:   105 TIME:   0.010 TIME LEFT:  2.00D  GRAD.:     0.788 HEAT: 19.70435
 CYCLE:   106 TIME:   0.010 TIME LEFT:  2.00D  GRAD.:     0.555 HEAT: 19.70205
 CYCLE:   107 TIME:   0.010 TIME LEFT:  2.00D  GRAD.:     0.716 HEAT: 19.69946
 CYCLE:   108 TIME:   0.010 TIME LEFT:  2.00D  GRAD.:     0.724 HEAT: 19.69637
 CYCLE:   109 TIME:   0.010 TIME LEFT:  2.00D  GRAD.:     0.716 HEAT: 19.69486
 CYCLE:   110 TIME:   0.011 TIME LEFT:  2.00D  GRAD.:     0.761 HEAT: 19.69380
 CYCLE:   111 TIME:   0.010 TIME LEFT:  2.00D  GRAD.:     0.759 HEAT: 19.69278
 CYCLE:   112 TIME:   0.011 TIME LEFT:  2.00D  GRAD.:     0.775 HEAT: 19.69153
 CYCLE:   113 TIME:   0.010 TIME LEFT:  2.00D  GRAD.:     0.710 HEAT: 19.69047
 CYCLE:   114 TIME:   0.010 TIME LEFT:  2.00D  GRAD.:     0.705 HEAT: 19.68942
 CYCLE:   115 TIME:   0.010 TIME LEFT:  2.00D  GRAD.:     0.800 HEAT: 19.68839
 CYCLE:   116 TIME:   0.010 TIME LEFT:  2.00D  GRAD.:     0.985 HEAT: 19.68722
 CYCLE:   117 TIME:   0.011 TIME LEFT:  2.00D  GRAD.:     1.069 HEAT: 19.68559
 CYCLE:   118 TIME:   0.010 TIME LEFT:  2.00D  GRAD.:     0.897 HEAT: 19.68451
 CYCLE:   119 TIME:   0.010 TIME LEFT:  2.00D  GRAD.:     0.535 HEAT: 19.68324
 CYCLE:   120 TIME:   0.010 TIME LEFT:  2.00D  GRAD.:     0.689 HEAT: 19.68254
 CYCLE:   121 TIME:   0.010 TIME LEFT:  2.00D  GRAD.:     0.732 HEAT: 19.68176
 CYCLE:   122 TIME:   0.010 TIME LEFT:  2.00D  GRAD.:     1.254 HEAT: 19.68007
 CYCLE:   123 TIME:   0.010 TIME LEFT:  2.00D  GRAD.:     1.174 HEAT: 19.67853
 CYCLE:   124 TIME:   0.010 TIME LEFT:  2.00D  GRAD.:     1.460 HEAT: 19.67301
 CYCLE:   125 TIME:   0.011 TIME LEFT:  2.00D  GRAD.:     1.748 HEAT: 19.66850
 CYCLE:   126 TIME:   0.011 TIME LEFT:  2.00D  GRAD.:     1.775 HEAT: 19.66388
 CYCLE:   127 TIME:   0.010 TIME LEFT:  2.00D  GRAD.:     1.437 HEAT: 19.65922
 CYCLE:   128 TIME:   0.011 TIME LEFT:  2.00D  GRAD.:     3.429 HEAT: 19.66238
 CYCLE:   129 TIME:   0.010 TIME LEFT:  2.00D  GRAD.:     0.959 HEAT: 19.65446
 CYCLE:   130 TIME:   0.010 TIME LEFT:  2.00D  GRAD.:     0.554 HEAT: 19.65381
 CYCLE:   131 TIME:   0.010 TIME LEFT:  2.00D  GRAD.:     0.408 HEAT: 19.65319
 CYCLE:   132 TIME:   0.010 TIME LEFT:  2.00D  GRAD.:     0.533 HEAT: 19.65287
 CYCLE:   133 TIME:   0.010 TIME LEFT:  2.00D  GRAD.:     0.487 HEAT: 19.65247
 CYCLE:   134 TIME:   0.010 TIME LEFT:  2.00D  GRAD.:     0.407 HEAT: 19.65182
 CYCLE:   135 TIME:   0.010 TIME LEFT:  2.00D  GRAD.:     0.478 HEAT: 19.65138
 CYCLE:   136 TIME:   0.010 TIME LEFT:  2.00D  GRAD.:     0.568 HEAT: 19.65079
 CYCLE:   137 TIME:   0.010 TIME LEFT:  2.00D  GRAD.:     0.715 HEAT: 19.65003
 CYCLE:   138 TIME:   0.011 TIME LEFT:  2.00D  GRAD.:     1.174 HEAT: 19.64830
 CYCLE:   139 TIME:   0.011 TIME LEFT:  2.00D  GRAD.:     1.016 HEAT: 19.64695
 CYCLE:   140 TIME:   0.013 TIME LEFT:  2.00D  GRAD.:     1.208 HEAT: 19.64160
 CYCLE:   141 TIME:   0.012 TIME LEFT:  2.00D  GRAD.:     0.867 HEAT: 19.64007
 CYCLE:   142 TIME:   0.011 TIME LEFT:  2.00D  GRAD.:     0.755 HEAT: 19.63805
 CYCLE:   143 TIME:   0.011 TIME LEFT:  2.00D  GRAD.:     0.704 HEAT: 19.63743
 CYCLE:   144 TIME:   0.011 TIME LEFT:  2.00D  GRAD.:     0.654 HEAT: 19.63657
 CYCLE:   145 TIME:   0.011 TIME LEFT:  2.00D  GRAD.:     0.519 HEAT: 19.63599
 CYCLE:   146 TIME:   0.010 TIME LEFT:  2.00D  GRAD.:     0.382 HEAT: 19.63574
 CYCLE:   147 TIME:   0.010 TIME LEFT:  2.00D  GRAD.:     0.346 HEAT: 19.63557
 CYCLE:   148 TIME:   0.010 TIME LEFT:  2.00D  GRAD.:     0.288 HEAT: 19.63542
 CYCLE:   149 TIME:   0.010 TIME LEFT:  2.00D  GRAD.:     0.269 HEAT: 19.63530
 CYCLE:   150 TIME:   0.010 TIME LEFT:  2.00D  GRAD.:     0.224 HEAT: 19.63521
 CYCLE:   151 TIME:   0.010 TIME LEFT:  2.00D  GRAD.:     0.280 HEAT: 19.63510
 CYCLE:   152 TIME:   0.010 TIME LEFT:  2.00D  GRAD.:     0.260 HEAT: 19.63503
 CYCLE:   153 TIME:   0.010 TIME LEFT:  2.00D  GRAD.:     0.369 HEAT: 19.63493
 CYCLE:   154 TIME:   0.010 TIME LEFT:  2.00D  GRAD.:     0.222 HEAT: 19.63477
 CYCLE:   155 TIME:   0.010 TIME LEFT:  2.00D  GRAD.:     0.135 HEAT: 19.63471
 CYCLE:   156 TIME:   0.010 TIME LEFT:  2.00D  GRAD.:     0.208 HEAT: 19.63465
 CYCLE:   157 TIME:   0.010 TIME LEFT:  2.00D  GRAD.:     0.145 HEAT: 19.63462
 CYCLE:   158 TIME:   0.010 TIME LEFT:  2.00D  GRAD.:     0.098 HEAT: 19.63459
 CYCLE:   159 TIME:   0.010 TIME LEFT:  2.00D  GRAD.:     0.057 HEAT: 19.63458
 CYCLE:   160 TIME:   0.010 TIME LEFT:  2.00D  GRAD.:     0.070 HEAT: 19.63457
 CYCLE:   161 TIME:   0.010 TIME LEFT:  2.00D  GRAD.:     0.033 HEAT: 19.63457

     RMS GRADIENT =  0.03281  IS LESS THAN CUTOFF =  0.05000



 -------------------------------------------------------------------------------
pm3  precise nosym
 InChI=1S/C11H16/c1-2-3-5-9-8-10-6-4-7-11(9)10/h3-5,7,9-11H,2,6,8H2,1H3



     GEOMETRY OPTIMISED USING EIGENVECTOR FOLLOWING (EF).     
     SCF FIELD WAS ACHIEVED                                   


                              PM3 CALCULATION
                                                       MOPAC2012 (Version: 13.159M)
                                                       Mon Jun  2 11:10:14 2014
                                                       No. of days left =   6




          FINAL HEAT OF FORMATION =         19.63457 KCAL/MOL =      82.15103 KJ/MOL


          TOTAL ENERGY            =      -1549.51600 EV
          ELECTRONIC ENERGY       =      -9055.78866 EV  POINT GROUP:     C1  
          CORE-CORE REPULSION     =       7506.27266 EV
          COSMO AREA              =        208.49 SQUARE ANGSTROMS
          COSMO VOLUME            =        212.39 CUBIC ANGSTROMS

          GRADIENT NORM           =          0.03281
          IONIZATION POTENTIAL    =          9.550407 EV
          HOMO LUMO ENERGIES (EV) =         -9.550  1.004
          NO. OF FILLED LEVELS    =         30
          MOLECULAR WEIGHT        =        148.247

          MOLECULAR DIMENSIONS (Angstroms)

            Atom       Atom       Distance
            H    23    H    24     9.48407
            H    22    H    16     4.97786
            H    14    H    12     3.32144


          SCF CALCULATIONS        =        171
          COMPUTATION TIME        =          1.761 SECONDS




   ATOM   CHEMICAL          X               Y               Z
  NUMBER   SYMBOL      (ANGSTROMS)     (ANGSTROMS)     (ANGSTROMS)
 
     1       C         -2.15740052  *   0.40321937  *  -0.97816695  *
     2       C         -1.03667451  *  -0.60324089  *  -0.56034648  *
     3       C         -0.52467283  *   0.41160149  *   0.50008937  *
     4       C         -1.63428604  *   1.40778718  *   0.07064657  *
     5       C         -3.48506020  *  -0.28569331  *  -0.65575917  *
     6       C          3.29045750  *   0.60141069  *  -0.07828590  *
     7       C          4.26254457  *  -0.18766745  *   0.77241646  *
     8       C         -1.76926272  *  -1.77889950  *  -0.00281727  *
     9       C          0.86260253  *   0.90528920  *   0.32507484  *
    10       C         -3.09652907  *  -1.60718694  *  -0.06272167  *
    11       C          1.89909585  *   0.10070976  *   0.08591043  *
    12       H         -2.11327110  *   0.77283998  *  -2.01865804  *
    13       H         -0.29833505  *  -0.88454889  *  -1.33433469  *
    14       H         -0.64203842  *   0.04804256  *   1.54371327  *
    15       H         -2.34935898  *   1.66595320  *   0.86689210  *
    16       H         -1.26333727  *   2.35348390  *  -0.35411504  *
    17       H         -4.10409778  *  -0.43241460  *  -1.55980608  *
    18       H         -4.10141277  *   0.30154317  *   0.05052836  *
    19       H          3.36016500  *   1.68004912  *   0.16773701  *
    20       H          3.56583717  *   0.52005725  *  -1.14920916  *
    21       H          4.02993578  *  -0.09578283  *   1.84117827  *
    22       H          4.24314716  *  -1.25754100  *   0.52563120  *
    23       H          5.29196698  *   0.16434980  *   0.62838429  *
    24       H         -3.85482618  *  -2.31640520  *   0.26837524  *
    25       H         -1.23910977  *  -2.64515337  *   0.39109542  *
    26       H          1.76365787  *  -0.98476548  *  -0.00598344  *
    27       H          0.99826578  *   1.99035985  *   0.42391510  *

           Empirical Formula: C11 H16  =    27 atoms



      MOLECULAR POINT GROUP   :   C1  


                  EIGENVALUES  
 -42.35442 -37.01671 -33.10189 -29.59766 -27.79573 -24.64004 -23.34090 -21.07186
 -19.58594 -19.01936 -17.93469 -17.74532 -16.53509 -15.80928 -15.48001 -14.77120
 -14.52382 -13.84804 -13.72046 -13.57430 -13.13026 -12.68574 -12.45441 -12.21047
 -12.00243 -11.91250 -11.58784 -11.53740  -9.77995  -9.55041   1.00406   1.17106
   3.16560   3.25712   3.46113   3.54525   3.58500   3.67758   3.73562   3.89484
   3.90298   3.96835   4.05532   4.10426   4.16725   4.22790   4.24802   4.43440
   4.53378   4.59799   4.75843   4.79824   4.84075   4.88087   5.22870   5.40566
   5.69925   5.80706   5.98194   6.01299


              NET ATOMIC CHARGES AND DIPOLE CONTRIBUTIONS

  ATOM NO.   TYPE          CHARGE      No. of ELECS.   s-Pop       p-Pop       
    1          C          -0.099456        4.0995     1.19708     2.90238
    2          C          -0.063106        4.0631     1.18918     2.87392
    3          C          -0.049937        4.0499     1.17806     2.87188
    4          C          -0.101716        4.1017     1.17745     2.92427
    5          C          -0.057936        4.0579     1.15332     2.90461
    6          C          -0.059545        4.0595     1.14541     2.91413
    7          C          -0.105916        4.1059     1.13769     2.96823
    8          C          -0.148138        4.1481     1.20021     2.94792
    9          C          -0.139883        4.1399     1.19462     2.94526
   10          C          -0.147254        4.1473     1.20445     2.94280
   11          C          -0.154938        4.1549     1.19605     2.95889
   12          H           0.077562        0.9224     0.92244
   13          H           0.087844        0.9122     0.91216
   14          H           0.082084        0.9179     0.91792
   15          H           0.058967        0.9410     0.94103
   16          H           0.058611        0.9414     0.94139
   17          H           0.055599        0.9444     0.94440
   18          H           0.060978        0.9390     0.93902
   19          H           0.050623        0.9494     0.94938
   20          H           0.052427        0.9476     0.94757
   21          H           0.039894        0.9601     0.96011
   22          H           0.037773        0.9622     0.96223
   23          H           0.036519        0.9635     0.96348
   24          H           0.108896        0.8911     0.89110
   25          H           0.112827        0.8872     0.88717
   26          H           0.103945        0.8961     0.89605
   27          H           0.103272        0.8967     0.89673
 DIPOLE           X         Y         Z       TOTAL
 POINT-CHG.    -0.026     0.139    -0.034     0.146
 HYBRID        -0.022    -0.041     0.038     0.060
 SUM           -0.048     0.098     0.003     0.109


          ATOMIC ORBITAL ELECTRON POPULATIONS

    Atom      s        px        py        pz   
    1  C   1.19708   0.94730   0.96763   0.98745
    2  C   1.18918   0.97315   0.92655   0.97422
    3  C   1.17806   0.92516   0.95955   0.98718
    4  C   1.17745   0.97938   0.96152   0.98337
    5  C   1.15332   0.95947   0.94728   0.99786
    6  C   1.14541   0.93284   0.98851   0.99278
    7  C   1.13769   0.97994   0.99383   0.99446
    8  C   1.20021   0.95728   0.98102   1.00963
    9  C   1.19462   0.94686   0.98854   1.00986
   10  C   1.20445   0.96504   0.97501   1.00275
   11  C   1.19605   0.95111   0.99428   1.01350
   12  H   0.92244
   13  H   0.91216
   14  H   0.91792
   15  H   0.94103
   16  H   0.94139
   17  H   0.94440
   18  H   0.93902
   19  H   0.94938
   20  H   0.94757
   21  H   0.96011
   22  H   0.96223
   23  H   0.96348
   24  H   0.89110
   25  H   0.88717
   26  H   0.89605
   27  H   0.89673
 *******************************************************************************
 ** Site#: 14399           For non-commercial use only        Version 13.159M **
 *******************************************************************************
 ** Cite this work as: MOPAC2012, James J. P. Stewart, Stewart Computational  **
 ** Chemistry, Version 13.159M web: HTTP://OpenMOPAC.net  Days remaining:   6 **
 *******************************************************************************
 **                                                                           **
 **                                MOPAC2012                                  **
 **                                                                           **
 *******************************************************************************

                            PM3 CALCULATION RESULTS


 *******************************************************************************
 *  CALCULATION DONE:                                Mon Jun  2 11:10:14 2014  *
 *  PM3      - The PM3 Hamiltonian to be used
 *  OLDGEO   - PREVIOUS GEOMETRY TO BE USED
 *  PRECISE  - CRITERIA TO BE INCREASED BY 100 TIMES
 *  NOSYM    - POINT-GROUP SYMMETRY SET TO C1
 *  T=       - A TIME OF 172800.0 SECONDS REQUESTED
 *  DUMP=N   - RESTART FILE WRITTEN EVERY  7200.000 SECONDS
 *  THERMO   - THERMODYNAMIC QUANTITIES TO BE CALCULATED
 *******************************************************************************
oldgeo thermo nosym precise  pm3

   ATOM   CHEMICAL          X               Y               Z
  NUMBER   SYMBOL      (ANGSTROMS)     (ANGSTROMS)     (ANGSTROMS)
 
     1       C         -2.15740052  *   0.40321937  *  -0.97816695  *
     2       C         -1.03667451  *  -0.60324089  *  -0.56034648  *
     3       C         -0.52467283  *   0.41160149  *   0.50008937  *
     4       C         -1.63428604  *   1.40778718  *   0.07064657  *
     5       C         -3.48506020  *  -0.28569331  *  -0.65575917  *
     6       C          3.29045750  *   0.60141069  *  -0.07828590  *
     7       C          4.26254457  *  -0.18766745  *   0.77241646  *
     8       C         -1.76926272  *  -1.77889950  *  -0.00281727  *
     9       C          0.86260253  *   0.90528920  *   0.32507484  *
    10       C         -3.09652907  *  -1.60718694  *  -0.06272167  *
    11       C          1.89909585  *   0.10070976  *   0.08591043  *
    12       H         -2.11327110  *   0.77283998  *  -2.01865804  *
    13       H         -0.29833505  *  -0.88454889  *  -1.33433469  *
    14       H         -0.64203842  *   0.04804256  *   1.54371327  *
    15       H         -2.34935898  *   1.66595320  *   0.86689210  *
    16       H         -1.26333727  *   2.35348390  *  -0.35411504  *
    17       H         -4.10409778  *  -0.43241460  *  -1.55980608  *
    18       H         -4.10141277  *   0.30154317  *   0.05052836  *
    19       H          3.36016500  *   1.68004912  *   0.16773701  *
    20       H          3.56583717  *   0.52005725  *  -1.14920916  *
    21       H          4.02993578  *  -0.09578283  *   1.84117827  *
    22       H          4.24314716  *  -1.25754100  *   0.52563120  *
    23       H          5.29196698  *   0.16434980  *   0.62838429  *
    24       H         -3.85482618  *  -2.31640520  *   0.26837524  *
    25       H         -1.23910977  *  -2.64515337  *   0.39109542  *
    26       H          1.76365787  *  -0.98476548  *  -0.00598344  *
    27       H          0.99826578  *   1.99035985  *   0.42391510  *
 


          CARTESIAN COORDINATES 

    NO.       ATOM         X         Y         Z

     1         C       -2.1574    0.4032   -0.9782
     2         C       -1.0367   -0.6032   -0.5603
     3         C       -0.5247    0.4116    0.5001
     4         C       -1.6343    1.4078    0.0706
     5         C       -3.4851   -0.2857   -0.6558
     6         C        3.2905    0.6014   -0.0783
     7         C        4.2625   -0.1877    0.7724
     8         C       -1.7693   -1.7789   -0.0028
     9         C        0.8626    0.9053    0.3251
    10         C       -3.0965   -1.6072   -0.0627
    11         C        1.8991    0.1007    0.0859
    12         H       -2.1133    0.7728   -2.0187
    13         H       -0.2983   -0.8845   -1.3343
    14         H       -0.6420    0.0480    1.5437
    15         H       -2.3494    1.6660    0.8669
    16         H       -1.2633    2.3535   -0.3541
    17         H       -4.1041   -0.4324   -1.5598
    18         H       -4.1014    0.3015    0.0505
    19         H        3.3602    1.6800    0.1677
    20         H        3.5658    0.5201   -1.1492
    21         H        4.0299   -0.0958    1.8412
    22         H        4.2431   -1.2575    0.5256
    23         H        5.2920    0.1643    0.6284
    24         H       -3.8548   -2.3164    0.2684
    25         H       -1.2391   -2.6452    0.3911
    26         H        1.7637   -0.9848   -0.0060
    27         H        0.9983    1.9904    0.4239

  H: (PM3): J. J. P. STEWART, J. COMP. CHEM. 10, 209 (1989).
  C: (PM3): J. J. P. STEWART, J. COMP. CHEM. 10, 209 (1989).

           Empirical Formula: C11 H16  =    27 atoms



      MOLECULAR POINT GROUP   :   C1  


      RHF CALCULATION, NO. OF DOUBLY OCCUPIED LEVELS =   30



          HEAT OF FORMATION =      19.634568 KCALS/MOLE


          INTERNAL COORDINATE DERIVATIVES

   NUMBER  ATOM       BOND         ANGLE      DIHEDRAL

     1       C     -0.002333    -0.002341     0.003150
     2       C     -0.000942    -0.001973     0.000423
     3       C     -0.001763    -0.000744     0.001663
     4       C     -0.005009    -0.000532     0.002597
     5       C     -0.000709    -0.002395     0.001267
     6       C     -0.003426     0.006331     0.003347
     7       C      0.005083     0.002305     0.003015
     8       C     -0.001140     0.001386    -0.000481
     9       C      0.005798    -0.000932     0.001094
    10       C      0.000011     0.002051    -0.004214
    11       C     -0.013128     0.000313    -0.002473
    12       H      0.000745    -0.003970     0.001104
    13       H      0.006620     0.005263    -0.005161
    14       H      0.004165    -0.005226     0.001036
    15       H      0.006080     0.005256    -0.005156
    16       H     -0.004481    -0.003427     0.001607
    17       H      0.000267     0.006804    -0.003162
    18       H      0.002426    -0.003711     0.001110
    19       H      0.006128    -0.002101    -0.001196
    20       H     -0.007235    -0.000695     0.003393
    21       H     -0.007282    -0.001050    -0.002843
    22       H      0.006402    -0.003119    -0.000808
    23       H      0.002558     0.000623    -0.001582
    24       H      0.001815     0.001871    -0.001520
    25       H     -0.004670    -0.001126     0.006671
    26       H      0.003652    -0.002145     0.000259
    27       H      0.000368     0.003283    -0.003142


          GRADIENT NORM =   0.03355


          TIME FOR SCF CALCULATION =    0.01

          TIME FOR DERIVATIVES     =    0.01

          MOLECULAR WEIGHT =  148.25



          ROTATIONAL CONSTANTS IN CM(-1)

          A =    0.09931526   B =    0.01668061   C =    0.01516929



           PRINCIPAL MOMENTS OF INERTIA IN UNITS OF 10**(-40)*GRAM-CM**2

          A =      281.8577   B =     1678.1630   C =     1845.3587


          ORIENTATION OF MOLECULE IN FORCE CALCULATION

    NO.       ATOM         X         Y         Z

     1          C      -1.9040   -0.9745    0.3549
     2          C      -0.3408   -0.9745    0.3549
     3          C      -0.3437    0.5800    0.3549
     4          C      -1.8954    0.5690    0.3443
     5          C      -2.3261   -1.6424    1.6653
     6          C       2.1148    1.5705   -2.4559
     7          C       3.5471    1.9585   -2.1574
     8          C       0.0399   -1.6023    1.6552
     9          C       0.2863    1.2410   -0.8135
    10          C      -1.0382   -1.9702    2.3601
    11          C       1.4835    0.8962   -1.2895
    12          H      -2.3884   -1.4294   -0.5280
    13          H       0.1628   -1.4421   -0.5118
    14          H       0.0852    1.0167    1.2825
    15          H      -2.3615    1.0444    1.2212
    16          H      -2.3519    1.0180   -0.5515
    17          H      -2.9171   -2.5599    1.4892
    18          H      -2.9573   -0.9814    2.2884
    19          H       1.5360    2.4644   -2.7639
    20          H       2.0783    0.8775   -3.3206
    21          H       3.6069    2.6710   -1.3247
    22          H       4.1561    1.0864   -1.8843
    23          H       4.0200    2.4300   -3.0283
    24          H      -1.0367   -2.4571    3.3351
    25          H       1.0831   -1.7226    1.9451
    26          H       2.0607    0.0813   -0.8336
    27          H      -0.2887    2.0604   -1.2646


    FIRST DERIVATIVES WILL BE USED IN THE CALCULATION OF SECOND DERIVATIVES

          ESTIMATED TIME TO COMPLETE CALCULATION =        4.68 SECONDS

    FOR POINT-GROUP C1   THERE ARE   1 UNIQUE SYMMETRY FUNCTIONS.

 STEP:   1 TIME =     0.05 SECS, INTEGRAL =      0.05 TIME LEFT: 172799.94
 STEP:   2 TIME =     0.04 SECS, INTEGRAL =      0.09 TIME LEFT: 172799.90
 STEP:   3 TIME =     0.04 SECS, INTEGRAL =      0.13 TIME LEFT: 172799.85
 STEP:   4 TIME =     0.04 SECS, INTEGRAL =      0.18 TIME LEFT: 172799.81
 STEP:   5 TIME =     0.04 SECS, INTEGRAL =      0.22 TIME LEFT: 172799.76
 STEP:   6 TIME =     0.04 SECS, INTEGRAL =      0.27 TIME LEFT: 172799.72
 STEP:   7 TIME =     0.04 SECS, INTEGRAL =      0.31 TIME LEFT: 172799.67
 STEP:   8 TIME =     0.05 SECS, INTEGRAL =      0.36 TIME LEFT: 172799.62
 STEP:   9 TIME =     0.05 SECS, INTEGRAL =      0.41 TIME LEFT: 172799.58
 STEP:  10 TIME =     0.04 SECS, INTEGRAL =      0.45 TIME LEFT: 172799.53
 STEP:  11 TIME =     0.04 SECS, INTEGRAL =      0.50 TIME LEFT: 172799.49
 STEP:  12 TIME =     0.04 SECS, INTEGRAL =      0.54 TIME LEFT: 172799.45
 STEP:  13 TIME =     0.04 SECS, INTEGRAL =      0.58 TIME LEFT: 172799.40
 STEP:  14 TIME =     0.04 SECS, INTEGRAL =      0.63 TIME LEFT: 172799.36
 STEP:  15 TIME =     0.04 SECS, INTEGRAL =      0.67 TIME LEFT: 172799.31
 STEP:  16 TIME =     0.04 SECS, INTEGRAL =      0.72 TIME LEFT: 172799.27
 STEP:  17 TIME =     0.04 SECS, INTEGRAL =      0.76 TIME LEFT: 172799.22
 STEP:  18 TIME =     0.05 SECS, INTEGRAL =      0.81 TIME LEFT: 172799.18
 STEP:  19 TIME =     0.05 SECS, INTEGRAL =      0.86 TIME LEFT: 172799.13
 STEP:  20 TIME =     0.04 SECS, INTEGRAL =      0.90 TIME LEFT: 172799.08
 STEP:  21 TIME =     0.04 SECS, INTEGRAL =      0.95 TIME LEFT: 172799.04
 STEP:  22 TIME =     0.04 SECS, INTEGRAL =      0.99 TIME LEFT: 172799.00
 STEP:  23 TIME =     0.05 SECS, INTEGRAL =      1.04 TIME LEFT: 172798.95
 STEP:  24 TIME =     0.04 SECS, INTEGRAL =      1.08 TIME LEFT: 172798.90
 STEP:  25 TIME =     0.04 SECS, INTEGRAL =      1.13 TIME LEFT: 172798.86
 STEP:  26 TIME =     0.04 SECS, INTEGRAL =      1.17 TIME LEFT: 172798.81
 STEP:  27 TIME =     0.05 SECS, INTEGRAL =      1.22 TIME LEFT: 172798.77
 STEP:  28 TIME =     0.04 SECS, INTEGRAL =      1.26 TIME LEFT: 172798.72
 STEP:  29 TIME =     0.05 SECS, INTEGRAL =      1.31 TIME LEFT: 172798.68
 STEP:  30 TIME =     0.04 SECS, INTEGRAL =      1.35 TIME LEFT: 172798.63
 STEP:  31 TIME =     0.05 SECS, INTEGRAL =      1.40 TIME LEFT: 172798.59
 STEP:  32 TIME =     0.05 SECS, INTEGRAL =      1.44 TIME LEFT: 172798.54
 STEP:  33 TIME =     0.05 SECS, INTEGRAL =      1.49 TIME LEFT: 172798.50
 STEP:  34 TIME =     0.05 SECS, INTEGRAL =      1.54 TIME LEFT: 172798.45
 STEP:  35 TIME =     0.05 SECS, INTEGRAL =      1.58 TIME LEFT: 172798.40
 STEP:  36 TIME =     0.04 SECS, INTEGRAL =      1.63 TIME LEFT: 172798.36
 STEP:  37 TIME =     0.05 SECS, INTEGRAL =      1.67 TIME LEFT: 172798.31
 STEP:  38 TIME =     0.05 SECS, INTEGRAL =      1.72 TIME LEFT: 172798.27
 STEP:  39 TIME =     0.05 SECS, INTEGRAL =      1.76 TIME LEFT: 172798.22
 STEP:  40 TIME =     0.05 SECS, INTEGRAL =      1.81 TIME LEFT: 172798.18
 STEP:  41 TIME =     0.05 SECS, INTEGRAL =      1.86 TIME LEFT: 172798.13
 STEP:  42 TIME =     0.04 SECS, INTEGRAL =      1.90 TIME LEFT: 172798.08
 STEP:  43 TIME =     0.05 SECS, INTEGRAL =      1.95 TIME LEFT: 172798.04
 STEP:  44 TIME =     0.05 SECS, INTEGRAL =      1.99 TIME LEFT: 172797.99
 STEP:  45 TIME =     0.04 SECS, INTEGRAL =      2.04 TIME LEFT: 172797.95
 STEP:  46 TIME =     0.05 SECS, INTEGRAL =      2.08 TIME LEFT: 172797.90
 STEP:  47 TIME =     0.05 SECS, INTEGRAL =      2.13 TIME LEFT: 172797.86
 STEP:  48 TIME =     0.04 SECS, INTEGRAL =      2.17 TIME LEFT: 172797.81
 STEP:  49 TIME =     0.04 SECS, INTEGRAL =      2.22 TIME LEFT: 172797.77
 STEP:  50 TIME =     0.06 SECS, INTEGRAL =      2.27 TIME LEFT: 172797.71
 STEP:  51 TIME =     0.05 SECS, INTEGRAL =      2.33 TIME LEFT: 172797.66
 STEP:  52 TIME =     0.05 SECS, INTEGRAL =      2.37 TIME LEFT: 172797.61
 STEP:  53 TIME =     0.05 SECS, INTEGRAL =      2.43 TIME LEFT: 172797.56
 STEP:  54 TIME =     0.05 SECS, INTEGRAL =      2.47 TIME LEFT: 172797.51
 STEP:  55 TIME =     0.05 SECS, INTEGRAL =      2.52 TIME LEFT: 172797.46
 STEP:  56 TIME =     0.05 SECS, INTEGRAL =      2.57 TIME LEFT: 172797.42
 STEP:  57 TIME =     0.05 SECS, INTEGRAL =      2.61 TIME LEFT: 172797.37
 STEP:  58 TIME =     0.05 SECS, INTEGRAL =      2.66 TIME LEFT: 172797.33
 STEP:  59 TIME =     0.05 SECS, INTEGRAL =      2.71 TIME LEFT: 172797.28
 STEP:  60 TIME =     0.04 SECS, INTEGRAL =      2.75 TIME LEFT: 172797.23
 STEP:  61 TIME =     0.05 SECS, INTEGRAL =      2.80 TIME LEFT: 172797.19
 STEP:  62 TIME =     0.05 SECS, INTEGRAL =      2.84 TIME LEFT: 172797.14
 STEP:  63 TIME =     0.04 SECS, INTEGRAL =      2.89 TIME LEFT: 172797.10
 STEP:  64 TIME =     0.05 SECS, INTEGRAL =      2.93 TIME LEFT: 172797.05
 STEP:  65 TIME =     0.04 SECS, INTEGRAL =      2.98 TIME LEFT: 172797.01
 STEP:  66 TIME =     0.05 SECS, INTEGRAL =      3.02 TIME LEFT: 172796.96
 STEP:  67 TIME =     0.05 SECS, INTEGRAL =      3.07 TIME LEFT: 172796.92
 STEP:  68 TIME =     0.05 SECS, INTEGRAL =      3.11 TIME LEFT: 172796.87
 STEP:  69 TIME =     0.04 SECS, INTEGRAL =      3.16 TIME LEFT: 172796.83
 STEP:  70 TIME =     0.05 SECS, INTEGRAL =      3.20 TIME LEFT: 172796.78
 STEP:  71 TIME =     0.05 SECS, INTEGRAL =      3.25 TIME LEFT: 172796.74
 STEP:  72 TIME =     0.04 SECS, INTEGRAL =      3.29 TIME LEFT: 172796.69
 STEP:  73 TIME =     0.04 SECS, INTEGRAL =      3.34 TIME LEFT: 172796.65
 STEP:  74 TIME =     0.05 SECS, INTEGRAL =      3.38 TIME LEFT: 172796.60
 STEP:  75 TIME =     0.05 SECS, INTEGRAL =      3.43 TIME LEFT: 172796.56
 STEP:  76 TIME =     0.05 SECS, INTEGRAL =      3.48 TIME LEFT: 172796.51
 STEP:  77 TIME =     0.05 SECS, INTEGRAL =      3.52 TIME LEFT: 172796.47
 STEP:  78 TIME =     0.05 SECS, INTEGRAL =      3.57 TIME LEFT: 172796.41
 STEP:  79 TIME =     0.05 SECS, INTEGRAL =      3.62 TIME LEFT: 172796.36
 STEP:  80 TIME =     0.05 SECS, INTEGRAL =      3.67 TIME LEFT: 172796.31
 STEP:  81 TIME =     0.07 SECS, INTEGRAL =      3.74 TIME LEFT: 172796.25

(To convert to Hartree/Bohr^2, multiply by (10^(-21) x N x a0^2)/(4.184 x 627.51) = 0.0642)


           FORCE MATRIX IN MILLIDYNES/ANGSTROM


                  C  1       C  2       C  3       C  4       C  5       C  6
 ------------------------------------------------------------------------------
     C    1  14.508576
     C    2   3.024910  14.805494
     C    3   1.765793   3.180018  14.739625
     C    4   3.588770   1.797511   3.367097  14.333472
     C    5   3.870380   0.707096   0.047463   0.507863  14.671111
     C    6   0.001666   0.008813   0.137907   0.010415   0.000370  14.698387
     C    7   0.000322   0.001792   0.018889   0.000803   0.000473   4.408652
     C    8   0.833616   4.759447   0.551269   0.046007   1.124482   0.001440
     C    9   0.036487   0.551454   5.065315   0.575324   0.002432   0.824379
     C   10   0.901319   1.191042   0.042822   0.030797   4.577399   0.000636
     C   11   0.006541   0.053072   0.819700   0.048078   0.001001   4.968330
     H   12   4.590156   0.420198   0.028361   0.427068   0.425271   0.000299
     H   13   0.409518   4.540462   0.435096   0.028250   0.030758   0.001702
     H   14   0.026497   0.441856   4.387106   0.430294   0.003156   0.015503
     H   15   0.450618   0.030046   0.438336   4.674308   0.024213   0.001265
     H   16   0.444185   0.027990   0.453180   4.670707   0.034795   0.000969
     H   17   0.438307   0.023638   0.005107   0.033367   4.524164   0.000251
     H   18   0.443942   0.033985   0.002065   0.031797   4.494238   0.000273
     H   19   0.000181   0.000414   0.003056   0.000738   0.000282   4.440003
     H   20   0.000340   0.001111   0.017154   0.001722   0.000327   4.420791
     H   21   0.000236   0.000239   0.000810   0.000144   0.000152   0.460971
     H   22   0.000194   0.000136   0.000674   0.000104   0.000075   0.464037
     H   23   0.000231   0.000292   0.003251   0.000246   0.000168   0.449155
     H   24   0.042714   0.114195   0.016803   0.003422   0.411188   0.000390
     H   25   0.041262   0.416405   0.006738   0.002663   0.114604   0.000848
     H   26   0.001791   0.017443   0.083175   0.002959   0.000698   0.429993
     H   27   0.002042   0.033747   0.432659   0.032618   0.000379   0.084117


                  C  7       C  8       C  9       C 10       C 11       H 12
 ------------------------------------------------------------------------------
     C    7  14.350697
     C    8   0.000571  18.319934
     C    9   0.041487   0.034493  18.276027
     C   10   0.000633  10.474464   0.005887  18.241395
     C   11   0.717057   0.004185  10.678165   0.001229  18.181117
     H   12   0.000259   0.033584   0.002489   0.033540   0.000799   5.091194
     H   13   0.000502   0.417840   0.018271   0.039496   0.014883   0.015522
     H   14   0.002626   0.026446   0.390992   0.004676   0.025296   0.001180
     H   15   0.000371   0.003629   0.034153   0.002168   0.005532   0.029017
     H   16   0.000381   0.001548   0.028931   0.002122   0.003081   0.027440
     H   17   0.000179   0.037970   0.000739   0.429550   0.000356   0.032462
     H   18   0.000167   0.038464   0.000630   0.431593   0.000342   0.020428
     H   19   0.434814   0.000293   0.050115   0.000242   0.459551   0.000081
     H   20   0.445877   0.000932   0.030700   0.000354   0.409143   0.000091
     H   21   4.746341   0.000335   0.002240   0.000315   0.015943   0.000093
     H   22   4.726115   0.000217   0.002019   0.000238   0.027426   0.000067
     H   23   4.750491   0.000196   0.006949   0.000301   0.052050   0.000078
     H   24   0.000310   0.447440   0.002237   5.013655   0.000343   0.003972
     H   25   0.000240   5.026429   0.001791   0.448887   0.001197   0.003644
     H   26   0.026226   0.003324   0.471257   0.000962   4.762295   0.000448
     H   27   0.008149   0.005388   4.750660   0.001287   0.470185   0.000759


                  H 13       H 14       H 15       H 16       H 17       H 18
 ------------------------------------------------------------------------------
     H   13   5.054796
     H   14   0.026938   4.868521
     H   15   0.001135   0.026547   5.297672
     H   16   0.002686   0.031408   0.549636   5.294995
     H   17   0.001096   0.000670   0.002562   0.003579   5.124852
     H   18   0.004439   0.000597   0.028855   0.002549   0.564870   5.107382
     H   19   0.000440   0.000310   0.000112   0.000180   0.000058   0.000060
     H   20   0.000493   0.001685   0.000306   0.000192   0.000071   0.000078
     H   21   0.000136   0.000219   0.000095   0.000098   0.000049   0.000048
     H   22   0.000132   0.000189   0.000098   0.000134   0.000072   0.000063
     H   23   0.000147   0.000592   0.000094   0.000123   0.000091   0.000095
     H   24   0.012741   0.000907   0.000746   0.000630   0.014756   0.014071
     H   25   0.013777   0.003440   0.000663   0.000633   0.015875   0.015349
     H   26   0.024708   0.009590   0.000634   0.000674   0.000170   0.000158
     H   27   0.002894   0.014418   0.001881   0.029772   0.000166   0.000205


                  H 19       H 20       H 21       H 22       H 23       H 24
 ------------------------------------------------------------------------------
     H   19   5.051528
     H   20   0.566098   5.019461
     H   21   0.024620   0.049045   5.485072
     H   22   0.047265   0.023885   0.577699   5.471068
     H   23   0.030147   0.028632   0.572320   0.572726   5.488263
     H   24   0.000115   0.000095   0.000105   0.000118   0.000072   5.408313
     H   25   0.000179   0.000227   0.000165   0.000122   0.000110   0.047153
     H   26   0.038728   0.017566   0.002545   0.019920   0.002089   0.000383
     H   27   0.030059   0.009574   0.000526   0.000604   0.001589   0.000461


                  H 25       H 26       H 27
 ------------------------------------------
     H   25   5.421692
     H   26   0.001145   5.143473
     H   27   0.000620   0.103801   5.125004


          HEAT OF FORMATION =      19.634568 KCALS/MOLE

          ZERO POINT ENERGY     150.470 KCAL/MOL


           NORMAL COORDINATE ANALYSIS (Total motion = 1 Angstrom)


   Root No.       1         2         3         4         5         6         7         8

                 1 A       2 A       3 A       4 A       5 A       6 A       7 A       8 A   

                  48.2      70.8     115.2     125.7     158.0     194.5     239.6     292.8
  
           1   -0.0098   -0.0166   -0.0083   -0.0087   -0.0010    0.0002   -0.0129    0.0217
           2    0.0109   -0.0043   -0.0090    0.0033    0.0064   -0.0035   -0.0059   -0.0024
           3    0.0093    0.0132    0.0060    0.0031    0.0064    0.0022   -0.0131   -0.0205
           4   -0.0097   -0.0167   -0.0076   -0.0089   -0.0010    0.0006   -0.0128    0.0227
           5   -0.0097   -0.0025   -0.0245    0.0040   -0.0011   -0.0093   -0.0186   -0.0119
           6   -0.0072   -0.0220    0.0020   -0.0048    0.0033    0.0015   -0.0322   -0.0070
           7    0.0106   -0.0192    0.0075   -0.0088    0.0081    0.0064    0.0021    0.0167
           8   -0.0096   -0.0024   -0.0243    0.0044   -0.0020   -0.0088   -0.0195   -0.0087
           9   -0.0065   -0.0206   -0.0089    0.0001   -0.0131   -0.0034    0.0032    0.0101
          10    0.0104   -0.0188    0.0071   -0.0090    0.0081    0.0064    0.0025    0.0214
          11    0.0108   -0.0043   -0.0098    0.0037    0.0074   -0.0037   -0.0045   -0.0049
          12    0.0095   -0.0086   -0.0140    0.0138    0.0400    0.0043    0.0175    0.0018
          13   -0.0048    0.0157   -0.0138   -0.0016   -0.0047   -0.0044    0.0022    0.0032
          14    0.0164    0.0126    0.0179   -0.0083   -0.0235   -0.0008   -0.0146    0.0326
          15    0.0137    0.0328    0.0182   -0.0006   -0.0109    0.0020   -0.0129   -0.0111
          16    0.0104    0.0123    0.0014    0.0099    0.0093    0.0003   -0.0051   -0.0220
          17   -0.0245    0.0087    0.0405   -0.0184    0.0147    0.0247   -0.0046   -0.0028
          18   -0.0116    0.0136    0.0051    0.0116   -0.0073   -0.0036    0.0124    0.0000
          19   -0.0170    0.0163    0.0133    0.0130    0.0109    0.0073   -0.0041   -0.0230
          20    0.0513   -0.0187    0.0184    0.0054   -0.0052   -0.0039    0.0029   -0.0173
          21    0.0217    0.0317   -0.0242   -0.0366    0.0151    0.0030   -0.0061    0.0191
          22   -0.0044    0.0156   -0.0133   -0.0018   -0.0055   -0.0044    0.0018    0.0053
          23   -0.0148   -0.0008   -0.0167   -0.0024    0.0146   -0.0052    0.0170   -0.0216
          24   -0.0112   -0.0311    0.0081   -0.0102    0.0131    0.0058   -0.0201   -0.0062
          25    0.0083   -0.0176    0.0097   -0.0118   -0.0189   -0.0014    0.0131   -0.0240
          26   -0.0183   -0.0004   -0.0206   -0.0098   -0.0195    0.0021    0.0010   -0.0049
          27   -0.0127   -0.0184   -0.0051   -0.0104   -0.0390   -0.0023    0.0243   -0.0061
          28   -0.0018    0.0326   -0.0160    0.0022   -0.0068   -0.0064    0.0083   -0.0060
          29   -0.0008    0.0077    0.0080   -0.0099    0.0030    0.0009    0.0581    0.0224
          30    0.0000   -0.0008    0.0170   -0.0081    0.0053    0.0061    0.0106   -0.0002
          31    0.0087   -0.0081    0.0202    0.0243   -0.0039   -0.0067    0.0055   -0.0115
          32   -0.0204    0.0061    0.0103    0.0322    0.0055    0.0062   -0.0113    0.0202
          33   -0.0101    0.0006   -0.0009    0.0485   -0.0198   -0.0178    0.0137    0.0143
          34   -0.0251   -0.0367   -0.0154   -0.0129   -0.0038   -0.0016   -0.0324    0.0252
          35    0.0174   -0.0178   -0.0174    0.0101    0.0315   -0.0007    0.0141   -0.0023
          36    0.0144    0.0313    0.0144    0.0018   -0.0051    0.0018   -0.0123   -0.0218
          37   -0.0244   -0.0361   -0.0123   -0.0116   -0.0019   -0.0005   -0.0226    0.0318
          38   -0.0154   -0.0004   -0.0345    0.0095   -0.0152   -0.0150   -0.0188   -0.0018
          39   -0.0126   -0.0344    0.0050   -0.0093    0.0106    0.0042   -0.0365   -0.0068
          40    0.0256   -0.0160    0.0078   -0.0012    0.0424    0.0124    0.0110    0.0271
          41   -0.0157   -0.0045   -0.0258    0.0041    0.0063   -0.0109   -0.0493   -0.0134
          42   -0.0106   -0.0208   -0.0082   -0.0036   -0.0327   -0.0049    0.0140    0.0066
          43    0.0258   -0.0135    0.0082   -0.0005    0.0445    0.0128    0.0165    0.0163
          44    0.0168    0.0083    0.0070   -0.0032   -0.0122   -0.0034   -0.0191   -0.0172
          45    0.0145   -0.0127   -0.0226    0.0221    0.0702    0.0076    0.0330    0.0063
          46    0.0069   -0.0250    0.0145   -0.0185   -0.0233    0.0033   -0.0018    0.0249
          47    0.0170   -0.0184   -0.0177    0.0101    0.0328   -0.0004    0.0195    0.0108
          48    0.0144   -0.0125   -0.0219    0.0219    0.0691    0.0076    0.0321    0.0074
          49   -0.0188    0.0017   -0.0300    0.0007    0.0268   -0.0035    0.0642   -0.0159
          50    0.0242    0.0166    0.0250   -0.0088   -0.0394   -0.0014   -0.0545    0.0413
          51    0.0199    0.0595    0.0355   -0.0057   -0.0354    0.0021   -0.0156    0.0091
          52    0.0105    0.0404   -0.0001   -0.0013   -0.0364   -0.0068   -0.0528    0.0139
          53    0.0247    0.0250    0.0380   -0.0153   -0.0517    0.0003   -0.0473    0.0601
          54    0.0205    0.0448    0.0110    0.0071   -0.0136   -0.0016   -0.0350   -0.0284
          55   -0.0221    0.0296    0.0026   -0.0003    0.0207    0.0140   -0.0123   -0.0156
          56   -0.0600    0.0216    0.0562   -0.0375    0.0254    0.0386   -0.0063   -0.0034
          57   -0.0539    0.0190    0.0477   -0.0247    0.0026    0.0120    0.0202   -0.0126
          58    0.0688    0.0091   -0.0284   -0.0002    0.0110   -0.0099   -0.0121   -0.0237
          59   -0.0501    0.0193    0.0680   -0.0629    0.0294    0.0399   -0.0030   -0.0144
          60    0.0065    0.0053   -0.0158    0.0473   -0.0190   -0.0154    0.0112    0.0097
          61   -0.0760    0.0202    0.0452    0.0249    0.0109    0.0032    0.0027   -0.0295
          62    0.0754   -0.0273   -0.0156    0.0564   -0.0380    0.1528    0.0097   -0.0252
          63    0.0053    0.0388    0.0026   -0.0811    0.0433   -0.1308   -0.0124    0.0265
          64    0.0156   -0.0013    0.0160    0.0218    0.0041   -0.0595    0.0025   -0.0358
          65    0.0868   -0.0316    0.0031    0.0247   -0.0196    0.0124    0.0075   -0.0257
          66    0.0626    0.0299   -0.0792    0.0056   -0.0155    0.2054   -0.0065    0.0218
          67   -0.0128    0.0331   -0.0113   -0.0045    0.0186    0.0857   -0.0164   -0.0051
          68    0.0512   -0.0189    0.0504   -0.0455    0.0256   -0.1996   -0.0018   -0.0153
          69    0.0239    0.0408   -0.0204   -0.0737    0.0361   -0.0604   -0.0154    0.0305
          70    0.0020    0.0562   -0.0192    0.0075   -0.0089   -0.0090    0.0175   -0.0208
          71   -0.0007    0.0114    0.0199   -0.0161    0.0101    0.0060    0.1234    0.0425
          72    0.0001    0.0010    0.0230   -0.0112    0.0088    0.0087    0.0430    0.0098
          73   -0.0029    0.0229   -0.0142   -0.0002   -0.0066   -0.0054    0.0053    0.0014
          74   -0.0285   -0.0055   -0.0300   -0.0010    0.0337   -0.0068    0.0326   -0.0562
          75   -0.0221   -0.0592    0.0058   -0.0153    0.0251    0.0087   -0.0265   -0.0066
          76    0.0095   -0.0127    0.0376    0.0565    0.0081   -0.0130   -0.0025    0.0118
          77   -0.0165    0.0090    0.0197    0.0942    0.0253   -0.0095   -0.0274    0.0582
          78   -0.0043    0.0121   -0.0073    0.1184    0.0008   -0.0368   -0.0055    0.0536
          79    0.0073   -0.0193   -0.0019   -0.0460   -0.0412   -0.0005    0.0266   -0.0586
          80   -0.0223   -0.0070   -0.0298   -0.0698   -0.0480    0.0138    0.0217   -0.0454
          81   -0.0189   -0.0275   -0.0084   -0.0754   -0.0619    0.0179    0.0448   -0.0349


   Root No.       9        10        11        12        13        14        15        16

                 9 A      10 A      11 A      12 A      13 A      14 A      15 A      16 A   

                 334.1     423.8     448.3     503.2     554.5     651.3     739.5     772.1
  
           1   -0.0029    0.0129   -0.0069    0.0010   -0.0131   -0.0082    0.0021    0.0124
           2   -0.0158   -0.0162   -0.0114    0.0168    0.0064    0.0250   -0.0110    0.0128
           3    0.0070   -0.0168   -0.0086    0.0094   -0.0120   -0.0274   -0.0374    0.0237
           4   -0.0022    0.0133   -0.0053    0.0013   -0.0122   -0.0143   -0.0260    0.0169
           5   -0.0171    0.0035   -0.0154   -0.0159   -0.0045   -0.0258    0.0065   -0.0110
           6   -0.0031   -0.0016   -0.0180   -0.0022    0.0028    0.0194   -0.0147   -0.0023
           7    0.0044   -0.0139    0.0097    0.0167    0.0027   -0.0285    0.0093   -0.0123
           8   -0.0097    0.0043   -0.0216   -0.0134   -0.0156   -0.0253    0.0251    0.0024
           9   -0.0060   -0.0007   -0.0144   -0.0161    0.0590   -0.0248    0.0135   -0.0046
          10    0.0035   -0.0135    0.0120    0.0282   -0.0010   -0.0309    0.0126   -0.0141
          11   -0.0170   -0.0181   -0.0099    0.0174    0.0074    0.0282    0.0081    0.0101
          12    0.0072    0.0283    0.0082   -0.0207   -0.0057   -0.0049   -0.0052    0.0061
          13   -0.0100   -0.0010   -0.0039    0.0046    0.0066    0.0398    0.0370   -0.0102
          14   -0.0079    0.0234    0.0113   -0.0055    0.0051    0.0198   -0.0157   -0.0124
          15    0.0106   -0.0036    0.0047   -0.0018   -0.0090   -0.0266    0.0014   -0.0080
          16    0.0266    0.0166   -0.0094    0.0014    0.0170   -0.0008    0.0014    0.0002
          17   -0.0135   -0.0051   -0.0014   -0.0102    0.0033    0.0032   -0.0042    0.0008
          18   -0.0319    0.0220   -0.0024    0.0381   -0.0121   -0.0058   -0.0004   -0.0022
          19    0.0202    0.0212   -0.0119    0.0050    0.0243   -0.0013    0.0002    0.0001
          20   -0.0003    0.0147   -0.0067    0.0066    0.0072   -0.0016    0.0005    0.0001
          21   -0.0029   -0.0149    0.0052   -0.0073   -0.0048    0.0000    0.0000   -0.0004
          22   -0.0112    0.0018   -0.0028    0.0021    0.0097    0.0218   -0.0461    0.0145
          23   -0.0165   -0.0011    0.0529    0.0013    0.0164   -0.0180   -0.0098   -0.0320
          24    0.0033   -0.0004    0.0129    0.0093    0.0002    0.0326   -0.0067   -0.0075
          25   -0.0064   -0.0159    0.0091   -0.0315   -0.0244    0.0030    0.0016    0.0012
          26    0.0514    0.0017    0.0076    0.0193   -0.0405   -0.0065    0.0136   -0.0001
          27    0.0123   -0.0053    0.0080   -0.0154    0.0243    0.0085   -0.0077   -0.0001
          28   -0.0111   -0.0052    0.0012    0.0019    0.0101    0.0150    0.0028   -0.0040
          29    0.0027    0.0055   -0.0219   -0.0083    0.0004   -0.0106   -0.0308   -0.0127
          30    0.0148   -0.0068   -0.0208    0.0036   -0.0109    0.0203    0.0529   -0.0214
          31   -0.0157   -0.0195    0.0088   -0.0322   -0.0275    0.0058   -0.0012    0.0026
          32    0.0537   -0.0209    0.0093   -0.0086    0.0086    0.0112   -0.0075   -0.0003
          33   -0.0145   -0.0054    0.0103    0.0099   -0.0230    0.0045   -0.0028    0.0010
          34   -0.0086    0.0268   -0.0205   -0.0140   -0.0199   -0.0111   -0.0232    0.0227
          35   -0.0160   -0.0209   -0.0061    0.0280    0.0127    0.0454   -0.0037    0.0248
          36    0.0102   -0.0207   -0.0029    0.0111   -0.0113   -0.0366   -0.0262    0.0110
          37   -0.0057    0.0306   -0.0029   -0.0152   -0.0099   -0.0112    0.0065   -0.0042
          38   -0.0215    0.0132   -0.0451   -0.0445    0.0117   -0.0620    0.0346    0.0048
          39   -0.0020    0.0031    0.0006    0.0041   -0.0044    0.0410   -0.0112   -0.0229
          40    0.0055   -0.0082    0.0242    0.0408   -0.0029   -0.0376    0.0218   -0.0269
          41   -0.0283    0.0150   -0.0447   -0.0258   -0.0332   -0.0289    0.0139    0.0086
          42    0.0029   -0.0082   -0.0086   -0.0210    0.0684   -0.0176    0.0116   -0.0011
          43    0.0110    0.0055    0.0364    0.0258   -0.0578    0.0130   -0.0061   -0.0199
          44   -0.0174   -0.0642   -0.0181    0.0592    0.0216   -0.0003   -0.0324    0.0463
          45    0.0117    0.0654    0.0263   -0.0462   -0.0453    0.0365    0.0067   -0.0169
          46   -0.0046   -0.0487   -0.0003    0.0507    0.0652   -0.0655    0.0317   -0.0225
          47   -0.0168    0.0159    0.0105   -0.0043    0.0036    0.0784    0.0468   -0.0324
          48    0.0116    0.0649    0.0254   -0.0451   -0.0434    0.0394    0.0050   -0.0123
          49   -0.0042   -0.0446   -0.0758    0.0210   -0.0042    0.0465   -0.0156   -0.0873
          50   -0.0127    0.0457    0.0527   -0.0115    0.0112    0.0188    0.0139    0.0401
          51    0.0152    0.0319    0.0391   -0.0287   -0.0014   -0.0408    0.0400   -0.0145
          52   -0.0178    0.0347    0.0671   -0.0101    0.0237    0.0387    0.0911    0.0569
          53   -0.0062    0.0675    0.0615   -0.0276    0.0109    0.0140    0.0459    0.0186
          54    0.0009   -0.0116    0.0266    0.0053    0.0026   -0.0223   -0.0080    0.0311
          55    0.0376    0.0145   -0.0112    0.0005    0.0280   -0.0017    0.0052    0.0000
          56   -0.0368   -0.0034   -0.0049   -0.0099   -0.0016   -0.0064    0.0105    0.0007
          57   -0.1158    0.0294   -0.0087    0.0380   -0.0424   -0.0298    0.0318   -0.0022
          58    0.0631    0.0195   -0.0137   -0.0035    0.0459    0.0040   -0.0106   -0.0004
          59   -0.0749    0.0030   -0.0105   -0.0134   -0.0104   -0.0187    0.0246    0.0010
          60    0.0151    0.0148    0.0052    0.0403   -0.0029    0.0110   -0.0220   -0.0024
          61   -0.0020    0.0414   -0.0176    0.0341    0.0266   -0.0043   -0.0090   -0.0028
          62   -0.0239    0.0258   -0.0105    0.0195    0.0066   -0.0067    0.0044   -0.0014
          63    0.0188   -0.0264    0.0091   -0.0210   -0.0049    0.0046   -0.0023    0.0011
          64    0.0294    0.0451   -0.0186    0.0306    0.0288   -0.0098    0.0096   -0.0022
          65    0.0009    0.0278   -0.0106    0.0195    0.0093   -0.0074    0.0087   -0.0011
          66   -0.0199   -0.0288    0.0083   -0.0260   -0.0086    0.0015    0.0035    0.0011
          67    0.0254   -0.0181   -0.0018   -0.0439    0.0223    0.0098   -0.0041    0.0047
          68    0.0321    0.0136   -0.0059    0.0033    0.0101   -0.0010    0.0041    0.0008
          69    0.0174   -0.0380    0.0117   -0.0368   -0.0051    0.0067   -0.0007    0.0025
          70   -0.0099   -0.0130    0.0082   -0.0021    0.0081   -0.0370    0.0162   -0.0189
          71    0.0199    0.0004   -0.0603   -0.0109    0.0015   -0.0192    0.0584    0.2347
          72    0.0235   -0.0093   -0.0401    0.0023   -0.0107    0.0162    0.0976    0.1022
          73   -0.0124   -0.0013   -0.0029    0.0018    0.0135    0.0258   -0.0333    0.0021
          74   -0.0285   -0.0146    0.1534    0.0213    0.0676   -0.0211    0.0759    0.1590
          75    0.0027    0.0052    0.0550    0.0188    0.0077    0.0162   -0.0184    0.1168
          76   -0.0382   -0.0494    0.0108   -0.0753   -0.0059    0.0017    0.0017    0.0029
          77    0.0373   -0.0523    0.0106   -0.0362    0.0221   -0.0041    0.0088   -0.0026
          78   -0.0123   -0.0238    0.0102    0.0146   -0.0234   -0.0174    0.0221   -0.0037
          79   -0.0100    0.0025    0.0099   -0.0237   -0.0708    0.0218   -0.0066    0.0091
          80    0.0722    0.0250    0.0145    0.0384   -0.0743    0.0249   -0.0122    0.0041
          81    0.0565    0.0145    0.0202    0.0107    0.0211    0.0413   -0.0447   -0.0026


   Root No.      17        18        19        20        21        22        23        24

                17 A      18 A      19 A      20 A      21 A      22 A      23 A      24 A   

                 811.8     819.4     891.3     897.0     915.1     924.2     951.1     966.2
  
           1   -0.0155   -0.0369   -0.0091    0.0033   -0.0030   -0.0051    0.0243    0.0145
           2   -0.0024   -0.0167    0.0023   -0.0018   -0.0008   -0.0002    0.0014   -0.0093
           3   -0.0032   -0.0186   -0.0015    0.0079   -0.0021   -0.0018    0.0133   -0.0018
           4   -0.0080   -0.0232   -0.0111   -0.0108   -0.0094    0.0024   -0.0309   -0.0086
           5   -0.0076    0.0116   -0.0109   -0.0079    0.0080   -0.0007    0.0083   -0.0078
           6    0.0124    0.0378    0.0025   -0.0042    0.0072   -0.0009    0.0164    0.0037
           7    0.0024    0.0125    0.0078    0.0008    0.0060   -0.0013    0.0158   -0.0073
           8    0.0008    0.0083    0.0160    0.0064    0.0017   -0.0008   -0.0047    0.0019
           9    0.0039    0.0024    0.0079    0.0020    0.0052   -0.0002   -0.0021    0.0024
          10    0.0003    0.0202    0.0014   -0.0109    0.0020   -0.0011   -0.0066    0.0005
          11   -0.0051   -0.0041   -0.0230   -0.0084   -0.0152   -0.0015   -0.0048    0.0205
          12    0.0007   -0.0078    0.0016    0.0349    0.0108    0.0034   -0.0070    0.0006
          13   -0.0052   -0.0145    0.0054    0.0122    0.0068    0.0012   -0.0040   -0.0139
          14    0.0013   -0.0180    0.0293   -0.0075    0.0196    0.0021    0.0079   -0.0066
          15   -0.0060   -0.0079    0.0006   -0.0249   -0.0013    0.0008   -0.0102    0.0046
          16    0.0112   -0.0039   -0.0020   -0.0003    0.0021   -0.0023   -0.0002    0.0003
          17   -0.0270    0.0077    0.0049    0.0033   -0.0010    0.0011   -0.0019    0.0006
          18   -0.0160    0.0081    0.0022   -0.0009    0.0004   -0.0023    0.0032   -0.0077
          19    0.0055   -0.0048   -0.0026   -0.0023   -0.0010    0.0007   -0.0027    0.0082
          20   -0.0034    0.0004    0.0044    0.0026   -0.0057    0.0076   -0.0033    0.0133
          21   -0.0041    0.0018    0.0025   -0.0010   -0.0051    0.0058    0.0061   -0.0153
          22    0.0199    0.0290    0.0099    0.0035   -0.0030    0.0016   -0.0028    0.0059
          23   -0.0042   -0.0074   -0.0174    0.0093   -0.0097   -0.0026    0.0083   -0.0127
          24    0.0096    0.0078    0.0024    0.0108   -0.0074    0.0015   -0.0070   -0.0064
          25    0.0001    0.0013    0.0098    0.0034   -0.0129   -0.0052    0.0038   -0.0078
          26    0.0230    0.0034    0.0230    0.0117   -0.0233   -0.0032   -0.0016    0.0038
          27    0.0018   -0.0122   -0.0018   -0.0109   -0.0223   -0.0083    0.0055   -0.0034
          28    0.0038    0.0102    0.0006   -0.0005    0.0006   -0.0004    0.0055    0.0037
          29    0.0057    0.0083   -0.0031    0.0062   -0.0041    0.0001   -0.0078    0.0101
          30   -0.0104   -0.0162   -0.0036    0.0047    0.0007   -0.0006    0.0024    0.0060
          31   -0.0039    0.0038    0.0008    0.0075    0.0110   -0.0140   -0.0035    0.0000
          32   -0.0038    0.0022   -0.0108   -0.0047    0.0157   -0.0270    0.0020   -0.0092
          33   -0.0013    0.0018   -0.0041    0.0031    0.0118   -0.0197   -0.0081    0.0145
          34   -0.0180   -0.0194   -0.0418   -0.0207   -0.0094   -0.0198    0.1346    0.0805
          35    0.0039   -0.0123   -0.0069    0.0449   -0.0092    0.0071   -0.0635   -0.0305
          36   -0.0053   -0.0297    0.0198   -0.0049    0.0051    0.0028   -0.0167   -0.0269
          37   -0.0235   -0.0333   -0.0492   -0.0395   -0.0167    0.0186   -0.1097   -0.0234
          38   -0.0189    0.0131   -0.0173   -0.0351    0.0245    0.0179   -0.0411   -0.0141
          39    0.0103    0.0310   -0.0150   -0.0054   -0.0064   -0.0012   -0.0048   -0.0027
          40   -0.0021    0.0267   -0.0063    0.0445    0.0457    0.0057    0.0349    0.0114
          41   -0.0112    0.0519    0.0139   -0.0251    0.0474    0.0001   -0.0250   -0.0222
          42    0.0115   -0.0248    0.0143   -0.0048   -0.0361   -0.0039   -0.0011    0.0050
          43   -0.0032    0.0406   -0.0258   -0.1006   -0.0453   -0.0131    0.0276   -0.0082
          44   -0.0081   -0.0258   -0.0582    0.0707   -0.0184    0.0005   -0.0154    0.0193
          45    0.0006    0.0153    0.0069   -0.0606   -0.0145   -0.0045    0.0169   -0.0035
          46    0.0069    0.0344    0.0014    0.0519    0.0436    0.0163   -0.0606    0.0190
          47    0.0020    0.0449   -0.0186   -0.1196   -0.0302    0.0001   -0.0292    0.0368
          48    0.0008    0.0108    0.0042   -0.0574   -0.0187   -0.0049    0.0112   -0.0008
          49   -0.0069   -0.0593    0.0754   -0.0458    0.0496    0.0096   -0.0249   -0.0122
          50   -0.0003   -0.0022   -0.0083    0.0264   -0.0033   -0.0039    0.0332   -0.0158
          51    0.0075    0.0677   -0.0499    0.0033   -0.0311    0.0030   -0.0706    0.0468
          52    0.0020    0.0460   -0.0609    0.0585   -0.0363   -0.0029   -0.0171   -0.0347
          53    0.0022    0.0271   -0.0344    0.0544   -0.0119   -0.0035    0.0081    0.0267
          54    0.0011    0.0089   -0.0019   -0.0404   -0.0137    0.0024   -0.0242   -0.0514
          55    0.0535   -0.0185   -0.0267   -0.0149    0.0277   -0.0420    0.0039   -0.0344
          56    0.0575   -0.0179   -0.0170   -0.0085    0.0165   -0.0224    0.0015   -0.0165
          57    0.1350   -0.0356   -0.0132   -0.0073    0.0013    0.0053    0.0048    0.0094
          58   -0.0865    0.0220    0.0439    0.0153   -0.0617    0.0742    0.0068    0.0077
          59    0.0969   -0.0303    0.0031    0.0006   -0.0220    0.0325    0.0022    0.0126
          60   -0.1059    0.0358    0.0006    0.0002    0.0209   -0.0316   -0.0006   -0.0171
          61   -0.1074    0.0330    0.0515    0.0144   -0.0695    0.0844    0.0174   -0.0161
          62    0.0145   -0.0043   -0.0015   -0.0052   -0.0047    0.0037    0.0097   -0.0255
          63   -0.0078    0.0020    0.0020    0.0040    0.0010    0.0007   -0.0069    0.0202
          64    0.0757   -0.0263   -0.0340   -0.0257    0.0237   -0.0354    0.0192   -0.0694
          65    0.0622   -0.0202   -0.0249   -0.0158    0.0208   -0.0290    0.0085   -0.0351
          66    0.0383   -0.0129   -0.0165   -0.0047    0.0204   -0.0237   -0.0069    0.0106
          67    0.0016   -0.0078   -0.0020    0.0123    0.0110   -0.0044   -0.0415    0.1172
          68    0.0408   -0.0144   -0.0174   -0.0060    0.0198   -0.0248   -0.0075    0.0130
          69    0.0177   -0.0078   -0.0094    0.0026    0.0163   -0.0156   -0.0183    0.0462
          70   -0.0158   -0.0014   -0.0347   -0.0379   -0.0108   -0.0066    0.0142    0.0296
          71    0.0051    0.0701   -0.0248   -0.0149   -0.0063   -0.0034    0.0353   -0.0619
          72   -0.0107    0.0146   -0.0144   -0.0061   -0.0007   -0.0022    0.0227   -0.0302
          73    0.0195    0.0344    0.0090    0.0074    0.0018   -0.0012    0.0237    0.0123
          74   -0.0115   -0.0313    0.0940   -0.0686    0.0750    0.0057    0.0195    0.0702
          75    0.0085   -0.0199    0.0515   -0.0370    0.0096    0.0150   -0.0987    0.0064
          76    0.0032   -0.0121   -0.0065   -0.0070   -0.0116    0.1158    0.0112   -0.0340
          77    0.0438   -0.0196   -0.0097   -0.0170   -0.0251    0.1888    0.0273   -0.0248
          78    0.0733   -0.0172    0.0064   -0.0013   -0.0319    0.2007    0.0185    0.0289
          79   -0.0246    0.0172   -0.0222    0.0175    0.0673    0.0806   -0.0229    0.0082
          80   -0.0094    0.0211   -0.0469    0.0076    0.1006    0.1295   -0.0097    0.0130
          81   -0.0260   -0.0007   -0.0884   -0.0361    0.1010    0.1235    0.0255   -0.0075


   Root No.      25        26        27        28        29        30        31        32

                25 A      26 A      27 A      28 A      29 A      30 A      31 A      32 A   

                 973.2     987.0    1012.1    1029.5    1036.4    1046.2    1077.7    1081.7
  
           1   -0.0034   -0.0022   -0.0163   -0.0021    0.0022   -0.0108   -0.0033    0.0001
           2    0.0100   -0.0053   -0.0062    0.0071   -0.0095    0.0132   -0.0153   -0.0028
           3    0.0018    0.0128   -0.0055    0.0077    0.0007   -0.0063    0.0035   -0.0074
           4    0.0035   -0.0062    0.0019    0.0013   -0.0052    0.0058   -0.0070   -0.0085
           5    0.0035    0.0031    0.0286    0.0156    0.0008    0.0050    0.0018   -0.0076
           6   -0.0009    0.0006    0.0118   -0.0073   -0.0046    0.0117   -0.0021    0.0091
           7    0.0052   -0.0096    0.0097    0.0213   -0.0033    0.0120   -0.0230   -0.0098
           8   -0.0029    0.0075   -0.0221   -0.0028    0.0051   -0.0080   -0.0055    0.0006
           9    0.0026   -0.0033   -0.0099    0.0044   -0.0018   -0.0055   -0.0051   -0.0061
          10    0.0028    0.0267   -0.0137   -0.0166    0.0003   -0.0101    0.0147    0.0109
          11   -0.0156   -0.0127    0.0007   -0.0012    0.0083   -0.0134    0.0041    0.0031
          12   -0.0075   -0.0045    0.0076   -0.0152    0.0020    0.0003    0.0065    0.0166
          13    0.0055    0.0123    0.0096    0.0190    0.0044   -0.0094   -0.0030    0.0182
          14    0.0084    0.0001    0.0118   -0.0173    0.0064   -0.0049    0.0042    0.0032
          15    0.0012   -0.0180    0.0000   -0.0063    0.0033   -0.0035   -0.0028    0.0045
          16    0.0000   -0.0024    0.0023    0.0002   -0.0104   -0.0062   -0.0002   -0.0030
          17   -0.0005    0.0006   -0.0070   -0.0005    0.0162    0.0075    0.0009    0.0004
          18   -0.0061   -0.0019   -0.0020    0.0032    0.0109    0.0088   -0.0035   -0.0026
          19    0.0093    0.0079   -0.0015    0.0006    0.0124    0.0079   -0.0006    0.0033
          20    0.0136    0.0039    0.0044    0.0014   -0.0037   -0.0003   -0.0010    0.0000
          21   -0.0164   -0.0062   -0.0002   -0.0029   -0.0080   -0.0060    0.0013    0.0013
          22   -0.0065   -0.0022   -0.0056   -0.0002    0.0041   -0.0035    0.0091   -0.0165
          23    0.0202   -0.0034   -0.0039   -0.0106    0.0059   -0.0126   -0.0029   -0.0016
          24    0.0053   -0.0028   -0.0053    0.0019    0.0079   -0.0110    0.0056   -0.0158
          25   -0.0083   -0.0035    0.0024   -0.0007    0.0051    0.0067   -0.0030    0.0022
          26    0.0000   -0.0097    0.0058   -0.0025    0.0063    0.0089    0.0034    0.0004
          27   -0.0006    0.0142    0.0059   -0.0043    0.0038    0.0046   -0.0010    0.0110
          28   -0.0013   -0.0013   -0.0012   -0.0119   -0.0028    0.0065    0.0024   -0.0124
          29   -0.0158    0.0049   -0.0105    0.0263   -0.0124    0.0147    0.0053    0.0139
          30   -0.0080    0.0064   -0.0077    0.0012   -0.0112    0.0156    0.0104   -0.0176
          31   -0.0015   -0.0081    0.0013    0.0010   -0.0106   -0.0067    0.0002   -0.0043
          32   -0.0083   -0.0034    0.0016    0.0003   -0.0183   -0.0118   -0.0015   -0.0014
          33    0.0142    0.0022    0.0027   -0.0004   -0.0119   -0.0093    0.0043   -0.0002
          34   -0.0219   -0.0602    0.0033    0.0162    0.0077   -0.0031    0.0217    0.1027
          35    0.0017    0.0312   -0.0344   -0.0467   -0.0454    0.0608   -0.0613   -0.0501
          36    0.0159    0.0250   -0.0013    0.0251    0.0166   -0.0360    0.0132   -0.0397
          37   -0.0002   -0.0338    0.0785   -0.0863   -0.0171    0.0723    0.0561    0.0205
          38   -0.0188    0.0330    0.0633    0.0416    0.0037   -0.0013    0.1198   -0.1027
          39    0.0095   -0.0314    0.0369   -0.0733   -0.0130    0.0542   -0.0297    0.0780
          40   -0.0015   -0.0837    0.0872    0.0622    0.0241    0.0293    0.0018   -0.0355
          41    0.0013    0.0832   -0.0711   -0.0471   -0.0501   -0.0047   -0.0694    0.0916
          42    0.0039   -0.0030   -0.0218    0.0060    0.0120   -0.0154    0.0144   -0.0374
          43   -0.0002    0.1521    0.0360    0.0031    0.0031   -0.0099    0.0279    0.0063
          44   -0.0534    0.0792    0.0805   -0.0392    0.0148   -0.0052    0.0300    0.0514
          45    0.0122    0.0134   -0.0117    0.0164   -0.0002   -0.0048   -0.0014   -0.0136
          46   -0.0042   -0.0757   -0.0302   -0.0541    0.0063   -0.0272    0.0625    0.0473
          47    0.0066   -0.0919   -0.0559    0.0141    0.0085   -0.0402    0.0255   -0.0230
          48    0.0081    0.0093   -0.0125    0.0137   -0.0005   -0.0051   -0.0070   -0.0161
          49    0.0018   -0.0040    0.0660   -0.0118    0.0445   -0.0548   -0.0405    0.0694
          50    0.0253    0.0080   -0.0340   -0.0014   -0.0275    0.0358    0.0481   -0.0335
          51   -0.0759   -0.0023    0.0472    0.0195    0.0412   -0.0576   -0.1132    0.0312
          52    0.0186    0.0159   -0.0254    0.1006   -0.0267    0.0245    0.0147    0.0793
          53   -0.0447    0.0430    0.0133   -0.0180    0.0088   -0.0168   -0.0462   -0.0579
          54    0.0696   -0.0590   -0.0387    0.0786   -0.0315    0.0442    0.0683    0.1276
          55   -0.0366   -0.0053   -0.0260   -0.0079    0.0317    0.0058    0.0098    0.0002
          56   -0.0181   -0.0023   -0.0144   -0.0047    0.0180    0.0034    0.0054    0.0012
          57    0.0136   -0.0029    0.0292    0.0071   -0.0592   -0.0228   -0.0104   -0.0066
          58    0.0022   -0.0100    0.0259   -0.0108   -0.0785   -0.0489    0.0138    0.0015
          59    0.0092   -0.0052    0.0245   -0.0086   -0.0754   -0.0461    0.0105    0.0029
          60   -0.0132    0.0036   -0.0282    0.0105    0.0879    0.0542   -0.0122   -0.0048
          61   -0.0212   -0.0168    0.0217   -0.0097   -0.0631   -0.0358    0.0043    0.0057
          62   -0.0267   -0.0080   -0.0025   -0.0049   -0.0074   -0.0072    0.0027    0.0025
          63    0.0210    0.0064    0.0033    0.0034    0.0029    0.0043   -0.0023   -0.0010
          64   -0.0692   -0.0079   -0.0259   -0.0101    0.0357    0.0109    0.0063    0.0103
          65   -0.0344   -0.0028   -0.0153   -0.0043    0.0232    0.0083    0.0028    0.0047
          66    0.0127    0.0091   -0.0059    0.0035    0.0230    0.0140   -0.0020    0.0004
          67    0.1236    0.0481    0.0107    0.0176    0.0430    0.0370   -0.0091    0.0000
          68    0.0153    0.0113   -0.0065    0.0034    0.0259    0.0154   -0.0018    0.0011
          69    0.0493    0.0205    0.0007    0.0081    0.0258    0.0194   -0.0042   -0.0003
          70   -0.0013   -0.0423   -0.0154   -0.0929   -0.0433    0.0730   -0.0854   -0.0536
          71    0.0875   -0.0310    0.0375   -0.0610    0.0412   -0.0482   -0.0201    0.0019
          72    0.0434   -0.0116    0.0163   -0.0412    0.0159   -0.0164   -0.0015   -0.0241
          73   -0.0053    0.0032   -0.0066   -0.0292   -0.0027    0.0102    0.0310   -0.0194
          74   -0.0824    0.0283    0.0204   -0.0110   -0.0341    0.0600    0.0295    0.0164
          75   -0.0424   -0.0107    0.0080    0.1013    0.0143   -0.0270   -0.0578   -0.0040
          76   -0.0361    0.0019   -0.0192   -0.0092    0.0538    0.0267    0.0137    0.0038
          77   -0.0246    0.0090   -0.0146   -0.0037    0.0422    0.0256   -0.0044    0.0091
          78    0.0286    0.0117    0.0004    0.0057    0.0150    0.0161   -0.0179    0.0078
          79   -0.0099   -0.0187   -0.0495   -0.0193    0.0263   -0.0182    0.0348   -0.0016
          80    0.0069   -0.0129   -0.0288    0.0024   -0.0063   -0.0196    0.0078   -0.0137
          81    0.0142    0.0277    0.0103    0.0292   -0.0456   -0.0147   -0.0418   -0.0104


   Root No.      33        34        35        36        37        38        39        40

                33 A      34 A      35 A      36 A      37 A      38 A      39 A      40 A   

                1101.6    1103.1    1116.8    1125.3    1130.8    1134.2    1156.5    1172.6
  
           1   -0.0059   -0.0088   -0.0016    0.0087    0.0015    0.0050    0.0134   -0.0258
           2   -0.0043   -0.0031    0.0019   -0.0073   -0.0091   -0.0093    0.0086    0.0093
           3   -0.0033   -0.0158    0.0049   -0.0056    0.0190   -0.0128    0.0086   -0.0028
           4    0.0018   -0.0066    0.0046   -0.0094   -0.0049   -0.0056   -0.0037    0.0301
           5    0.0081   -0.0028    0.0064   -0.0158    0.0083   -0.0230    0.0128    0.0024
           6   -0.0024    0.0006    0.0017   -0.0054    0.0123   -0.0138    0.0122   -0.0112
           7   -0.0090   -0.0034    0.0003   -0.0040   -0.0063    0.0017   -0.0228    0.0167
           8   -0.0139    0.0086   -0.0115    0.0234   -0.0017    0.0149   -0.0004   -0.0086
           9   -0.0187    0.0115   -0.0074    0.0084   -0.0004    0.0092   -0.0117    0.0136
          10    0.0034    0.0051   -0.0009   -0.0014    0.0018   -0.0088    0.0157   -0.0204
          11   -0.0020   -0.0035   -0.0021    0.0104    0.0053    0.0151   -0.0158   -0.0062
          12    0.0105    0.0045    0.0024   -0.0092   -0.0011   -0.0030   -0.0120   -0.0006
          13    0.0000   -0.0005    0.0022   -0.0032    0.0170   -0.0087    0.0034   -0.0041
          14    0.0047    0.0079   -0.0008   -0.0009   -0.0025    0.0011   -0.0016   -0.0009
          15   -0.0012    0.0028   -0.0024    0.0023   -0.0187    0.0075    0.0024   -0.0040
          16   -0.0095    0.0061    0.0232   -0.0221    0.0064    0.0259   -0.0011   -0.0119
          17   -0.0045    0.0053    0.0327    0.0070   -0.0011   -0.0072    0.0009    0.0103
[...]
 FREQ.      1414.91        C  4 --  H 15          +10.9% ( 38.3%)     2.4%
 T-DIPOLE    0.0252        C  4 --  H 16           +9.2% ( 35.2%)     4.9%
 TRAVEL      0.1129        C  6 --  H 19           +8.8% ( 34.5%)     5.9%
 RED. MASS   0.2627        C  6 --  H 20           +8.5% ( 33.9%)     6.4%
 EFF. MASS   3.7384

 VIBRATION   56   56A       ATOM PAIR        ENERGY CONTRIBUTION    RADIAL
 FREQ.      1423.65        C  6 --  C  7          +13.8% ( 47.4%)    95.0%
 T-DIPOLE    0.0369        C  7 --  H 22          +10.1% ( 40.5%)     3.3%
 TRAVEL      0.0968        C  4 --  H 15          +10.0% ( 40.2%)     4.2%
 RED. MASS   0.5482        C  4 --  H 16           +9.7% ( 39.6%)     4.5%
 EFF. MASS   5.0498

 VIBRATION   57   57A       ATOM PAIR        ENERGY CONTRIBUTION    RADIAL
 FREQ.      1456.00        C  3 --  C  9          +13.5% ( 62.2%)    95.7%
 T-DIPOLE    0.1059        C  2 --  C  3          +12.0% ( 58.6%)    47.8%
 TRAVEL      0.0678        C  3 --  C  4          +10.3% ( 54.2%)    60.8%
 RED. MASS   1.8612        C  3 --  H 14           +9.3% ( 51.6%)     0.1%
 EFF. MASS  10.0807

 VIBRATION   58   58A       ATOM PAIR        ENERGY CONTRIBUTION    RADIAL
 FREQ.      1819.81        C  8 --  C 10          +45.8% (100.1%)   100.0%
 T-DIPOLE    0.1411        C  5 --  C 10          +14.0% ( 55.4%)    26.0%
 TRAVEL      0.0558        C  2 --  C  8          +13.8% ( 55.0%)    25.3%
 RED. MASS   5.3935        C 10 --  H 24          +13.1% ( 53.5%)     9.6%
 EFF. MASS  11.8810        C  8 --  H 25          +12.8% ( 53.0%)     9.8%

 VIBRATION   59   59A       ATOM PAIR        ENERGY CONTRIBUTION    RADIAL
 FREQ.      1889.99        C  9 --  C 11          +43.6% ( 97.6%)    96.3%
 T-DIPOLE    0.0854        C  3 --  C  9          +14.5% ( 56.2%)    57.2%
 TRAVEL      0.0549        C  6 --  C 11          +14.0% ( 55.3%)    54.9%
 RED. MASS   5.3702        C  9 --  H 27          +13.3% ( 53.9%)     3.1%
 EFF. MASS  11.8195        C 11 --  H 26          +13.1% ( 53.5%)     3.6%

 VIBRATION   60   60A       ATOM PAIR        ENERGY CONTRIBUTION    RADIAL
 FREQ.      2938.24        C  3 --  H 14          +95.2% ( 99.7%)   100.0%
 T-DIPOLE    0.1232        C  3 --  C  4           +1.0% ( 10.3%)    13.7%
 TRAVEL      0.1262        C  2 --  C  3           +1.0% ( 10.3%)    15.6%
 RED. MASS   0.9171        C  1 --  C  3           +1.0% ( 10.3%)    32.4%
 EFF. MASS   1.4416

 VIBRATION   61   61A       ATOM PAIR        ENERGY CONTRIBUTION    RADIAL
 FREQ.      2944.81        C  6 --  H 20          +52.0% ( 74.9%)    96.8%
 T-DIPOLE    0.0219        C  6 --  H 19          +45.2% ( 69.8%)    96.1%
 TRAVEL      0.1218        C  6 --  C  7           +1.2% ( 11.2%)     0.0%
 RED. MASS   0.5160        C  6 --  C 11           +1.2% ( 11.1%)     0.2%
 EFF. MASS   1.5437

 VIBRATION   62   62A       ATOM PAIR        ENERGY CONTRIBUTION    RADIAL
 FREQ.      2973.46        C  5 --  H 18          +51.2% ( 74.3%)    97.0%
 T-DIPOLE    0.0409        C  5 --  H 17          +44.5% ( 69.2%)    96.2%
 TRAVEL      0.1213        C  1 --  H 12           +1.9% ( 14.4%)    99.8%
 RED. MASS   0.4998        C  1 --  C  5           +1.2% ( 11.2%)     0.4%
 EFF. MASS   1.5417

 VIBRATION   63   63A       ATOM PAIR        ENERGY CONTRIBUTION    RADIAL
 FREQ.      2995.75        C  2 --  H 13          +88.7% ( 96.4%)   100.0%
 T-DIPOLE    0.1438        C  1 --  H 12           +6.2% ( 25.4%)   100.0%
 TRAVEL      0.1244        C  1 --  C  2           +1.1% ( 10.9%)     8.3%
 RED. MASS   0.8055        C  2 --  C  4           +1.0% ( 10.5%)    40.2%
 EFF. MASS   1.4547

 VIBRATION   64   64A       ATOM PAIR        ENERGY CONTRIBUTION    RADIAL
 FREQ.      3007.07        C  1 --  H 12          +83.5% ( 93.6%)   100.0%
 T-DIPOLE    0.1431        C  2 --  H 13           +6.2% ( 25.5%)   100.0%
 TRAVEL      0.1240        C  4 --  H 16           +2.3% ( 15.4%)    96.9%
 RED. MASS   0.7182        C  4 --  H 15           +1.7% ( 13.3%)    95.4%
 EFF. MASS   1.4581

 VIBRATION   65   65A       ATOM PAIR        ENERGY CONTRIBUTION    RADIAL
 FREQ.      3024.18        C  6 --  H 19          +50.4% ( 70.1%)    98.1%
 T-DIPOLE    0.0361        C  6 --  H 20          +44.4% ( 65.8%)    97.3%
 TRAVEL      0.1315        C  9 --  H 27           +1.8% ( 13.2%)    99.8%
 RED. MASS   0.4518        C 11 --  H 26           +1.5% ( 11.9%)    99.7%
 EFF. MASS   1.2887

 VIBRATION   66   66A       ATOM PAIR        ENERGY CONTRIBUTION    RADIAL
 FREQ.      3031.09        C  9 --  H 27          +85.3% ( 93.8%)   100.0%
 T-DIPOLE    0.2813        C  4 --  H 16           +4.7% ( 22.1%)    97.5%
 TRAVEL      0.1219        C  4 --  H 15           +3.8% ( 19.8%)    96.1%
 RED. MASS   0.7240        C 11 --  H 26           +1.8% ( 13.8%)    99.3%
 EFF. MASS   1.4966

 VIBRATION   67   67A       ATOM PAIR        ENERGY CONTRIBUTION    RADIAL
 FREQ.      3032.94        C  4 --  H 15          +42.3% ( 67.5%)    96.9%
 T-DIPOLE    0.1157        C  4 --  H 16          +42.2% ( 67.4%)    96.8%
 TRAVEL      0.1205        C  9 --  H 27           +8.0% ( 29.3%)   100.0%
 RED. MASS   0.3988        C  1 --  H 12           +3.0% ( 18.0%)    99.9%
 EFF. MASS   1.5313

 VIBRATION   68   68A       ATOM PAIR        ENERGY CONTRIBUTION    RADIAL
 FREQ.      3037.15        C 11 --  H 26          +93.5% ( 98.1%)   100.0%
 T-DIPOLE    0.2070        C  9 --  C 11           +1.6% ( 13.0%)    39.5%
 TRAVEL      0.1207        C  6 --  H 19           +1.5% ( 12.6%)    99.5%
 RED. MASS   0.8626        C  9 --  H 27           +1.5% ( 12.4%)    98.5%
 EFF. MASS   1.5249

 VIBRATION   69   69A       ATOM PAIR        ENERGY CONTRIBUTION    RADIAL
 FREQ.      3050.42        C  5 --  H 17          +53.1% ( 72.0%)    98.0%
 T-DIPOLE    0.0913        C  5 --  H 18          +44.3% ( 65.7%)    96.9%
 TRAVEL      0.1311        C  1 --  C  5           +0.7% (  8.2%)    42.7%
 RED. MASS   0.4767        C  5 --  C 10           +0.7% (  8.2%)    30.8%
 EFF. MASS   1.2859

 VIBRATION   70   70A       ATOM PAIR        ENERGY CONTRIBUTION    RADIAL
 FREQ.      3081.33        C  7 --  H 22          +64.0% ( 82.5%)    98.7%
 T-DIPOLE    0.0091        C  7 --  H 21          +28.4% ( 54.9%)    92.1%
 TRAVEL      0.1207        C  7 --  H 23           +6.4% ( 26.0%)    62.2%
 RED. MASS   0.5219        C  6 --  C  7           +1.0% ( 10.2%)     0.0%
 EFF. MASS   1.5013

 VIBRATION   71   71A       ATOM PAIR        ENERGY CONTRIBUTION    RADIAL
 FREQ.      3086.03        C  7 --  H 23          +58.3% ( 78.8%)    98.3%
 T-DIPOLE    0.0125        C  7 --  H 21          +36.5% ( 62.3%)    94.6%
 TRAVEL      0.1205        C  7 --  H 22           +3.8% ( 20.2%)    45.0%
 RED. MASS   0.5028        C  6 --  C  7           +1.0% ( 10.3%)     0.1%
 EFF. MASS   1.5042

 VIBRATION   72   72A       ATOM PAIR        ENERGY CONTRIBUTION    RADIAL
 FREQ.      3097.14        C  4 --  H 15          +49.8% ( 70.0%)    97.3%
 T-DIPOLE    0.0709        C  4 --  H 16          +48.0% ( 68.7%)    97.1%
 TRAVEL      0.1303        C  2 --  C  4           +0.7% (  8.3%)   100.0%
 RED. MASS   0.4832        C  1 --  C  4           +0.7% (  8.2%)    49.8%
 EFF. MASS   1.2822

 VIBRATION   73   73A       ATOM PAIR        ENERGY CONTRIBUTION    RADIAL
 FREQ.      3114.89        C 10 --  H 24          +60.6% ( 79.1%)   100.0%
 T-DIPOLE    0.3649        C  8 --  H 25          +36.8% ( 61.6%)   100.0%
 TRAVEL      0.1215        C  8 --  C 10           +1.1% ( 10.8%)     1.3%
 RED. MASS   0.4930        C  5 --  C 10           +0.9% (  9.7%)    25.9%
 EFF. MASS   1.4656

 VIBRATION   74   74A       ATOM PAIR        ENERGY CONTRIBUTION    RADIAL
 FREQ.      3134.23        C  8 --  H 25          +59.7% ( 78.7%)    99.9%
 T-DIPOLE    0.3391        C 10 --  H 24          +35.9% ( 61.0%)    99.9%
 TRAVEL      0.1144        C  8 --  C 10           +2.4% ( 15.9%)    98.4%
 RED. MASS   0.4945        C  2 --  C  8           +1.1% ( 10.8%)    20.7%
 EFF. MASS   1.6439

 VIBRATION   75   75A       ATOM PAIR        ENERGY CONTRIBUTION    RADIAL
 FREQ.      3183.09        C  7 --  H 21          +34.4% ( 56.4%)    97.3%
 T-DIPOLE    0.0194        C  7 --  H 23          +34.4% ( 56.4%)    97.3%
 TRAVEL      0.1366        C  7 --  H 22          +30.9% ( 53.5%)    96.7%
 RED. MASS   0.3277        C  6 --  C  7           +0.3% (  5.1%)    99.8%
 EFF. MASS   1.1360

 SYMMETRY NUMBER FOR POINT-GROUP C1  =  1


          SYSTEM IS A GROUND STATE


    NULL



          MOLECULE IS NOT LINEAR

          THERE ARE 75 GENUINE VIBRATIONS IN THIS SYSTEM
          THIS THERMODYNAMICS CALCULATION IS LIMITED TO
          MOLECULES WHICH HAVE NO INTERNAL ROTATIONS




                    CALCULATED THERMODYNAMIC PROPERTIES
                                          *
   TEMP. (K)   PARTITION FUNCTION   H.O.F.    ENTHALPY  HEAT CAPACITY ENTROPY
                                   KCAL/MOL   CAL/MOLE    CAL/K/MOL  CAL/K/MOL


 298.00  VIB.     0.1347D+04                  4937.3869    35.3979    30.8872
         ROT.     0.1054D+07                   888.2813     2.9808    30.5395
         INT.     0.1419D+10                  5825.6682    38.3787    61.4267
         TRA.     0.1745D+28                  1480.4688     4.9680    40.8894
         TOT.                       19.635    7306.1370    43.3467   102.3161

 200.00  VIB.     0.9062D+02                  2173.1596    21.6264    19.8215
         ROT.     0.5795D+06                   596.1620     2.9808    29.3508
         INT.     0.5251D+08                  2769.3215    24.6072    49.1723
         TRA.     0.9595D+27                   993.6033     4.9680    38.9082
         TOT.                       16.091    3762.9248    29.5752    88.0805

 210.00  VIB.     0.1191D+03                  2395.4527    22.8409    20.9058
         ROT.     0.6235D+06                   625.9700     2.9808    29.4962
         INT.     0.7426D+08                  3021.4228    25.8217    50.4020
         TRA.     0.1032D+28                  1043.2834     4.9680    39.1506
         TOT.                       16.393    4064.7062    30.7897    89.5526

 220.00  VIB.     0.1566D+03                  2630.1498    24.1070    21.9974
         ROT.     0.6685D+06                   655.7781     2.9808    29.6349
         INT.     0.1047D+09                  3285.9279    27.0878    51.6323
         TRA.     0.1107D+28                  1092.9636     4.9680    39.3817
         TOT.                       16.707    4378.8915    32.0559    91.0140

 230.00  VIB.     0.2058D+03                  2877.7605    25.4232    23.0978
         ROT.     0.7146D+06                   685.5862     2.9808    29.7674
         INT.     0.1471D+09                  3563.3467    28.4041    52.8652
         TRA.     0.1183D+28                  1142.6437     4.9680    39.6026
         TOT.                       17.034    4705.9905    33.3721    92.4678

 240.00  VIB.     0.2707D+03                  3138.7722    26.7867    24.2085
         ROT.     0.7617D+06                   715.3943     2.9808    29.8943
         INT.     0.2062D+09                  3854.1665    29.7675    54.1027
         TRA.     0.1261D+28                  1192.3239     4.9680    39.8140
         TOT.                       17.375    5046.4904    34.7355    93.9167

 250.00  VIB.     0.3562D+03                  3413.6389    28.1935    25.3303
         ROT.     0.8098D+06                   745.2024     2.9808    30.0159
         INT.     0.2885D+09                  4158.8413    31.1744    55.3463
         TRA.     0.1341D+28                  1242.0041     4.9680    40.0168
         TOT.                       17.729    5400.8454    36.1424    95.3631

 260.00  VIB.     0.4691D+03                  3702.7728    29.6393    26.4642
         ROT.     0.8589D+06                   775.0105     2.9808    30.1328
         INT.     0.4029D+09                  4477.7833    32.6201    56.5970
         TRA.     0.1422D+28                  1291.6842     4.9680    40.2117
         TOT.                       18.098    5769.4675    37.5881    96.8087

 270.00  VIB.     0.6182D+03                  4006.5385    31.1190    27.6104
         ROT.     0.9089D+06                   804.8186     2.9808    30.2453
         INT.     0.5619D+09                  4811.3571    34.0998    57.8558
         TRA.     0.1505D+28                  1341.3644     4.9680    40.3992
         TOT.                       18.481    6152.7215    39.0679    98.2549

 280.00  VIB.     0.8156D+03                  4325.2492    32.6274    28.7693
         ROT.     0.9599D+06                   834.6267     2.9808    30.3538
         INT.     0.7829D+09                  5159.8759    35.6083    59.1231
         TRA.     0.1589D+28                  1391.0445     4.9680    40.5798
         TOT.                       18.879    6550.9205    40.5763    99.7029

 290.00  VIB.     0.1077D+04                  4659.1652    34.1592    29.9409
         ROT.     0.1012D+07                   864.4348     2.9808    30.4584
         INT.     0.1090D+10                  5523.6001    37.1400    60.3993
         TRA.     0.1675D+28                  1440.7247     4.9680    40.7542
         TOT.                       19.293    6964.3248    42.1080   101.1534

 300.00  VIB.     0.1424D+04                  5008.4938    35.7091    31.1250
         ROT.     0.1065D+07                   894.2429     2.9808    30.5594
         INT.     0.1516D+10                  5902.7367    38.6899    61.6845
         TRA.     0.1763D+28                  1490.4049     4.9680    40.9226
         TOT.                       19.722    7393.1416    43.6579   102.6070

 310.00  VIB.     0.1886D+04                  5373.3899    37.2719    32.3214
         ROT.     0.1118D+07                   924.0510     2.9808    30.6571
         INT.     0.2109D+10                  6297.4409    40.2527    62.9785
         TRA.     0.1851D+28                  1540.0850     4.9680    41.0855
         TOT.                       20.166    7837.5259    45.2207   104.0640

 320.00  VIB.     0.2501D+04                  5753.9588    38.8428    33.5295
         ROT.     0.1173D+07                   953.8591     2.9808    30.7518
         INT.     0.2933D+10                  6707.8179    41.8237    64.2813
         TRA.     0.1942D+28                  1589.7652     4.9680    41.2432
         TOT.                       20.626    8297.5831    46.7917   105.5245

 330.00  VIB.     0.3320D+04                  6150.2587    40.4174    34.7489
         ROT.     0.1228D+07                   983.6672     2.9808    30.8435
         INT.     0.4078D+10                  7133.9259    43.3982    65.5924
         TRA.     0.2034D+28                  1639.4454     4.9680    41.3961
         TOT.                       21.102    8773.3713    48.3662   106.9885

 340.00  VIB.     0.4415D+04                  6562.3039    41.9912    35.9788
         ROT.     0.1284D+07                  1013.4753     2.9808    30.9325
         INT.     0.5670D+10                  7575.7793    44.9721    66.9113
         TRA.     0.2127D+28                  1689.1255     4.9680    41.5444
         TOT.                       21.593    9264.9048    49.9401   108.4557

 350.00  VIB.     0.5879D+04                  6990.0688    43.5607    37.2187
         ROT.     0.1341D+07                  1043.2834     2.9808    31.0189
         INT.     0.7886D+10                  8033.3522    46.5415    68.2376
         TRA.     0.2221D+28                  1738.8057     4.9680    41.6884
         TOT.                       22.101    9772.1579    51.5095   109.9260

 360.00  VIB.     0.7840D+04                  7433.4912    45.1222    38.4678
         ROT.     0.1399D+07                  1073.0915     2.9808    31.1029
         INT.     0.1097D+11                  8506.5827    48.1030    69.5706
         TRA.     0.2317D+28                  1788.4859     4.9680    41.8284
         TOT.                       22.623   10295.0685    53.0710   111.3990

 370.00  VIB.     0.1047D+05                  7892.4766    46.6728    39.7252
         ROT.     0.1458D+07                  1102.8996     2.9808    31.1845
         INT.     0.1527D+11                  8995.3762    49.6536    70.9098
         TRA.     0.2414D+28                  1838.1660     4.9680    41.9645
         TOT.                       23.162   10833.5422    54.6216   112.8743

 380.00  VIB.     0.1401D+05                  8366.9018    48.2098    40.9904
         ROT.     0.1518D+07                  1132.7077     2.9808    31.2640
         INT.     0.2125D+11                  9499.6095    51.1906    72.2544
         TRA.     0.2513D+28                  1887.8462     4.9680    42.0970
         TOT.                       23.716   11387.4557    56.1586   114.3514

 390.00  VIB.     0.1876D+05                  8856.6186    49.7308    42.2623
         ROT.     0.1578D+07                  1162.5158     2.9808    31.3415
         INT.     0.2960D+11                 10019.1344    52.7116    73.6038
         TRA.     0.2613D+28                  1937.5263     4.9680    42.2260
         TOT.                       24.285   11956.6607    57.6796   115.8298

 400.00  VIB.     0.2516D+05                  9361.4571    51.2338    43.5404
         ROT.     0.1639D+07                  1192.3239     2.9808    31.4169
         INT.     0.4124D+11                 10553.7810    54.2146    74.9573
         TRA.     0.2714D+28                  1987.2065     4.9680    42.3518
         TOT.                       24.869   12540.9875    59.1826   117.3091

   *: NOTE: HEATS OF FORMATION ARE RELATIVE TO THE
            ELEMENTS IN THEIR STANDARD STATE AT 298K
              (=  Standard Enthalpy of Formation).

            Hvib:  Zero-point energy is not included.
                   frequencies of less than zero cm-1 are not included.
            Hrot = (3/2)RT
            Htra = (3/2)RT + pV = (5/2)RT

            Heat capacity is Cp, not Cv

           For more information, see: HTTP://OpenMOPAC.net/Manual/thermochemistry.html


           FORCE CONSTANT IN CARTESIAN COORDINATES (Millidynes/A)

    ATOM   CHEMICAL       X               Y               Z
   NUMBER   SYMBOL  FORCE CONSTANT  FORCE CONSTANT  FORCE CONSTANT

      1       C        7.570207        8.219748        8.903293
      2       C        7.635001        7.851970        9.618676
      3       C        8.164074        7.936712        8.964745
      4       C        7.729170        7.965140        8.667982
      5       C        9.458967        8.120476        7.706051
      6       C        8.504678        8.343744        8.581321
      7       C        8.285921        8.258760        8.309067
      8       C       14.542116        4.135740        8.861034
      9       C       12.967546        6.795870        7.590344
     10       C       11.854620        4.552671       10.880356
     11       C       13.011193        6.677972        7.512917
     12       H        1.511570        1.454283        3.425803
     13       H        1.570072        1.478098        3.276315
     14       H        1.310387        1.326632        3.481743
     15       H        1.472703        1.523117        3.617947
     16       H        1.470835        1.414138        3.736544
     17       H        1.826359        3.730103        0.831186
     18       H        2.000513        2.316682        2.058043
     19       H        1.873030        3.536589        0.988821
     20       H        0.693623        2.425393        3.162168
     21       H        0.723003        2.659634        3.401655
     22       H        2.078863        3.753210        0.954496
     23       H        1.517063        1.531613        3.746293
     24       H        0.713729        1.353151        4.355419
     25       H        4.969999        0.469115        0.973326
     26       H        1.883567        2.973088        1.359530
     27       H        1.875522        2.988244        1.331914



 TOTAL CPU TIME:             5.54 SECONDS

 == MOPAC DONE ==
