 *******************************************************************************
 ** Site#: 14399           For non-commercial use only        Version 13.159M **
 *******************************************************************************
 ** Cite this work as: MOPAC2012, James J. P. Stewart, Stewart Computational  **
 ** Chemistry, Version 13.159M web: HTTP://OpenMOPAC.net  Days remaining:   6 **
 *******************************************************************************
 **                                                                           **
 **                                MOPAC2012                                  **
 **                                                                           **
 *******************************************************************************

                            PM3 CALCULATION RESULTS


 *******************************************************************************
 *  CALCULATION DONE:                                Mon Jun  2 11:11:56 2014  *
 *  PM3      - The PM3 Hamiltonian to be used
 *  PRECISE  - CRITERIA TO BE INCREASED BY 100 TIMES
 *  NOSYM    - POINT-GROUP SYMMETRY SET TO C1
 *  T=       - A TIME OF 172800.0 SECONDS REQUESTED
 *  DUMP=N   - RESTART FILE WRITTEN EVERY  7200.000 SECONDS
 *******************************************************************************
pm3  precise nosym
 InChI=1S/C6H10/c1-2-6-4-3-5-6/h3-4,6H,2,5H2,1H3

   ATOM   CHEMICAL          X               Y               Z
  NUMBER   SYMBOL      (ANGSTROMS)     (ANGSTROMS)     (ANGSTROMS)
 
     1       C         -0.31510000  *  -0.02920000  *  -0.56990000  *
     2       C          0.87250000  *  -0.76530000  *   0.05790000  *
     3       C         -0.98960000  *   1.09800000  *   0.33350000  *
     4       C          2.14420000  *   0.07350000  *   0.02030000  *
     5       C         -1.61300000  *  -0.73180000  *  -0.38380000  *
     6       C         -2.15830000  *   0.18130000  *   0.33480000  *
     7       H         -0.15970000  *   0.26800000  *  -1.63410000  *
     8       H          1.05200000  *  -1.70690000  *  -0.51080000  *
     9       H          0.65900000  *  -1.05180000  *   1.11470000  *
    10       H         -1.20060000  *   2.04820000  *  -0.20930000  *
    11       H         -0.55890000  *   1.22460000  *   1.35420000  *
    12       H          2.01930000  *   1.01190000  *   0.60710000  *
    13       H          2.41660000  *   0.33490000  *  -1.02780000  *
    14       H          2.98870000  *  -0.50100000  *   0.46400000  *
    15       H         -2.00760000  *  -1.68420000  *  -0.73150000  *
    16       H         -3.14950000  *   0.22980000  *   0.78060000  *
 


          CARTESIAN COORDINATES 

    NO.       ATOM         X         Y         Z

     1         C       -0.3151   -0.0292   -0.5699
     2         C        0.8725   -0.7653    0.0579
     3         C       -0.9896    1.0980    0.3335
     4         C        2.1442    0.0735    0.0203
     5         C       -1.6130   -0.7318   -0.3838
     6         C       -2.1583    0.1813    0.3348
     7         H       -0.1597    0.2680   -1.6341
     8         H        1.0520   -1.7069   -0.5108
     9         H        0.6590   -1.0518    1.1147
    10         H       -1.2006    2.0482   -0.2093
    11         H       -0.5589    1.2246    1.3542
    12         H        2.0193    1.0119    0.6071
    13         H        2.4166    0.3349   -1.0278
    14         H        2.9887   -0.5010    0.4640
    15         H       -2.0076   -1.6842   -0.7315
    16         H       -3.1495    0.2298    0.7806

  H: (PM3): J. J. P. STEWART, J. COMP. CHEM. 10, 209 (1989).
  C: (PM3): J. J. P. STEWART, J. COMP. CHEM. 10, 209 (1989).

           Empirical Formula: C6 H10  =    16 atoms



      MOLECULAR POINT GROUP   :   C1  


      RHF CALCULATION, NO. OF DOUBLY OCCUPIED LEVELS =   17

      Geometry optimization using EF

          DIAGONAL MATRIX USED AS START HESSIAN

 CYCLE:     1 TIME:   0.005 TIME LEFT:  2.00D  GRAD.:   193.832 HEAT: 34.28675
 CYCLE:     2 TIME:   0.009 TIME LEFT:  2.00D  GRAD.:    52.789 HEAT: 29.77902
 CYCLE:     3 TIME:   0.003 TIME LEFT:  2.00D  GRAD.:    31.614 HEAT: 28.16762
 CYCLE:     4 TIME:   0.003 TIME LEFT:  2.00D  GRAD.:    44.611 HEAT: 27.42093
 CYCLE:     5 TIME:   0.006 TIME LEFT:  2.00D  GRAD.:    34.011 HEAT: 26.71250
 CYCLE:     6 TIME:   0.006 TIME LEFT:  2.00D  GRAD.:    32.150 HEAT: 26.44756
 CYCLE:     7 TIME:   0.003 TIME LEFT:  2.00D  GRAD.:    30.031 HEAT: 26.26046
 CYCLE:     8 TIME:   0.004 TIME LEFT:  2.00D  GRAD.:    28.897 HEAT: 26.14356
 CYCLE:     9 TIME:   0.003 TIME LEFT:  2.00D  GRAD.:    20.327 HEAT: 26.01327
 CYCLE:    10 TIME:   0.006 TIME LEFT:  2.00D  GRAD.:    14.701 HEAT: 25.93250
 CYCLE:    11 TIME:   0.006 TIME LEFT:  2.00D  GRAD.:     6.391 HEAT: 25.87654
 CYCLE:    12 TIME:   0.006 TIME LEFT:  2.00D  GRAD.:     5.112 HEAT: 25.86134
 CYCLE:    13 TIME:   0.003 TIME LEFT:  2.00D  GRAD.:     4.474 HEAT: 25.84323
 CYCLE:    14 TIME:   0.003 TIME LEFT:  2.00D  GRAD.:     5.078 HEAT: 25.82516
 CYCLE:    15 TIME:   0.006 TIME LEFT:  2.00D  GRAD.:     5.111 HEAT: 25.81785
 CYCLE:    16 TIME:   0.003 TIME LEFT:  2.00D  GRAD.:     3.778 HEAT: 25.80711
 CYCLE:    17 TIME:   0.003 TIME LEFT:  2.00D  GRAD.:     3.635 HEAT: 25.79649
 CYCLE:    18 TIME:   0.003 TIME LEFT:  2.00D  GRAD.:     2.689 HEAT: 25.78498
 CYCLE:    19 TIME:   0.003 TIME LEFT:  2.00D  GRAD.:     4.707 HEAT: 25.77539
 CYCLE:    20 TIME:   0.003 TIME LEFT:  2.00D  GRAD.:     2.735 HEAT: 25.76676
 CYCLE:    21 TIME:   0.003 TIME LEFT:  2.00D  GRAD.:     2.184 HEAT: 25.76340
 CYCLE:    22 TIME:   0.003 TIME LEFT:  2.00D  GRAD.:     1.341 HEAT: 25.75938
 CYCLE:    23 TIME:   0.004 TIME LEFT:  2.00D  GRAD.:     1.336 HEAT: 25.75466
 CYCLE:    24 TIME:   0.003 TIME LEFT:  2.00D  GRAD.:     1.993 HEAT: 25.75079
 CYCLE:    25 TIME:   0.003 TIME LEFT:  2.00D  GRAD.:     1.175 HEAT: 25.74785
 CYCLE:    26 TIME:   0.003 TIME LEFT:  2.00D  GRAD.:     0.893 HEAT: 25.74565
 CYCLE:    27 TIME:   0.003 TIME LEFT:  2.00D  GRAD.:     1.014 HEAT: 25.74407
 CYCLE:    28 TIME:   0.003 TIME LEFT:  2.00D  GRAD.:     1.019 HEAT: 25.74258
 CYCLE:    29 TIME:   0.003 TIME LEFT:  2.00D  GRAD.:     0.789 HEAT: 25.74062
 CYCLE:    30 TIME:   0.003 TIME LEFT:  2.00D  GRAD.:     0.616 HEAT: 25.73922
 CYCLE:    31 TIME:   0.003 TIME LEFT:  2.00D  GRAD.:     0.512 HEAT: 25.73880
 CYCLE:    32 TIME:   0.003 TIME LEFT:  2.00D  GRAD.:     0.353 HEAT: 25.73848
 CYCLE:    33 TIME:   0.003 TIME LEFT:  2.00D  GRAD.:     0.307 HEAT: 25.73815
 CYCLE:    34 TIME:   0.003 TIME LEFT:  2.00D  GRAD.:     0.272 HEAT: 25.73799
 CYCLE:    35 TIME:   0.003 TIME LEFT:  2.00D  GRAD.:     0.238 HEAT: 25.73785
 CYCLE:    36 TIME:   0.003 TIME LEFT:  2.00D  GRAD.:     0.223 HEAT: 25.73772
 CYCLE:    37 TIME:   0.003 TIME LEFT:  2.00D  GRAD.:     0.209 HEAT: 25.73759
 CYCLE:    38 TIME:   0.003 TIME LEFT:  2.00D  GRAD.:     0.166 HEAT: 25.73750
 CYCLE:    39 TIME:   0.003 TIME LEFT:  2.00D  GRAD.:     0.126 HEAT: 25.73745
 CYCLE:    40 TIME:   0.003 TIME LEFT:  2.00D  GRAD.:     0.105 HEAT: 25.73741
 CYCLE:    41 TIME:   0.003 TIME LEFT:  2.00D  GRAD.:     0.107 HEAT: 25.73737
 CYCLE:    42 TIME:   0.003 TIME LEFT:  2.00D  GRAD.:     0.076 HEAT: 25.73736
 CYCLE:    43 TIME:   0.003 TIME LEFT:  2.00D  GRAD.:     0.062 HEAT: 25.73734
 CYCLE:    44 TIME:   0.003 TIME LEFT:  2.00D  GRAD.:     0.064 HEAT: 25.73733
 CYCLE:    45 TIME:   0.003 TIME LEFT:  2.00D  GRAD.:     0.058 HEAT: 25.73731
 CYCLE:    46 TIME:   0.003 TIME LEFT:  2.00D  GRAD.:     0.044 HEAT: 25.73731

     RMS GRADIENT =  0.04354  IS LESS THAN CUTOFF =  0.05000



 -------------------------------------------------------------------------------
pm3  precise nosym
 InChI=1S/C6H10/c1-2-6-4-3-5-6/h3-4,6H,2,5H2,1H3



     GEOMETRY OPTIMISED USING EIGENVECTOR FOLLOWING (EF).     
     SCF FIELD WAS ACHIEVED                                   


                              PM3 CALCULATION
                                                       MOPAC2012 (Version: 13.159M)
                                                       Mon Jun  2 11:11:56 2014
                                                       No. of days left =   6




          FINAL HEAT OF FORMATION =         25.73731 KCAL/MOL =     107.68489 KJ/MOL


          TOTAL ENERGY            =       -864.05321 EV
          ELECTRONIC ENERGY       =      -3789.75208 EV  POINT GROUP:     C1  
          CORE-CORE REPULSION     =       2925.69888 EV
          COSMO AREA              =        135.50 SQUARE ANGSTROMS
          COSMO VOLUME            =        127.23 CUBIC ANGSTROMS

          GRADIENT NORM           =          0.04354
          IONIZATION POTENTIAL    =          9.843651 EV
          HOMO LUMO ENERGIES (EV) =         -9.844  1.036
          NO. OF FILLED LEVELS    =         17
          MOLECULAR WEIGHT        =         82.145

          MOLECULAR DIMENSIONS (Angstroms)

            Atom       Atom       Distance
            H    16    H    14     6.22652
            H    15    H    10     3.92446
            H     7    H     9     2.91146


          SCF CALCULATIONS        =         55
          COMPUTATION TIME        =          0.180 SECONDS




   ATOM   CHEMICAL          X               Y               Z
  NUMBER   SYMBOL      (ANGSTROMS)     (ANGSTROMS)     (ANGSTROMS)
 
     1       C         -0.30705007  *  -0.04503943  *  -0.54307669  *
     2       C          0.87772011  *  -0.75898265  *   0.06517808  *
     3       C         -0.97403317  *   1.07313624  *   0.34484810  *
     4       C          2.13102380  *   0.08505277  *   0.00189054  *
     5       C         -1.64080124  *  -0.77426093  *  -0.41117554  *
     6       C         -2.20901021  *   0.19195341  *   0.33690460  *
     7       H         -0.08281459  *   0.28689389  *  -1.57788584  *
     8       H          1.03414585  *  -1.71651956  *  -0.46957705  *
     9       H          0.65900096  *  -1.03523523  *   1.11584635  *
    10       H         -1.08920734  *   2.05310215  *  -0.13860277  *
    11       H         -0.51015248  *   1.22688243  *   1.33012984  *
    12       H          2.00705618  *   1.02828658  *   0.55091491  *
    13       H          2.39666895  *   0.34191528  *  -1.03219130  *
    14       H          2.98813989  *  -0.44138583  *   0.44050344  *
    15       H         -1.94858242  *  -1.73170363  *  -0.80839238  *
    16       H         -3.17798905  *   0.34988764  *   0.79024775  *

           Empirical Formula: C6 H10  =    16 atoms



      MOLECULAR POINT GROUP   :   C1  


                  EIGENVALUES  
 -40.25622 -33.03017 -24.97076 -24.54149 -20.96460 -17.78277 -17.48640 -16.03639
 -14.99532 -14.60702 -13.45196 -13.30430 -12.56694 -12.12483 -11.65388 -11.39610
  -9.84365   1.03567   3.21972   3.37043   3.39802   3.82042   3.84598   4.01627
   4.12995   4.28292   4.41367   4.52071   4.65446   4.83224   4.97936   5.16775
   5.20866   6.17480


              NET ATOMIC CHARGES AND DIPOLE CONTRIBUTIONS

  ATOM NO.   TYPE          CHARGE      No. of ELECS.   s-Pop       p-Pop       
    1          C          -0.069437        4.0694     1.18905     2.88038
    2          C          -0.085300        4.0853     1.15392     2.93138
    3          C          -0.085485        4.0855     1.17215     2.91333
    4          C          -0.109149        4.1091     1.13800     2.97115
    5          C          -0.164231        4.1642     1.22117     2.94306
    6          C          -0.157815        4.1578     1.21775     2.94006
    7          H           0.077517        0.9225     0.92248
    8          H           0.050535        0.9495     0.94946
    9          H           0.053665        0.9463     0.94634
   10          H           0.061083        0.9389     0.93892
   11          H           0.065855        0.9341     0.93414
   12          H           0.038746        0.9613     0.96125
   13          H           0.037668        0.9623     0.96233
   14          H           0.037428        0.9626     0.96257
   15          H           0.125064        0.8749     0.87494
   16          H           0.123855        0.8761     0.87614
 DIPOLE           X         Y         Z       TOTAL
 POINT-CHG.     0.187     0.062     0.027     0.198
 HYBRID        -0.054     0.000     0.001     0.054
 SUM            0.133     0.062     0.027     0.149


          ATOMIC ORBITAL ELECTRON POPULATIONS

    Atom      s        px        py        pz   
    1  C   1.18905   0.93309   0.95757   0.98972
    2  C   1.15392   0.94354   0.97891   1.00893
    3  C   1.17215   0.95354   0.96349   0.99631
    4  C   1.13800   0.96751   0.99436   1.00928
    5  C   1.22117   0.96533   0.98119   0.99653
    6  C   1.21775   0.97572   0.97164   0.99271
    7  H   0.92248
    8  H   0.94946
    9  H   0.94634
   10  H   0.93892
   11  H   0.93414
   12  H   0.96125
   13  H   0.96233
   14  H   0.96257
   15  H   0.87494
   16  H   0.87614
 *******************************************************************************
 ** Site#: 14399           For non-commercial use only        Version 13.159M **
 *******************************************************************************
 ** Cite this work as: MOPAC2012, James J. P. Stewart, Stewart Computational  **
 ** Chemistry, Version 13.159M web: HTTP://OpenMOPAC.net  Days remaining:   6 **
 *******************************************************************************
 **                                                                           **
 **                                MOPAC2012                                  **
 **                                                                           **
 *******************************************************************************

                            PM3 CALCULATION RESULTS


 *******************************************************************************
 *  CALCULATION DONE:                                Mon Jun  2 11:11:56 2014  *
 *  PM3      - The PM3 Hamiltonian to be used
 *  OLDGEO   - PREVIOUS GEOMETRY TO BE USED
 *  PRECISE  - CRITERIA TO BE INCREASED BY 100 TIMES
 *  NOSYM    - POINT-GROUP SYMMETRY SET TO C1
 *  T=       - A TIME OF 172800.0 SECONDS REQUESTED
 *  DUMP=N   - RESTART FILE WRITTEN EVERY  7200.000 SECONDS
 *  THERMO   - THERMODYNAMIC QUANTITIES TO BE CALCULATED
 *******************************************************************************
oldgeo thermo nosym precise  pm3

   ATOM   CHEMICAL          X               Y               Z
  NUMBER   SYMBOL      (ANGSTROMS)     (ANGSTROMS)     (ANGSTROMS)
 
     1       C         -0.30705007  *  -0.04503943  *  -0.54307669  *
     2       C          0.87772011  *  -0.75898265  *   0.06517808  *
     3       C         -0.97403317  *   1.07313624  *   0.34484810  *
     4       C          2.13102380  *   0.08505277  *   0.00189054  *
     5       C         -1.64080124  *  -0.77426093  *  -0.41117554  *
     6       C         -2.20901021  *   0.19195341  *   0.33690460  *
     7       H         -0.08281459  *   0.28689389  *  -1.57788584  *
     8       H          1.03414585  *  -1.71651956  *  -0.46957705  *
     9       H          0.65900096  *  -1.03523523  *   1.11584635  *
    10       H         -1.08920734  *   2.05310215  *  -0.13860277  *
    11       H         -0.51015248  *   1.22688243  *   1.33012984  *
    12       H          2.00705618  *   1.02828658  *   0.55091491  *
    13       H          2.39666895  *   0.34191528  *  -1.03219130  *
    14       H          2.98813989  *  -0.44138583  *   0.44050344  *
    15       H         -1.94858242  *  -1.73170363  *  -0.80839238  *
    16       H         -3.17798905  *   0.34988764  *   0.79024775  *
 


          CARTESIAN COORDINATES 

    NO.       ATOM         X         Y         Z

     1         C       -0.3071   -0.0450   -0.5431
     2         C        0.8777   -0.7590    0.0652
     3         C       -0.9740    1.0731    0.3448
     4         C        2.1310    0.0851    0.0019
     5         C       -1.6408   -0.7743   -0.4112
     6         C       -2.2090    0.1920    0.3369
     7         H       -0.0828    0.2869   -1.5779
     8         H        1.0341   -1.7165   -0.4696
     9         H        0.6590   -1.0352    1.1158
    10         H       -1.0892    2.0531   -0.1386
    11         H       -0.5102    1.2269    1.3301
    12         H        2.0071    1.0283    0.5509
    13         H        2.3967    0.3419   -1.0322
    14         H        2.9881   -0.4414    0.4405
    15         H       -1.9486   -1.7317   -0.8084
    16         H       -3.1780    0.3499    0.7902

  H: (PM3): J. J. P. STEWART, J. COMP. CHEM. 10, 209 (1989).
  C: (PM3): J. J. P. STEWART, J. COMP. CHEM. 10, 209 (1989).

           Empirical Formula: C6 H10  =    16 atoms



      MOLECULAR POINT GROUP   :   C1  


      RHF CALCULATION, NO. OF DOUBLY OCCUPIED LEVELS =   17



          HEAT OF FORMATION =      25.737307 KCALS/MOLE


          INTERNAL COORDINATE DERIVATIVES

   NUMBER  ATOM       BOND         ANGLE      DIHEDRAL

     1       C      0.004058    -0.004450     0.004019
     2       C     -0.000776     0.004931    -0.001872
     3       C     -0.014530    -0.001202     0.002168
     4       C     -0.002109    -0.000352     0.000009
     5       C      0.000508     0.004917     0.001349
     6       C      0.000007    -0.001234    -0.004948
     7       H     -0.002099     0.000948    -0.000773
     8       H      0.002690     0.001873    -0.004339
     9       H      0.002591    -0.002055     0.009876
    10       H      0.008074    -0.001281    -0.011033
    11       H     -0.009471    -0.007075     0.011671
    12       H      0.008587     0.003293    -0.004483
    13       H     -0.014784     0.011265    -0.006129
    14       H      0.012316    -0.010737    -0.000727
    15       H      0.002719    -0.002267     0.011956
    16       H      0.002218     0.003425    -0.006746


          GRADIENT NORM =   0.04400


          TIME FOR SCF CALCULATION =    0.00

          TIME FOR DERIVATIVES     =    0.00

          MOLECULAR WEIGHT =   82.14



          ROTATIONAL CONSTANTS IN CM(-1)

          A =    0.28539670   B =    0.08013835   C =    0.06925091



           PRINCIPAL MOMENTS OF INERTIA IN UNITS OF 10**(-40)*GRAM-CM**2

          A =       98.0837   B =      349.3056   C =      404.2225


          ORIENTATION OF MOLECULE IN FORCE CALCULATION

    NO.       ATOM         X         Y         Z

     1          C      -0.2192   -0.4321   -0.1784
     2          C       1.2918   -0.4321   -0.1784
     3          C      -0.9131    0.9829   -0.1784
     4          C       1.8502   -0.1218   -1.5492
     5          C      -0.8673   -0.6147    1.1908
     6          C      -1.4682    0.5915    1.1782
     7          H      -0.6168   -1.1198   -0.9532
     8          H       1.6516   -1.4217    0.1660
     9          H       1.6738    0.2993    0.5613
    10          H      -1.6610    1.1415   -0.9676
    11          H      -0.2254    1.8412   -0.1773
    12          H       1.5284    0.8687   -1.8982
    13          H       1.5209   -0.8544   -2.2980
    14          H       2.9475   -0.1285   -1.5430
    15          H      -0.8162   -1.4504    1.8750
    16          H      -2.1201    1.1379    1.8459


    FIRST DERIVATIVES WILL BE USED IN THE CALCULATION OF SECOND DERIVATIVES

          ESTIMATED TIME TO COMPLETE CALCULATION =        0.86 SECONDS

    FOR POINT-GROUP C1   THERE ARE   1 UNIQUE SYMMETRY FUNCTIONS.

 STEP:   1 TIME =     0.01 SECS, INTEGRAL =      0.01 TIME LEFT: 172799.98
 STEP:   2 TIME =     0.01 SECS, INTEGRAL =      0.03 TIME LEFT: 172799.97
 STEP:   3 TIME =     0.01 SECS, INTEGRAL =      0.04 TIME LEFT: 172799.95
 STEP:   4 TIME =     0.01 SECS, INTEGRAL =      0.06 TIME LEFT: 172799.94
 STEP:   5 TIME =     0.01 SECS, INTEGRAL =      0.07 TIME LEFT: 172799.92
 STEP:   6 TIME =     0.01 SECS, INTEGRAL =      0.09 TIME LEFT: 172799.91
 STEP:   7 TIME =     0.01 SECS, INTEGRAL =      0.10 TIME LEFT: 172799.90
 STEP:   8 TIME =     0.01 SECS, INTEGRAL =      0.11 TIME LEFT: 172799.88
 STEP:   9 TIME =     0.01 SECS, INTEGRAL =      0.13 TIME LEFT: 172799.87
 STEP:  10 TIME =     0.01 SECS, INTEGRAL =      0.14 TIME LEFT: 172799.85
 STEP:  11 TIME =     0.01 SECS, INTEGRAL =      0.16 TIME LEFT: 172799.84
 STEP:  12 TIME =     0.01 SECS, INTEGRAL =      0.17 TIME LEFT: 172799.83
 STEP:  13 TIME =     0.01 SECS, INTEGRAL =      0.18 TIME LEFT: 172799.81
 STEP:  14 TIME =     0.01 SECS, INTEGRAL =      0.20 TIME LEFT: 172799.80
 STEP:  15 TIME =     0.01 SECS, INTEGRAL =      0.21 TIME LEFT: 172799.78
 STEP:  16 TIME =     0.02 SECS, INTEGRAL =      0.23 TIME LEFT: 172799.76
 STEP:  17 TIME =     0.02 SECS, INTEGRAL =      0.25 TIME LEFT: 172799.75
 STEP:  18 TIME =     0.01 SECS, INTEGRAL =      0.26 TIME LEFT: 172799.73
 STEP:  19 TIME =     0.01 SECS, INTEGRAL =      0.28 TIME LEFT: 172799.72
 STEP:  20 TIME =     0.01 SECS, INTEGRAL =      0.29 TIME LEFT: 172799.70
 STEP:  21 TIME =     0.01 SECS, INTEGRAL =      0.30 TIME LEFT: 172799.69
 STEP:  22 TIME =     0.01 SECS, INTEGRAL =      0.32 TIME LEFT: 172799.68
 STEP:  23 TIME =     0.01 SECS, INTEGRAL =      0.33 TIME LEFT: 172799.66
 STEP:  24 TIME =     0.01 SECS, INTEGRAL =      0.35 TIME LEFT: 172799.65
 STEP:  25 TIME =     0.01 SECS, INTEGRAL =      0.36 TIME LEFT: 172799.63
 STEP:  26 TIME =     0.01 SECS, INTEGRAL =      0.38 TIME LEFT: 172799.62
 STEP:  27 TIME =     0.01 SECS, INTEGRAL =      0.39 TIME LEFT: 172799.60
 STEP:  28 TIME =     0.01 SECS, INTEGRAL =      0.41 TIME LEFT: 172799.59
 STEP:  29 TIME =     0.01 SECS, INTEGRAL =      0.42 TIME LEFT: 172799.57
 STEP:  30 TIME =     0.01 SECS, INTEGRAL =      0.44 TIME LEFT: 172799.56
 STEP:  31 TIME =     0.01 SECS, INTEGRAL =      0.45 TIME LEFT: 172799.55
 STEP:  32 TIME =     0.01 SECS, INTEGRAL =      0.46 TIME LEFT: 172799.53
 STEP:  33 TIME =     0.01 SECS, INTEGRAL =      0.48 TIME LEFT: 172799.52
 STEP:  34 TIME =     0.01 SECS, INTEGRAL =      0.49 TIME LEFT: 172799.50
 STEP:  35 TIME =     0.01 SECS, INTEGRAL =      0.51 TIME LEFT: 172799.49
 STEP:  36 TIME =     0.01 SECS, INTEGRAL =      0.52 TIME LEFT: 172799.47
 STEP:  37 TIME =     0.01 SECS, INTEGRAL =      0.54 TIME LEFT: 172799.46
 STEP:  38 TIME =     0.01 SECS, INTEGRAL =      0.55 TIME LEFT: 172799.45
 STEP:  39 TIME =     0.01 SECS, INTEGRAL =      0.56 TIME LEFT: 172799.43
 STEP:  40 TIME =     0.01 SECS, INTEGRAL =      0.58 TIME LEFT: 172799.42
 STEP:  41 TIME =     0.01 SECS, INTEGRAL =      0.59 TIME LEFT: 172799.40
 STEP:  42 TIME =     0.01 SECS, INTEGRAL =      0.61 TIME LEFT: 172799.39
 STEP:  43 TIME =     0.02 SECS, INTEGRAL =      0.62 TIME LEFT: 172799.37
 STEP:  44 TIME =     0.02 SECS, INTEGRAL =      0.64 TIME LEFT: 172799.36
 STEP:  45 TIME =     0.02 SECS, INTEGRAL =      0.66 TIME LEFT: 172799.34
 STEP:  46 TIME =     0.01 SECS, INTEGRAL =      0.67 TIME LEFT: 172799.32
 STEP:  47 TIME =     0.02 SECS, INTEGRAL =      0.69 TIME LEFT: 172799.31
 STEP:  48 TIME =     0.02 SECS, INTEGRAL =      0.71 TIME LEFT: 172799.29

(To convert to Hartree/Bohr^2, multiply by (10^(-21) x N x a0^2)/(4.184 x 627.51) = 0.0642)


           FORCE MATRIX IN MILLIDYNES/ANGSTROM


                  C  1       C  2       C  3       C  4       C  5       C  6
 ------------------------------------------------------------------------------
     C    1  14.433865
     C    2   4.391684  14.515161
     C    3   2.852011   0.493788  14.273688
     C    4   0.670622   4.460207   0.028548  14.371802
     C    5   3.880484   0.549252   2.263169   0.049916  18.336340
     C    6   2.243433   0.049945   4.161727   0.008907  10.348353  18.423496
     H    7   4.430480   0.436064   0.415028   0.028475   0.414028   0.043006
     H    8   0.432400   4.464348   0.044552   0.440471   0.015791   0.003668
     H    9   0.450092   4.456709   0.020737   0.436851   0.015204   0.003320
     H   10   0.420942   0.027483   4.720907   0.001717   0.040296   0.435013
     H   11   0.433872   0.021215   4.687496   0.007206   0.040661   0.434491
     H   12   0.019979   0.462934   0.005254   4.717540   0.001484   0.000889
     H   13   0.024626   0.463837   0.001923   4.724989   0.001687   0.000766
     H   14   0.052622   0.450354   0.001663   4.756071   0.008908   0.001489
     H   15   0.339108   0.010666   0.113766   0.002356   5.284450   0.423182
     H   16   0.113713   0.016332   0.341028   0.002242   0.424439   5.282635


                  H  7       H  8       H  9       H 10       H 11       H 12
 ------------------------------------------------------------------------------
     H    7   4.945579
     H    8   0.024271   5.070031
     H    9   0.043127   0.568295   5.067207
     H   10   0.026320   0.005020   0.001569   5.338147
     H   11   0.023958   0.002552   0.019137   0.531336   5.309102
     H   12   0.001939   0.048713   0.024888   0.000666   0.008541   5.455096
     H   13   0.020570   0.024244   0.047553   0.000380   0.000526   0.574951
     H   14   0.001956   0.029117   0.030254   0.000348   0.000512   0.571468
     H   15   0.005612   0.004121   0.002079   0.014716   0.015078   0.000595
     H   16   0.013812   0.001232   0.001223   0.005717   0.005796   0.000398


                  H 13       H 14       H 15       H 16
 ------------------------------------------------------
     H   13   5.467914
     H   14   0.572871   5.490690
     H   15   0.000668   0.000498   5.669830
     H   16   0.000198   0.000543   0.029802   5.667905


          HEAT OF FORMATION =      25.737307 KCALS/MOLE

          ZERO POINT ENERGY      89.448 KCAL/MOL


           NORMAL COORDINATE ANALYSIS (Total motion = 1 Angstrom)


   Root No.       1         2         3         4         5         6         7         8

                 1 A       2 A       3 A       4 A       5 A       6 A       7 A       8 A   

                  90.9     187.9     210.6     290.4     432.2     481.0     759.3     795.8
  
           1   -0.0058   -0.0045   -0.0318    0.0003   -0.0164   -0.0300    0.0005    0.0003
           2   -0.0301   -0.0079   -0.0029   -0.0258   -0.0311   -0.0217   -0.0179   -0.0265
           3    0.0078   -0.0031   -0.0345   -0.0028    0.0234   -0.0222   -0.0143   -0.0155
           4   -0.0058   -0.0044   -0.0304    0.0007   -0.0105   -0.0401    0.0269    0.0157
           5   -0.0424   -0.0093    0.0067    0.0393    0.0212    0.0154   -0.0109   -0.0328
           6   -0.0029    0.0019   -0.0032    0.0290   -0.0448   -0.0009    0.0072   -0.0018
           7    0.0103    0.0176   -0.0406    0.0308    0.0173    0.0323   -0.0208   -0.0114
           8   -0.0222    0.0035   -0.0070   -0.0131   -0.0193    0.0034   -0.0055    0.0130
           9   -0.0262    0.0022   -0.0131   -0.0106    0.0159    0.0007    0.0083    0.0150
          10   -0.0146   -0.0111    0.0363   -0.0372    0.0505   -0.0098    0.0093    0.0056
          11    0.0539    0.0071   -0.0033    0.0060    0.0111    0.0020   -0.0002   -0.0052
          12    0.0153    0.0028    0.0244    0.0056   -0.0315    0.0153   -0.0053   -0.0002
          13    0.0015   -0.0110    0.0161   -0.0315   -0.0440    0.0415   -0.0247    0.0101
          14    0.0150   -0.0046   -0.0039   -0.0257   -0.0023    0.0059    0.0062    0.0209
          15    0.0175   -0.0060   -0.0109   -0.0199    0.0301    0.0124   -0.0183   -0.0110
          16    0.0165    0.0140    0.0477    0.0406   -0.0115   -0.0043   -0.0271   -0.0008
          17    0.0222    0.0080    0.0118    0.0109    0.0142   -0.0173    0.0048    0.0149
          18   -0.0112    0.0017    0.0291   -0.0002    0.0116   -0.0196    0.0029    0.0110
          19   -0.0169   -0.0052   -0.0262    0.0317   -0.0288   -0.0566    0.0300   -0.0220
          20   -0.0460    0.0002   -0.0043   -0.0274   -0.0458   -0.0227   -0.0107   -0.0251
          21    0.0279   -0.0091   -0.0339   -0.0161    0.0441   -0.0047   -0.0338   -0.0028
          22   -0.0093    0.0041   -0.0420    0.0542    0.0291   -0.0138    0.0590    0.1036
          23   -0.0687   -0.0078    0.0093    0.0771    0.0427    0.0409    0.0091    0.0465
          24   -0.0755   -0.0040    0.0181    0.0787   -0.0250    0.0438    0.0283    0.1234
          25    0.0038   -0.0112   -0.0597   -0.0390   -0.0320   -0.0897    0.0098   -0.0664
          26   -0.0968   -0.0104    0.0120    0.0972    0.0516    0.0535    0.0147    0.0918
          27    0.0460    0.0068    0.0074   -0.0074   -0.0621   -0.0100   -0.0092   -0.0774
          28    0.0059    0.0185   -0.1001    0.0186    0.0339    0.0854    0.0307   -0.0495
          29   -0.0362    0.0175   -0.0334   -0.0110    0.0049    0.1098    0.0643    0.0198
          30   -0.0249    0.0042    0.0373    0.0012    0.0056   -0.0245   -0.0223    0.0529
          31    0.0202    0.0305   -0.0501    0.0458    0.0468    0.0970    0.0096   -0.0060
          32   -0.0300   -0.0067   -0.0001   -0.0248   -0.0418   -0.0443   -0.0274    0.0071
          33   -0.0559    0.0030   -0.0823   -0.0384    0.0210    0.0868    0.1031   -0.0088
          34   -0.0124   -0.2221    0.0632   -0.0110    0.0941    0.0147   -0.0228   -0.0432
          35    0.0809   -0.0940   -0.0021    0.0165    0.0147    0.0050    0.0014    0.0164
          36    0.0892   -0.0911    0.0037    0.0105   -0.0591    0.0012    0.0264    0.0975
          37   -0.0246    0.1902    0.0690   -0.1003    0.0870   -0.0004   -0.0129    0.0091
          38    0.1098   -0.1287   -0.0041    0.0138    0.0122    0.0021    0.0107    0.0527
          39   -0.0349    0.0477    0.0112    0.0251   -0.0472    0.0115   -0.0063   -0.0556
          40   -0.0146   -0.0099    0.0362   -0.0377    0.0516   -0.0100    0.0091    0.0054
          41    0.0481    0.2596   -0.0124   -0.0403   -0.0077   -0.0141    0.0185    0.0422
          42    0.0064    0.0535    0.0816   -0.0417    0.0374    0.0474   -0.0569   -0.0322
          43   -0.0048   -0.0298    0.0336   -0.0929   -0.0997    0.1301    0.1426   -0.0572
          44    0.0330   -0.0104   -0.0096   -0.0458   -0.0012    0.0472    0.0990   -0.0044
          45    0.0399   -0.0116   -0.0192   -0.0401    0.0355    0.0562    0.0826   -0.0368
          46    0.0282    0.0274    0.1088    0.0861   -0.0072   -0.0338    0.1736   -0.1061
          47    0.0487    0.0183    0.0296    0.0454    0.0431   -0.0308    0.1008   -0.0596
          48   -0.0215    0.0063    0.0742    0.0159   -0.0073   -0.0378    0.1212   -0.0298


   Root No.       9        10        11        12        13        14        15        16

                 9 A      10 A      11 A      12 A      13 A      14 A      15 A      16 A   

                 858.4     898.8     914.8     949.9     978.0     995.7    1023.7    1033.4
  
           1    0.0069    0.0017   -0.0078    0.0168   -0.0009    0.0184    0.0035    0.0030
           2    0.0214    0.0142   -0.0209   -0.0275    0.0037   -0.0066    0.0020   -0.0019
           3    0.0251   -0.0168    0.0104    0.0114    0.0236   -0.0111   -0.0017   -0.0144
           4   -0.0159   -0.0055    0.0102   -0.0079    0.0024    0.0022    0.0029   -0.0013
           5   -0.0164    0.0008   -0.0007   -0.0062    0.0065    0.0051   -0.0018    0.0054
           6   -0.0104   -0.0006    0.0054   -0.0059    0.0033    0.0012   -0.0023    0.0019
           7    0.0101    0.0426   -0.0100    0.0091   -0.0082   -0.0184    0.0194    0.0120
           8    0.0179   -0.0312    0.0475    0.0208    0.0098   -0.0149    0.0038    0.0012
           9   -0.0098    0.0217    0.0021    0.0147   -0.0191    0.0132    0.0198   -0.0059
          10   -0.0075   -0.0033    0.0097   -0.0206   -0.0084   -0.0286   -0.0060   -0.0031
          11   -0.0080   -0.0009    0.0065    0.0085   -0.0068   -0.0058    0.0011   -0.0027
          12   -0.0017   -0.0019   -0.0032    0.0044   -0.0043   -0.0014    0.0040   -0.0018
          13   -0.0052   -0.0288   -0.0227    0.0051   -0.0123    0.0025    0.0240    0.0126
          14   -0.0222    0.0013   -0.0333    0.0140   -0.0052    0.0009    0.0107    0.0131
          15    0.0117   -0.0151    0.0109   -0.0317   -0.0192    0.0010    0.0103    0.0095
          16    0.0050   -0.0115    0.0297   -0.0115    0.0027    0.0143   -0.0465   -0.0171
          17   -0.0171    0.0125   -0.0089    0.0061    0.0026    0.0072   -0.0221   -0.0116
          18   -0.0201    0.0250   -0.0303    0.0002    0.0115   -0.0089   -0.0300   -0.0029
          19   -0.0173    0.0239   -0.0270    0.0066    0.0391    0.1023   -0.0239    0.0344
          20    0.0474    0.0879    0.0134   -0.0608   -0.0861    0.0274   -0.0068    0.0769
          21    0.0126   -0.0961   -0.0071    0.0453    0.0839   -0.0830    0.0214   -0.1005
          22   -0.0040   -0.0259    0.0549    0.0901   -0.0352   -0.0076    0.0184   -0.0360
          23    0.0248    0.0023   -0.0006    0.0077   -0.0056   -0.0048    0.0040   -0.0043
          24    0.0879    0.0220   -0.0392   -0.0626    0.0098   -0.0125   -0.0013    0.0093
          25   -0.0193   -0.0041   -0.0137   -0.0591    0.0934    0.0632    0.0017    0.0131
          26    0.0696    0.0117   -0.0190   -0.0065    0.0015   -0.0024    0.0046   -0.0032
          27   -0.0891   -0.0116    0.0340    0.0211   -0.0379   -0.0222   -0.0070    0.0028
          28    0.0259   -0.0345   -0.1076    0.0114   -0.0206   -0.0367   -0.1605    0.0067
          29   -0.0636   -0.1465    0.0638   -0.0880    0.0922    0.0583    0.0448   -0.0198
          30   -0.0447    0.0651    0.0954   -0.0104    0.0124    0.0482    0.1958   -0.0066
          31   -0.0661    0.0119   -0.0161   -0.0604    0.1077   -0.0122    0.0848    0.0576
          32    0.0773   -0.0111    0.0502    0.0716   -0.0802   -0.0185   -0.0507   -0.0357
          33   -0.0142   -0.1316   -0.0693   -0.0092   -0.0773    0.0932   -0.1558   -0.0966
          34   -0.0081   -0.0025    0.0085    0.0681    0.0096    0.0435    0.0098   -0.0027
          35    0.0211    0.0041   -0.0090    0.0000    0.0111    0.0141    0.0011    0.0025
          36    0.0753    0.0098   -0.0429   -0.0914    0.0277   -0.0082   -0.0095    0.0107
          37    0.0540    0.0080   -0.0256    0.0203    0.0464    0.0678    0.0034    0.0091
          38    0.0570    0.0103   -0.0266   -0.0316    0.0296    0.0211   -0.0042    0.0089
          39   -0.0878   -0.0173    0.0424    0.0249   -0.0609   -0.0673    0.0054   -0.0182
          40   -0.0068   -0.0034    0.0097   -0.0194   -0.0071   -0.0270   -0.0058   -0.0032
          41    0.0232    0.0039   -0.0086   -0.0526    0.0055   -0.0262   -0.0081    0.0026
          42    0.0667    0.0100   -0.0478    0.1174    0.0644    0.1553    0.0294    0.0097
          43    0.0307    0.1862    0.0483    0.0323    0.0933   -0.0562   -0.0295   -0.1992
          44   -0.0012    0.0745    0.0938    0.0214   -0.0043    0.0410   -0.0662    0.1156
          45    0.0353    0.0573    0.1622   -0.0249   -0.0253    0.0534   -0.0799    0.1495
          46    0.0896   -0.1028   -0.0384    0.0167   -0.0317   -0.0224    0.1346    0.0483
          47    0.0344    0.0007   -0.0404   -0.0482   -0.0894    0.0574    0.1564   -0.1853
          48    0.0194   -0.0541   -0.0710    0.0725    0.0528   -0.0856    0.0008    0.2027


   Root No.      17        18        19        20        21        22        23        24

                17 A      18 A      19 A      20 A      21 A      22 A      23 A      24 A   

                1054.3    1118.5    1123.4    1154.3    1169.8    1188.8    1207.0    1270.5
  
           1   -0.0064    0.0041    0.0078   -0.0283    0.0304   -0.0259   -0.0005   -0.0343
           2    0.0193    0.0184    0.0060   -0.0614   -0.0068    0.0022    0.0075    0.0274
           3    0.0086   -0.0116   -0.0003    0.0185    0.0366   -0.0538   -0.0102    0.0197
           4    0.0143    0.0120   -0.0037    0.0046   -0.0361    0.0069    0.0042   -0.0421
           5   -0.0273    0.0003   -0.0406    0.0140   -0.0094   -0.0107   -0.0028   -0.0148
           6    0.0037   -0.0527    0.0113    0.0069   -0.0388   -0.0010    0.0017    0.0322
           7   -0.0131    0.0025   -0.0002   -0.0116   -0.0176    0.0246   -0.0276    0.0076
           8   -0.0054   -0.0157   -0.0069    0.0270    0.0080    0.0327    0.0288   -0.0158
           9   -0.0242   -0.0009    0.0017    0.0168    0.0062   -0.0237    0.0288    0.0072
          10   -0.0109   -0.0086    0.0012    0.0041    0.0126   -0.0049   -0.0022    0.0128
          11    0.0139    0.0021    0.0468    0.0044    0.0024    0.0049    0.0006    0.0008
          12   -0.0009    0.0577   -0.0130    0.0074    0.0213    0.0078   -0.0021   -0.0010
          13   -0.0041   -0.0072    0.0001    0.0143    0.0026   -0.0135    0.0190    0.0186
          14   -0.0053   -0.0039    0.0008    0.0057    0.0003   -0.0031   -0.0157    0.0017
          15    0.0178   -0.0091   -0.0072    0.0026   -0.0040    0.0555   -0.0240   -0.0268
          16   -0.0001    0.0045    0.0036   -0.0047    0.0023   -0.0167   -0.0040    0.0060
          17   -0.0011   -0.0014    0.0002    0.0090    0.0074   -0.0168   -0.0192   -0.0011
          18    0.0137    0.0028   -0.0031   -0.0126   -0.0063    0.0301    0.0247   -0.0125
          19   -0.0402   -0.1003    0.0081   -0.0359    0.2430    0.2421    0.0001    0.0845
          20    0.1392   -0.0169   -0.0339    0.1258    0.0241   -0.1686   -0.0598   -0.0301
          21   -0.0797    0.0703    0.0338   -0.1452   -0.0981   -0.0359    0.0495    0.0102
          22    0.1682    0.0530   -0.1650   -0.0505   -0.0412    0.0606    0.0019    0.1621
          23    0.0249    0.0125   -0.0259   -0.0101   -0.0052    0.0037    0.0011    0.0243
          24   -0.0083   -0.0627    0.2215   -0.0035   -0.0245   -0.0111    0.0172   -0.0690
          25   -0.0512    0.1269    0.0470    0.2321   -0.1223    0.0797   -0.0120    0.1044
          26    0.0214    0.0561    0.0360    0.0089    0.0321    0.0034   -0.0061    0.0124
          27   -0.0082   -0.1666   -0.0901   -0.1072   -0.0388   -0.0545    0.0142   -0.0702
          28    0.0292   -0.0110   -0.0196    0.0556    0.0059    0.0214    0.1239   -0.0249
          29    0.0595    0.0034    0.0097   -0.0669    0.0322    0.0096   -0.0739   -0.0482
          30   -0.0515    0.0157    0.0244   -0.0680   -0.0081   -0.0288   -0.1363    0.0339
          31    0.0665   -0.0026   -0.0061   -0.0005    0.0567   -0.0608    0.1043    0.0070
          32   -0.0658   -0.0113   -0.0025    0.0151   -0.0492    0.1025   -0.0750   -0.0175
          33   -0.0424    0.0244    0.0284   -0.0523   -0.0254   -0.0491   -0.1435    0.0538
          34    0.0567   -0.0355    0.0738    0.0043   -0.0462    0.0112    0.0055    0.0291
          35    0.0027   -0.0115    0.0081    0.0004   -0.0136   -0.0003    0.0016   -0.0074
          36   -0.0882    0.0479   -0.1850   -0.0057    0.0306   -0.0201   -0.0065   -0.0493
          37    0.0078   -0.0710   -0.0284    0.0005   -0.0647   -0.0012    0.0037    0.0256
          38   -0.0258   -0.0515   -0.0482   -0.0035   -0.0285   -0.0115    0.0012    0.0248
          39    0.0284    0.1383    0.0901    0.0168    0.0825    0.0206   -0.0049   -0.0355
          40   -0.0095   -0.0097    0.0009    0.0058    0.0098   -0.0040   -0.0022    0.0182
          41   -0.0344   -0.0208   -0.0327    0.0019    0.0007   -0.0137   -0.0007    0.0251
          42    0.0572    0.0389   -0.0167   -0.0152   -0.0680    0.0097    0.0089   -0.1110
          43    0.0267   -0.0342   -0.0158    0.0456    0.0268    0.0165   -0.0838   -0.0410
          44   -0.0470    0.0503    0.0225   -0.0670   -0.0179   -0.0580    0.0729    0.0430
          45   -0.0342    0.0579    0.0197   -0.0867   -0.0273   -0.0099    0.0933    0.0251
          46   -0.0130   -0.0033    0.0015    0.0027    0.0011   -0.0147   -0.0098    0.0083
          47   -0.0049   -0.0074   -0.0084    0.0100    0.0032    0.0233    0.1481   -0.0040
          48    0.0047   -0.0008    0.0012   -0.0047   -0.0036    0.0027   -0.1168   -0.0118


   Root No.      25        26        27        28        29        30        31        32

                25 A      26 A      27 A      28 A      29 A      30 A      31 A      32 A   

                1295.9    1376.6    1406.4    1406.5    1411.4    1418.7    1439.4    1775.1
  
           1    0.0090   -0.0304   -0.0035    0.0056    0.0025   -0.0330    0.0718    0.0154
           2   -0.0285    0.0046   -0.0037    0.0017   -0.0015    0.0082   -0.0109    0.0023
           3    0.0340    0.0179    0.0011   -0.0007   -0.0009    0.0096   -0.0343   -0.0183
           4   -0.0129    0.0038    0.0118   -0.0138    0.0047    0.0290   -0.0675   -0.0064
           5    0.0051    0.0023    0.0006    0.0005    0.0010   -0.0096   -0.0052   -0.0011
           6    0.0038   -0.0187   -0.0031   -0.0054   -0.0017    0.0312    0.0422    0.0043
           7    0.0284    0.0064    0.0014   -0.0012   -0.0002    0.0037   -0.0101    0.0075
           8    0.0028    0.0030    0.0262   -0.0212    0.0070   -0.0109    0.0161    0.0051
           9   -0.0625   -0.0082   -0.0249    0.0198   -0.0063    0.0097   -0.0094   -0.0184
          10    0.0049    0.0092   -0.0053   -0.0050   -0.0359    0.0086    0.0230   -0.0001
          11   -0.0005    0.0092   -0.0213   -0.0173    0.0083    0.0045    0.0094    0.0003
          12    0.0000   -0.0294    0.0028   -0.0093   -0.0008   -0.0339   -0.0441   -0.0010
          13    0.0203    0.0091   -0.0009    0.0002   -0.0012    0.0085   -0.0168    0.0919
          14    0.0028   -0.0006   -0.0001    0.0002    0.0000   -0.0007    0.0038   -0.1856
          15   -0.0392   -0.0115    0.0028   -0.0018    0.0015   -0.0085    0.0206    0.0031
          16   -0.0253   -0.0005   -0.0024    0.0017   -0.0007    0.0018   -0.0012   -0.0933
          17   -0.0263   -0.0021   -0.0067    0.0055   -0.0017    0.0022   -0.0052    0.1856
          18    0.0710    0.0006    0.0100   -0.0075    0.0028   -0.0078    0.0110   -0.0005
          19   -0.0316    0.0479    0.0047    0.0021   -0.0064    0.0346   -0.0880   -0.0161
          20    0.0750    0.0009    0.0057   -0.0030    0.0021   -0.0153    0.0126   -0.0278
          21   -0.0404   -0.0184   -0.0115    0.0047    0.0009   -0.0035    0.0244    0.0148
          22   -0.0357    0.0597   -0.0314    0.0393   -0.0248   -0.0805    0.0594    0.0028
          23   -0.0110    0.0607   -0.0170    0.0317   -0.0120   -0.0943    0.0048   -0.0006
          24   -0.0244    0.1253   -0.0160    0.0476   -0.0167   -0.1500   -0.0630   -0.0019
          25    0.0084    0.0460   -0.0270    0.0399   -0.0245   -0.0919    0.0855    0.0054
          26    0.0149   -0.1093    0.0219   -0.0537    0.0199    0.1546    0.0195    0.0009
          27   -0.0195    0.0857   -0.0078    0.0275   -0.0086   -0.0928   -0.0614   -0.0033
          28   -0.0441   -0.0309   -0.0801    0.0658   -0.0197    0.0211   -0.0204   -0.0373
          29    0.1477   -0.0541   -0.1522    0.1285   -0.0371    0.0271   -0.0305   -0.0006
          30    0.0335    0.0194    0.0298   -0.0246    0.0067   -0.0030   -0.0038    0.0171
          31   -0.0948    0.0178    0.0981   -0.0834    0.0262   -0.0308    0.0533    0.0007
          32    0.1024   -0.0105   -0.0636    0.0547   -0.0170    0.0203   -0.0380    0.0159
          33   -0.0002    0.0520    0.1295   -0.1069    0.0310   -0.0263    0.0222    0.0365
          34   -0.0034   -0.0600    0.1357    0.1537    0.1668   -0.0131   -0.0523   -0.0003
          35   -0.0030    0.0267    0.0270    0.0588    0.1172    0.0320    0.0269    0.0005
          36   -0.0014    0.1194   -0.0298    0.0370    0.1627    0.0862    0.1044    0.0002
          37   -0.0003   -0.0394   -0.1042   -0.0736    0.2605   -0.0563   -0.0556   -0.0001
          38    0.0053   -0.0814    0.0251   -0.0355   -0.1913   -0.0612   -0.0676   -0.0005
          39   -0.0043    0.0937    0.0153    0.0591    0.0706    0.0748    0.0805   -0.0001
          40    0.0053    0.0006   -0.0020    0.0004   -0.0112    0.0022    0.0139   -0.0004
          41    0.0054   -0.0468    0.2006    0.1924   -0.0392    0.0092   -0.0116    0.0000
          42   -0.0250    0.1103    0.0288    0.0112   -0.1807    0.1111    0.0651    0.0001
          43   -0.0636   -0.0131   -0.0020    0.0025    0.0009   -0.0090    0.0159   -0.0175
          44    0.0708    0.0129   -0.0009    0.0001   -0.0011    0.0079   -0.0164   -0.1314
          45    0.0520    0.0063    0.0034   -0.0032    0.0004    0.0021   -0.0051    0.1524
          46   -0.0312   -0.0002   -0.0033    0.0023   -0.0008    0.0026   -0.0027   -0.1162
          47    0.1227    0.0061    0.0132   -0.0101    0.0035   -0.0063    0.0057    0.0665
          48   -0.0545   -0.0072   -0.0068    0.0058   -0.0012   -0.0018    0.0036    0.1516


   Root No.      33        34        35        36        37        38        39        40

                33 A      34 A      35 A      36 A      37 A      38 A      39 A      40 A   

                2952.2    2962.4    3034.2    3047.2    3077.3    3084.7    3103.7    3179.9
  
           1    0.0074   -0.0134    0.0008   -0.0010    0.0001    0.0002   -0.0004    0.0000
           2    0.0131   -0.0241    0.0004   -0.0018    0.0001    0.0001    0.0009   -0.0001
           3    0.0151   -0.0273    0.0005   -0.0018    0.0002   -0.0003   -0.0004   -0.0001
           4   -0.0007   -0.0005    0.0208    0.0011    0.0002   -0.0017   -0.0001   -0.0004
           5   -0.0394   -0.0251   -0.0079   -0.0009   -0.0029    0.0003   -0.0002    0.0000
           6   -0.0095   -0.0057    0.0304    0.0013   -0.0002   -0.0024   -0.0003    0.0003
           7   -0.0013    0.0023    0.0017   -0.0447    0.0010   -0.0003   -0.0057    0.0001
           8   -0.0002    0.0007    0.0012   -0.0244   -0.0001    0.0000    0.0303    0.0002
           9   -0.0003    0.0010    0.0008   -0.0227    0.0010   -0.0003   -0.0274    0.0000
          10    0.0001   -0.0001   -0.0042    0.0002    0.0049   -0.0438    0.0006   -0.0110
          11    0.0022    0.0012    0.0005   -0.0011   -0.0513   -0.0007   -0.0011   -0.0043
          12    0.0005    0.0003   -0.0010    0.0000   -0.0093   -0.0192   -0.0002    0.0215
          13   -0.0002    0.0002    0.0002   -0.0003    0.0000    0.0000    0.0001    0.0000
          14    0.0002   -0.0004    0.0000   -0.0002    0.0000    0.0000    0.0000    0.0000
          15    0.0002   -0.0004    0.0000   -0.0002    0.0000    0.0000   -0.0002    0.0000
          16    0.0002   -0.0004    0.0000   -0.0002    0.0000    0.0000   -0.0001    0.0000
          17   -0.0001    0.0002    0.0000   -0.0002    0.0000    0.0000    0.0007    0.0000
          18   -0.0001    0.0001    0.0000   -0.0001    0.0000    0.0000   -0.0005    0.0000
          19   -0.0895    0.1682   -0.0039    0.0089   -0.0001    0.0008    0.0003    0.0003
          20   -0.1638    0.2943   -0.0061    0.0231   -0.0019    0.0004    0.0017    0.0010
          21   -0.1828    0.3308   -0.0058    0.0217   -0.0024   -0.0003    0.0007    0.0015
          22   -0.0992   -0.0670   -0.1241   -0.0062   -0.0073    0.0070    0.0004    0.0005
          23    0.2683    0.1754    0.3885    0.0199    0.0240   -0.0271   -0.0009   -0.0030
          24   -0.0975   -0.0643   -0.1093   -0.0059   -0.0116    0.0084    0.0000    0.0017
          25    0.1095    0.0705   -0.1301   -0.0041    0.0050    0.0087    0.0012    0.0005
          26    0.2054    0.1252   -0.2919   -0.0121    0.0090    0.0227    0.0033    0.0019
          27    0.2131    0.1302   -0.2605   -0.0098    0.0140    0.0224    0.0027    0.0028
          28    0.0042   -0.0121   -0.0084    0.2587   -0.0124    0.0035    0.3408    0.0006
          29    0.0003    0.0008    0.0025   -0.0668    0.0025   -0.0007   -0.0536    0.0000
          30    0.0056   -0.0147   -0.0091    0.2806   -0.0129    0.0036    0.3450    0.0006
          31    0.0061   -0.0140   -0.0127    0.2811   -0.0007   -0.0001   -0.2692   -0.0022
          32    0.0071   -0.0138   -0.0171    0.3629   -0.0011    0.0000   -0.3160   -0.0026
          33   -0.0003    0.0000    0.0003   -0.0055    0.0008   -0.0003   -0.0172    0.0001
          34    0.0067    0.0040    0.0050   -0.0034   -0.1395    0.0376   -0.0031   -0.0988
          35   -0.0156   -0.0098   -0.0187    0.0103    0.3954   -0.1788    0.0091    0.2778
          36    0.0031    0.0018    0.0053   -0.0040   -0.1434    0.0485   -0.0030   -0.0820
          37   -0.0066   -0.0044    0.0038    0.0020    0.1269    0.0661    0.0029   -0.1045
          38   -0.0131   -0.0065    0.0118    0.0037    0.2448    0.1927    0.0053   -0.2192
          39   -0.0104   -0.0040    0.0101    0.0042    0.2603    0.1788    0.0057   -0.2026
          40    0.0003   -0.0011    0.0399   -0.0008   -0.0453    0.4191   -0.0070    0.3378
          41    0.0005    0.0002   -0.0010   -0.0006   -0.0262   -0.0056   -0.0005   -0.0059
          42   -0.0001    0.0001    0.0041    0.0001   -0.0063    0.0034   -0.0003    0.0201
          43    0.0004   -0.0003    0.0003   -0.0004    0.0000    0.0000    0.0008    0.0000
          44    0.0003   -0.0006    0.0000    0.0005    0.0002   -0.0002   -0.0135   -0.0003
          45   -0.0002    0.0000   -0.0002   -0.0007   -0.0002    0.0002    0.0111    0.0002
          46    0.0015   -0.0029   -0.0001   -0.0011    0.0000   -0.0001   -0.0009    0.0002
          47   -0.0010    0.0021    0.0001    0.0000    0.0000    0.0000    0.0007   -0.0002
          48   -0.0013    0.0026    0.0001   -0.0001    0.0000    0.0001    0.0008   -0.0002


   Root No.      41        42

                41 A      42 A   

                3195.1    3215.5
  
           1   -0.0003    0.0011
           2    0.0004   -0.0010
           3    0.0006   -0.0015
           4    0.0000    0.0000
           5    0.0000    0.0000
           6    0.0000    0.0000
           7    0.0000    0.0000
           8    0.0008    0.0020
           9   -0.0007   -0.0019
          10    0.0000    0.0000
          11    0.0000    0.0000
          12    0.0000    0.0000
          13    0.0018    0.0050
          14   -0.0289   -0.0370
          15    0.0236    0.0253
          16    0.0235   -0.0263
          17   -0.0198    0.0256
          18   -0.0240    0.0239
          19   -0.0009    0.0011
          20   -0.0020    0.0013
          21   -0.0019    0.0019
          22    0.0001   -0.0002
          23   -0.0004    0.0000
          24    0.0003    0.0001
          25    0.0000    0.0002
          26    0.0001    0.0000
          27    0.0001    0.0000
          28    0.0053    0.0057
          29   -0.0011   -0.0006
          30    0.0050    0.0061
          31   -0.0044   -0.0051
          32   -0.0058   -0.0054
          33   -0.0003   -0.0002
          34   -0.0001    0.0000
          35    0.0003    0.0000
          36   -0.0001    0.0000
          37   -0.0001    0.0000
          38   -0.0002    0.0002
          39   -0.0002    0.0001
          40    0.0004    0.0001
          41    0.0000    0.0000
          42    0.0000    0.0000
          43   -0.0206   -0.0213
          44    0.3425    0.3489
          45   -0.2806   -0.2857
          46   -0.2768    0.2626
          47    0.2319   -0.2202
          48    0.2836   -0.2688


           MASS-WEIGHTED COORDINATE ANALYSIS (NORMAL COORDINATES)


   Root No.       1         2         3         4         5         6         7         8

                 1 A       2 A       3 A       4 A       5 A       6 A       7 A       8 A   

                  90.9     187.9     210.6     290.4     432.2     481.0     759.3     795.8
  
           1   -0.0475   -0.0338   -0.2497    0.0025   -0.1242   -0.2452    0.0042    0.0028
           2   -0.2484   -0.0596   -0.0232   -0.2070   -0.2357   -0.1777   -0.1516   -0.2441
           3    0.0647   -0.0231   -0.2708   -0.0226    0.1778   -0.1814   -0.1212   -0.1425
           4   -0.0481   -0.0332   -0.2391    0.0057   -0.0800   -0.3280    0.2277    0.1449
           5   -0.3496   -0.0699    0.0523    0.3152    0.1607    0.1261   -0.0926   -0.3020
           6   -0.0238    0.0141   -0.0255    0.2326   -0.3395   -0.0070    0.0608   -0.0164
           7    0.0849    0.1324   -0.3187    0.2472    0.1310    0.2644   -0.1763   -0.1046
           8   -0.1833    0.0266   -0.0554   -0.1054   -0.1466    0.0277   -0.0462    0.1194
           9   -0.2165    0.0164   -0.1031   -0.0848    0.1203    0.0061    0.0701    0.1378
          10   -0.1206   -0.0833    0.2848   -0.2986    0.3831   -0.0803    0.0786    0.0512
          11    0.4446    0.0536   -0.0257    0.0483    0.0845    0.0166   -0.0014   -0.0477
          12    0.1263    0.0212    0.1919    0.0450   -0.2389    0.1251   -0.0450   -0.0023
          13    0.0126   -0.0830    0.1266   -0.2531   -0.3338    0.3398   -0.2089    0.0927
          14    0.1237   -0.0349   -0.0305   -0.2061   -0.0171    0.0479    0.0520    0.1922
          15    0.1440   -0.0451   -0.0859   -0.1601    0.2285    0.1012   -0.1547   -0.1016
          16    0.1358    0.1056    0.3745    0.3261   -0.0874   -0.0349   -0.2295   -0.0076
          17    0.1833    0.0604    0.0924    0.0873    0.1079   -0.1414    0.0409    0.1374
          18   -0.0925    0.0129    0.2288   -0.0018    0.0881   -0.1607    0.0245    0.1015
          19   -0.0405   -0.0113   -0.0596    0.0738   -0.0632   -0.1341    0.0735   -0.0587
          20   -0.1098    0.0005   -0.0098   -0.0638   -0.1005   -0.0537   -0.0261   -0.0669
          21    0.0666   -0.0199   -0.0771   -0.0375    0.0970   -0.0112   -0.0827   -0.0075
          22   -0.0222    0.0090   -0.0956    0.1261    0.0639   -0.0326    0.1446    0.2763
          23   -0.1642   -0.0171    0.0212    0.1793    0.0938    0.0970    0.0222    0.1241
          24   -0.1803   -0.0088    0.0411    0.1830   -0.0549    0.1038    0.0692    0.3291
          25    0.0090   -0.0244   -0.1358   -0.0908   -0.0703   -0.2126    0.0240   -0.1771
          26   -0.2314   -0.0227    0.0274    0.2261    0.1133    0.1267    0.0361    0.2448
          27    0.1099    0.0149    0.0169   -0.0171   -0.1363   -0.0236   -0.0226   -0.2065
          28    0.0142    0.0404   -0.2276    0.0433    0.0745    0.2024    0.0752   -0.1319
          29   -0.0865    0.0382   -0.0759   -0.0255    0.0108    0.2602    0.1575    0.0528
          30   -0.0596    0.0091    0.0849    0.0027    0.0123   -0.0581   -0.0546    0.1410
          31    0.0482    0.0666   -0.1139    0.1066    0.1029    0.2299    0.0235   -0.0159
          32   -0.0716   -0.0145   -0.0001   -0.0576   -0.0918   -0.1050   -0.0672    0.0189
          33   -0.1335    0.0066   -0.1873   -0.0893    0.0462    0.2058    0.2524   -0.0235
          34   -0.0297   -0.4848    0.1437   -0.0256    0.2067    0.0348   -0.0558   -0.1151
          35    0.1933   -0.2052   -0.0048    0.0385    0.0323    0.0119    0.0035    0.0437
          36    0.2133   -0.1989    0.0083    0.0243   -0.1297    0.0030    0.0647    0.2601
          37   -0.0587    0.4150    0.1569   -0.2333    0.1912   -0.0009   -0.0316    0.0244
          38    0.2625   -0.2809   -0.0094    0.0321    0.0267    0.0049    0.0261    0.1405
          39   -0.0834    0.1041    0.0256    0.0584   -0.1037    0.0272   -0.0154   -0.1483
          40   -0.0350   -0.0216    0.0824   -0.0877    0.1134   -0.0237    0.0224    0.0145
          41    0.1149    0.5666   -0.0282   -0.0938   -0.0169   -0.0333    0.0453    0.1126
          42    0.0152    0.1168    0.1857   -0.0969    0.0822    0.1124   -0.1394   -0.0859
          43   -0.0115   -0.0650    0.0765   -0.2160   -0.2191    0.3082    0.3492   -0.1526
          44    0.0788   -0.0226   -0.0219   -0.1066   -0.0025    0.1119    0.2424   -0.0116
          45    0.0953   -0.0254   -0.0437   -0.0932    0.0780    0.1333    0.2022   -0.0982
          46    0.0673    0.0597    0.2475    0.2003   -0.0159   -0.0801    0.4253   -0.2830
          47    0.1165    0.0399    0.0673    0.1055    0.0946   -0.0729    0.2470   -0.1589
          48   -0.0513    0.0139    0.1688    0.0369   -0.0161   -0.0897    0.2970   -0.0795


   Root No.       9        10        11        12        13        14        15        16

                 9 A      10 A      11 A      12 A      13 A      14 A      15 A      16 A   

                 858.4     898.8     914.8     949.9     978.0     995.7    1023.7    1033.4
  
           1    0.0682    0.0134   -0.0648    0.1622   -0.0086    0.1801    0.0259    0.0230
           2    0.2102    0.1128   -0.1723   -0.2659    0.0370   -0.0641    0.0149   -0.0149
           3    0.2469   -0.1334    0.0856    0.1098    0.2378   -0.1089   -0.0124   -0.1104
           4   -0.1558   -0.0432    0.0841   -0.0761    0.0238    0.0214    0.0210   -0.0100
           5   -0.1608    0.0067   -0.0055   -0.0594    0.0657    0.0497   -0.0131    0.0416
           6   -0.1018   -0.0046    0.0449   -0.0573    0.0335    0.0121   -0.0173    0.0143
           7    0.0988    0.3372   -0.0824    0.0877   -0.0830   -0.1800    0.1430    0.0919
           8    0.1763   -0.2469    0.3923    0.2005    0.0991   -0.1460    0.0277    0.0090
           9   -0.0961    0.1721    0.0170    0.1417   -0.1924    0.1292    0.1456   -0.0453
          10   -0.0738   -0.0258    0.0801   -0.1990   -0.0845   -0.2799   -0.0445   -0.0240
          11   -0.0786   -0.0073    0.0536    0.0819   -0.0690   -0.0570    0.0080   -0.0207
          12   -0.0170   -0.0148   -0.0261    0.0427   -0.0437   -0.0139    0.0296   -0.0138
          13   -0.0515   -0.2281   -0.1879    0.0497   -0.1242    0.0241    0.1769    0.0967
          14   -0.2182    0.0103   -0.2756    0.1353   -0.0526    0.0093    0.0792    0.1008
          15    0.1152   -0.1198    0.0900   -0.3061   -0.1933    0.0102    0.0759    0.0727
          16    0.0494   -0.0913    0.2451   -0.1108    0.0272    0.1402   -0.3428   -0.1313
          17   -0.1678    0.0993   -0.0736    0.0593    0.0259    0.0707   -0.1630   -0.0888
          18   -0.1979    0.1978   -0.2506    0.0022    0.1160   -0.0873   -0.2208   -0.0222
          19   -0.0493    0.0548   -0.0645    0.0184    0.1140    0.2898   -0.0510    0.0763
          20    0.1350    0.2018    0.0322   -0.1703   -0.2512    0.0776   -0.0146    0.1708
          21    0.0360   -0.2206   -0.0169    0.1269    0.2449   -0.2350    0.0457   -0.2232
          22   -0.0114   -0.0594    0.1315    0.2522   -0.1026   -0.0215    0.0393   -0.0800
          23    0.0705    0.0052   -0.0013    0.0217   -0.0162   -0.0135    0.0086   -0.0095
          24    0.2500    0.0506   -0.0940   -0.1753    0.0287   -0.0355   -0.0029    0.0205
          25   -0.0549   -0.0094   -0.0329   -0.1654    0.2727    0.1789    0.0036    0.0291
          26    0.1981    0.0269   -0.0454   -0.0183    0.0044   -0.0067    0.0097   -0.0071
          27   -0.2534   -0.0266    0.0815    0.0590   -0.1105   -0.0628   -0.0150    0.0062
          28    0.0737   -0.0792   -0.2575    0.0319   -0.0600   -0.1041   -0.3428    0.0149
          29   -0.1811   -0.3363    0.1526   -0.2465    0.2690    0.1652    0.0956   -0.0441
          30   -0.1273    0.1495    0.2282   -0.0291    0.0361    0.1366    0.4182   -0.0148
          31   -0.1881    0.0273   -0.0386   -0.1691    0.3144   -0.0344    0.1810    0.1280
          32    0.2199   -0.0254    0.1201    0.2005   -0.2341   -0.0523   -0.1083   -0.0793
          33   -0.0405   -0.3020   -0.1658   -0.0259   -0.2255    0.2639   -0.3328   -0.2144
          34   -0.0231   -0.0057    0.0205    0.1905    0.0281    0.1232    0.0209   -0.0059
          35    0.0601    0.0094   -0.0216   -0.0001    0.0325    0.0400    0.0024    0.0055
          36    0.2143    0.0224   -0.1027   -0.2557    0.0808   -0.0232   -0.0204    0.0238
          37    0.1537    0.0184   -0.0614    0.0568    0.1355    0.1920    0.0072    0.0203
          38    0.1622    0.0236   -0.0636   -0.0885    0.0864    0.0598   -0.0089    0.0197
          39   -0.2498   -0.0398    0.1014    0.0697   -0.1778   -0.1905    0.0115   -0.0405
          40   -0.0195   -0.0078    0.0232   -0.0544   -0.0208   -0.0765   -0.0124   -0.0072
          41    0.0660    0.0090   -0.0206   -0.1473    0.0160   -0.0742   -0.0172    0.0057
          42    0.1899    0.0231   -0.1143    0.3286    0.1879    0.4399    0.0628    0.0216
          43    0.0875    0.4273    0.1156    0.0904    0.2722   -0.1592   -0.0631   -0.4424
          44   -0.0035    0.1711    0.2245    0.0599   -0.0126    0.1161   -0.1413    0.2566
          45    0.1006    0.1315    0.3882   -0.0697   -0.0737    0.1513   -0.1707    0.3321
          46    0.2549   -0.2359   -0.0920    0.0469   -0.0926   -0.0633    0.2874    0.1073
          47    0.0979    0.0016   -0.0967   -0.1350   -0.2610    0.1625    0.3341   -0.4116
          48    0.0553   -0.1242   -0.1698    0.2028    0.1541   -0.2423    0.0017    0.4502


   Root No.      17        18        19        20        21        22        23        24

                17 A      18 A      19 A      20 A      21 A      22 A      23 A      24 A   

                1054.3    1118.5    1123.4    1154.3    1169.8    1188.8    1207.0    1270.5
  
           1   -0.0597    0.0321    0.0601   -0.2089    0.2381   -0.1773   -0.0038   -0.2856
           2    0.1813    0.1436    0.0464   -0.4530   -0.0534    0.0152    0.0585    0.2281
           3    0.0804   -0.0904   -0.0026    0.1363    0.2873   -0.3681   -0.0796    0.1644
           4    0.1342    0.0938   -0.0286    0.0336   -0.2828    0.0475    0.0323   -0.3511
           5   -0.2559    0.0022   -0.3144    0.1037   -0.0740   -0.0732   -0.0214   -0.1231
           6    0.0348   -0.4101    0.0873    0.0508   -0.3039   -0.0071    0.0129    0.2685
           7   -0.1233    0.0194   -0.0014   -0.0859   -0.1376    0.1685   -0.2144    0.0634
           8   -0.0505   -0.1221   -0.0533    0.1994    0.0628    0.2238    0.2239   -0.1319
           9   -0.2268   -0.0068    0.0129    0.1240    0.0490   -0.1624    0.2236    0.0599
          10   -0.1023   -0.0670    0.0089    0.0300    0.0985   -0.0334   -0.0170    0.1070
          11    0.1302    0.0162    0.3625    0.0323    0.0188    0.0335    0.0045    0.0066
          12   -0.0087    0.4497   -0.1010    0.0543    0.1673    0.0531   -0.0160   -0.0085
          13   -0.0385   -0.0559    0.0005    0.1055    0.0205   -0.0928    0.1480    0.1552
          14   -0.0499   -0.0307    0.0062    0.0424    0.0025   -0.0210   -0.1222    0.0141
          15    0.1671   -0.0711   -0.0556    0.0196   -0.0314    0.3799   -0.1865   -0.2232
          16   -0.0005    0.0350    0.0278   -0.0349    0.0181   -0.1140   -0.0309    0.0500
          17   -0.0101   -0.0110    0.0016    0.0662    0.0577   -0.1153   -0.1494   -0.0095
          18    0.1282    0.0221   -0.0237   -0.0928   -0.0494    0.2058    0.1921   -0.1046
          19   -0.1092   -0.2264    0.0181   -0.0768    0.5519    0.4802    0.0002    0.2040
          20    0.3783   -0.0380   -0.0762    0.2690    0.0547   -0.3345   -0.1347   -0.0728
          21   -0.2166    0.1585    0.0759   -0.3105   -0.2229   -0.0712    0.1114    0.0246
          22    0.4571    0.1197   -0.3703   -0.1080   -0.0936    0.1202    0.0043    0.3912
          23    0.0678    0.0282   -0.0581   -0.0217   -0.0117    0.0074    0.0025    0.0587
          24   -0.0226   -0.1414    0.4973   -0.0076   -0.0556   -0.0220    0.0388   -0.1666
          25   -0.1391    0.2864    0.1055    0.4962   -0.2779    0.1581   -0.0269    0.2520
          26    0.0581    0.1265    0.0808    0.0190    0.0730    0.0067   -0.0137    0.0298
          27   -0.0222   -0.3759   -0.2023   -0.2292   -0.0881   -0.1082    0.0320   -0.1696
          28    0.0793   -0.0247   -0.0439    0.1188    0.0133    0.0425    0.2789   -0.0602
          29    0.1618    0.0076    0.0218   -0.1431    0.0731    0.0191   -0.1665   -0.1164
          30   -0.1400    0.0354    0.0548   -0.1453   -0.0184   -0.0570   -0.3067    0.0819
          31    0.1807   -0.0060   -0.0136   -0.0011    0.1288   -0.1205    0.2348    0.0170
          32   -0.1789   -0.0254   -0.0055    0.0323   -0.1117    0.2034   -0.1689   -0.0422
          33   -0.1153    0.0551    0.0639   -0.1119   -0.0577   -0.0974   -0.3231    0.1299
          34    0.1541   -0.0801    0.1656    0.0092   -0.1049    0.0222    0.0123    0.0702
          35    0.0072   -0.0260    0.0182    0.0009   -0.0309   -0.0005    0.0037   -0.0178
          36   -0.2396    0.1081   -0.4153   -0.0123    0.0695   -0.0398   -0.0146   -0.1190
          37    0.0213   -0.1602   -0.0638    0.0010   -0.1470   -0.0024    0.0083    0.0618
          38   -0.0702   -0.1163   -0.1083   -0.0075   -0.0648   -0.0227    0.0026    0.0598
          39    0.0771    0.3121    0.2023    0.0359    0.1874    0.0410   -0.0111   -0.0857
          40   -0.0258   -0.0218    0.0021    0.0123    0.0222   -0.0079   -0.0049    0.0438
          41   -0.0936   -0.0470   -0.0734    0.0041    0.0016   -0.0272   -0.0015    0.0605
          42    0.1554    0.0877   -0.0375   -0.0326   -0.1544    0.0193    0.0201   -0.2678
          43    0.0727   -0.0772   -0.0355    0.0975    0.0609    0.0327   -0.1887   -0.0989
          44   -0.1278    0.1135    0.0504   -0.1434   -0.0407   -0.1151    0.1642    0.1038
          45   -0.0930    0.1305    0.0443   -0.1854   -0.0620   -0.0196    0.2100    0.0606
          46   -0.0354   -0.0075    0.0034    0.0057    0.0024   -0.0292   -0.0220    0.0201
          47   -0.0134   -0.0167   -0.0188    0.0214    0.0074    0.0462    0.3334   -0.0097
          48    0.0128   -0.0017    0.0027   -0.0100   -0.0081    0.0053   -0.2629   -0.0285


   Root No.      25        26        27        28        29        30        31        32

                25 A      26 A      27 A      28 A      29 A      30 A      31 A      32 A   

                1295.9    1376.6    1406.4    1406.5    1411.4    1418.7    1439.4    1775.1
  
           1    0.0595   -0.2803   -0.0303    0.0505    0.0178   -0.2725    0.4803    0.0500
           2   -0.1895    0.0419   -0.0317    0.0153   -0.0106    0.0679   -0.0732    0.0074
           3    0.2260    0.1651    0.0090   -0.0059   -0.0067    0.0794   -0.2298   -0.0595
           4   -0.0858    0.0354    0.1008   -0.1242    0.0333    0.2390   -0.4514   -0.0209
           5    0.0342    0.0208    0.0055    0.0042    0.0069   -0.0791   -0.0348   -0.0037
           6    0.0254   -0.1723   -0.0264   -0.0484   -0.0121    0.2578    0.2825    0.0141
           7    0.1891    0.0585    0.0118   -0.0108   -0.0014    0.0306   -0.0675    0.0245
           8    0.0188    0.0274    0.2245   -0.1903    0.0495   -0.0900    0.1076    0.0166
           9   -0.4159   -0.0754   -0.2129    0.1776   -0.0448    0.0797   -0.0628   -0.0599
          10    0.0328    0.0845   -0.0458   -0.0452   -0.2555    0.0712    0.1541   -0.0002
          11   -0.0031    0.0850   -0.1828   -0.1550    0.0589    0.0374    0.0628    0.0008
          12    0.0000   -0.2705    0.0241   -0.0836   -0.0060   -0.2799   -0.2951   -0.0032
          13    0.1348    0.0841   -0.0076    0.0022   -0.0085    0.0699   -0.1124    0.2992
          14    0.0185   -0.0056   -0.0012    0.0019   -0.0003   -0.0059    0.0253   -0.6042
          15   -0.2606   -0.1057    0.0238   -0.0164    0.0106   -0.0702    0.1378    0.0100
          16   -0.1681   -0.0042   -0.0206    0.0152   -0.0048    0.0149   -0.0081   -0.3037
          17   -0.1747   -0.0190   -0.0572    0.0498   -0.0119    0.0185   -0.0345    0.6042
          18    0.4721    0.0057    0.0855   -0.0670    0.0201   -0.0647    0.0735   -0.0017
          19   -0.0608    0.1278    0.0118    0.0055   -0.0133    0.0827   -0.1705   -0.0152
          20    0.1445    0.0023    0.0141   -0.0077    0.0044   -0.0366    0.0245   -0.0262
          21   -0.0779   -0.0490   -0.0285    0.0122    0.0019   -0.0083    0.0472    0.0139
          22   -0.0687    0.1592   -0.0780    0.1022   -0.0510   -0.1924    0.1151    0.0026
          23   -0.0213    0.1619   -0.0423    0.0825   -0.0248   -0.2255    0.0093   -0.0006
          24   -0.0469    0.3343   -0.0397    0.1238   -0.0343   -0.3585   -0.1221   -0.0018
          25    0.0163    0.1226   -0.0669    0.1038   -0.0505   -0.2198    0.1656    0.0051
          26    0.0287   -0.2916    0.0542   -0.1396    0.0411    0.3695    0.0378    0.0008
          27   -0.0376    0.2285   -0.0193    0.0714   -0.0177   -0.2218   -0.1189   -0.0031
          28   -0.0849   -0.0824   -0.1988    0.1711   -0.0405    0.0504   -0.0395   -0.0352
          29    0.2846   -0.1442   -0.3778    0.3342   -0.0763    0.0649   -0.0592   -0.0006
          30    0.0646    0.0518    0.0739   -0.0641    0.0138   -0.0071   -0.0073    0.0161
          31   -0.1826    0.0475    0.2434   -0.2169    0.0539   -0.0737    0.1034    0.0007
          32    0.1972   -0.0279   -0.1578    0.1423   -0.0351    0.0485   -0.0737    0.0150
          33   -0.0004    0.1386    0.3214   -0.2778    0.0639   -0.0628    0.0431    0.0344
          34   -0.0066   -0.1599    0.3369    0.3997    0.3438   -0.0313   -0.1014   -0.0003
          35   -0.0057    0.0713    0.0670    0.1527    0.2415    0.0766    0.0522    0.0005
          36   -0.0027    0.3184   -0.0740    0.0961    0.3352    0.2060    0.2022    0.0001
          37   -0.0006   -0.1050   -0.2585   -0.1913    0.5368   -0.1346   -0.1078   -0.0001
          38    0.0102   -0.2170    0.0622   -0.0923   -0.3941   -0.1463   -0.1310   -0.0005
          39   -0.0082    0.2499    0.0380    0.1536    0.1455    0.1789    0.1560   -0.0001
          40    0.0102    0.0017   -0.0050    0.0010   -0.0231    0.0052    0.0269   -0.0004
          41    0.0104   -0.1249    0.4977    0.5002   -0.0808    0.0221   -0.0225    0.0000
          42   -0.0481    0.2942    0.0714    0.0292   -0.3722    0.2656    0.1262    0.0001
          43   -0.1226   -0.0349   -0.0050    0.0066    0.0018   -0.0216    0.0309   -0.0165
          44    0.1364    0.0344   -0.0022    0.0003   -0.0024    0.0188   -0.0318   -0.1240
          45    0.1002    0.0168    0.0083   -0.0083    0.0009    0.0049   -0.0099    0.1438
          46   -0.0601   -0.0004   -0.0082    0.0060   -0.0016    0.0063   -0.0052   -0.1096
          47    0.2363    0.0162    0.0328   -0.0263    0.0072   -0.0152    0.0110    0.0627
          48   -0.1051   -0.0191   -0.0168    0.0150   -0.0026   -0.0042    0.0070    0.1429


   Root No.      33        34        35        36        37        38        39        40

                33 A      34 A      35 A      36 A      37 A      38 A      39 A      40 A   

                2952.2    2962.4    3034.2    3047.2    3077.3    3084.7    3103.7    3179.9
  
           1    0.0480   -0.0806    0.0046   -0.0055    0.0004    0.0015   -0.0020    0.0002
           2    0.0850   -0.1455    0.0025   -0.0098    0.0003    0.0003    0.0047   -0.0005
           3    0.0974   -0.1645    0.0030   -0.0098    0.0012   -0.0018   -0.0022   -0.0008
           4   -0.0045   -0.0028    0.1186    0.0062    0.0012   -0.0104   -0.0005   -0.0022
           5   -0.2548   -0.1513   -0.0450   -0.0052   -0.0164    0.0019   -0.0011   -0.0003
           6   -0.0616   -0.0345    0.1727    0.0071   -0.0014   -0.0151   -0.0013    0.0016
           7   -0.0084    0.0139    0.0095   -0.2439    0.0057   -0.0016   -0.0297    0.0007
           8   -0.0013    0.0040    0.0071   -0.1331   -0.0006    0.0003    0.1595    0.0013
           9   -0.0018    0.0058    0.0044   -0.1238    0.0059   -0.0019   -0.1440   -0.0003
          10    0.0006   -0.0005   -0.0241    0.0010    0.0273   -0.2698    0.0030   -0.0679
          11    0.0142    0.0071    0.0029   -0.0062   -0.2884   -0.0044   -0.0060   -0.0264
          12    0.0033    0.0015   -0.0059   -0.0001   -0.0522   -0.1182   -0.0009    0.1325
          13   -0.0010    0.0014    0.0011   -0.0015    0.0001    0.0000    0.0003    0.0001
          14    0.0012   -0.0026   -0.0001   -0.0009    0.0001    0.0000    0.0001    0.0001
          15    0.0015   -0.0023    0.0000   -0.0012    0.0000    0.0002   -0.0010   -0.0001
          16    0.0015   -0.0026    0.0002   -0.0013    0.0000    0.0000   -0.0004   -0.0001
          17   -0.0008    0.0015    0.0001   -0.0009    0.0000    0.0000    0.0034    0.0002
          18   -0.0004    0.0006   -0.0001   -0.0007    0.0000    0.0000   -0.0029    0.0001
          19   -0.1676    0.2937   -0.0064    0.0140   -0.0002    0.0014    0.0005    0.0005
          20   -0.3068    0.5137   -0.0101    0.0365   -0.0032    0.0006    0.0027    0.0018
          21   -0.3424    0.5774   -0.0096    0.0342   -0.0038   -0.0005    0.0010    0.0027
          22   -0.1858   -0.1170   -0.2044   -0.0098   -0.0119    0.0125    0.0006    0.0009
          23    0.5026    0.3061    0.6401    0.0315    0.0391   -0.0483   -0.0014   -0.0053
          24   -0.1825   -0.1122   -0.1800   -0.0093   -0.0189    0.0150    0.0000    0.0030
          25    0.2050    0.1230   -0.2143   -0.0065    0.0081    0.0155    0.0018    0.0010
          26    0.3846    0.2185   -0.4809   -0.0192    0.0147    0.0404    0.0051    0.0033
          27    0.3992    0.2272   -0.4291   -0.0155    0.0227    0.0400    0.0041    0.0049
          28    0.0079   -0.0210   -0.0138    0.4091   -0.0202    0.0063    0.5188    0.0011
          29    0.0006    0.0014    0.0041   -0.1056    0.0041   -0.0012   -0.0816   -0.0001
          30    0.0104   -0.0256   -0.0150    0.4436   -0.0210    0.0065    0.5251    0.0011
          31    0.0115   -0.0245   -0.0209    0.4445   -0.0012   -0.0001   -0.4098   -0.0040
          32    0.0133   -0.0241   -0.0281    0.5738   -0.0018    0.0000   -0.4810   -0.0046
          33   -0.0005    0.0001    0.0006   -0.0086    0.0013   -0.0006   -0.0262    0.0002
          34    0.0125    0.0071    0.0083   -0.0053   -0.2271    0.0671   -0.0048   -0.1760
          35   -0.0293   -0.0170   -0.0309    0.0162    0.6439   -0.3190    0.0139    0.4946
          36    0.0059    0.0031    0.0087   -0.0064   -0.2334    0.0865   -0.0045   -0.1459
          37   -0.0124   -0.0077    0.0063    0.0032    0.2066    0.1179    0.0045   -0.1861
          38   -0.0246   -0.0114    0.0194    0.0059    0.3986    0.3438    0.0080   -0.3902
          39   -0.0195   -0.0070    0.0166    0.0067    0.4239    0.3189    0.0087   -0.3608
          40    0.0005   -0.0020    0.0657   -0.0012   -0.0738    0.7476   -0.0107    0.6014
          41    0.0009    0.0003   -0.0016   -0.0010   -0.0426   -0.0099   -0.0008   -0.0105
          42   -0.0001    0.0001    0.0067    0.0002   -0.0103    0.0060   -0.0005    0.0357
          43    0.0007   -0.0006    0.0005   -0.0006    0.0000   -0.0001    0.0012    0.0000
          44    0.0005   -0.0010    0.0001    0.0008    0.0003   -0.0004   -0.0205   -0.0006
          45   -0.0004    0.0000   -0.0003   -0.0012   -0.0003    0.0004    0.0168    0.0004
          46    0.0028   -0.0051   -0.0002   -0.0017    0.0000   -0.0002   -0.0014    0.0004
          47   -0.0019    0.0037    0.0002    0.0000    0.0000    0.0001    0.0011   -0.0004
          48   -0.0024    0.0046    0.0002   -0.0001    0.0000    0.0001    0.0012   -0.0004


   Root No.      41        42

                41 A      42 A   

                3195.1    3215.5
  
           1   -0.0016    0.0056
           2    0.0020   -0.0051
           3    0.0030   -0.0076
           4    0.0002   -0.0002
           5    0.0000   -0.0001
           6    0.0000    0.0000
           7   -0.0002   -0.0001
           8    0.0044    0.0104
           9   -0.0038   -0.0097
          10    0.0000   -0.0002
          11   -0.0001    0.0000
          12    0.0002   -0.0001
          13    0.0093    0.0258
          14   -0.1499   -0.1926
          15    0.1226    0.1316
          16    0.1218   -0.1369
          17   -0.1027    0.1333
          18   -0.1246    0.1241
          19   -0.0013    0.0017
          20   -0.0030    0.0020
          21   -0.0028    0.0029
          22    0.0001   -0.0003
          23   -0.0006    0.0000
          24    0.0004    0.0001
          25    0.0000    0.0002
          26    0.0002    0.0000
          27    0.0001    0.0001
          28    0.0079    0.0086
          29   -0.0017   -0.0010
          30    0.0075    0.0092
          31   -0.0067   -0.0076
          32   -0.0087   -0.0082
          33   -0.0005   -0.0003
          34   -0.0002    0.0000
          35    0.0005   -0.0001
          36   -0.0001    0.0000
          37   -0.0001    0.0000
          38   -0.0004    0.0003
          39   -0.0003    0.0002
          40    0.0006    0.0001
          41    0.0000    0.0000
          42    0.0001   -0.0001
          43   -0.0310   -0.0320
          44    0.5150    0.5254
          45   -0.4220   -0.4303
          46   -0.4163    0.3954
          47    0.3488   -0.3316
          48    0.4266   -0.4048


          DESCRIPTION OF VIBRATIONS


 VIBRATION    1    1A       ATOM PAIR        ENERGY CONTRIBUTION    RADIAL
 FREQ.        90.93        C  2 --  C  4          +18.9% (743.7%)     0.0%
 T-DIPOLE    0.0072        C  4 --  H 14           +9.9% (537.7%)     5.9%
 TRAVEL      0.0430        C  4 --  H 13           +9.5% (528.3%)    74.7%
 RED. MASS   1.0446        C  4 --  H 12           +9.1% (515.0%)    99.9%
 EFF. MASS 400.9476

 VIBRATION    2    2A       ATOM PAIR        ENERGY CONTRIBUTION    RADIAL
 FREQ.       187.89        C  4 --  H 14          +29.3% (320.8%)     1.3%
 T-DIPOLE    0.0124        C  4 --  H 12          +28.4% (315.8%)     0.8%
 TRAVEL      0.1975        C  4 --  H 13          +27.2% (309.3%)     0.1%
 RED. MASS   0.2936        C  1 --  C  3           +2.3% ( 90.2%)     0.0%
 EFF. MASS   9.1964

 VIBRATION    3    3A       ATOM PAIR        ENERGY CONTRIBUTION    RADIAL
 FREQ.       210.62        C  3 --  C  6          +10.4% (238.4%)     0.0%
 T-DIPOLE    0.0348        C  1 --  C  3          +10.2% (235.8%)     0.0%
 TRAVEL      0.0675        C  2 --  C  4           +9.6% (228.8%)     0.1%
 RED. MASS   1.1076        C  1 --  C  6           +8.8% (219.2%)     0.0%
 EFF. MASS  70.3348

 VIBRATION    4    4A       ATOM PAIR        ENERGY CONTRIBUTION    RADIAL
 FREQ.       290.42        C  2 --  C  4          +12.9% (178.1%)     0.0%
 T-DIPOLE    0.0268        C  1 --  C  2          +12.0% (171.3%)     0.0%
 TRAVEL      0.0792        C  2 --  H  8           +9.4% (152.0%)    59.4%
 RED. MASS   0.8744        C  2 --  H  9           +7.3% (133.5%)    84.1%
 EFF. MASS  37.0526

 VIBRATION    5    5A       ATOM PAIR        ENERGY CONTRIBUTION    RADIAL
 FREQ.       432.20        C  2 --  C  4          +10.4% (128.2%)     1.8%
 T-DIPOLE    0.0202        C  1 --  C  2           +9.8% (124.5%)     0.5%
 TRAVEL      0.0838        C  4 --  H 12           +8.6% (116.6%)     2.0%
 RED. MASS   1.3000        C  4 --  H 13           +8.4% (115.3%)     0.0%
 EFF. MASS  22.2320

 VIBRATION    6    6A       ATOM PAIR        ENERGY CONTRIBUTION    RADIAL
 FREQ.       481.01        C  1 --  C  3          +10.7% (104.0%)     0.5%
 T-DIPOLE    0.1136        C  1 --  C  5          +10.4% (102.3%)     0.1%
 TRAVEL      0.0944        C  1 --  C  2           +8.9% ( 94.6%)     5.3%
 RED. MASS   0.7044        C  1 --  C  6           +8.9% ( 94.6%)    19.1%
 EFF. MASS  15.7475

 VIBRATION    7    7A       ATOM PAIR        ENERGY CONTRIBUTION    RADIAL
 FREQ.       759.32        C  6 --  H 16          +16.4% ( 72.3%)     2.8%
 T-DIPOLE    0.5898        C  5 --  H 15          +13.1% ( 64.8%)     2.3%
 TRAVEL      0.1334        C  1 --  C  6           +7.8% ( 50.0%)    93.9%
 RED. MASS   0.3469        C  1 --  C  2           +6.7% ( 46.3%)    57.7%
 EFF. MASS   4.9936

 VIBRATION    8    8A       ATOM PAIR        ENERGY CONTRIBUTION    RADIAL
 FREQ.       795.76        C  2 --  H  9          +14.2% ( 73.0%)     3.4%
 T-DIPOLE    0.2959        C  2 --  H  8          +13.5% ( 71.3%)    16.7%
 TRAVEL      0.1181        C  1 --  C  2           +8.8% ( 57.4%)    51.2%
 RED. MASS   0.3831        C  1 --  C  5           +7.9% ( 54.5%)     1.4%
 EFF. MASS   6.0777

 VIBRATION    9    9A       ATOM PAIR        ENERGY CONTRIBUTION    RADIAL
 FREQ.       858.37        C  1 --  C  6          +10.3% ( 63.6%)    61.6%
[...]
 TRAVEL      0.1098        C  1 --  C  3          +13.6% ( 51.1%)    64.1%
 RED. MASS   1.0421        C  1 --  C  2          +11.2% ( 46.6%)    15.6%
 EFF. MASS   4.8470        C  1 --  C  5          +10.6% ( 45.2%)    24.7%
                           C  1 --  C  6          +10.3% ( 44.5%)     0.0%

 VIBRATION   21   21A       ATOM PAIR        ENERGY CONTRIBUTION    RADIAL
 FREQ.      1169.82        C  1 --  H  7          +20.2% ( 62.1%)     8.4%
 T-DIPOLE    0.0328        C  1 --  C  2          +18.0% ( 58.6%)    43.7%
 TRAVEL      0.1011        C  2 --  C  4          +11.4% ( 46.6%)    19.0%
 RED. MASS   0.7908        C  2 --  H  9           +7.8% ( 38.6%)    86.4%
 EFF. MASS   5.6438

 VIBRATION   22   22A       ATOM PAIR        ENERGY CONTRIBUTION    RADIAL
 FREQ.      1188.84        C  1 --  H  7          +18.1% ( 66.4%)     8.0%
 T-DIPOLE    0.0829        C  1 --  C  5          +13.8% ( 58.1%)    72.0%
 TRAVEL      0.0898        C  3 --  C  5          +10.7% ( 51.0%)    67.3%
 RED. MASS   0.9358        C  1 --  C  3           +9.3% ( 47.5%)     0.6%
 EFF. MASS   7.0366

 VIBRATION   23   23A       ATOM PAIR        ENERGY CONTRIBUTION    RADIAL
 FREQ.      1206.97        C  3 --  H 10          +19.3% ( 54.0%)     0.0%
 T-DIPOLE    0.0405        C  3 --  H 11          +18.5% ( 52.9%)     0.1%
 TRAVEL      0.1339        C  6 --  H 16          +14.8% ( 47.4%)     0.4%
 RED. MASS   0.4838        C  5 --  H 15          +11.7% ( 42.1%)     0.1%
 EFF. MASS   3.1155

 VIBRATION   24   24A       ATOM PAIR        ENERGY CONTRIBUTION    RADIAL
 FREQ.      1270.54        C  2 --  H  8          +16.2% ( 59.9%)     0.4%
 T-DIPOLE    0.1021        C  2 --  H  9          +12.5% ( 52.6%)     0.0%
 TRAVEL      0.0937        C  1 --  C  5          +10.4% ( 48.1%)    66.5%
 RED. MASS   0.9725        C  1 --  C  2          +10.0% ( 47.0%)     3.1%
 EFF. MASS   6.0492

 VIBRATION   25   25A       ATOM PAIR        ENERGY CONTRIBUTION    RADIAL
 FREQ.      1295.90        C  3 --  C  6          +20.0% ( 69.9%)    99.6%
 T-DIPOLE    0.1801        C  5 --  C  6          +11.6% ( 53.1%)     0.3%
 TRAVEL      0.0787        C  1 --  C  6          +10.2% ( 49.9%)    80.1%
 RED. MASS   1.6889        C  6 --  H 16          +10.2% ( 49.8%)     8.7%
 EFF. MASS   8.3934

 VIBRATION   26   26A       ATOM PAIR        ENERGY CONTRIBUTION    RADIAL
 FREQ.      1376.56        C  4 --  H 12          +12.1% ( 40.6%)     4.0%
 T-DIPOLE    0.0212        C  4 --  H 13          +11.8% ( 40.1%)     2.3%
 TRAVEL      0.1214        C  4 --  H 14          +10.8% ( 38.4%)     1.7%
 RED. MASS   0.3429        C  2 --  H  8          +10.0% ( 36.9%)     1.8%
 EFF. MASS   3.3215

 VIBRATION   27   27A       ATOM PAIR        ENERGY CONTRIBUTION    RADIAL
 FREQ.      1406.37        C  3 --  H 11          +18.8% ( 45.2%)     4.8%
 T-DIPOLE    0.0229        C  3 --  H 10          +18.8% ( 45.2%)     4.6%
 TRAVEL      0.1370        C  4 --  H 14          +17.7% ( 43.8%)     0.3%
 RED. MASS   0.2851        C  4 --  H 12           +9.0% ( 31.3%)     9.5%
 EFF. MASS   2.5553

 VIBRATION   28   28A       ATOM PAIR        ENERGY CONTRIBUTION    RADIAL
 FREQ.      1406.55        C  4 --  H 14          +18.9% ( 43.2%)     0.4%
 T-DIPOLE    0.0408        C  3 --  H 10          +15.5% ( 39.1%)     4.3%
 TRAVEL      0.1462        C  3 --  H 11          +15.4% ( 39.0%)     4.7%
 RED. MASS   0.2232        C  4 --  H 12          +14.5% ( 37.8%)     2.5%
 EFF. MASS   2.2417

 VIBRATION   29   29A       ATOM PAIR        ENERGY CONTRIBUTION    RADIAL
 FREQ.      1411.43        C  4 --  H 13          +45.4% ( 59.6%)     0.2%
 T-DIPOLE    0.0488        C  4 --  H 12          +29.0% ( 47.7%)     2.8%
 TRAVEL      0.1686        C  4 --  H 14          +14.8% ( 34.0%)    25.7%
 RED. MASS   0.3804        C  2 --  C  4           +5.6% ( 21.0%)    12.0%
 EFF. MASS   1.6805

 VIBRATION   30   30A       ATOM PAIR        ENERGY CONTRIBUTION    RADIAL
 FREQ.      1418.75        C  2 --  H  9          +16.8% ( 49.9%)     5.2%
 T-DIPOLE    0.0536        C  2 --  H  8          +15.4% ( 47.8%)     6.9%
 TRAVEL      0.1037        C  1 --  C  2          +11.5% ( 41.2%)    83.0%
 RED. MASS   0.4957        C  2 --  C  4          +10.5% ( 39.5%)    61.0%
 EFF. MASS   4.4159

 VIBRATION   31   31A       ATOM PAIR        ENERGY CONTRIBUTION    RADIAL
 FREQ.      1439.37        C  1 --  C  2          +18.8% ( 69.5%)    76.7%
 T-DIPOLE    0.0662        C  2 --  C  4          +12.1% ( 55.8%)    82.9%
 TRAVEL      0.0723        C  1 --  C  5           +9.5% ( 49.5%)    65.4%
 RED. MASS   2.1624        C  1 --  H  7           +9.3% ( 48.8%)     0.1%
 EFF. MASS   8.9595

 VIBRATION   32   32A       ATOM PAIR        ENERGY CONTRIBUTION    RADIAL
 FREQ.      1775.11        C  5 --  C  6          +36.3% (102.1%)   100.0%
 T-DIPOLE    0.0776        C  1 --  C  6          +11.2% ( 56.7%)    59.3%
 TRAVEL      0.0563        C  3 --  C  5          +11.1% ( 56.4%)    58.7%
 RED. MASS   4.9990        C  3 --  C  6          +10.9% ( 56.0%)     0.1%
 EFF. MASS  11.9870        C  1 --  C  5          +10.9% ( 56.0%)     0.2%

 VIBRATION   33   33A       ATOM PAIR        ENERGY CONTRIBUTION    RADIAL
 FREQ.      2952.17        C  2 --  H  9          +37.8% ( 63.7%)    96.7%
 T-DIPOLE    0.0369        C  2 --  H  8          +34.9% ( 61.2%)    96.2%
 TRAVEL      0.1224        C  1 --  H  7          +24.2% ( 51.0%)   100.0%
 RED. MASS   0.3454        C  1 --  C  2           +1.2% ( 11.4%)     1.9%
 EFF. MASS   1.5235

 VIBRATION   34   34A       ATOM PAIR        ENERGY CONTRIBUTION    RADIAL
 FREQ.      2962.42        C  1 --  H  7          +70.3% ( 85.8%)   100.0%
 T-DIPOLE    0.0951        C  2 --  H  8          +13.2% ( 37.2%)    96.7%
 TRAVEL      0.1248        C  2 --  H  9          +12.6% ( 36.4%)    96.6%
 RED. MASS   0.5415        C  1 --  C  2           +1.0% ( 10.0%)    26.3%
 EFF. MASS   1.4610

 VIBRATION   35   35A       ATOM PAIR        ENERGY CONTRIBUTION    RADIAL
 FREQ.      3034.17        C  2 --  H  8          +50.1% ( 69.8%)    97.9%
 T-DIPOLE    0.0367        C  2 --  H  9          +47.7% ( 68.0%)    97.5%
 TRAVEL      0.1320        C  2 --  C  4           +0.6% (  7.8%)    26.0%
 RED. MASS   0.4759        C  1 --  C  2           +0.6% (  7.7%)    29.5%
 EFF. MASS   1.2757

 VIBRATION   36   36A       ATOM PAIR        ENERGY CONTRIBUTION    RADIAL
 FREQ.      3047.17        C  3 --  H 11          +55.6% ( 77.5%)    97.8%
 T-DIPOLE    0.0759        C  3 --  H 10          +40.7% ( 66.3%)    96.0%
 TRAVEL      0.1199        C  3 --  C  5           +1.1% ( 10.9%)     0.3%
 RED. MASS   0.5245        C  3 --  C  6           +1.1% ( 10.9%)     0.2%
 EFF. MASS   1.5383

 VIBRATION   37   37A       ATOM PAIR        ENERGY CONTRIBUTION    RADIAL
 FREQ.      3077.30        C  4 --  H 12          +55.8% ( 77.1%)    97.9%
 T-DIPOLE    0.0076        C  4 --  H 13          +41.3% ( 66.3%)    95.8%
 TRAVEL      0.1208        C  4 --  H 14           +1.5% ( 12.7%)    14.5%
 RED. MASS   0.5100        C  2 --  C  4           +1.0% ( 10.2%)     0.0%
 EFF. MASS   1.5014

 VIBRATION   38   38A       ATOM PAIR        ENERGY CONTRIBUTION    RADIAL
 FREQ.      3084.74        C  4 --  H 14          +60.4% ( 80.1%)    98.7%
 T-DIPOLE    0.0047        C  4 --  H 13          +25.3% ( 51.9%)    90.4%
 TRAVEL      0.1206        C  4 --  H 12          +12.7% ( 36.7%)    78.7%
 RED. MASS   0.4737        C  2 --  C  4           +1.0% ( 10.3%)     0.0%
 EFF. MASS   1.5035

 VIBRATION   39   39A       ATOM PAIR        ENERGY CONTRIBUTION    RADIAL
 FREQ.      3103.72        C  3 --  H 10          +57.1% ( 75.1%)    97.9%
 T-DIPOLE    0.1224        C  3 --  H 11          +40.7% ( 63.4%)    95.6%
 TRAVEL      0.1302        C  3 --  C  5           +0.7% (  8.3%)    98.6%
 RED. MASS   0.4945        C  1 --  C  3           +0.7% (  8.3%)    51.0%
 EFF. MASS   1.2823

 VIBRATION   40   40A       ATOM PAIR        ENERGY CONTRIBUTION    RADIAL
 FREQ.      3179.86        C  4 --  H 14          +37.4% ( 58.9%)    97.7%
 T-DIPOLE    0.0157        C  4 --  H 13          +32.3% ( 54.7%)    96.9%
 TRAVEL      0.1366        C  4 --  H 12          +30.0% ( 52.7%)    96.5%
 RED. MASS   0.3293        C  2 --  C  4           +0.3% (  5.1%)    99.3%
 EFF. MASS   1.1368

 VIBRATION   41   41A       ATOM PAIR        ENERGY CONTRIBUTION    RADIAL
 FREQ.      3195.09        C  6 --  H 16          +49.6% ( 72.1%)   100.0%
 T-DIPOLE    0.4752        C  5 --  H 15          +46.2% ( 69.6%)   100.0%
 TRAVEL      0.1201        C  5 --  C  6           +1.1% ( 10.6%)     0.0%
 RED. MASS   0.4653        C  1 --  C  6           +0.8% (  9.3%)    99.9%
 EFF. MASS   1.4640

 VIBRATION   42   42A       ATOM PAIR        ENERGY CONTRIBUTION    RADIAL
 FREQ.      3215.48        C  5 --  H 15          +47.9% ( 71.6%)    99.9%
 T-DIPOLE    0.3707        C  6 --  H 16          +44.6% ( 69.1%)    99.9%
 TRAVEL      0.1099        C  5 --  C  6           +3.0% ( 17.9%)   100.0%
 RED. MASS   0.4707        C  3 --  C  5           +1.1% ( 11.0%)    98.3%
 EFF. MASS   1.7370

 SYMMETRY NUMBER FOR POINT-GROUP C1  =  1


          SYSTEM IS A GROUND STATE


    NULL



          MOLECULE IS NOT LINEAR

          THERE ARE 42 GENUINE VIBRATIONS IN THIS SYSTEM
          THIS THERMODYNAMICS CALCULATION IS LIMITED TO
          MOLECULES WHICH HAVE NO INTERNAL ROTATIONS




                    CALCULATED THERMODYNAMIC PROPERTIES
                                          *
   TEMP. (K)   PARTITION FUNCTION   H.O.F.    ENTHALPY  HEAT CAPACITY ENTROPY
                                   KCAL/MOL   CAL/MOLE    CAL/K/MOL  CAL/K/MOL


 298.00  VIB.     0.1471D+02                  2238.1368    17.5190    12.8533
         ROT.     0.1328D+06                   888.2813     2.9808    26.4224
         INT.     0.1953D+07                  3126.4181    20.4998    39.2757
         TRA.     0.7198D+27                  1480.4688     4.9680    39.1295
         TOT.                       25.737    4606.8869    25.4678    78.4052

 200.00  VIB.     0.4527D+01                   907.0796    10.0257     7.5362
         ROT.     0.7299D+05                   596.1620     2.9808    25.2337
         INT.     0.3304D+06                  1503.2416    13.0065    32.7699
         TRA.     0.3957D+27                   993.6033     4.9680    37.1484
         TOT.                       23.627    2496.8448    17.9745    69.9183

 210.00  VIB.     0.5077D+01                  1010.5471    10.6730     8.0409
         ROT.     0.7853D+05                   625.9700     2.9808    25.3792
         INT.     0.3987D+06                  1636.5171    13.6538    33.4201
         TRA.     0.4258D+27                  1043.2834     4.9680    37.3907
         TOT.                       23.810    2679.8005    18.6219    70.8108

 220.00  VIB.     0.5701D+01                  1120.6442    11.3516     8.5529
         ROT.     0.8421D+05                   655.7781     2.9808    25.5178
         INT.     0.4801D+06                  1776.4224    14.3324    34.0708
         TRA.     0.4566D+27                  1092.9636     4.9680    37.6219
         TOT.                       24.000    2869.3859    19.3004    71.6926

 230.00  VIB.     0.6410D+01                  1237.6799    12.0605     9.0731
         ROT.     0.9002D+05                   685.5862     2.9808    25.6503
         INT.     0.5770D+06                  1923.2661    15.0414    34.7234
         TRA.     0.4880D+27                  1142.6437     4.9680    37.8427
         TOT.                       24.196    3065.9099    20.0094    72.5661

 240.00  VIB.     0.7215D+01                  1361.9516    12.7985     9.6018
         ROT.     0.9595D+05                   715.3943     2.9808    25.7772
         INT.     0.6923D+06                  2077.3459    15.7793    35.3790
         TRA.     0.5202D+27                  1192.3239     4.9680    38.0541
         TOT.                       24.400    3269.6698    20.7473    73.4332

 250.00  VIB.     0.8132D+01                  1493.7384    13.5632    10.1397
         ROT.     0.1020D+06                   745.2024     2.9808    25.8989
         INT.     0.8295D+06                  2238.9409    16.5440    36.0386
         TRA.     0.5531D+27                  1242.0041     4.9680    38.2569
         TOT.                       24.611    3480.9449    21.5120    74.2955

 260.00  VIB.     0.9177D+01                  1633.2960    14.3521    10.6870
         ROT.     0.1082D+06                   775.0105     2.9808    26.0158
         INT.     0.9929D+06                  2408.3066    17.3330    36.7028
         TRA.     0.5866D+27                  1291.6842     4.9680    38.4518
         TOT.                       24.830    3699.9908    22.3010    75.1546

 270.00  VIB.     0.1037D+02                  1780.8525    15.1625    11.2438
         ROT.     0.1145D+06                   804.8186     2.9808    26.1283
         INT.     0.1187D+07                  2585.6712    18.1433    37.3720
         TRA.     0.6208D+27                  1341.3644     4.9680    38.6393
         TOT.                       25.057    3927.0356    23.1113    76.0113

 280.00  VIB.     0.1174D+02                  1936.6065    15.9911    11.8101
         ROT.     0.1209D+06                   834.6267     2.9808    26.2367
         INT.     0.1419D+07                  2771.2333    18.9719    38.0468
         TRA.     0.6556D+27                  1391.0445     4.9680    38.8200
         TOT.                       25.293    4162.2778    23.9399    76.8668

 290.00  VIB.     0.1330D+02                  2100.7257    16.8350    12.3859
         ROT.     0.1274D+06                   864.4348     2.9808    26.3413
         INT.     0.1695D+07                  2965.1605    19.8158    38.7272
         TRA.     0.6910D+27                  1440.7247     4.9680    38.9943
         TOT.                       25.536    4405.8852    24.7838    77.7215

 300.00  VIB.     0.1509D+02                  2273.3466    17.6910    12.9711
         ROT.     0.1341D+06                   894.2429     2.9808    26.4424
         INT.     0.2023D+07                  3167.5896    20.6718    39.4134
         TRA.     0.7270D+27                  1490.4049     4.9680    39.1627
         TOT.                       25.788    4657.9944    25.6398    78.5761

 310.00  VIB.     0.1715D+02                  2454.5757    18.5561    13.5652
         ROT.     0.1409D+06                   924.0510     2.9808    26.5401
         INT.     0.2415D+07                  3378.6267    21.5369    40.1053
         TRA.     0.7637D+27                  1540.0850     4.9680    39.3256
         TOT.                       26.049    4918.7117    26.5049    79.4309

 320.00  VIB.     0.1951D+02                  2644.4896    19.4275    14.1681
         ROT.     0.1477D+06                   953.8591     2.9808    26.6347
         INT.     0.2882D+07                  3598.3487    22.4083    40.8028
         TRA.     0.8009D+27                  1589.7652     4.9680    39.4834
         TOT.                       26.319    5188.1139    27.3763    80.2862

 330.00  VIB.     0.2224D+02                  2843.1376    20.3025    14.7793
         ROT.     0.1547D+06                   983.6672     2.9808    26.7265
         INT.     0.3440D+07                  3826.8048    23.2833    41.5058
         TRA.     0.8388D+27                  1639.4454     4.9680    39.6362
         TOT.                       26.597    5466.2501    28.2513    81.1420

 340.00  VIB.     0.2538D+02                  3050.5429    21.1786    15.3984
         ROT.     0.1618D+06                  1013.4753     2.9808    26.8154
         INT.     0.4106D+07                  4064.0182    24.1594    42.2139
         TRA.     0.8772D+27                  1689.1255     4.9680    39.7845
         TOT.                       26.884    5753.1437    29.1274    81.9984

 350.00  VIB.     0.2900D+02                  3266.7052    22.0535    16.0250
         ROT.     0.1690D+06                  1043.2834     2.9808    26.9019
         INT.     0.4900D+07                  4309.9886    25.0343    42.9268
         TRA.     0.9162D+27                  1738.8057     4.9680    39.9285
         TOT.                       27.179    6048.7943    30.0023    82.8554

 360.00  VIB.     0.3319D+02                  3491.6023    22.9252    16.6584
         ROT.     0.1763D+06                  1073.0915     2.9808    26.9858
         INT.     0.5850D+07                  4564.6939    25.9060    43.6443
         TRA.     0.9557D+27                  1788.4859     4.9680    40.0685
         TOT.                       27.484    6353.1797    30.8741    83.7128

 370.00  VIB.     0.3803D+02                  3725.1931    23.7919    17.2984
         ROT.     0.1837D+06                  1102.8996     2.9808    27.0675
         INT.     0.6985D+07                  4828.0927    26.7727    44.3659
         TRA.     0.9958D+27                  1838.1660     4.9680    40.2046
         TOT.                       27.797    6666.2587    31.7408    84.5705

 380.00  VIB.     0.4364D+02                  3967.4189    24.6520    17.9443
         ROT.     0.1912D+06                  1132.7077     2.9808    27.1470
         INT.     0.8343D+07                  5100.1267    27.6328    45.0913
         TRA.     0.1036D+28                  1887.8462     4.9680    40.3371
         TOT.                       28.118    6987.9728    32.6008    85.4284

 390.00  VIB.     0.5015D+02                  4218.2064    25.5040    18.5957
         ROT.     0.1988D+06                  1162.5158     2.9808    27.2244
         INT.     0.9967D+07                  5380.7222    28.4848    45.8201
         TRA.     0.1078D+28                  1937.5263     4.9680    40.4662
         TOT.                       28.449    7318.2485    33.4529    86.2863

 400.00  VIB.     0.5769D+02                  4477.4688    26.3468    19.2521
         ROT.     0.2065D+06                  1192.3239     2.9808    27.2999
         INT.     0.1191D+08                  5669.7927    29.3276    46.5520
         TRA.     0.1119D+28                  1987.2065     4.9680    40.5919
         TOT.                       28.787    7656.9992    34.2957    87.1439

   *: NOTE: HEATS OF FORMATION ARE RELATIVE TO THE
            ELEMENTS IN THEIR STANDARD STATE AT 298K
              (=  Standard Enthalpy of Formation).

            Hvib:  Zero-point energy is not included.
                   frequencies of less than zero cm-1 are not included.
            Hrot = (3/2)RT
            Htra = (3/2)RT + pV = (5/2)RT

            Heat capacity is Cp, not Cv

           For more information, see: HTTP://OpenMOPAC.net/Manual/thermochemistry.html


           FORCE CONSTANT IN CARTESIAN COORDINATES (Millidynes/A)

    ATOM   CHEMICAL       X               Y               Z
   NUMBER   SYMBOL  FORCE CONSTANT  FORCE CONSTANT  FORCE CONSTANT

      1       C        9.068263        6.928698        8.390722
      2       C        8.406004        8.278631        8.455183
      3       C        7.406315        8.284504        8.317615
      4       C        8.459665        8.191713        8.238445
      5       C        4.903478       13.865805        7.734794
      6       C        7.036121       11.822765        7.807601
      7       H        1.268042        2.274471        2.686416
      8       H        1.116733        4.187464        1.068591
      9       H        1.199044        2.654775        2.540811
     10       H        2.800612        0.790371        2.988288
     11       H        2.465250        3.444708        0.648913
     12       H        1.108127        4.514344        1.132987
     13       H        1.140682        2.843955        2.795652
     14       H        5.397885        0.668822        0.726256
     15       H        0.448393        3.566659        2.575826
     16       H        2.262234        1.859829        2.477345



 TOTAL CPU TIME:             0.91 SECONDS

 == MOPAC DONE ==
