 *******************************************************************************
 ** Site#: 14399           For non-commercial use only        Version 13.159M **
 *******************************************************************************
 ** Cite this work as: MOPAC2012, James J. P. Stewart, Stewart Computational  **
 ** Chemistry, Version 13.159M web: HTTP://OpenMOPAC.net  Days remaining:   6 **
 *******************************************************************************
 **                                                                           **
 **                                MOPAC2012                                  **
 **                                                                           **
 *******************************************************************************

                            PM3 CALCULATION RESULTS


 *******************************************************************************
 *  CALCULATION DONE:                                Mon Jun  2 14:12:02 2014  *
 *  PM3      - The PM3 Hamiltonian to be used
 *  PRECISE  - CRITERIA TO BE INCREASED BY 100 TIMES
 *  NOSYM    - POINT-GROUP SYMMETRY SET TO C1
 *  T=       - A TIME OF 172800.0 SECONDS REQUESTED
 *  DUMP=N   - RESTART FILE WRITTEN EVERY  7200.000 SECONDS
 *******************************************************************************
pm3  precise nosym
 InChI=1S/C8H14O/c1-3-6-5-8(9)7(6)4-2/h4,6-9H,2-3,5H2,1H3

   ATOM   CHEMICAL          X               Y               Z
  NUMBER   SYMBOL      (ANGSTROMS)     (ANGSTROMS)     (ANGSTROMS)
 
     1       C          0.78590000  *  -0.54110000  *   0.12370000  *
     2       C         -0.62410000  *   0.10590000  *  -0.09330000  *
     3       C         -1.23040000  *  -1.10300000  *   0.61850000  *
     4       C          0.12180000  *  -1.57140000  *   1.03380000  *
     5       C          1.82450000  *   0.35470000  *   0.80900000  *
     6       C          2.35440000  *   1.43760000  *  -0.12400000  *
     7       C         -1.03250000  *   0.26420000  *  -1.53280000  *
     8       C         -2.26590000  *   0.64710000  *  -1.86950000  *
     9       O         -2.04810000  *  -0.73100000  *   1.74710000  *
    10       H          1.20200000  *  -1.04050000  *  -0.78520000  *
    11       H         -0.75960000  *   1.05610000  *   0.47830000  *
    12       H         -1.73840000  *  -1.84000000  *  -0.05110000  *
    13       H          1.40110000  *   0.83700000  *   1.72100000  *
    14       H          2.68020000  *  -0.27870000  *   1.13840000  *
    15       H          0.32740000  *  -1.41680000  *   2.12030000  *
    16       H          0.33470000  *  -2.62230000  *   0.72750000  *
    17       H          2.82820000  *   0.98740000  *  -1.02600000  *
    18       H          3.12270000  *   2.04740000  *   0.40320000  *
    19       H          1.53570000  *   2.11970000  *  -0.44810000  *
    20       H         -0.30690000  *   0.08610000  *  -2.32540000  *
    21       H         -2.53490000  *   0.76480000  *  -2.91740000  *
    22       H         -3.02270000  *   0.84750000  *  -1.11260000  *
    23       H         -2.95500000  *  -0.41060000  *   1.36440000  *
 


          CARTESIAN COORDINATES 

    NO.       ATOM         X         Y         Z

     1         C        0.7859   -0.5411    0.1237
     2         C       -0.6241    0.1059   -0.0933
     3         C       -1.2304   -1.1030    0.6185
     4         C        0.1218   -1.5714    1.0338
     5         C        1.8245    0.3547    0.8090
     6         C        2.3544    1.4376   -0.1240
     7         C       -1.0325    0.2642   -1.5328
     8         C       -2.2659    0.6471   -1.8695
     9         O       -2.0481   -0.7310    1.7471
    10         H        1.2020   -1.0405   -0.7852
    11         H       -0.7596    1.0561    0.4783
    12         H       -1.7384   -1.8400   -0.0511
    13         H        1.4011    0.8370    1.7210
    14         H        2.6802   -0.2787    1.1384
    15         H        0.3274   -1.4168    2.1203
    16         H        0.3347   -2.6223    0.7275
    17         H        2.8282    0.9874   -1.0260
    18         H        3.1227    2.0474    0.4032
    19         H        1.5357    2.1197   -0.4481
    20         H       -0.3069    0.0861   -2.3254
    21         H       -2.5349    0.7648   -2.9174
    22         H       -3.0227    0.8475   -1.1126
    23         H       -2.9550   -0.4106    1.3644

  H: (PM3): J. J. P. STEWART, J. COMP. CHEM. 10, 209 (1989).
  C: (PM3): J. J. P. STEWART, J. COMP. CHEM. 10, 209 (1989).
  O: (PM3): J. J. P. STEWART, J. COMP. CHEM. 10, 209 (1989).

           Empirical Formula: C8 H14 O  =    23 atoms



      MOLECULAR POINT GROUP   :   C1  


      RHF CALCULATION, NO. OF DOUBLY OCCUPIED LEVELS =   26

      Geometry optimization using EF

          DIAGONAL MATRIX USED AS START HESSIAN

 CYCLE:     1 TIME:   0.009 TIME LEFT:  2.00D  GRAD.:   164.391 HEAT:-28.29971
 CYCLE:     2 TIME:   0.013 TIME LEFT:  2.00D  GRAD.:    60.916 HEAT:-35.27734
 CYCLE:     3 TIME:   0.013 TIME LEFT:  2.00D  GRAD.:    75.408 HEAT:-35.61359
 CYCLE:     4 TIME:   0.007 TIME LEFT:  2.00D  GRAD.:    67.724 HEAT:-36.38394
 CYCLE:     5 TIME:   0.013 TIME LEFT:  2.00D  GRAD.:    39.896 HEAT:-37.28561
 CYCLE:     6 TIME:   0.013 TIME LEFT:  2.00D  GRAD.:    20.880 HEAT:-37.63150
 CYCLE:     7 TIME:   0.007 TIME LEFT:  2.00D  GRAD.:    26.947 HEAT:-37.75838
 CYCLE:     8 TIME:   0.010 TIME LEFT:  2.00D  GRAD.:    28.545 HEAT:-37.87571
 CYCLE:     9 TIME:   0.008 TIME LEFT:  2.00D  GRAD.:    30.749 HEAT:-37.87624
 CYCLE:    10 TIME:   0.013 TIME LEFT:  2.00D  GRAD.:    13.255 HEAT:-38.09594
 CYCLE:    11 TIME:   0.013 TIME LEFT:  2.00D  GRAD.:     9.856 HEAT:-38.13622
 CYCLE:    12 TIME:   0.007 TIME LEFT:  2.00D  GRAD.:     9.630 HEAT:-38.15674
 CYCLE:    13 TIME:   0.007 TIME LEFT:  2.00D  GRAD.:     8.334 HEAT:-38.18077
 CYCLE:    14 TIME:   0.013 TIME LEFT:  2.00D  GRAD.:     7.418 HEAT:-38.19627
 CYCLE:    15 TIME:   0.007 TIME LEFT:  2.00D  GRAD.:     5.826 HEAT:-38.21192
 CYCLE:    16 TIME:   0.012 TIME LEFT:  2.00D  GRAD.:     4.552 HEAT:-38.22268
 CYCLE:    17 TIME:   0.007 TIME LEFT:  2.00D  GRAD.:     5.011 HEAT:-38.23242
 CYCLE:    18 TIME:   0.007 TIME LEFT:  2.00D  GRAD.:     7.650 HEAT:-38.23903
 CYCLE:    19 TIME:   0.007 TIME LEFT:  2.00D  GRAD.:     5.816 HEAT:-38.25411
 CYCLE:    20 TIME:   0.007 TIME LEFT:  2.00D  GRAD.:     8.044 HEAT:-38.25777
 CYCLE:    21 TIME:   0.007 TIME LEFT:  2.00D  GRAD.:     4.886 HEAT:-38.27841
 CYCLE:    22 TIME:   0.012 TIME LEFT:  2.00D  GRAD.:     6.315 HEAT:-38.28177
 CYCLE:    23 TIME:   0.007 TIME LEFT:  2.00D  GRAD.:     3.120 HEAT:-38.29797
 CYCLE:    24 TIME:   0.007 TIME LEFT:  2.00D  GRAD.:     4.308 HEAT:-38.30822
 CYCLE:    25 TIME:   0.007 TIME LEFT:  2.00D  GRAD.:     4.161 HEAT:-38.32567
 CYCLE:    26 TIME:   0.007 TIME LEFT:  2.00D  GRAD.:     3.813 HEAT:-38.34798
 CYCLE:    27 TIME:   0.007 TIME LEFT:  2.00D  GRAD.:     2.969 HEAT:-38.37576
 CYCLE:    28 TIME:   0.007 TIME LEFT:  2.00D  GRAD.:     4.057 HEAT:-38.40411
 CYCLE:    29 TIME:   0.007 TIME LEFT:  2.00D  GRAD.:     3.724 HEAT:-38.43503
 CYCLE:    30 TIME:   0.010 TIME LEFT:  2.00D  GRAD.:     4.424 HEAT:-38.44849
 CYCLE:    31 TIME:   0.008 TIME LEFT:  2.00D  GRAD.:     3.002 HEAT:-38.46134
 CYCLE:    32 TIME:   0.007 TIME LEFT:  2.00D  GRAD.:     3.165 HEAT:-38.47250
 CYCLE:    33 TIME:   0.007 TIME LEFT:  2.00D  GRAD.:     2.676 HEAT:-38.48878
 CYCLE:    34 TIME:   0.007 TIME LEFT:  2.00D  GRAD.:     2.787 HEAT:-38.49843
 CYCLE:    35 TIME:   0.007 TIME LEFT:  2.00D  GRAD.:     2.367 HEAT:-38.50549
 CYCLE:    36 TIME:   0.007 TIME LEFT:  2.00D  GRAD.:     2.204 HEAT:-38.51385
 CYCLE:    37 TIME:   0.007 TIME LEFT:  2.00D  GRAD.:     1.887 HEAT:-38.52141
 CYCLE:    38 TIME:   0.007 TIME LEFT:  2.00D  GRAD.:     1.584 HEAT:-38.52595
 CYCLE:    39 TIME:   0.007 TIME LEFT:  2.00D  GRAD.:     2.139 HEAT:-38.53344
 CYCLE:    40 TIME:   0.007 TIME LEFT:  2.00D  GRAD.:     2.207 HEAT:-38.54029
 CYCLE:    41 TIME:   0.007 TIME LEFT:  2.00D  GRAD.:     1.969 HEAT:-38.54779
 CYCLE:    42 TIME:   0.007 TIME LEFT:  2.00D  GRAD.:     2.246 HEAT:-38.55721
 CYCLE:    43 TIME:   0.007 TIME LEFT:  2.00D  GRAD.:     2.483 HEAT:-38.56691
 CYCLE:    44 TIME:   0.007 TIME LEFT:  2.00D  GRAD.:     2.784 HEAT:-38.57630
 CYCLE:    45 TIME:   0.007 TIME LEFT:  2.00D  GRAD.:     1.555 HEAT:-38.58395
 CYCLE:    46 TIME:   0.010 TIME LEFT:  2.00D  GRAD.:     1.412 HEAT:-38.58897
 CYCLE:    47 TIME:   0.009 TIME LEFT:  2.00D  GRAD.:     1.436 HEAT:-38.59273
 CYCLE:    48 TIME:   0.009 TIME LEFT:  2.00D  GRAD.:     1.224 HEAT:-38.59588
 CYCLE:    49 TIME:   0.007 TIME LEFT:  2.00D  GRAD.:     1.147 HEAT:-38.59909
 CYCLE:    50 TIME:   0.009 TIME LEFT:  2.00D  GRAD.:     0.985 HEAT:-38.60202
 CYCLE:    51 TIME:   0.009 TIME LEFT:  2.00D  GRAD.:     0.939 HEAT:-38.60445
 CYCLE:    52 TIME:   0.009 TIME LEFT:  2.00D  GRAD.:     0.866 HEAT:-38.60652
 CYCLE:    53 TIME:   0.007 TIME LEFT:  2.00D  GRAD.:     0.811 HEAT:-38.60835
 CYCLE:    54 TIME:   0.007 TIME LEFT:  2.00D  GRAD.:     0.747 HEAT:-38.60981
 CYCLE:    55 TIME:   0.008 TIME LEFT:  2.00D  GRAD.:     0.606 HEAT:-38.61097
 CYCLE:    56 TIME:   0.009 TIME LEFT:  2.00D  GRAD.:     0.463 HEAT:-38.61164
 CYCLE:    57 TIME:   0.007 TIME LEFT:  2.00D  GRAD.:     0.395 HEAT:-38.61207
 CYCLE:    58 TIME:   0.008 TIME LEFT:  2.00D  GRAD.:     0.362 HEAT:-38.61239
 CYCLE:    59 TIME:   0.007 TIME LEFT:  2.00D  GRAD.:     0.343 HEAT:-38.61271
 CYCLE:    60 TIME:   0.007 TIME LEFT:  2.00D  GRAD.:     0.313 HEAT:-38.61300
 CYCLE:    61 TIME:   0.007 TIME LEFT:  2.00D  GRAD.:     0.305 HEAT:-38.61324
 CYCLE:    62 TIME:   0.008 TIME LEFT:  2.00D  GRAD.:     0.309 HEAT:-38.61349
 CYCLE:    63 TIME:   0.007 TIME LEFT:  2.00D  GRAD.:     0.307 HEAT:-38.61374
 CYCLE:    64 TIME:   0.007 TIME LEFT:  2.00D  GRAD.:     0.302 HEAT:-38.61400
 CYCLE:    65 TIME:   0.007 TIME LEFT:  2.00D  GRAD.:     0.271 HEAT:-38.61424
 CYCLE:    66 TIME:   0.007 TIME LEFT:  2.00D  GRAD.:     0.250 HEAT:-38.61442
 CYCLE:    67 TIME:   0.007 TIME LEFT:  2.00D  GRAD.:     0.231 HEAT:-38.61454
 CYCLE:    68 TIME:   0.007 TIME LEFT:  2.00D  GRAD.:     0.241 HEAT:-38.61468
 CYCLE:    69 TIME:   0.007 TIME LEFT:  2.00D  GRAD.:     0.279 HEAT:-38.61483
 CYCLE:    70 TIME:   0.007 TIME LEFT:  2.00D  GRAD.:     0.319 HEAT:-38.61502
 CYCLE:    71 TIME:   0.007 TIME LEFT:  2.00D  GRAD.:     0.333 HEAT:-38.61522
 CYCLE:    72 TIME:   0.007 TIME LEFT:  2.00D  GRAD.:     0.401 HEAT:-38.61553
 CYCLE:    73 TIME:   0.007 TIME LEFT:  2.00D  GRAD.:     0.510 HEAT:-38.61596
 CYCLE:    74 TIME:   0.007 TIME LEFT:  2.00D  GRAD.:     0.785 HEAT:-38.61707
 CYCLE:    75 TIME:   0.007 TIME LEFT:  2.00D  GRAD.:     0.804 HEAT:-38.61816
 CYCLE:    76 TIME:   0.008 TIME LEFT:  2.00D  GRAD.:     1.243 HEAT:-38.62053
 CYCLE:    77 TIME:   0.007 TIME LEFT:  2.00D  GRAD.:     0.853 HEAT:-38.62171
 CYCLE:    78 TIME:   0.007 TIME LEFT:  2.00D  GRAD.:     0.928 HEAT:-38.62391
 CYCLE:    79 TIME:   0.008 TIME LEFT:  2.00D  GRAD.:     1.895 HEAT:-38.62890
 CYCLE:    80 TIME:   0.007 TIME LEFT:  2.00D  GRAD.:     1.656 HEAT:-38.63276
 CYCLE:    81 TIME:   0.007 TIME LEFT:  2.00D  GRAD.:     1.157 HEAT:-38.63742
 CYCLE:    82 TIME:   0.014 TIME LEFT:  2.00D  GRAD.:     2.689 HEAT:-38.64002
 CYCLE:    83 TIME:   0.007 TIME LEFT:  2.00D  GRAD.:     2.332 HEAT:-38.64281
 CYCLE:    84 TIME:   0.007 TIME LEFT:  2.00D  GRAD.:     1.215 HEAT:-38.64715
 CYCLE:    85 TIME:   0.007 TIME LEFT:  2.00D  GRAD.:     2.146 HEAT:-38.65229
 CYCLE:    86 TIME:   0.007 TIME LEFT:  2.00D  GRAD.:     3.142 HEAT:-38.65885
 CYCLE:    87 TIME:   0.007 TIME LEFT:  2.00D  GRAD.:     2.660 HEAT:-38.67095
 CYCLE:    88 TIME:   0.007 TIME LEFT:  2.00D  GRAD.:     4.968 HEAT:-38.68171
 CYCLE:    89 TIME:   0.007 TIME LEFT:  2.00D  GRAD.:     4.891 HEAT:-38.71218
 CYCLE:    90 TIME:   0.007 TIME LEFT:  2.00D  GRAD.:     4.008 HEAT:-38.73259
 CYCLE:    91 TIME:   0.007 TIME LEFT:  2.00D  GRAD.:     5.458 HEAT:-38.74473
 CYCLE:    92 TIME:   0.020 TIME LEFT:  2.00D  GRAD.:     3.099 HEAT:-38.75340
 CYCLE:    93 TIME:   0.007 TIME LEFT:  2.00D  GRAD.:     3.678 HEAT:-38.75764
 CYCLE:    94 TIME:   0.007 TIME LEFT:  2.00D  GRAD.:     1.225 HEAT:-38.76166
 CYCLE:    95 TIME:   0.011 TIME LEFT:  2.00D  GRAD.:     0.932 HEAT:-38.76367
 CYCLE:    96 TIME:   0.007 TIME LEFT:  2.00D  GRAD.:     0.570 HEAT:-38.76522
 CYCLE:    97 TIME:   0.007 TIME LEFT:  2.00D  GRAD.:     0.614 HEAT:-38.76596
 CYCLE:    98 TIME:   0.007 TIME LEFT:  2.00D  GRAD.:     0.642 HEAT:-38.76643
 CYCLE:    99 TIME:   0.007 TIME LEFT:  2.00D  GRAD.:     0.540 HEAT:-38.76698
 CYCLE:   100 TIME:   0.007 TIME LEFT:  2.00D  GRAD.:     0.639 HEAT:-38.76764
 CYCLE:   101 TIME:   0.007 TIME LEFT:  2.00D  GRAD.:     0.706 HEAT:-38.76818
 CYCLE:   102 TIME:   0.007 TIME LEFT:  2.00D  GRAD.:     0.488 HEAT:-38.76889
 CYCLE:   103 TIME:   0.007 TIME LEFT:  2.00D  GRAD.:     0.411 HEAT:-38.76922
 CYCLE:   104 TIME:   0.007 TIME LEFT:  2.00D  GRAD.:     0.443 HEAT:-38.76962
 CYCLE:   105 TIME:   0.007 TIME LEFT:  2.00D  GRAD.:     0.614 HEAT:-38.77012
 CYCLE:   106 TIME:   0.007 TIME LEFT:  2.00D  GRAD.:     0.786 HEAT:-38.77090
 CYCLE:   107 TIME:   0.007 TIME LEFT:  2.00D  GRAD.:     0.852 HEAT:-38.77232
 CYCLE:   108 TIME:   0.007 TIME LEFT:  2.00D  GRAD.:     0.690 HEAT:-38.77322
 CYCLE:   109 TIME:   0.007 TIME LEFT:  2.00D  GRAD.:     0.711 HEAT:-38.77428
 CYCLE:   110 TIME:   0.007 TIME LEFT:  2.00D  GRAD.:     0.384 HEAT:-38.77466
 CYCLE:   111 TIME:   0.007 TIME LEFT:  2.00D  GRAD.:     0.268 HEAT:-38.77480
 CYCLE:   112 TIME:   0.007 TIME LEFT:  2.00D  GRAD.:     0.248 HEAT:-38.77497
 CYCLE:   113 TIME:   0.007 TIME LEFT:  2.00D  GRAD.:     0.230 HEAT:-38.77506
 CYCLE:   114 TIME:   0.007 TIME LEFT:  2.00D  GRAD.:     0.247 HEAT:-38.77511
 CYCLE:   115 TIME:   0.007 TIME LEFT:  2.00D  GRAD.:     0.279 HEAT:-38.77522
 CYCLE:   116 TIME:   0.007 TIME LEFT:  2.00D  GRAD.:     0.305 HEAT:-38.77534
 CYCLE:   117 TIME:   0.007 TIME LEFT:  2.00D  GRAD.:     0.406 HEAT:-38.77580
 CYCLE:   118 TIME:   0.007 TIME LEFT:  2.00D  GRAD.:     0.326 HEAT:-38.77598
 CYCLE:   119 TIME:   0.007 TIME LEFT:  2.00D  GRAD.:     0.295 HEAT:-38.77634
 CYCLE:   120 TIME:   0.007 TIME LEFT:  2.00D  GRAD.:     0.182 HEAT:-38.77646
 CYCLE:   121 TIME:   0.007 TIME LEFT:  2.00D  GRAD.:     0.120 HEAT:-38.77651
 CYCLE:   122 TIME:   0.007 TIME LEFT:  2.00D  GRAD.:     0.129 HEAT:-38.77654
 CYCLE:   123 TIME:   0.007 TIME LEFT:  2.00D  GRAD.:     0.107 HEAT:-38.77656
 CYCLE:   124 TIME:   0.007 TIME LEFT:  2.00D  GRAD.:     0.103 HEAT:-38.77659
 CYCLE:   125 TIME:   0.007 TIME LEFT:  2.00D  GRAD.:     0.077 HEAT:-38.77660
 CYCLE:   126 TIME:   0.007 TIME LEFT:  2.00D  GRAD.:     0.075 HEAT:-38.77661
 CYCLE:   127 TIME:   0.007 TIME LEFT:  2.00D  GRAD.:     0.081 HEAT:-38.77662
 CYCLE:   128 TIME:   0.010 TIME LEFT:  2.00D  GRAD.:     0.099 HEAT:-38.77663
 CYCLE:   129 TIME:   0.008 TIME LEFT:  2.00D  GRAD.:     0.070 HEAT:-38.77664
 CYCLE:   130 TIME:   0.007 TIME LEFT:  2.00D  GRAD.:     0.048 HEAT:-38.77664

     RMS GRADIENT =  0.04784  IS LESS THAN CUTOFF =  0.05000



 -------------------------------------------------------------------------------
pm3  precise nosym
 InChI=1S/C8H14O/c1-3-6-5-8(9)7(6)4-2/h4,6-9H,2-3,5H2,1H3



     GEOMETRY OPTIMISED USING EIGENVECTOR FOLLOWING (EF).     
     SCF FIELD WAS ACHIEVED                                   


                              PM3 CALCULATION
                                                       MOPAC2012 (Version: 13.159M)
                                                       Mon Jun  2 14:12:03 2014
                                                       No. of days left =   6




          FINAL HEAT OF FORMATION =        -38.77664 KCAL/MOL =    -162.24146 KJ/MOL


          TOTAL ENERGY            =      -1457.38728 EV
          ELECTRONIC ENERGY       =      -7587.59235 EV  POINT GROUP:     C1  
          CORE-CORE REPULSION     =       6130.20508 EV
          COSMO AREA              =        179.14 SQUARE ANGSTROMS
          COSMO VOLUME            =        184.71 CUBIC ANGSTROMS

          GRADIENT NORM           =          0.04784
          IONIZATION POTENTIAL    =         10.203158 EV
          HOMO LUMO ENERGIES (EV) =        -10.203  1.001
          NO. OF FILLED LEVELS    =         26
          MOLECULAR WEIGHT        =        126.198

          MOLECULAR DIMENSIONS (Angstroms)

            Atom       Atom       Distance
            H    18    H    16     6.90497
            H    18    H    12     5.98829
            H    23    H    10     2.09529


          SCF CALCULATIONS        =        143
          COMPUTATION TIME        =          1.032 SECONDS




   ATOM   CHEMICAL          X               Y               Z
  NUMBER   SYMBOL      (ANGSTROMS)     (ANGSTROMS)     (ANGSTROMS)
 
     1       C          0.76256614  *  -0.50459493  *   0.07891149  *
     2       C         -0.61748023  *   0.18927543  *  -0.11331755  *
     3       C         -1.30080849  *  -0.99509623  *   0.64831201  *
     4       C          0.09171020  *  -1.61818439  *   0.91627451  *
     5       C          1.80031514  *   0.30783342  *   0.82471569  *
     6       C          2.38580330  *   1.40131560  *  -0.04045717  *
     7       C         -1.02627101  *   0.40130799  *  -1.52170579  *
     8       C         -2.28587765  *   0.35253146  *  -1.93951087  *
     9       O         -1.94725583  *  -0.65144048  *   1.84314145  *
    10       H          1.19049515  *  -0.87873297  *  -0.87660063  *
    11       H         -0.68932636  *   1.16036119  *   0.42665522  *
    12       H         -1.97248068  *  -1.61668672  *   0.01740044  *
    13       H          1.35737783  *   0.74484796  *   1.74243376  *
    14       H          2.60249933  *  -0.37115706  *   1.17590334  *
    15       H          0.39400260  *  -1.63911393  *   1.97610169  *
    16       H          0.21849143  *  -2.63554606  *   0.51857093  *
    17       H          2.88483361  *   0.99320260  *  -0.92954003  *
    18       H          3.12805659  *   1.99158034  *   0.51149637  *
    19       H          1.60847561  *   2.09329821  *  -0.39255142  *
    20       H         -0.20794850  *   0.63025156  *  -2.21643187  *
    21       H         -2.56698781  *   0.53026801  *  -2.97283929  *
    22       H         -3.12352907  *   0.13233119  *  -1.28294142  *
    23       H         -2.68407554  *  -0.10900262  *   1.59423913  *

           Empirical Formula: C8 H14 O  =    23 atoms



      MOLECULAR POINT GROUP   :   C1  


                  EIGENVALUES  
 -41.94305 -36.45431 -33.66221 -31.31434 -25.21243 -24.48239 -21.53141 -19.89303
 -18.89659 -18.19668 -16.86386 -16.06774 -15.95420 -15.33756 -14.63894 -14.26728
 -13.91366 -13.27700 -12.75883 -12.46792 -12.34739 -12.08557 -11.74423 -11.54394
 -10.77559 -10.20316   1.00085   3.05125   3.10775   3.15111   3.48840   3.59245
   3.65892   3.78028   3.89135   3.95935   4.05825   4.13453   4.22728   4.31425
   4.36794   4.44597   4.66583   4.83054   4.92895   5.12368   5.28789   5.57034
   5.71724   5.81585


              NET ATOMIC CHARGES AND DIPOLE CONTRIBUTIONS

  ATOM NO.   TYPE          CHARGE      No. of ELECS.   s-Pop       p-Pop       
    1          C          -0.083386        4.0834     1.19219     2.89119
    2          C          -0.111361        4.1114     1.19417     2.91719
    3          C           0.068830        3.9312     1.18589     2.74528
    4          C          -0.117333        4.1173     1.17761     2.93972
    5          C          -0.091925        4.0919     1.15757     2.93435
    6          C          -0.110771        4.1108     1.13827     2.97250
    7          C          -0.120812        4.1208     1.19253     2.92829
    8          C          -0.173040        4.1730     1.18090     2.99214
    9          O          -0.296815        6.2968     1.80686     4.48995
   10          H           0.075546        0.9245     0.92445
   11          H           0.093796        0.9062     0.90620
   12          H           0.058047        0.9420     0.94195
   13          H           0.057132        0.9429     0.94287
   14          H           0.051304        0.9487     0.94870
   15          H           0.077236        0.9228     0.92276
   16          H           0.059116        0.9409     0.94088
   17          H           0.037210        0.9628     0.96279
   18          H           0.038532        0.9615     0.96147
   19          H           0.039127        0.9609     0.96087
   20          H           0.101378        0.8986     0.89862
   21          H           0.082965        0.9170     0.91703
   22          H           0.078512        0.9215     0.92149
   23          H           0.186709        0.8133     0.81329
 DIPOLE           X         Y         Z       TOTAL
 POINT-CHG.     0.232     0.125    -0.684     0.733
 HYBRID        -0.359     0.351    -0.462     0.682
 SUM           -0.127     0.475    -1.146     1.248


          ATOMIC ORBITAL ELECTRON POPULATIONS

    Atom      s        px        py        pz   
    1  C   1.19219   0.93760   0.96134   0.99226
    2  C   1.19417   0.97451   0.98939   0.95329
    3  C   1.18589   0.92717   0.94242   0.87570
    4  C   1.17761   0.95419   0.97269   1.01285
    5  C   1.15757   0.98050   0.97445   0.97940
    6  C   1.13827   0.99948   0.98086   0.99216
    7  C   1.19253   0.97375   0.99154   0.96300
    8  C   1.18090   0.96193   1.02285   1.00736
    9  O   1.80686   1.45850   1.72935   1.30210
   10  H   0.92445
   11  H   0.90620
   12  H   0.94195
   13  H   0.94287
   14  H   0.94870
   15  H   0.92276
   16  H   0.94088
   17  H   0.96279
   18  H   0.96147
   19  H   0.96087
   20  H   0.89862
   21  H   0.91703
   22  H   0.92149
   23  H   0.81329
 *******************************************************************************
 ** Site#: 14399           For non-commercial use only        Version 13.159M **
 *******************************************************************************
 ** Cite this work as: MOPAC2012, James J. P. Stewart, Stewart Computational  **
 ** Chemistry, Version 13.159M web: HTTP://OpenMOPAC.net  Days remaining:   6 **
 *******************************************************************************
 **                                                                           **
 **                                MOPAC2012                                  **
 **                                                                           **
 *******************************************************************************

                            PM3 CALCULATION RESULTS


 *******************************************************************************
 *  CALCULATION DONE:                                Mon Jun  2 14:12:03 2014  *
 *  PM3      - The PM3 Hamiltonian to be used
 *  OLDGEO   - PREVIOUS GEOMETRY TO BE USED
 *  PRECISE  - CRITERIA TO BE INCREASED BY 100 TIMES
 *  NOSYM    - POINT-GROUP SYMMETRY SET TO C1
 *  T=       - A TIME OF 172800.0 SECONDS REQUESTED
 *  DUMP=N   - RESTART FILE WRITTEN EVERY  7200.000 SECONDS
 *  THERMO   - THERMODYNAMIC QUANTITIES TO BE CALCULATED
 *******************************************************************************
oldgeo thermo nosym precise  pm3

   ATOM   CHEMICAL          X               Y               Z
  NUMBER   SYMBOL      (ANGSTROMS)     (ANGSTROMS)     (ANGSTROMS)
 
     1       C          0.76256614  *  -0.50459493  *   0.07891149  *
     2       C         -0.61748023  *   0.18927543  *  -0.11331755  *
     3       C         -1.30080849  *  -0.99509623  *   0.64831201  *
     4       C          0.09171020  *  -1.61818439  *   0.91627451  *
     5       C          1.80031514  *   0.30783342  *   0.82471569  *
     6       C          2.38580330  *   1.40131560  *  -0.04045717  *
     7       C         -1.02627101  *   0.40130799  *  -1.52170579  *
     8       C         -2.28587765  *   0.35253146  *  -1.93951087  *
     9       O         -1.94725583  *  -0.65144048  *   1.84314145  *
    10       H          1.19049515  *  -0.87873297  *  -0.87660063  *
    11       H         -0.68932636  *   1.16036119  *   0.42665522  *
    12       H         -1.97248068  *  -1.61668672  *   0.01740044  *
    13       H          1.35737783  *   0.74484796  *   1.74243376  *
    14       H          2.60249933  *  -0.37115706  *   1.17590334  *
    15       H          0.39400260  *  -1.63911393  *   1.97610169  *
    16       H          0.21849143  *  -2.63554606  *   0.51857093  *
    17       H          2.88483361  *   0.99320260  *  -0.92954003  *
    18       H          3.12805659  *   1.99158034  *   0.51149637  *
    19       H          1.60847561  *   2.09329821  *  -0.39255142  *
    20       H         -0.20794850  *   0.63025156  *  -2.21643187  *
    21       H         -2.56698781  *   0.53026801  *  -2.97283929  *
    22       H         -3.12352907  *   0.13233119  *  -1.28294142  *
    23       H         -2.68407554  *  -0.10900262  *   1.59423913  *
 


          CARTESIAN COORDINATES 

    NO.       ATOM         X         Y         Z

     1         C        0.7626   -0.5046    0.0789
     2         C       -0.6175    0.1893   -0.1133
     3         C       -1.3008   -0.9951    0.6483
     4         C        0.0917   -1.6182    0.9163
     5         C        1.8003    0.3078    0.8247
     6         C        2.3858    1.4013   -0.0405
     7         C       -1.0263    0.4013   -1.5217
     8         C       -2.2859    0.3525   -1.9395
     9         O       -1.9473   -0.6514    1.8431
    10         H        1.1905   -0.8787   -0.8766
    11         H       -0.6893    1.1604    0.4267
    12         H       -1.9725   -1.6167    0.0174
    13         H        1.3574    0.7448    1.7424
    14         H        2.6025   -0.3712    1.1759
    15         H        0.3940   -1.6391    1.9761
    16         H        0.2185   -2.6355    0.5186
    17         H        2.8848    0.9932   -0.9295
    18         H        3.1281    1.9916    0.5115
    19         H        1.6085    2.0933   -0.3926
    20         H       -0.2079    0.6303   -2.2164
    21         H       -2.5670    0.5303   -2.9728
    22         H       -3.1235    0.1323   -1.2829
    23         H       -2.6841   -0.1090    1.5942

  H: (PM3): J. J. P. STEWART, J. COMP. CHEM. 10, 209 (1989).
  C: (PM3): J. J. P. STEWART, J. COMP. CHEM. 10, 209 (1989).
  O: (PM3): J. J. P. STEWART, J. COMP. CHEM. 10, 209 (1989).

           Empirical Formula: C8 H14 O  =    23 atoms



      MOLECULAR POINT GROUP   :   C1  


      RHF CALCULATION, NO. OF DOUBLY OCCUPIED LEVELS =   26



          HEAT OF FORMATION =     -38.776638 KCALS/MOLE


          INTERNAL COORDINATE DERIVATIVES

   NUMBER  ATOM       BOND         ANGLE      DIHEDRAL

     1       C     -0.008197    -0.001454     0.002718
     2       C      0.001592     0.003979    -0.006765
     3       C     -0.002477     0.001060     0.001956
     4       C      0.002627     0.001181     0.002941
     5       C     -0.000102     0.005210    -0.001017
     6       C      0.007839     0.002913     0.001190
     7       C     -0.003081     0.005850    -0.011624
     8       C     -0.015999    -0.010716     0.005776
     9       O     -0.000714    -0.001961     0.001267
    10       H      0.002729    -0.003207     0.001502
    11       H     -0.008459    -0.006065     0.001204
    12       H     -0.005151    -0.000589     0.001637
    13       H     -0.007554    -0.000562     0.000478
    14       H     -0.000275     0.001072    -0.004029
    15       H      0.003447    -0.002227    -0.002179
    16       H      0.004443     0.005004    -0.000316
    17       H      0.022786     0.003235    -0.006092
    18       H     -0.012345    -0.001006     0.002022
    19       H      0.010409    -0.000181     0.009707
    20       H      0.002764     0.001168     0.002771
    21       H     -0.002198    -0.002703    -0.007615
    22       H      0.005548     0.003616     0.002817
    23       H      0.002368    -0.003618     0.001652


          GRADIENT NORM =   0.04738


          TIME FOR SCF CALCULATION =    0.01

          TIME FOR DERIVATIVES     =    0.01

          MOLECULAR WEIGHT =  126.20



          ROTATIONAL CONSTANTS IN CM(-1)

          A =    0.06439956   B =    0.04262734   C =    0.02991656



           PRINCIPAL MOMENTS OF INERTIA IN UNITS OF 10**(-40)*GRAM-CM**2

          A =      434.6734   B =      656.6860   C =      935.6949


          ORIENTATION OF MOLECULE IN FORCE CALCULATION

    NO.       ATOM         X         Y         Z

     1          C      -1.0629   -0.1796   -0.0971
     2          C       0.4937   -0.1796   -0.0971
     3          C       0.4775    1.3855   -0.0971
     4          C      -1.0680    1.3635    0.0043
     5          C      -1.7129   -0.8913    1.0709
     6          C      -1.6377   -2.3946    0.9250
     7          C       1.1245   -0.8404   -1.2637
     8          C       2.2711   -0.4450   -1.8045
     9          O       1.0562    1.9951    1.0240
    10          H      -1.4911   -0.5527   -1.0529
    11          H       0.9235   -0.6159    0.8327
    12          H       0.8738    1.8462   -1.0278
    13          H      -1.2388   -0.5771    2.0226
    14          H      -2.7702   -0.5677    1.1443
    15          H      -1.4762    1.7589    0.9488
    16          H      -1.5848    1.8791   -0.8180
    17          H      -2.1523   -2.7416    0.0190
    18          H      -2.1009   -2.9016    1.7809
    19          H      -0.5966   -2.7395    0.8602
    20          H       0.5869   -1.7146   -1.6529
    21          H       2.7272   -0.9549   -2.6474
    22          H       2.8346    0.4127   -1.4466
    23          H       1.9820    1.7948    0.9809


    FIRST DERIVATIVES WILL BE USED IN THE CALCULATION OF SECOND DERIVATIVES

          ESTIMATED TIME TO COMPLETE CALCULATION =        4.06 SECONDS

    FOR POINT-GROUP C1   THERE ARE   1 UNIQUE SYMMETRY FUNCTIONS.

 STEP:   1 TIME =     0.03 SECS, INTEGRAL =      0.03 TIME LEFT: 172799.95
 STEP:   2 TIME =     0.04 SECS, INTEGRAL =      0.07 TIME LEFT: 172799.92
 STEP:   3 TIME =     0.04 SECS, INTEGRAL =      0.11 TIME LEFT: 172799.88
 STEP:   4 TIME =     0.03 SECS, INTEGRAL =      0.14 TIME LEFT: 172799.85
 STEP:   5 TIME =     0.03 SECS, INTEGRAL =      0.17 TIME LEFT: 172799.82
 STEP:   6 TIME =     0.03 SECS, INTEGRAL =      0.20 TIME LEFT: 172799.79
 STEP:   7 TIME =     0.03 SECS, INTEGRAL =      0.23 TIME LEFT: 172799.75
 STEP:   8 TIME =     0.03 SECS, INTEGRAL =      0.26 TIME LEFT: 172799.72
 STEP:   9 TIME =     0.04 SECS, INTEGRAL =      0.30 TIME LEFT: 172799.69
 STEP:  10 TIME =     0.03 SECS, INTEGRAL =      0.33 TIME LEFT: 172799.66
 STEP:  11 TIME =     0.03 SECS, INTEGRAL =      0.36 TIME LEFT: 172799.63
 STEP:  12 TIME =     0.03 SECS, INTEGRAL =      0.39 TIME LEFT: 172799.59
 STEP:  13 TIME =     0.03 SECS, INTEGRAL =      0.42 TIME LEFT: 172799.56
 STEP:  14 TIME =     0.03 SECS, INTEGRAL =      0.46 TIME LEFT: 172799.53
 STEP:  15 TIME =     0.03 SECS, INTEGRAL =      0.49 TIME LEFT: 172799.50
 STEP:  16 TIME =     0.03 SECS, INTEGRAL =      0.52 TIME LEFT: 172799.47
 STEP:  17 TIME =     0.03 SECS, INTEGRAL =      0.55 TIME LEFT: 172799.44
 STEP:  18 TIME =     0.03 SECS, INTEGRAL =      0.58 TIME LEFT: 172799.41
 STEP:  19 TIME =     0.03 SECS, INTEGRAL =      0.61 TIME LEFT: 172799.37
 STEP:  20 TIME =     0.03 SECS, INTEGRAL =      0.64 TIME LEFT: 172799.34
 STEP:  21 TIME =     0.03 SECS, INTEGRAL =      0.67 TIME LEFT: 172799.31
 STEP:  22 TIME =     0.03 SECS, INTEGRAL =      0.70 TIME LEFT: 172799.28
 STEP:  23 TIME =     0.03 SECS, INTEGRAL =      0.74 TIME LEFT: 172799.25
 STEP:  24 TIME =     0.03 SECS, INTEGRAL =      0.77 TIME LEFT: 172799.22
 STEP:  25 TIME =     0.03 SECS, INTEGRAL =      0.80 TIME LEFT: 172799.19
 STEP:  26 TIME =     0.03 SECS, INTEGRAL =      0.83 TIME LEFT: 172799.16
 STEP:  27 TIME =     0.03 SECS, INTEGRAL =      0.86 TIME LEFT: 172799.12
 STEP:  28 TIME =     0.03 SECS, INTEGRAL =      0.89 TIME LEFT: 172799.09
 STEP:  29 TIME =     0.03 SECS, INTEGRAL =      0.92 TIME LEFT: 172799.06
 STEP:  30 TIME =     0.03 SECS, INTEGRAL =      0.95 TIME LEFT: 172799.03
 STEP:  31 TIME =     0.03 SECS, INTEGRAL =      0.98 TIME LEFT: 172799.00
 STEP:  32 TIME =     0.03 SECS, INTEGRAL =      1.01 TIME LEFT: 172798.97
 STEP:  33 TIME =     0.03 SECS, INTEGRAL =      1.04 TIME LEFT: 172798.94
 STEP:  34 TIME =     0.03 SECS, INTEGRAL =      1.08 TIME LEFT: 172798.91
 STEP:  35 TIME =     0.03 SECS, INTEGRAL =      1.11 TIME LEFT: 172798.88
 STEP:  36 TIME =     0.03 SECS, INTEGRAL =      1.14 TIME LEFT: 172798.84
 STEP:  37 TIME =     0.03 SECS, INTEGRAL =      1.17 TIME LEFT: 172798.81
 STEP:  38 TIME =     0.03 SECS, INTEGRAL =      1.20 TIME LEFT: 172798.78
 STEP:  39 TIME =     0.03 SECS, INTEGRAL =      1.23 TIME LEFT: 172798.75
 STEP:  40 TIME =     0.03 SECS, INTEGRAL =      1.26 TIME LEFT: 172798.72
 STEP:  41 TIME =     0.03 SECS, INTEGRAL =      1.29 TIME LEFT: 172798.69
 STEP:  42 TIME =     0.03 SECS, INTEGRAL =      1.32 TIME LEFT: 172798.66
 STEP:  43 TIME =     0.03 SECS, INTEGRAL =      1.36 TIME LEFT: 172798.63
 STEP:  44 TIME =     0.03 SECS, INTEGRAL =      1.39 TIME LEFT: 172798.60
 STEP:  45 TIME =     0.03 SECS, INTEGRAL =      1.42 TIME LEFT: 172798.57
 STEP:  46 TIME =     0.03 SECS, INTEGRAL =      1.45 TIME LEFT: 172798.54
 STEP:  47 TIME =     0.03 SECS, INTEGRAL =      1.48 TIME LEFT: 172798.51
 STEP:  48 TIME =     0.03 SECS, INTEGRAL =      1.51 TIME LEFT: 172798.48
 STEP:  49 TIME =     0.03 SECS, INTEGRAL =      1.54 TIME LEFT: 172798.45
 STEP:  50 TIME =     0.03 SECS, INTEGRAL =      1.57 TIME LEFT: 172798.42
 STEP:  51 TIME =     0.03 SECS, INTEGRAL =      1.60 TIME LEFT: 172798.39
 STEP:  52 TIME =     0.03 SECS, INTEGRAL =      1.63 TIME LEFT: 172798.36
 STEP:  53 TIME =     0.03 SECS, INTEGRAL =      1.66 TIME LEFT: 172798.33
 STEP:  54 TIME =     0.03 SECS, INTEGRAL =      1.69 TIME LEFT: 172798.30
 STEP:  55 TIME =     0.03 SECS, INTEGRAL =      1.72 TIME LEFT: 172798.27
 STEP:  56 TIME =     0.03 SECS, INTEGRAL =      1.75 TIME LEFT: 172798.24
 STEP:  57 TIME =     0.03 SECS, INTEGRAL =      1.78 TIME LEFT: 172798.20
 STEP:  58 TIME =     0.03 SECS, INTEGRAL =      1.81 TIME LEFT: 172798.17
 STEP:  59 TIME =     0.03 SECS, INTEGRAL =      1.84 TIME LEFT: 172798.14
 STEP:  60 TIME =     0.03 SECS, INTEGRAL =      1.87 TIME LEFT: 172798.11
 STEP:  61 TIME =     0.03 SECS, INTEGRAL =      1.90 TIME LEFT: 172798.08
 STEP:  62 TIME =     0.03 SECS, INTEGRAL =      1.94 TIME LEFT: 172798.05
 STEP:  63 TIME =     0.03 SECS, INTEGRAL =      1.97 TIME LEFT: 172798.02
 STEP:  64 TIME =     0.03 SECS, INTEGRAL =      2.00 TIME LEFT: 172797.99
 STEP:  65 TIME =     0.03 SECS, INTEGRAL =      2.03 TIME LEFT: 172797.96
 STEP:  66 TIME =     0.03 SECS, INTEGRAL =      2.06 TIME LEFT: 172797.93
 STEP:  67 TIME =     0.03 SECS, INTEGRAL =      2.09 TIME LEFT: 172797.90
 STEP:  68 TIME =     0.03 SECS, INTEGRAL =      2.12 TIME LEFT: 172797.87
 STEP:  69 TIME =     0.03 SECS, INTEGRAL =      2.15 TIME LEFT: 172797.83

(To convert to Hartree/Bohr^2, multiply by (10^(-21) x N x a0^2)/(4.184 x 627.51) = 0.0642)


           FORCE MATRIX IN MILLIDYNES/ANGSTROM


                  C  1       C  2       C  3       C  4       C  5       C  6
 ------------------------------------------------------------------------------
     C    1  14.450055
     C    2   3.178588  14.576467
     C    3   1.800804   2.891760  14.679198
     C    4   3.507284   1.774742   3.445834  14.368473
     C    5   4.311302   0.534346   0.043578   0.546580  14.493596
     C    6   0.661992   0.031002   0.005766   0.050925   4.465074  14.371204
     C    7   0.564356   5.100615   0.524640   0.042290   0.034915   0.005151
     C    8   0.047348   0.826195   0.053134   0.007636   0.006555   0.001138
     O    9   0.045012   0.748135   5.560193   0.741510   0.007507   0.003104
     H   10   4.382970   0.440765   0.030657   0.427455   0.429847   0.032166
     H   11   0.443251   4.331919   0.457584   0.024453   0.032107   0.008267
     H   12   0.027213   0.422189   4.305641   0.415307   0.003147   0.000786
     H   13   0.451270   0.023579   0.004621   0.019742   4.441726   0.436336
     H   14   0.431682   0.047078   0.005040   0.019100   4.457693   0.439785
     H   15   0.454705   0.027114   0.485629   4.653802   0.030746   0.003134
     H   16   0.441675   0.034616   0.440523   4.720643   0.032374   0.006140
     H   17   0.023746   0.001906   0.000821   0.001607   0.464403   4.721522
     H   18   0.052639   0.002219   0.001078   0.008858   0.451005   4.756794
     H   19   0.020802   0.006572   0.001203   0.001941   0.463398   4.708638
     H   20   0.030655   0.437448   0.035376   0.002639   0.002509   0.001994
     H   21   0.010666   0.138595   0.006043   0.001814   0.001327   0.000370
     H   22   0.004866   0.103459   0.021939   0.002442   0.000941   0.000382
     H   23   0.008548   0.047169   0.860960   0.101190   0.002692   0.000620


                  C  7       C  8       O  9       H 10       H 11       H 12
 ------------------------------------------------------------------------------
     C    7  18.271066
     C    8  11.044949  17.998179
     O    9   0.059354   0.007777  12.012882
     H   10   0.033430   0.003083   0.004260   4.891017
     H   11   0.390223   0.025498   0.037506   0.030397   4.831066
     H   12   0.019913   0.013565   0.417943   0.002246   0.030996   4.748380
     H   13   0.001511   0.000969   0.002762   0.043046   0.027570   0.000720
     H   14   0.006183   0.001600   0.002429   0.025082   0.003362   0.000870
     H   15   0.001480   0.000839   0.062697   0.031392   0.002919   0.029993
     H   16   0.004333   0.000958   0.042870   0.027008   0.000862   0.025489
     H   17   0.001034   0.000507   0.000837   0.021968   0.000667   0.000117
     H   18   0.000717   0.000514   0.000920   0.002018   0.000718   0.000210
     H   19   0.002714   0.000711   0.001348   0.002090   0.010437   0.000409
     H   20   4.768706   0.453826   0.009919   0.028634   0.013940   0.002195
     H   21   0.462779   5.112831   0.003466   0.000655   0.016458   0.001101
     H   22   0.492799   5.059159   0.006777   0.000710   0.012752   0.024725
     H   23   0.007540   0.004193   8.301360   0.001578   0.017163   0.044629


                  H 13       H 14       H 15       H 16       H 17       H 18
 ------------------------------------------------------------------------------
     H   13   5.056482
     H   14   0.570868   5.066172
     H   15   0.017017   0.010650   5.289306
     H   16   0.001270   0.001904   0.546223   5.336213
     H   17   0.048015   0.024817   0.000450   0.000310   5.465189
     H   18   0.030757   0.028435   0.000769   0.001157   0.573306   5.491167
     H   19   0.023817   0.049099   0.000431   0.000417   0.577760   0.570294
     H   20   0.000593   0.000628   0.000526   0.000958   0.001532   0.000620
     H   21   0.000208   0.000348   0.000188   0.000209   0.000121   0.000160
     H   22   0.000204   0.000197   0.000402   0.000440   0.000124   0.000120
     H   23   0.000981   0.000774   0.004746   0.010230   0.000191   0.000266


                  H 19       H 20       H 21       H 22       H 23
 ------------------------------------------------------------------
     H   19   5.445641
     H   20   0.005264   5.129655
     H   21   0.000223   0.082708   5.501278
     H   22   0.000201   0.122908   0.425400   5.457213
     H   23   0.000493   0.001802   0.001906   0.006593   8.579748


          HEAT OF FORMATION =     -38.776638 KCALS/MOLE

          ZERO POINT ENERGY     126.998 KCAL/MOL


           NORMAL COORDINATE ANALYSIS (Total motion = 1 Angstrom)


   Root No.       1         2         3         4         5         6         7         8

                 1 A       2 A       3 A       4 A       5 A       6 A       7 A       8 A   

                  64.4      65.2      87.8     146.3     173.8     222.6     248.6     278.0
  
           1   -0.0149   -0.0014   -0.0126   -0.0011   -0.0129    0.0009    0.0178   -0.0033
           2    0.0049   -0.0007    0.0164   -0.0108    0.0000    0.0027   -0.0109    0.0047
           3    0.0010   -0.0181   -0.0043    0.0004   -0.0090   -0.0063   -0.0003   -0.0183
           4   -0.0156   -0.0012   -0.0128   -0.0009   -0.0127    0.0016    0.0203   -0.0020
           5    0.0019   -0.0095    0.0037   -0.0109   -0.0103    0.0038    0.0008    0.0188
           6   -0.0243   -0.0111    0.0076   -0.0004   -0.0018   -0.0066    0.0113   -0.0304
           7   -0.0119    0.0089   -0.0004   -0.0005   -0.0015   -0.0037    0.0086   -0.0195
           8    0.0023   -0.0094    0.0034   -0.0109   -0.0114    0.0047    0.0032    0.0179
           9   -0.0076    0.0111    0.0032   -0.0057   -0.0041   -0.0019    0.0133   -0.0017
          10   -0.0106    0.0060   -0.0001    0.0017   -0.0009   -0.0017    0.0096   -0.0173
          11    0.0045    0.0004    0.0149   -0.0104    0.0002    0.0016   -0.0119    0.0025
          12    0.0131   -0.0327    0.0186    0.0133    0.0023    0.0075    0.0155    0.0337
          13    0.0051   -0.0076   -0.0267   -0.0206   -0.0181   -0.0022   -0.0301    0.0076
          14   -0.0012    0.0213   -0.0045   -0.0027    0.0046    0.0068   -0.0093    0.0028
          15    0.0087   -0.0078   -0.0257   -0.0050   -0.0085   -0.0058   -0.0263   -0.0123
          16    0.0189    0.0262    0.0547   -0.0247    0.0056   -0.0024   -0.0159   -0.0100
          17   -0.0007    0.0182   -0.0020   -0.0050    0.0042    0.0066   -0.0126    0.0008
          18    0.0106    0.0444   -0.0120    0.0235    0.0115    0.0046    0.0200    0.0188
          19   -0.0237   -0.0033   -0.0124    0.0125    0.0097    0.0083   -0.0026    0.0274
          20    0.0292    0.0055   -0.0142    0.0094   -0.0027   -0.0054    0.0166   -0.0072
          21   -0.0445   -0.0211    0.0185   -0.0052    0.0065    0.0030   -0.0131    0.0002
          22    0.0399   -0.0047   -0.0173    0.0069    0.0021    0.0055    0.0044    0.0249
          23   -0.0266    0.0113   -0.0193    0.0428    0.0341   -0.0060   -0.0163   -0.0201
          24    0.0488   -0.0200    0.0049    0.0061    0.0163   -0.0037   -0.0215   -0.0151
          25    0.0054   -0.0216    0.0181    0.0258    0.0214   -0.0107   -0.0024   -0.0038
          26   -0.0111   -0.0334    0.0034   -0.0044   -0.0177   -0.0476    0.0338   -0.0115
          27   -0.0095    0.0403   -0.0065   -0.0235   -0.0129    0.0276    0.0024    0.0078
          28   -0.0333   -0.0014   -0.0058    0.0024   -0.0123    0.0005    0.0369   -0.0094
          29    0.0122   -0.0116    0.0363   -0.0043    0.0044    0.0074   -0.0030    0.0203
          30    0.0064   -0.0136   -0.0153   -0.0036   -0.0102   -0.0076   -0.0125   -0.0203
          31   -0.0031   -0.0064   -0.0246   -0.0026   -0.0235    0.0006    0.0247   -0.0060
          32   -0.0106   -0.0273    0.0058   -0.0123   -0.0127    0.0134   -0.0036    0.0220
          33   -0.0360   -0.0171    0.0143   -0.0007    0.0024   -0.0019    0.0054   -0.0250
          34   -0.0211    0.0402   -0.0079   -0.0181   -0.0079   -0.0149    0.0034   -0.0412
          35    0.0079    0.0041   -0.0032   -0.0161   -0.0146    0.0053   -0.0025    0.0469
          36   -0.0086    0.0312   -0.0033   -0.0163   -0.0088   -0.0063    0.0081    0.0044
          37    0.0123   -0.0315   -0.0804   -0.0410   -0.0295   -0.0042   -0.0826    0.0175
          38    0.0046    0.0619    0.0253    0.0092    0.0232    0.0120    0.0148    0.0110
          39    0.0033   -0.0092   -0.0087    0.0012   -0.0087   -0.0064   -0.0083   -0.0193
          40    0.0026   -0.0157   -0.0452   -0.0218   -0.0230   -0.0025   -0.0375    0.0100
          41   -0.0118    0.0018   -0.0552    0.0007   -0.0091    0.0073   -0.0175    0.0106
          42    0.0199   -0.0377   -0.0715   -0.0332   -0.0202   -0.0106   -0.0891   -0.0064
          43    0.0029   -0.0202    0.0141    0.0149    0.0067    0.0038    0.0104    0.0053
          44   -0.0019    0.0136    0.0032   -0.0188   -0.0040   -0.0090   -0.0265   -0.0372
          45    0.0216   -0.0496    0.0296    0.0227    0.0073    0.0148    0.0224    0.0610
          46   -0.0205    0.0344   -0.0053   -0.0092   -0.0003   -0.0086    0.0018   -0.0462
          47    0.0118   -0.0052    0.0321   -0.0020    0.0109    0.0101   -0.0050    0.0300
          48    0.0240   -0.0542    0.0328    0.0255    0.0088    0.0171    0.0249    0.0697
          49    0.0220    0.0649    0.1240    0.0827   -0.1173   -0.0069   -0.0573   -0.0151
          50   -0.0066   -0.0216   -0.0325   -0.0104   -0.0291   -0.0002   -0.0523   -0.0133
          51    0.0112    0.0378   -0.0397   -0.0354    0.0944    0.0098    0.0591    0.0274
          52    0.0234    0.0056    0.0303   -0.1391    0.1476    0.0023    0.0347   -0.0170
          53   -0.0035    0.0380   -0.0193    0.0145    0.0075    0.0128    0.0122    0.0278
          54    0.0114    0.0451   -0.0355   -0.0266    0.0902    0.0109    0.0624    0.0314
          55    0.0218    0.0349    0.0752   -0.0222    0.0070   -0.0025   -0.0144   -0.0149
          56    0.0083    0.0351    0.0478   -0.0220    0.0348    0.0070   -0.0001   -0.0147
          57    0.0116    0.0931    0.0498    0.1588   -0.1352    0.0018   -0.0198    0.0274
          58   -0.0793   -0.0045   -0.0093    0.0300    0.0380    0.0177   -0.0392    0.0546
          59    0.1070    0.0109   -0.0257    0.0060   -0.0203   -0.0181    0.0497   -0.0461
          60   -0.1414   -0.0314    0.0396   -0.0205    0.0081    0.0182   -0.0384    0.0492
          61    0.0437   -0.0084   -0.0186    0.0223    0.0285    0.0123   -0.0361    0.0444
          62    0.0024    0.0210   -0.0346    0.0672    0.0480   -0.0187   -0.0114   -0.0728
          63    0.0335   -0.0279    0.0135   -0.0003    0.0223    0.0078   -0.0467    0.0269
          64    0.0907   -0.0018   -0.0204   -0.0123   -0.0295   -0.0021    0.0501    0.0010
          65   -0.1020    0.0058   -0.0085    0.0485    0.0536    0.0049   -0.0531    0.0199
          66    0.1496   -0.0117   -0.0160    0.0234    0.0203   -0.0180   -0.0064   -0.0741
          67    0.0048   -0.0214    0.0154    0.0237    0.0171    0.0983    0.0002   -0.0140
          68   -0.0105   -0.0376   -0.0073   -0.0103   -0.0361    0.5459    0.0445   -0.0625
          69   -0.0271    0.0651   -0.0152   -0.0433   -0.0240   -0.3583    0.0119    0.0238


   Root No.       9        10        11        12        13        14        15        16

                 9 A      10 A      11 A      12 A      13 A      14 A      15 A      16 A   

                 385.9     402.4     456.9     481.7     524.4     643.2     708.9     822.9
  
           1    0.0008    0.0040    0.0043    0.0402   -0.0132    0.0052    0.0249   -0.0018
           2    0.0031   -0.0074    0.0205   -0.0093    0.0177   -0.0159    0.0274    0.0053
           3   -0.0092    0.0365    0.0387   -0.0021   -0.0092   -0.0092    0.0234    0.0026
           4   -0.0048    0.0108    0.0042    0.0282   -0.0067   -0.0049    0.0149    0.0219
           5    0.0348    0.0120    0.0125    0.0158   -0.0061    0.0059   -0.0222    0.0007
           6    0.0090    0.0100   -0.0223    0.0104    0.0275    0.0204    0.0192    0.0140
           7   -0.0064   -0.0162    0.0247   -0.0077    0.0044    0.0176   -0.0263   -0.0045
           8    0.0298    0.0060    0.0140    0.0177   -0.0172   -0.0189   -0.0250   -0.0010
           9    0.0039   -0.0106   -0.0382   -0.0279   -0.0222   -0.0116    0.0222    0.0014
          10   -0.0139   -0.0170    0.0296   -0.0043    0.0089    0.0192   -0.0245   -0.0019
          11    0.0134   -0.0076    0.0299   -0.0152    0.0219   -0.0193    0.0322    0.0045
          12   -0.0360   -0.0097   -0.0007    0.0113    0.0066    0.0010    0.0104    0.0012
          13    0.0142   -0.0339   -0.0185    0.0121    0.0122    0.0045    0.0232   -0.0328
          14   -0.0282    0.0074   -0.0242    0.0133   -0.0052    0.0039    0.0022   -0.0011
          15   -0.0173    0.0262    0.0085   -0.0170   -0.0101   -0.0048   -0.0199   -0.0142
          16   -0.0106    0.0025   -0.0090    0.0010    0.0001    0.0018    0.0021   -0.0087
          17   -0.0376    0.0135   -0.0307    0.0164   -0.0094    0.0065   -0.0001   -0.0018
          18    0.0183   -0.0148    0.0084   -0.0040    0.0054   -0.0019   -0.0023   -0.0021
          19   -0.0149    0.0220   -0.0037   -0.0217    0.0186   -0.0341   -0.0031   -0.0003
          20    0.0220    0.0255   -0.0132   -0.0149    0.0225    0.0631   -0.0022   -0.0042
          21    0.0177    0.0057   -0.0141    0.0087    0.0315   -0.0041   -0.0166   -0.0080
          22   -0.0124    0.0218    0.0010   -0.0264    0.0060   -0.0082    0.0041    0.0019
          23   -0.0046   -0.0073    0.0059    0.0050    0.0027    0.0026   -0.0019   -0.0033
          24    0.0071   -0.0218    0.0077    0.0199   -0.0116    0.0137   -0.0040   -0.0053
          25    0.0407    0.0074   -0.0264   -0.0116   -0.0238   -0.0102   -0.0081   -0.0013
          26   -0.0162   -0.0289   -0.0115   -0.0295   -0.0216   -0.0104   -0.0071   -0.0028
          27    0.0091   -0.0046    0.0015   -0.0034   -0.0152   -0.0100   -0.0155   -0.0018
          28    0.0151    0.0148   -0.0115    0.0672   -0.0115    0.0195    0.0416    0.0338
          29   -0.0100   -0.0320    0.0352   -0.0176    0.0393   -0.0249    0.0475    0.0159
          30   -0.0108    0.0397    0.0388   -0.0123   -0.0170   -0.0123    0.0068   -0.0166
          31   -0.0049    0.0279    0.0273    0.0525   -0.0380    0.0080    0.0360    0.0532
          32    0.0452    0.0284    0.0280    0.0571    0.0021   -0.0208   -0.0542    0.0171
          33    0.0149    0.0099   -0.0252    0.0188    0.0459    0.0019   -0.0065    0.0065
          34   -0.0027   -0.0238    0.0443   -0.0276    0.0219    0.0314   -0.0405   -0.0145
          35    0.0414    0.0141    0.0245    0.0388   -0.0495   -0.0404   -0.0573   -0.0002
          36    0.0110   -0.0096   -0.0231   -0.0244   -0.0309   -0.0171   -0.0016   -0.0029
          37    0.0218   -0.0778   -0.0624   -0.0135    0.0418    0.0139   -0.0226    0.1275
          38   -0.0287    0.0063   -0.0322    0.0213   -0.0110    0.0080    0.0055   -0.0904
          39   -0.0207    0.0469    0.0317   -0.0070   -0.0218   -0.0103    0.0012   -0.0597
          40    0.0151   -0.0413   -0.0271    0.0130    0.0152    0.0079    0.0166    0.0080
          41   -0.0266   -0.0062   -0.0423    0.0270   -0.0051    0.0134   -0.0040    0.0803
          42   -0.0086   -0.0181   -0.0306   -0.0565    0.0265   -0.0010   -0.0728    0.1534
          43   -0.0545   -0.0275    0.0649    0.0220    0.0528    0.0544   -0.0720   -0.0078
          44    0.0342    0.0223    0.0667   -0.0462    0.0120   -0.0457    0.0852    0.0145
          45   -0.0650   -0.0277   -0.0006    0.0374    0.0314    0.0289   -0.0347   -0.0056
          46    0.0157   -0.0201    0.0111   -0.0558   -0.0092   -0.0035    0.0170    0.0052
          47   -0.0175   -0.0470    0.0094   -0.0155    0.0531    0.0056   -0.0052    0.0024
          48   -0.0751   -0.0333   -0.0018    0.0449    0.0389    0.0335   -0.0425   -0.0055
          49   -0.0218    0.0127   -0.0125   -0.0055   -0.0048    0.0020   -0.0187    0.0527
          50   -0.0575    0.0304   -0.0390    0.0126   -0.0193    0.0066   -0.0088   -0.1126
          51    0.0328   -0.0276    0.0138    0.0010    0.0125   -0.0021    0.0131    0.0094
          52   -0.0206    0.0210   -0.0016   -0.0004   -0.0076    0.0007   -0.0157    0.0438
          53    0.0024   -0.0340   -0.0301    0.0294    0.0136    0.0086    0.0486   -0.0076
          54    0.0377   -0.0339    0.0135    0.0028    0.0156   -0.0014    0.0180    0.0228
          55   -0.0196    0.0143   -0.0081   -0.0018   -0.0053    0.0017   -0.0133    0.0365
          56   -0.0650    0.0509   -0.0263    0.0085   -0.0264    0.0056   -0.0454    0.1168
          57    0.0290   -0.0313    0.0048   -0.0047    0.0138   -0.0011    0.0055    0.0385
          58   -0.0286    0.0116    0.0176   -0.0488   -0.0130   -0.0089    0.0036   -0.0152
          59    0.0246    0.0300   -0.0347    0.0079    0.0579    0.0259   -0.0061    0.0048
          60    0.0295    0.0076    0.0075   -0.0031   -0.0068    0.0425   -0.0167   -0.0066
          61   -0.0296   -0.0173    0.0541   -0.0296   -0.0984    0.0676    0.0564    0.0463
          62   -0.0272   -0.0373   -0.0002    0.0620    0.0227   -0.1977   -0.0282    0.0081
          63    0.0115   -0.0259    0.0407   -0.0149   -0.0815    0.1753    0.0402    0.0124
          64    0.0058    0.0582   -0.0442   -0.0287    0.0931   -0.0403   -0.0324   -0.0331
          65   -0.0100   -0.0183    0.0373   -0.0174   -0.0567    0.0849    0.0289    0.0136
          66   -0.0095   -0.0547    0.0056    0.0788   -0.0095   -0.1357   -0.0191    0.0119
          67    0.0346    0.0022   -0.0202   -0.0145   -0.0204   -0.0060   -0.0107   -0.0022
          68   -0.0364   -0.0507    0.0107   -0.0450   -0.0104    0.0046   -0.0180   -0.0073
          69   -0.0415   -0.0244    0.0428    0.0015    0.0112    0.0158   -0.0303   -0.0053


   Root No.      17        18        19        20        21        22        23        24

                17 A      18 A      19 A      20 A      21 A      22 A      23 A      24 A   

                 893.3     922.8     935.4     952.3     993.6     997.8    1005.2    1024.2
  
           1   -0.0019    0.0035   -0.0144   -0.0220    0.0008   -0.0136   -0.0049    0.0026
           2    0.0039   -0.0020   -0.0044    0.0073   -0.0012    0.0112   -0.0090   -0.0090
           3   -0.0152   -0.0077   -0.0158    0.0122    0.0039    0.0044    0.0049    0.0006
           4    0.0137    0.0098    0.0170    0.0004   -0.0025    0.0258    0.0022   -0.0083
           5   -0.0035    0.0173    0.0197    0.0082    0.0260    0.0101   -0.0138   -0.0110
           6    0.0236   -0.0041    0.0005    0.0150   -0.0161   -0.0099    0.0070    0.0100
           7   -0.0067   -0.0015   -0.0017    0.0127    0.0094    0.0077   -0.0249   -0.0153
           8    0.0018   -0.0192   -0.0091   -0.0043   -0.0235   -0.0180    0.0152    0.0097
           9    0.0010    0.0114    0.0072   -0.0084    0.0094    0.0026    0.0065    0.0016
          10   -0.0126   -0.0043    0.0193   -0.0087   -0.0113   -0.0173    0.0313    0.0189
          11    0.0208    0.0115   -0.0080   -0.0206    0.0020   -0.0045    0.0038    0.0038
          12   -0.0282   -0.0033    0.0223   -0.0009   -0.0031   -0.0075   -0.0124   -0.0042
          13   -0.0044   -0.0037   -0.0043    0.0013    0.0093   -0.0154   -0.0041   -0.0017
          14   -0.0006   -0.0003   -0.0015   -0.0003    0.0005   -0.0008    0.0008    0.0006
          15    0.0171    0.0071    0.0038   -0.0093    0.0065   -0.0029    0.0065   -0.0050
          16   -0.0004   -0.0035    0.0016    0.0112   -0.0048    0.0109    0.0097    0.0019
          17   -0.0108   -0.0056   -0.0018    0.0115    0.0024    0.0037    0.0070   -0.0012
          18    0.0097    0.0067    0.0096   -0.0130   -0.0114   -0.0014   -0.0186    0.0031
          19    0.0042   -0.0172    0.0033    0.0016    0.0024   -0.0038   -0.0011   -0.0124
          20   -0.0075    0.0244    0.0025    0.0091    0.0040   -0.0092   -0.0007    0.0246
          21   -0.0070   -0.0180    0.0066   -0.0038    0.0077   -0.0047   -0.0030   -0.0123
          22    0.0042   -0.0048    0.0005    0.0039    0.0068    0.0026   -0.0017    0.0234
          23   -0.0084    0.0020   -0.0084   -0.0105   -0.0130    0.0064    0.0035   -0.0339
          24   -0.0143   -0.0052   -0.0061   -0.0222    0.0069    0.0248   -0.0015    0.0208
          25    0.0046   -0.0032   -0.0094    0.0044   -0.0013    0.0035   -0.0048   -0.0015
          26    0.0014   -0.0032   -0.0078    0.0014   -0.0023    0.0016   -0.0006    0.0013
          27    0.0060   -0.0075   -0.0138    0.0059   -0.0071    0.0013   -0.0023    0.0025
          28    0.0380    0.0374   -0.0249   -0.0356   -0.0238    0.0156   -0.0222    0.0190
          29   -0.0291   -0.0235    0.0376    0.0091   -0.0567    0.0132   -0.0479   -0.0015
          30   -0.0183   -0.0133   -0.0264    0.0170    0.0371   -0.0090    0.0294   -0.0103
          31    0.0021    0.0468    0.0153   -0.0180    0.0007    0.1229    0.0247   -0.0013
          32    0.0060   -0.0131    0.0538    0.0246    0.0165    0.0203    0.0050   -0.0614
          33    0.0325   -0.0356    0.0181    0.0315   -0.0208   -0.0518    0.0047   -0.0181
          34    0.0176    0.0177   -0.0497    0.0252    0.0394    0.0202   -0.0700   -0.0360
          35   -0.0259   -0.0489    0.0277   -0.0173   -0.0451   -0.0203    0.0679    0.0296
          36   -0.0021    0.0032    0.0029   -0.0086    0.0105    0.0070    0.0129    0.0027
          37   -0.0209   -0.0044    0.0033    0.0076   -0.0390    0.0278   -0.0157    0.0189
          38    0.0274    0.0084    0.0537    0.0065   -0.0585    0.0408   -0.0291    0.0244
          39    0.0148    0.0039   -0.0192   -0.0137    0.0497   -0.0382    0.0228   -0.0230
          40   -0.0158   -0.0034   -0.0163   -0.0135    0.0171   -0.0388   -0.0144    0.0011
          41   -0.0368    0.0004   -0.0421   -0.0509    0.0411   -0.0928   -0.0337    0.0052
          42    0.0118    0.0028    0.0180    0.0198   -0.0504    0.0751    0.0221    0.0066
          43    0.0450   -0.0118   -0.0632    0.0311   -0.0333   -0.0040    0.0178    0.0828
          44   -0.0727   -0.0243    0.0260    0.0140   -0.0543   -0.0210   -0.0582    0.0572
          45    0.0406    0.0090   -0.0313    0.0020    0.0112    0.0063    0.0096    0.0020
          46   -0.0603    0.0291    0.1400   -0.0618    0.0329   -0.0266    0.0927   -0.0317
          47    0.1171    0.0692    0.0059   -0.0730    0.0677    0.0201    0.1057   -0.0378
          48    0.0660    0.0133   -0.0485   -0.0001    0.0126    0.0143    0.0134    0.0015
          49   -0.0073    0.0054   -0.0109   -0.0230    0.0118   -0.0256   -0.0148   -0.0016
          50    0.0528    0.0207    0.0680   -0.0186   -0.0757    0.0355   -0.0583    0.0223
          51   -0.0126   -0.0093   -0.0121    0.0185    0.0111    0.0059    0.0217   -0.0046
          52   -0.0033    0.0061   -0.0083   -0.0278    0.0092   -0.0272   -0.0197   -0.0013
          53   -0.0672   -0.0514   -0.0459    0.1163    0.0443    0.0467    0.1203   -0.0153
          54   -0.0262   -0.0163   -0.0230    0.0305    0.0221    0.0050    0.0358   -0.0077
          55   -0.0058    0.0031   -0.0076   -0.0160    0.0082   -0.0180   -0.0103   -0.0011
          56   -0.0198    0.0157   -0.0209   -0.0697    0.0327   -0.0758   -0.0568   -0.0083
          57   -0.0212   -0.0102   -0.0212    0.0155    0.0214   -0.0033    0.0236   -0.0075
          58   -0.0391    0.1076   -0.0615   -0.0100   -0.0504    0.0028    0.0242    0.0318
          59    0.0346   -0.1526    0.0409   -0.0098    0.0325   -0.0087   -0.0160   -0.0392
          60   -0.0409    0.2074    0.0115    0.0568    0.0173   -0.0151   -0.0041    0.0693
          61    0.0899    0.0036    0.0474    0.1075   -0.0112   -0.1016   -0.0030   -0.0545
          62    0.0227    0.0226    0.0319    0.0483    0.0616   -0.0130   -0.0212    0.1294
          63    0.0141   -0.0121   -0.0033   -0.0003   -0.0466   -0.0208    0.0124   -0.1194
          64   -0.0681    0.0736   -0.0603   -0.0473   -0.0632    0.0291    0.0216   -0.1061
          65    0.0292   -0.1067    0.0221   -0.0170    0.0479    0.0304   -0.0165    0.0905
          66    0.0149    0.1330    0.0208    0.0817   -0.0256   -0.0794    0.0078   -0.0700
          67    0.0017   -0.0021   -0.0075    0.0066    0.0035    0.0064   -0.0127   -0.0072
          68   -0.0094   -0.0006   -0.0031    0.0103    0.0152    0.0132   -0.0322   -0.0202
          69   -0.0120   -0.0012   -0.0006    0.0198    0.0191    0.0181   -0.0499   -0.0345


   Root No.      25        26        27        28        29        30        31        32

                25 A      26 A      27 A      28 A      29 A      30 A      31 A      32 A   

                1051.9    1064.5    1091.6    1117.3    1122.7    1125.9    1131.3    1152.2
  
           1   -0.0096    0.0117   -0.0148    0.0055   -0.0106    0.0011   -0.0005   -0.0142
           2   -0.0369   -0.0175    0.0036   -0.0067    0.0118    0.0045   -0.0051   -0.0001
           3   -0.0017    0.0015   -0.0027    0.0081   -0.0029    0.0086    0.0095    0.0180
           4   -0.0080   -0.0269    0.0038   -0.0126    0.0105   -0.0035   -0.0110   -0.0182
           5    0.0151    0.0019   -0.0097   -0.0041    0.0000    0.0025   -0.0122   -0.0154
           6   -0.0133    0.0052    0.0197    0.0016    0.0089   -0.0035    0.0061    0.0077
           7   -0.0263    0.0114   -0.0022   -0.0131    0.0123   -0.0044   -0.0067    0.0182
           8   -0.0251    0.0111   -0.0021    0.0055   -0.0183   -0.0066    0.0260   -0.0060
           9    0.0118   -0.0092   -0.0102    0.0159    0.0104    0.0034   -0.0046   -0.0127
          10    0.0116   -0.0080   -0.0010    0.0041   -0.0113    0.0032    0.0041   -0.0121
          11    0.0223    0.0170   -0.0082   -0.0024   -0.0037   -0.0079   -0.0016    0.0025
          12    0.0018    0.0224   -0.0019   -0.0041    0.0025   -0.0062    0.0071   -0.0036
          13    0.0047   -0.0123    0.0175    0.0018    0.0046   -0.0313    0.0028    0.0083
          14   -0.0006   -0.0019   -0.0040   -0.0261    0.0235    0.0210    0.0231   -0.0111
          15   -0.0059   -0.0009    0.0002   -0.0124    0.0097   -0.0126    0.0000   -0.0221
          16   -0.0001    0.0100   -0.0100    0.0002   -0.0029    0.0381   -0.0042   -0.0017
          17    0.0018    0.0048    0.0028    0.0261   -0.0241   -0.0222   -0.0244    0.0088
          18   -0.0040   -0.0024    0.0009    0.0129   -0.0106    0.0123   -0.0108    0.0106
          19    0.0062   -0.0042   -0.0125   -0.0002   -0.0053   -0.0003    0.0023    0.0031
          20   -0.0078   -0.0021   -0.0024    0.0004   -0.0022   -0.0007    0.0028    0.0096
          21    0.0083   -0.0096   -0.0267    0.0003   -0.0118   -0.0018    0.0073    0.0138
          22   -0.0058    0.0045    0.0098    0.0009    0.0017    0.0013    0.0004   -0.0022
          23    0.0068   -0.0059   -0.0016   -0.0023    0.0009    0.0008   -0.0033   -0.0069
          24   -0.0060   -0.0011    0.0085   -0.0024    0.0032    0.0001   -0.0039   -0.0075
          25    0.0037   -0.0001    0.0058   -0.0063   -0.0039    0.0006   -0.0013    0.0042
          26    0.0074   -0.0027    0.0038   -0.0035   -0.0042    0.0012   -0.0013    0.0009
          27    0.0099   -0.0015    0.0134   -0.0184   -0.0187    0.0018   -0.0010    0.0009
          28    0.0079    0.1344   -0.0745   -0.0139    0.0299   -0.0383   -0.0815   -0.0039
          29   -0.0926   -0.1079    0.0647    0.0899   -0.0565    0.0329    0.0099   -0.0663
          30    0.0117   -0.0186    0.0008   -0.0220    0.0066    0.0146    0.0407    0.0380
          31    0.0897   -0.0539    0.0276    0.0392   -0.0569    0.0050    0.1092    0.1242
          32    0.1183    0.0588    0.1928    0.0653    0.0527    0.0554   -0.0066   -0.0055
          33   -0.0089    0.0458    0.1063    0.0115    0.0681    0.0182   -0.0490   -0.0547
          34    0.0090    0.0569   -0.0369    0.2186    0.0358   -0.0043    0.1271   -0.0741
          35   -0.0615   -0.0489   -0.0548    0.0572    0.1935   -0.0164   -0.0714    0.1103
          36    0.0084   -0.0203   -0.0530    0.1490    0.1352   -0.0015    0.0039    0.0079
          37    0.0147    0.0263   -0.0230    0.0067   -0.0071    0.0091    0.0296    0.0328
          38    0.0478    0.0088   -0.0078   -0.0912    0.0891   -0.1058    0.1617   -0.0060
          39   -0.0278   -0.0225    0.0211    0.0066   -0.0057    0.0092   -0.0593   -0.0377
          40    0.0116   -0.0132    0.0168    0.0003    0.0078    0.0394    0.0050    0.0169
          41    0.0273   -0.0181    0.0074   -0.0335    0.0391    0.2560    0.0337    0.0208
          42   -0.0319    0.0488   -0.0542   -0.0075   -0.0097   -0.0257   -0.0114   -0.0507
          43    0.1568   -0.0771   -0.0215    0.0088    0.0311    0.0018   -0.0638   -0.0191
          44    0.1628    0.0077   -0.0214   -0.0301    0.0389   -0.0315   -0.0593   -0.0163
          45    0.0067   -0.0062   -0.0057    0.0104    0.0044    0.0038    0.0025    0.0013
          46   -0.0295    0.0552    0.0237   -0.0049   -0.0242    0.0021    0.0194    0.0218
          47   -0.0164    0.0176    0.0163    0.0000   -0.0098    0.0062   -0.0008    0.0543
          48    0.0050   -0.0162   -0.0035    0.0050    0.0076    0.0037   -0.0013    0.0078
          49    0.0018   -0.0137    0.0112   -0.0077    0.0103   -0.0302    0.0119    0.0000
          50   -0.0032    0.0220   -0.0152    0.0841   -0.0775    0.0916   -0.0697    0.0577
          51   -0.0035    0.0038   -0.0035   -0.0046    0.0022    0.0053   -0.0031   -0.0099
          52   -0.0007   -0.0146    0.0111   -0.0057    0.0088   -0.0266    0.0088   -0.0006
          53    0.0086    0.0367   -0.0154    0.0124   -0.0206   -0.0203   -0.0259   -0.0247
          54   -0.0014    0.0037    0.0006    0.0003   -0.0015   -0.0210   -0.0051   -0.0112
          55    0.0023   -0.0080    0.0085    0.0035   -0.0008   -0.0181    0.0000    0.0049
          56    0.0092   -0.0460    0.0561    0.0414   -0.0228   -0.1793   -0.0155    0.0333
          57   -0.0020   -0.0017    0.0036   -0.0057    0.0048   -0.0314    0.0003   -0.0123
          58   -0.0264    0.0646    0.0776    0.0175    0.0392   -0.0028    0.0026    0.0398
          59    0.0264   -0.0233   -0.0567   -0.0039   -0.0246   -0.0017    0.0062    0.0070
          60   -0.0233   -0.0573   -0.0277   -0.0141   -0.0230    0.0040    0.0000   -0.0287
          61    0.0166    0.0067   -0.0239    0.0131   -0.0139    0.0000    0.0211    0.0225
          62   -0.0219    0.0202    0.0096    0.0095   -0.0086    0.0011    0.0148    0.0090
          63    0.0236   -0.0172   -0.0188   -0.0035   -0.0003   -0.0010   -0.0036   -0.0033
          64    0.0153   -0.0059    0.0186   -0.0030    0.0122    0.0046   -0.0099   -0.0223
          65   -0.0172    0.0085    0.0170    0.0004    0.0002    0.0004    0.0008   -0.0075
          66    0.0183   -0.0187   -0.0505   -0.0013   -0.0133   -0.0036    0.0049    0.0256
          67   -0.0026    0.0052    0.0052   -0.0121    0.0024   -0.0009   -0.0058    0.0139
          68   -0.0147    0.0177    0.0029   -0.0308    0.0179   -0.0048   -0.0207    0.0408
          69   -0.0247    0.0326    0.0181   -0.0678    0.0107   -0.0069   -0.0314    0.0634


   Root No.      33        34        35        36        37        38        39        40

                33 A      34 A      35 A      36 A      37 A      38 A      39 A      40 A   

                1181.5    1184.2    1198.2    1225.2    1230.9    1278.3    1307.6    1342.1
  
           1    0.0193   -0.0067    0.0378    0.0279    0.0032    0.0257    0.0161   -0.0023
           2    0.0283   -0.0055   -0.0315   -0.0150   -0.0244    0.0139   -0.0065    0.0041
           3    0.0371   -0.0243    0.0042   -0.0164    0.0186   -0.0053   -0.0040    0.0019
           4   -0.0342   -0.0130   -0.0175    0.0116    0.0152   -0.0053   -0.0196   -0.0109
           5    0.0182   -0.0059   -0.0256    0.0146    0.0195   -0.0210    0.0158   -0.0027
           6   -0.0222    0.0019   -0.0141   -0.0028    0.0029   -0.0123    0.0148    0.0081
           7   -0.0099    0.0041    0.0069    0.0050    0.0005   -0.0051    0.0034   -0.0078
           8   -0.0246   -0.0010   -0.0146   -0.0095    0.0017   -0.0015    0.0086    0.0460
           9    0.0198   -0.0059   -0.0061    0.0164   -0.0105   -0.0150    0.0150    0.0454
          10    0.0223   -0.0036   -0.0097    0.0075   -0.0271   -0.0252   -0.0065   -0.0026
          11   -0.0238   -0.0023    0.0256    0.0247   -0.0158   -0.0259   -0.0092   -0.0153
          12   -0.0243    0.0032   -0.0074   -0.0022   -0.0065    0.0060   -0.0044   -0.0121
          13    0.0028    0.0003   -0.0116   -0.0105   -0.0042    0.0015    0.0011    0.0010
          14    0.0067    0.0055   -0.0043    0.0048   -0.0181    0.0304    0.0149   -0.0006
          15   -0.0082    0.0339    0.0076   -0.0017    0.0029   -0.0120   -0.0050    0.0002
          16   -0.0065    0.0025    0.0026    0.0021    0.0021   -0.0024   -0.0011   -0.0001
          17   -0.0072   -0.0062    0.0007    0.0008    0.0034   -0.0030    0.0005   -0.0009
          18    0.0009   -0.0119   -0.0070    0.0003   -0.0052    0.0055    0.0017    0.0003
          19    0.0029    0.0017    0.0026   -0.0019   -0.0018    0.0038   -0.0149    0.0124
          20    0.0043    0.0106    0.0067    0.0157   -0.0006    0.0145   -0.0153   -0.0083
          21    0.0117    0.0152   -0.0015    0.0154    0.0008    0.0081    0.0018   -0.0165
          22   -0.0041   -0.0065    0.0064   -0.0151   -0.0050   -0.0024   -0.0027    0.0139
          23   -0.0057   -0.0089    0.0047   -0.0150   -0.0034   -0.0044    0.0012    0.0072
          24   -0.0063   -0.0048    0.0000   -0.0018    0.0010   -0.0016    0.0021   -0.0044
          25   -0.0024    0.0023    0.0055   -0.0027    0.0030    0.0039   -0.0010    0.0005
          26    0.0021    0.0008    0.0026   -0.0054    0.0018    0.0066   -0.0083   -0.0252
          27    0.0007    0.0015    0.0018   -0.0098    0.0047    0.0105   -0.0123   -0.0364
          28    0.1176    0.1076   -0.0481   -0.1669   -0.0296   -0.0288   -0.0415    0.0034
          29    0.0719    0.1323    0.1138    0.0059    0.1074   -0.0182    0.0266    0.0050
          30   -0.0245   -0.1318   -0.0136    0.0657   -0.0170    0.0313    0.0084   -0.0018
          31   -0.0406    0.1248   -0.0150   -0.0126   -0.0868    0.0084    0.0321    0.0187
          32    0.0718    0.0036    0.0815   -0.0017   -0.0821    0.0380   -0.0232    0.0215
          33    0.0080   -0.0605    0.0389    0.0031    0.0030    0.0101   -0.0282    0.0042
          34   -0.0772   -0.0055   -0.0445   -0.0372    0.0217    0.0372   -0.0303   -0.0112
          35   -0.0266    0.0179    0.0674   -0.0060   -0.0038   -0.0031    0.0004   -0.0741
          36   -0.0112   -0.0001    0.0157   -0.0005   -0.0049    0.0038   -0.0029   -0.0146
          37    0.0409   -0.0595    0.0172   -0.0077    0.0307   -0.0224   -0.0101    0.0042
          38    0.0784   -0.0310    0.0596   -0.0177    0.0840   -0.0735   -0.0323    0.0011
          39   -0.0494    0.0764   -0.0260    0.0044   -0.0468    0.0339    0.0159   -0.0023
          40   -0.0072    0.0057   -0.0110   -0.0221    0.0180   -0.0291   -0.0132    0.0019
          41   -0.0374    0.0349   -0.0098   -0.0428    0.0614   -0.0871   -0.0398    0.0027
          42    0.0220   -0.0124    0.0417    0.0550   -0.0237    0.0624    0.0274   -0.0089
          43    0.0368    0.0019   -0.0470   -0.0320    0.0638    0.0657    0.0577    0.1001
          44   -0.1046    0.0322   -0.0104   -0.0154    0.0708    0.0832    0.0289    0.0215
          45    0.0166   -0.0104   -0.0088   -0.0028   -0.0028   -0.0003    0.0066    0.0171
          46   -0.0001   -0.0054   -0.0418   -0.0843    0.0855    0.0870    0.0206    0.0159
          47   -0.0042   -0.0187    0.0354   -0.0520    0.1292    0.0694    0.0165    0.0076
          48    0.0048   -0.0079    0.0175    0.0073    0.0131   -0.0052   -0.0039   -0.0072
          49    0.0077   -0.0002   -0.0022   -0.0040   -0.0020    0.0070    0.0054    0.0002
          50   -0.0133   -0.0570   -0.0118   -0.0004    0.0141   -0.0313   -0.0211    0.0024
          51   -0.0048    0.0112    0.0012    0.0034   -0.0052    0.0080    0.0047   -0.0010
          52    0.0085    0.0022   -0.0034   -0.0021   -0.0026    0.0101    0.0071   -0.0021
          53   -0.0273    0.0392    0.0348   -0.0044    0.0418   -0.0647   -0.0310    0.0032
          54   -0.0034    0.0171    0.0099   -0.0039    0.0127   -0.0204   -0.0102    0.0012
          55    0.0011   -0.0023   -0.0008   -0.0040    0.0056   -0.0117   -0.0072    0.0012
          56    0.0150   -0.0260   -0.0101   -0.0169    0.0152   -0.0362   -0.0223    0.0042
          57   -0.0003    0.0150    0.0047    0.0006    0.0020   -0.0024   -0.0008   -0.0018
          58    0.0481    0.0620   -0.1121    0.1689    0.0659    0.0067   -0.0124   -0.0276
          59    0.0079    0.0056    0.0236   -0.0176   -0.0137    0.0124   -0.0140   -0.0012
          60   -0.0565   -0.0538    0.1154   -0.1364   -0.0602    0.0106   -0.0081    0.0202
          61    0.0148    0.0135   -0.0050   -0.0099   -0.0054   -0.0258    0.1404   -0.1084
          62    0.0088    0.0070   -0.0047   -0.0074   -0.0022   -0.0219    0.1183   -0.0950
          63   -0.0048   -0.0028    0.0003   -0.0014    0.0002   -0.0007   -0.0012   -0.0031
          64   -0.0168   -0.0330    0.0029   -0.0624   -0.0105   -0.0498    0.1461   -0.0831
          65   -0.0089   -0.0051    0.0062   -0.0065   -0.0026    0.0070   -0.0309    0.0260
          66    0.0209    0.0269    0.0029    0.0461    0.0060    0.0412   -0.1353    0.0884
          67   -0.0073    0.0054    0.0143    0.0036    0.0026   -0.0014    0.0105    0.0383
          68   -0.0182    0.0141    0.0400    0.0181    0.0016   -0.0129    0.0370    0.1250
          69   -0.0293    0.0226    0.0614    0.0311    0.0021   -0.0218    0.0622    0.2117


   Root No.      41        42        43        44        45        46        47        48

                41 A      42 A      43 A      44 A      45 A      46 A      47 A      48 A   

                1370.2    1395.5    1401.6    1405.2    1410.7    1413.0    1427.1    1465.3
  
           1    0.0169    0.0101   -0.0004   -0.0016    0.0047   -0.0178    0.0001   -0.0352
           2    0.0293   -0.0069   -0.0147    0.0051    0.0023   -0.0137    0.0114   -0.0390
           3   -0.0177   -0.0067    0.0061   -0.0008   -0.0045    0.0180   -0.0033    0.0283
           4   -0.0015   -0.0320   -0.0158    0.0053   -0.0031    0.0058    0.0067    0.0311
           5   -0.0164    0.0187    0.0235   -0.0079    0.0020    0.0001   -0.0123   -0.0293
           6   -0.0102    0.0236    0.0240   -0.0078    0.0038   -0.0069   -0.0095   -0.0329
           7    0.0088    0.0604   -0.0048    0.0013    0.0013   -0.0054    0.0063    0.0396
           8    0.0076    0.0104   -0.0140    0.0050   -0.0026    0.0055    0.0060    0.0280
           9    0.0105    0.0274   -0.0143    0.0051   -0.0020    0.0036    0.0070    0.0295
          10   -0.0082   -0.0104   -0.0046    0.0027   -0.0068    0.0255   -0.0084   -0.0251
          11   -0.0121   -0.0098    0.0133   -0.0048    0.0050   -0.0166    0.0042    0.0256
          12    0.0011   -0.0017    0.0023   -0.0010    0.0017   -0.0050   -0.0010   -0.0051
          13   -0.0055   -0.0029    0.0146   -0.0022   -0.0019    0.0180    0.0019    0.0148
          14   -0.0247   -0.0019    0.0083   -0.0075    0.0013    0.0087   -0.0442    0.0301
          15    0.0051    0.0043   -0.0244    0.0018    0.0018   -0.0286   -0.0042   -0.0212
          16    0.0052   -0.0001   -0.0015   -0.0221   -0.0249   -0.0038   -0.0010   -0.0004
          17   -0.0240    0.0068   -0.0096    0.0075   -0.0114   -0.0030    0.0500   -0.0143
          18   -0.0047   -0.0001   -0.0039   -0.0246    0.0205    0.0078    0.0053    0.0005
          19   -0.0028    0.0055    0.0038   -0.0011    0.0004   -0.0003   -0.0010   -0.0012
          20    0.0077   -0.0167   -0.0145    0.0046   -0.0016    0.0019    0.0060    0.0160
          21    0.0083   -0.0170   -0.0143    0.0045   -0.0017    0.0028    0.0055    0.0140
          22   -0.0056    0.0159    0.0121   -0.0037    0.0015   -0.0023   -0.0046   -0.0139
          23   -0.0035    0.0083    0.0066   -0.0020    0.0008   -0.0010   -0.0025   -0.0066
          24    0.0013   -0.0056   -0.0039    0.0012   -0.0005    0.0008    0.0016    0.0054
          25   -0.0039   -0.0197    0.0026   -0.0008   -0.0002    0.0013   -0.0023   -0.0113
          26   -0.0014   -0.0013    0.0034   -0.0013    0.0009   -0.0023   -0.0010   -0.0046
          27   -0.0031   -0.0054    0.0062   -0.0023    0.0014   -0.0033   -0.0022   -0.0098
          28   -0.0178   -0.0324   -0.0127    0.0031   -0.0112    0.0340    0.0032    0.0475
          29   -0.0513    0.0097    0.0250   -0.0169   -0.0053    0.0092   -0.0190    0.0406
          30    0.0295    0.0049   -0.0040    0.0053    0.0053   -0.0150    0.0076   -0.0415
          31    0.0231    0.0507    0.0160   -0.0018    0.0078   -0.0158    0.0044   -0.0361
          32    0.0384    0.0123   -0.0422    0.0159   -0.0020   -0.0020    0.0212    0.0412
          33    0.0046   -0.0177   -0.0225    0.0067   -0.0032    0.0011    0.0073    0.0329
          34   -0.0107   -0.0705    0.0007    0.0002   -0.0031    0.0120   -0.0080   -0.0357
          35   -0.0158    0.0024    0.0295   -0.0105    0.0057   -0.0132   -0.0094   -0.0299
          36   -0.0096   -0.0377    0.0103   -0.0034    0.0004    0.0014   -0.0073   -0.0363
          37   -0.0750    0.0162   -0.1269    0.0048   -0.0093   -0.1217   -0.0920   -0.0263
          38    0.0697   -0.0047    0.0240    0.0079   -0.0020    0.0144    0.0886   -0.0338
          39    0.0163   -0.0063    0.0531   -0.0080    0.0073    0.0505    0.0097    0.0227
          40    0.0197   -0.0039    0.0189    0.0023   -0.0029    0.0216    0.0381   -0.0011
          41    0.0648   -0.0065    0.0230    0.0108   -0.0008    0.0217    0.0868   -0.0246
          42    0.0807   -0.0136    0.1327   -0.0122    0.0113    0.1196    0.0836    0.0195
          43    0.0307   -0.0158    0.0383   -0.0169    0.0339   -0.1258    0.0385    0.0640
          44    0.0305    0.0684   -0.0698    0.0249   -0.0283    0.0998   -0.0267   -0.0611
          45    0.0008   -0.0338    0.0494   -0.0194    0.0298   -0.1067    0.0295    0.0638
          46    0.0099   -0.0432    0.0502   -0.0201    0.0298   -0.1048    0.0229    0.0255
          47    0.0021    0.0452   -0.0482    0.0187   -0.0285    0.1011   -0.0241   -0.0286
          48   -0.0016    0.0505   -0.0630    0.0251   -0.0379    0.1357   -0.0348   -0.0620
          49   -0.0480    0.0076   -0.0316    0.0167    0.2786    0.0394    0.0433   -0.0117
          50    0.0975   -0.0198    0.0422    0.1214    0.0356   -0.0025   -0.1252    0.0242
          51   -0.0120    0.0038   -0.0004   -0.0658   -0.1720   -0.0194    0.0326   -0.0050
          52   -0.0413    0.0059    0.0272    0.2900    0.0701   -0.0068    0.0138   -0.0039
          53    0.1021   -0.0126   -0.0107   -0.0468    0.1317   -0.0023   -0.0915    0.0002
          54    0.0364   -0.0065    0.0119    0.1224    0.1288    0.0019   -0.0595    0.0045
          55    0.0395   -0.0080    0.0108   -0.0311   -0.0391   -0.0036   -0.0468    0.0115
          56    0.1061   -0.0220    0.0221   -0.1162   -0.0602    0.0032   -0.1128    0.0282
          57    0.0164   -0.0023    0.0544    0.2450   -0.2111   -0.0483   -0.0341    0.0057
          58    0.0035   -0.0243   -0.0134    0.0031   -0.0010    0.0029    0.0038    0.0118
          59    0.0056   -0.0101   -0.0101    0.0033   -0.0012    0.0022    0.0046    0.0129
          60    0.0050    0.0055   -0.0028    0.0027   -0.0015   -0.0017    0.0031    0.0069
          61    0.0311   -0.0540   -0.0418    0.0124   -0.0044    0.0057    0.0133    0.0285
          62    0.0272   -0.0505   -0.0387    0.0116   -0.0044    0.0060    0.0125    0.0291
          63    0.0015   -0.0067   -0.0049    0.0015   -0.0006    0.0009    0.0021    0.0073
          64    0.0165   -0.0250   -0.0182    0.0052   -0.0019    0.0022    0.0047    0.0087
          65   -0.0074    0.0149    0.0115   -0.0034    0.0014   -0.0020   -0.0039   -0.0103
          66   -0.0207    0.0377    0.0278   -0.0082    0.0029   -0.0036   -0.0085   -0.0196
          67   -0.0067   -0.0430    0.0010    0.0000   -0.0016    0.0057   -0.0034   -0.0176
          68   -0.0163   -0.1110    0.0000    0.0011   -0.0048    0.0161   -0.0075   -0.0415
[...]
 TRAVEL      0.0841        C  3 --  H 12          +11.4% ( 49.9%)     0.0%
 RED. MASS   1.3894        O  9 --  H 23          +10.3% ( 47.5%)    12.6%
 EFF. MASS   6.8337        C  3 --  C  4          +10.1% ( 46.9%)    76.0%

 VIBRATION   43   43A       ATOM PAIR        ENERGY CONTRIBUTION    RADIAL
 FREQ.      1401.58        C  2 --  C  7          +10.4% ( 42.2%)    93.3%
 T-DIPOLE    0.2066        C  5 --  H 13          +10.3% ( 42.0%)     3.3%
 TRAVEL      0.0967        C  5 --  H 14           +9.7% ( 40.8%)     3.8%
 RED. MASS   0.4500        C  2 --  C  3           +8.3% ( 37.6%)    47.2%
 EFF. MASS   5.1435

 VIBRATION   44   44A       ATOM PAIR        ENERGY CONTRIBUTION    RADIAL
 FREQ.      1405.16        C  6 --  H 18          +43.2% ( 58.9%)     0.9%
 T-DIPOLE    0.0753        C  6 --  H 19          +32.1% ( 50.8%)     3.5%
 TRAVEL      0.1642        C  6 --  H 17           +9.2% ( 27.2%)    44.2%
 RED. MASS   0.3924        C  5 --  C  6           +5.0% ( 20.2%)    13.6%
 EFF. MASS   1.7799

 VIBRATION   45   45A       ATOM PAIR        ENERGY CONTRIBUTION    RADIAL
 FREQ.      1410.71        C  6 --  H 17          +47.8% ( 60.9%)     0.0%
 T-DIPOLE    0.0637        C  6 --  H 19          +22.8% ( 42.0%)     5.6%
 TRAVEL      0.1703        C  6 --  H 18          +17.5% ( 36.9%)    17.4%
 RED. MASS   0.3773        C  5 --  C  6           +4.9% ( 19.5%)     8.9%
 EFF. MASS   1.6485

 VIBRATION   46   46A       ATOM PAIR        ENERGY CONTRIBUTION    RADIAL
 FREQ.      1412.99        C  4 --  H 16          +17.3% ( 48.0%)     3.0%
 T-DIPOLE    0.1292        C  4 --  H 15          +16.5% ( 46.9%)     4.4%
 TRAVEL      0.1164        C  5 --  H 13          +10.8% ( 37.8%)     3.6%
 RED. MASS   0.3616        C  1 --  C  5          +10.3% ( 37.0%)    96.7%
 EFF. MASS   3.5211

 VIBRATION   47   47A       ATOM PAIR        ENERGY CONTRIBUTION    RADIAL
 FREQ.      1427.12        C  5 --  C  6          +19.0% ( 55.9%)   100.0%
 T-DIPOLE    0.0978        C  6 --  H 17          +13.9% ( 47.8%)     4.0%
 TRAVEL      0.0940        C  6 --  H 19          +13.1% ( 46.5%)     3.1%
 RED. MASS   0.8605        C  6 --  H 18          +11.7% ( 43.9%)     3.8%
 EFF. MASS   5.3425        C  5 --  H 13          +11.0% ( 42.7%)     3.2%
                           C  5 --  H 14          +10.9% ( 42.4%)     3.2%

 VIBRATION   48   48A       ATOM PAIR        ENERGY CONTRIBUTION    RADIAL
 FREQ.      1465.30        C  1 --  C  3          +10.0% ( 52.9%)    99.6%
 T-DIPOLE    0.3864        C  1 --  C  2           +9.3% ( 51.0%)    53.4%
 TRAVEL      0.0693        C  2 --  C  3           +8.6% ( 49.2%)    45.1%
 RED. MASS   1.4180        C  1 --  C  5           +8.5% ( 48.7%)    87.3%
 EFF. MASS   9.5818

 VIBRATION   49   49A       ATOM PAIR        ENERGY CONTRIBUTION    RADIAL
 FREQ.      1861.86        C  7 --  C  8          +44.8% ( 99.0%)    98.7%
 T-DIPOLE    0.3309        C  2 --  C  7          +17.1% ( 61.2%)    58.2%
 TRAVEL      0.0553        C  7 --  H 20          +15.5% ( 58.2%)     3.6%
 RED. MASS   5.3013        C  8 --  H 22          +10.7% ( 48.5%)    10.8%
 EFF. MASS  11.8236        C  8 --  H 21          +10.5% ( 47.9%)    13.0%

 VIBRATION   50   50A       ATOM PAIR        ENERGY CONTRIBUTION    RADIAL
 FREQ.      2900.64        C  3 --  H 12          +93.0% ( 98.7%)    99.9%
 T-DIPOLE    0.0618        C  2 --  H 11           +2.4% ( 15.8%)    99.9%
 TRAVEL      0.1261        C  2 --  C  3           +1.1% ( 11.0%)    18.0%
 RED. MASS   0.8823        C  3 --  C  4           +1.1% ( 10.7%)    17.2%
 EFF. MASS   1.4609

 VIBRATION   51   51A       ATOM PAIR        ENERGY CONTRIBUTION    RADIAL
 FREQ.      2924.01        C  2 --  H 11          +88.3% ( 95.9%)   100.0%
 T-DIPOLE    0.1665        C  1 --  H 10           +5.3% ( 23.5%)    99.9%
 TRAVEL      0.1267        C  3 --  H 12           +2.1% ( 14.9%)    99.6%
 RED. MASS   0.7909        C  1 --  C  2           +1.0% ( 10.4%)    15.5%
 EFF. MASS   1.4377

 VIBRATION   52   52A       ATOM PAIR        ENERGY CONTRIBUTION    RADIAL
 FREQ.      2939.04        C  1 --  H 10          +79.9% ( 91.6%)   100.0%
 T-DIPOLE    0.1047        C  5 --  H 13           +5.7% ( 24.4%)    96.6%
 TRAVEL      0.1255        C  2 --  H 11           +5.1% ( 23.1%)    99.9%
 RED. MASS   0.6610        C  5 --  H 14           +4.8% ( 22.3%)    95.7%
 EFF. MASS   1.4572

 VIBRATION   53   53A       ATOM PAIR        ENERGY CONTRIBUTION    RADIAL
 FREQ.      2953.12        C  5 --  H 13          +46.0% ( 70.2%)    96.8%
 T-DIPOLE    0.0593        C  5 --  H 14          +41.6% ( 66.8%)    96.2%
 TRAVEL      0.1222        C  1 --  H 10           +9.6% ( 32.1%)   100.0%
 RED. MASS   0.4235        C  1 --  C  5           +1.1% ( 10.7%)     0.9%
 EFF. MASS   1.5298

 VIBRATION   54   54A       ATOM PAIR        ENERGY CONTRIBUTION    RADIAL
 FREQ.      3031.91        C  5 --  H 14          +51.9% ( 71.0%)    98.0%
 T-DIPOLE    0.0435        C  5 --  H 13          +46.1% ( 66.9%)    97.4%
 TRAVEL      0.1320        C  5 --  C  6           +0.6% (  7.8%)    26.1%
 RED. MASS   0.4791        C  1 --  C  5           +0.6% (  7.7%)    29.2%
 EFF. MASS   1.2757

 VIBRATION   55   55A       ATOM PAIR        ENERGY CONTRIBUTION    RADIAL
 FREQ.      3033.67        C  7 --  H 20          +96.4% ( 99.6%)   100.0%
 T-DIPOLE    0.2570        C  7 --  C  8           +1.4% ( 12.2%)    31.3%
 TRAVEL      0.1215        C  2 --  C  7           +1.4% ( 11.8%)    13.6%
 RED. MASS   0.9146        C  8 --  H 21           +0.8% (  8.8%)    94.1%
 EFF. MASS   1.5067

 VIBRATION   56   56A       ATOM PAIR        ENERGY CONTRIBUTION    RADIAL
 FREQ.      3036.61        C  4 --  H 15          +60.1% ( 80.7%)    98.1%
 T-DIPOLE    0.1523        C  4 --  H 16          +36.0% ( 62.5%)    95.0%
 TRAVEL      0.1201        C  2 --  C  4           +1.1% ( 11.1%)     0.3%
 RED. MASS   0.5432        C  3 --  C  4           +1.1% ( 11.0%)     0.3%
 EFF. MASS   1.5393

 VIBRATION   57   57A       ATOM PAIR        ENERGY CONTRIBUTION    RADIAL
 FREQ.      3075.13        C  6 --  H 19          +57.6% ( 78.3%)    98.0%
 T-DIPOLE    0.0103        C  6 --  H 17          +39.4% ( 64.7%)    95.5%
 TRAVEL      0.1209        C  6 --  H 18           +1.7% ( 13.5%)    18.3%
 RED. MASS   0.5150        C  5 --  C  6           +1.0% ( 10.2%)     0.0%
 EFF. MASS   1.5011

 VIBRATION   58   58A       ATOM PAIR        ENERGY CONTRIBUTION    RADIAL
 FREQ.      3084.67        C  6 --  H 18          +59.6% ( 79.6%)    98.6%
 T-DIPOLE    0.0034        C  6 --  H 17          +27.0% ( 53.6%)    91.2%
 TRAVEL      0.1206        C  6 --  H 19          +11.8% ( 35.5%)    77.2%
 RED. MASS   0.4713        C  5 --  C  6           +1.0% ( 10.3%)     0.0%
 EFF. MASS   1.5036

 VIBRATION   59   59A       ATOM PAIR        ENERGY CONTRIBUTION    RADIAL
 FREQ.      3102.25        C  4 --  H 16          +62.2% ( 78.3%)    98.5%
 T-DIPOLE    0.1372        C  4 --  H 15          +35.7% ( 59.3%)    94.6%
 TRAVEL      0.1300        C  2 --  C  4           +0.7% (  8.3%)    98.0%
 RED. MASS   0.5143        C  1 --  C  4           +0.7% (  8.2%)    47.9%
 EFF. MASS   1.2870

 VIBRATION   60   60A       ATOM PAIR        ENERGY CONTRIBUTION    RADIAL
 FREQ.      3132.91        C  8 --  H 22          +93.9% ( 98.5%)    99.9%
 T-DIPOLE    0.1771        C  8 --  H 21           +4.7% ( 22.1%)    63.0%
 TRAVEL      0.1187        C  7 --  C  8           +1.3% ( 11.7%)    26.3%
 RED. MASS   0.8834
 EFF. MASS   1.5276

 VIBRATION   61   61A       ATOM PAIR        ENERGY CONTRIBUTION    RADIAL
 FREQ.      3148.86        C  8 --  H 21          +93.9% ( 97.7%)    99.8%
 T-DIPOLE    0.2762        C  8 --  H 22           +3.9% ( 19.9%)    24.4%
 TRAVEL      0.1206        C  7 --  C  8           +1.6% ( 12.6%)    67.5%
 RED. MASS   0.8548        C  7 --  H 20           +0.6% (  8.1%)    94.2%
 EFF. MASS   1.4729

 VIBRATION   62   62A       ATOM PAIR        ENERGY CONTRIBUTION    RADIAL
 FREQ.      3178.92        C  6 --  H 18          +38.1% ( 59.4%)    97.8%
 T-DIPOLE    0.0150        C  6 --  H 17          +32.6% ( 54.9%)    97.0%
 TRAVEL      0.1366        C  6 --  H 19          +29.0% ( 51.8%)    96.3%
 RED. MASS   0.3304        C  5 --  C  6           +0.3% (  5.1%)    99.0%
 EFF. MASS   1.1372

 VIBRATION   63   63A       ATOM PAIR        ENERGY CONTRIBUTION    RADIAL
 FREQ.      3901.84        O  9 --  H 23          +99.6% (100.0%)    99.8%
 T-DIPOLE    0.1850        C  3 --  O  9           +0.4% (  6.2%)     6.5%
 TRAVEL      0.1117
 RED. MASS   0.9481
 EFF. MASS   1.3842

 SYMMETRY NUMBER FOR POINT-GROUP C1  =  1


          SYSTEM IS A GROUND STATE


    NULL



          MOLECULE IS NOT LINEAR

          THERE ARE 63 GENUINE VIBRATIONS IN THIS SYSTEM
          THIS THERMODYNAMICS CALCULATION IS LIMITED TO
          MOLECULES WHICH HAVE NO INTERNAL ROTATIONS




                    CALCULATED THERMODYNAMIC PROPERTIES
                                          *
   TEMP. (K)   PARTITION FUNCTION   H.O.F.    ENTHALPY  HEAT CAPACITY ENTROPY
                                   KCAL/MOL   CAL/MOLE    CAL/K/MOL  CAL/K/MOL


 298.00  VIB.     0.9793D+03                  4666.7378    31.9522    29.3457
         ROT.     0.5830D+06                   888.2813     2.9808    29.3628
         INT.     0.5709D+09                  5555.0191    34.9330    58.7085
         TRA.     0.1371D+28                  1480.4688     4.9680    40.4094
         TOT.                      -38.777    7035.4880    39.9010    99.1179

 200.00  VIB.     0.7371D+02                  2105.0793    20.7119    19.0705
         ROT.     0.3205D+06                   596.1620     2.9808    28.1742
         INT.     0.2363D+08                  2701.2412    23.6927    47.2447
         TRA.     0.7536D+27                   993.6033     4.9680    38.4282
         TOT.                      -42.117    3694.8445    28.6607    85.6729

 210.00  VIB.     0.9603D+02                  2317.3280    21.7426    20.1059
         ROT.     0.3449D+06                   625.9700     2.9808    28.3196
         INT.     0.3312D+08                  2943.2980    24.7234    48.4255
         TRA.     0.8108D+27                  1043.2834     4.9680    38.6706
         TOT.                      -41.826    3986.5814    29.6914    87.0961

 220.00  VIB.     0.1251D+03                  2540.0287    22.8025    21.1417
         ROT.     0.3698D+06                   655.7781     2.9808    28.4583
         INT.     0.4626D+08                  3195.8068    25.7833    49.6000
         TRA.     0.8694D+27                  1092.9636     4.9680    38.9017
         TOT.                      -41.523    4288.7704    30.7513    88.5017

 230.00  VIB.     0.1629D+03                  2773.4760    23.8919    22.1792
         ROT.     0.3953D+06                   685.5862     2.9808    28.5908
         INT.     0.6438D+08                  3459.0623    26.8727    50.7700
         TRA.     0.9293D+27                  1142.6437     4.9680    39.1226
         TOT.                      -41.210    4601.7060    31.8407    89.8926

 240.00  VIB.     0.2120D+03                  3017.9634    25.0103    23.2196
         ROT.     0.4214D+06                   715.3943     2.9808    28.7176
         INT.     0.8933D+08                  3733.3577    27.9911    51.9372
         TRA.     0.9906D+27                  1192.3239     4.9680    39.3340
         TOT.                      -40.886    4925.6816    32.9591    91.2712

 250.00  VIB.     0.2760D+03                  3273.7731    26.1561    24.2637
         ROT.     0.4480D+06                   745.2024     2.9808    28.8393
         INT.     0.1236D+09                  4018.9756    29.1369    53.1030
         TRA.     0.1053D+28                  1242.0041     4.9680    39.5368
         TOT.                      -40.551    5260.9796    34.1049    92.6398

 260.00  VIB.     0.3592D+03                  3541.1684    27.3270    25.3123
         ROT.     0.4751D+06                   775.0105     2.9808    28.9562
         INT.     0.1707D+09                  4316.1789    30.3078    54.2685
         TRA.     0.1117D+28                  1291.6842     4.9680    39.7317
         TOT.                      -40.204    5607.8632    35.2758    94.0002

 270.00  VIB.     0.4675D+03                  3820.3869    28.5202    26.3659
         ROT.     0.5028D+06                   804.8186     2.9808    29.0687
         INT.     0.2351D+09                  4625.2055    31.5010    55.4347
         TRA.     0.1182D+28                  1341.3644     4.9680    39.9191
         TOT.                      -39.846    5966.5699    36.4690    95.3538

 280.00  VIB.     0.6087D+03                  4111.6361    29.7326    27.4250
         ROT.     0.5310D+06                   834.6267     2.9808    29.1771
         INT.     0.3232D+09                  4946.2629    32.7134    56.6021
         TRA.     0.1248D+28                  1391.0445     4.9680    40.0998
         TOT.                      -39.475    6337.3074    37.6814    96.7020

 290.00  VIB.     0.7926D+03                  4415.0908    30.9607    28.4897
         ROT.     0.5597D+06                   864.4348     2.9808    29.2817
         INT.     0.4436D+09                  5279.5257    33.9415    57.7715
         TRA.     0.1316D+28                  1440.7247     4.9680    40.2742
         TOT.                      -39.092    6720.2504    38.9095    98.0456

 300.00  VIB.     0.1032D+04                  4730.8911    32.2011    29.5602
         ROT.     0.5889D+06                   894.2429     2.9808    29.3828
         INT.     0.6080D+09                  5625.1340    35.1819    58.9430
         TRA.     0.1384D+28                  1490.4049     4.9680    40.4426
         TOT.                      -38.697    7115.5389    40.1499    99.3856

 310.00  VIB.     0.1345D+04                  5059.1420    33.4503    30.6365
         ROT.     0.6186D+06                   924.0510     2.9808    29.4805
         INT.     0.8322D+09                  5983.1930    36.4311    60.1170
         TRA.     0.1454D+28                  1540.0850     4.9680    40.6055
         TOT.                      -38.289    7523.2780    41.3991   100.7225

 320.00  VIB.     0.1754D+04                  5399.9142    34.7048    31.7183
         ROT.     0.6487D+06                   953.8591     2.9808    29.5752
         INT.     0.1138D+10                  6353.7733    37.6856    61.2934
         TRA.     0.1525D+28                  1589.7652     4.9680    40.7632
         TOT.                      -37.869    7943.5385    42.6536   102.0566

 330.00  VIB.     0.2287D+04                  5753.2451    35.9615    32.8054
         ROT.     0.6794D+06                   983.6672     2.9808    29.6669
         INT.     0.1554D+10                  6736.9123    38.9423    62.4723
         TRA.     0.1597D+28                  1639.4454     4.9680    40.9161
         TOT.                      -37.436    8376.3577    43.9103   103.3884

 340.00  VIB.     0.2985D+04                  6119.1408    37.2173    33.8976
         ROT.     0.7105D+06                  1013.4753     2.9808    29.7559
         INT.     0.2121D+10                  7132.6161    40.1981    63.6535
         TRA.     0.1670D+28                  1689.1255     4.9680    41.0644
         TOT.                      -36.990    8821.7416    45.1661   104.7179

 350.00  VIB.     0.3897D+04                  6497.5778    38.4693    34.9945
         ROT.     0.7421D+06                  1043.2834     2.9808    29.8423
         INT.     0.2892D+10                  7540.8612    41.4501    64.8368
         TRA.     0.1745D+28                  1738.8057     4.9680    41.2084
         TOT.                      -36.532    9279.6669    46.4181   106.0452

 360.00  VIB.     0.5090D+04                  6888.5059    39.7151    36.0957
         ROT.     0.7741D+06                  1073.0915     2.9808    29.9263
         INT.     0.3940D+10                  7961.5974    42.6959    66.0220
         TRA.     0.1820D+28                  1788.4859     4.9680    41.3484
         TOT.                      -36.062    9750.0832    47.6639   107.3704

 370.00  VIB.     0.6653D+04                  7291.8504    40.9522    37.2008
         ROT.     0.8066D+06                  1102.8996     2.9808    30.0079
         INT.     0.5366D+10                  8394.7501    43.9331    67.2087
         TRA.     0.1896D+28                  1838.1660     4.9680    41.4845
         TOT.                      -35.579   10232.9161    48.9011   108.6932

 380.00  VIB.     0.8701D+04                  7707.5152    42.1788    38.3092
         ROT.     0.8395D+06                  1132.7077     2.9808    30.0874
         INT.     0.7304D+10                  8840.2229    45.1596    68.3966
         TRA.     0.1974D+28                  1887.8462     4.9680    41.6170
         TOT.                      -35.084   10728.0691    50.1276   110.0136

 390.00  VIB.     0.1138D+05                  8135.3847    43.3929    39.4206
         ROT.     0.8729D+06                  1162.5158     2.9808    30.1648
         INT.     0.9937D+10                  9297.9005    46.3737    69.5854
         TRA.     0.2052D+28                  1937.5263     4.9680    41.7460
         TOT.                      -34.577   11235.4268    51.3417   111.3314

 400.00  VIB.     0.1491D+05                  8575.3267    44.5931    40.5343
         ROT.     0.9066D+06                  1192.3239     2.9808    30.2403
         INT.     0.1351D+11                  9767.6506    47.5739    70.7746
         TRA.     0.2131D+28                  1987.2065     4.9680    41.8718
         TOT.                      -34.057   11754.8571    52.5419   112.6464

   *: NOTE: HEATS OF FORMATION ARE RELATIVE TO THE
            ELEMENTS IN THEIR STANDARD STATE AT 298K
              (=  Standard Enthalpy of Formation).

            Hvib:  Zero-point energy is not included.
                   frequencies of less than zero cm-1 are not included.
            Hrot = (3/2)RT
            Htra = (3/2)RT + pV = (5/2)RT

            Heat capacity is Cp, not Cv

           For more information, see: HTTP://OpenMOPAC.net/Manual/thermochemistry.html


           FORCE CONSTANT IN CARTESIAN COORDINATES (Millidynes/A)

    ATOM   CHEMICAL       X               Y               Z
   NUMBER   SYMBOL  FORCE CONSTANT  FORCE CONSTANT  FORCE CONSTANT

      1       C        7.717851        8.260656        8.667968
      2       C        8.006273        7.734196        9.038346
      3       C        8.277660        7.460839        9.235278
      4       C        7.905448        7.856434        8.684671
      5       C        8.312151        8.484231        8.305425
      6       C        8.227531        8.329967        8.330920
      7       C       12.269379        7.366090        7.628537
      8       C       12.010930        7.032297        7.379971
      9       O        9.854814        2.513540        4.793247
     10       H        1.354988        1.186384        3.707956
     11       H        1.332131        1.343480        3.441569
     12       H        1.239906        1.432911        3.356239
     13       H        1.561551        1.043943        3.792469
     14       H        4.619041        1.056169        0.698785
     15       H        1.329699        1.269803        4.031721
     16       H        1.666015        1.663420        3.303615
     17       H        1.731688        1.139650        3.904042
     18       H        1.528231        1.643671        3.620005
     19       H        4.938185        1.124538        0.679663
     20       H        1.680997        3.355288        1.139513
     21       H        1.422855        1.636862        3.417756
     22       H        1.868363        3.503983        1.069853
     23       H        8.226566        0.587114        0.651573



 TOTAL CPU TIME:             3.22 SECONDS

 == MOPAC DONE ==
