 *******************************************************************************
 ** Site#: 14399           For non-commercial use only        Version 13.159M **
 *******************************************************************************
 ** Cite this work as: MOPAC2012, James J. P. Stewart, Stewart Computational  **
 ** Chemistry, Version 13.159M web: HTTP://OpenMOPAC.net  Days remaining:   6 **
 *******************************************************************************
 **                                                                           **
 **                                MOPAC2012                                  **
 **                                                                           **
 *******************************************************************************

                            PM3 CALCULATION RESULTS


 *******************************************************************************
 *  CALCULATION DONE:                                Mon Jun  2 11:06:37 2014  *
 *  PM3      - The PM3 Hamiltonian to be used
 *  PRECISE  - CRITERIA TO BE INCREASED BY 100 TIMES
 *  NOSYM    - POINT-GROUP SYMMETRY SET TO C1
 *  T=       - A TIME OF 172800.0 SECONDS REQUESTED
 *  DUMP=N   - RESTART FILE WRITTEN EVERY  7200.000 SECONDS
 *******************************************************************************
pm3  precise nosym
 InChI=1S/C11H18/c1-3-5-7-11-9-8-10(11)6-4-2/h4-7,10-11H,3,8-9H2,1-2H3

   ATOM   CHEMICAL          X               Y               Z
  NUMBER   SYMBOL      (ANGSTROMS)     (ANGSTROMS)     (ANGSTROMS)
 
     1       C         -0.97780000  *  -0.29010000  *  -0.84440000  *
     2       C          0.00220000  *  -1.36490000  *  -0.36640000  *
     3       C         -1.68610000  *  -1.39120000  *  -1.69390000  *
     4       C         -0.51580000  *  -2.31670000  *  -1.39400000  *
     5       C          3.45220000  *   0.31760000  *   0.17220000  *
     6       C          3.86210000  *   1.40210000  *   1.16140000  *
     7       C         -3.70520000  *   1.76500000  *   0.97830000  *
     8       C          1.45520000  *  -0.98840000  *  -0.49430000  *
     9       C         -1.83440000  *   0.32950000  *   0.22660000  *
    10       C          2.00160000  *  -0.05470000  *   0.29490000  *
    11       C         -2.85690000  *   1.13600000  *  -0.08220000  *
    12       H         -0.50620000  *   0.48340000  *  -1.49860000  *
    13       H         -0.21520000  *  -1.75230000  *   0.65910000  *
    14       H         -2.63930000  *  -1.76580000  *  -1.24990000  *
    15       H         -1.78050000  *  -1.12170000  *  -2.77140000  *
    16       H          0.13320000  *  -2.44210000  *  -2.29350000  *
    17       H         -0.83380000  *  -3.29960000  *  -0.97410000  *
    18       H          3.65330000  *   0.68270000  *  -0.86170000  *
    19       H          4.08160000  *  -0.58510000  *   0.34980000  *
    20       H          3.70730000  *   1.06020000  *   2.21030000  *
    21       H          3.27620000  *   2.33450000  *   0.99180000  *
    22       H          4.94160000  *   1.64330000  *   1.03170000  *
    23       H         -3.08350000  *   2.41350000  *   1.63650000  *
    24       H         -4.49590000  *   2.39430000  *   0.51110000  *
    25       H         -4.19960000  *   0.97950000  *   1.59370000  *
    26       H         -1.60350000  *   0.13310000  *   1.27380000  *
    27       H          1.37950000  *   0.44590000  *   1.03810000  *
    28       H          2.07720000  *  -1.49510000  *  -1.23260000  *
    29       H         -3.08960000  *   1.34710000  *  -1.12590000  *
 


          CARTESIAN COORDINATES 

    NO.       ATOM         X         Y         Z

     1         C       -0.9778   -0.2901   -0.8444
     2         C        0.0022   -1.3649   -0.3664
     3         C       -1.6861   -1.3912   -1.6939
     4         C       -0.5158   -2.3167   -1.3940
     5         C        3.4522    0.3176    0.1722
     6         C        3.8621    1.4021    1.1614
     7         C       -3.7052    1.7650    0.9783
     8         C        1.4552   -0.9884   -0.4943
     9         C       -1.8344    0.3295    0.2266
    10         C        2.0016   -0.0547    0.2949
    11         C       -2.8569    1.1360   -0.0822
    12         H       -0.5062    0.4834   -1.4986
    13         H       -0.2152   -1.7523    0.6591
    14         H       -2.6393   -1.7658   -1.2499
    15         H       -1.7805   -1.1217   -2.7714
    16         H        0.1332   -2.4421   -2.2935
    17         H       -0.8338   -3.2996   -0.9741
    18         H        3.6533    0.6827   -0.8617
    19         H        4.0816   -0.5851    0.3498
    20         H        3.7073    1.0602    2.2103
    21         H        3.2762    2.3345    0.9918
    22         H        4.9416    1.6433    1.0317
    23         H       -3.0835    2.4135    1.6365
    24         H       -4.4959    2.3943    0.5111
    25         H       -4.1996    0.9795    1.5937
    26         H       -1.6035    0.1331    1.2738
    27         H        1.3795    0.4459    1.0381
    28         H        2.0772   -1.4951   -1.2326
    29         H       -3.0896    1.3471   -1.1259

  H: (PM3): J. J. P. STEWART, J. COMP. CHEM. 10, 209 (1989).
  C: (PM3): J. J. P. STEWART, J. COMP. CHEM. 10, 209 (1989).

           Empirical Formula: C11 H18  =    29 atoms



      MOLECULAR POINT GROUP   :   C1  


      RHF CALCULATION, NO. OF DOUBLY OCCUPIED LEVELS =   31

      Geometry optimization using EF

          DIAGONAL MATRIX USED AS START HESSIAN

 CYCLE:     1 TIME:   0.016 TIME LEFT:  2.00D  GRAD.:   111.097 HEAT: 16.62060
 CYCLE:     2 TIME:   0.022 TIME LEFT:  2.00D  GRAD.:   106.229 HEAT: 15.10639
 CYCLE:     3 TIME:   0.012 TIME LEFT:  2.00D  GRAD.:   123.316 HEAT: 14.54338
 CYCLE:     4 TIME:   0.021 TIME LEFT:  2.00D  GRAD.:    49.503 HEAT: 12.06400
 CYCLE:     5 TIME:   0.024 TIME LEFT:  2.00D  GRAD.:    34.317 HEAT: 11.51217
 CYCLE:     6 TIME:   0.015 TIME LEFT:  2.00D  GRAD.:    38.145 HEAT: 11.30712
 CYCLE:     7 TIME:   0.011 TIME LEFT:  2.00D  GRAD.:    41.614 HEAT: 11.16223
 CYCLE:     8 TIME:   0.012 TIME LEFT:  2.00D  GRAD.:    32.828 HEAT: 10.93996
 CYCLE:     9 TIME:   0.013 TIME LEFT:  2.00D  GRAD.:    42.430 HEAT: 10.93930
 CYCLE:    10 TIME:   0.029 TIME LEFT:  2.00D  GRAD.:    16.366 HEAT: 10.62162
 CYCLE:    11 TIME:   0.023 TIME LEFT:  2.00D  GRAD.:    10.328 HEAT: 10.56553
 CYCLE:    12 TIME:   0.012 TIME LEFT:  2.00D  GRAD.:     6.983 HEAT: 10.52073
 CYCLE:    13 TIME:   0.024 TIME LEFT:  2.00D  GRAD.:     6.804 HEAT: 10.50205
 CYCLE:    14 TIME:   0.014 TIME LEFT:  2.00D  GRAD.:     6.443 HEAT: 10.48512
 CYCLE:    15 TIME:   0.014 TIME LEFT:  2.00D  GRAD.:     6.062 HEAT: 10.46567
 CYCLE:    16 TIME:   0.016 TIME LEFT:  2.00D  GRAD.:    10.140 HEAT: 10.46467
 CYCLE:    17 TIME:   0.026 TIME LEFT:  2.00D  GRAD.:     8.960 HEAT: 10.44702
 CYCLE:    18 TIME:   0.016 TIME LEFT:  2.00D  GRAD.:     9.005 HEAT: 10.44282
 CYCLE:    19 TIME:   0.011 TIME LEFT:  2.00D  GRAD.:     4.483 HEAT: 10.41944
 CYCLE:    20 TIME:   0.029 TIME LEFT:  2.00D  GRAD.:     5.302 HEAT: 10.41403
 CYCLE:    21 TIME:   0.011 TIME LEFT:  2.00D  GRAD.:     5.223 HEAT: 10.40488
 CYCLE:    22 TIME:   0.011 TIME LEFT:  2.00D  GRAD.:     6.243 HEAT: 10.39711
 CYCLE:    23 TIME:   0.011 TIME LEFT:  2.00D  GRAD.:     3.537 HEAT: 10.37765
 CYCLE:    24 TIME:   0.011 TIME LEFT:  2.00D  GRAD.:     5.239 HEAT: 10.36404
 CYCLE:    25 TIME:   0.011 TIME LEFT:  2.00D  GRAD.:     4.265 HEAT: 10.33812
 CYCLE:    26 TIME:   0.011 TIME LEFT:  2.00D  GRAD.:     7.654 HEAT: 10.30854
 CYCLE:    27 TIME:   0.012 TIME LEFT:  2.00D  GRAD.:     8.507 HEAT: 10.26387
 CYCLE:    28 TIME:   0.011 TIME LEFT:  2.00D  GRAD.:     8.809 HEAT: 10.22500
 CYCLE:    29 TIME:   0.011 TIME LEFT:  2.00D  GRAD.:    10.567 HEAT: 10.20899
 CYCLE:    30 TIME:   0.011 TIME LEFT:  2.00D  GRAD.:     3.869 HEAT: 10.17567
 CYCLE:    31 TIME:   0.011 TIME LEFT:  2.00D  GRAD.:     4.809 HEAT: 10.16893
 CYCLE:    32 TIME:   0.012 TIME LEFT:  2.00D  GRAD.:     3.998 HEAT: 10.15748
 CYCLE:    33 TIME:   0.016 TIME LEFT:  2.00D  GRAD.:     3.914 HEAT: 10.14541
 CYCLE:    34 TIME:   0.012 TIME LEFT:  2.00D  GRAD.:     3.895 HEAT: 10.14030
 CYCLE:    35 TIME:   0.013 TIME LEFT:  2.00D  GRAD.:     4.051 HEAT: 10.13552
 CYCLE:    36 TIME:   0.013 TIME LEFT:  2.00D  GRAD.:     2.675 HEAT: 10.12871
 CYCLE:    37 TIME:   0.012 TIME LEFT:  2.00D  GRAD.:     2.778 HEAT: 10.12279
 CYCLE:    38 TIME:   0.015 TIME LEFT:  2.00D  GRAD.:     3.307 HEAT: 10.11337
 CYCLE:    39 TIME:   0.016 TIME LEFT:  2.00D  GRAD.:     2.653 HEAT: 10.09656
 CYCLE:    40 TIME:   0.011 TIME LEFT:  2.00D  GRAD.:     2.646 HEAT: 10.08649
 CYCLE:    41 TIME:   0.013 TIME LEFT:  2.00D  GRAD.:     2.551 HEAT: 10.07357
 CYCLE:    42 TIME:   0.013 TIME LEFT:  2.00D  GRAD.:     2.320 HEAT: 10.06250
 CYCLE:    43 TIME:   0.013 TIME LEFT:  2.00D  GRAD.:     2.176 HEAT: 10.05509
 CYCLE:    44 TIME:   0.012 TIME LEFT:  2.00D  GRAD.:     1.971 HEAT: 10.04705
 CYCLE:    45 TIME:   0.012 TIME LEFT:  2.00D  GRAD.:     2.008 HEAT: 10.03812
 CYCLE:    46 TIME:   0.013 TIME LEFT:  2.00D  GRAD.:     1.768 HEAT: 10.03323
 CYCLE:    47 TIME:   0.014 TIME LEFT:  2.00D  GRAD.:     1.419 HEAT: 10.02925
 CYCLE:    48 TIME:   0.015 TIME LEFT:  2.00D  GRAD.:     1.512 HEAT: 10.02508
 CYCLE:    49 TIME:   0.011 TIME LEFT:  2.00D  GRAD.:     1.249 HEAT: 10.02223
 CYCLE:    50 TIME:   0.015 TIME LEFT:  2.00D  GRAD.:     1.195 HEAT: 10.01889
 CYCLE:    51 TIME:   0.013 TIME LEFT:  2.00D  GRAD.:     1.465 HEAT: 10.01472
 CYCLE:    52 TIME:   0.016 TIME LEFT:  2.00D  GRAD.:     1.634 HEAT: 10.00963
 CYCLE:    53 TIME:   0.012 TIME LEFT:  2.00D  GRAD.:     1.667 HEAT: 10.00327
 CYCLE:    54 TIME:   0.012 TIME LEFT:  2.00D  GRAD.:     1.559 HEAT: 9.998044
 CYCLE:    55 TIME:   0.012 TIME LEFT:  2.00D  GRAD.:     1.678 HEAT: 9.992187
 CYCLE:    56 TIME:   0.011 TIME LEFT:  2.00D  GRAD.:     2.107 HEAT: 9.984272
 CYCLE:    57 TIME:   0.012 TIME LEFT:  2.00D  GRAD.:     2.435 HEAT: 9.973261
 CYCLE:    58 TIME:   0.017 TIME LEFT:  2.00D  GRAD.:     2.633 HEAT: 9.960119
 CYCLE:    59 TIME:   0.013 TIME LEFT:  2.00D  GRAD.:     2.488 HEAT: 9.946402
 CYCLE:    60 TIME:   0.011 TIME LEFT:  2.00D  GRAD.:     2.154 HEAT: 9.933089
 CYCLE:    61 TIME:   0.012 TIME LEFT:  2.00D  GRAD.:     1.815 HEAT: 9.922707
 CYCLE:    62 TIME:   0.013 TIME LEFT:  2.00D  GRAD.:     1.622 HEAT: 9.916493
 CYCLE:    63 TIME:   0.018 TIME LEFT:  2.00D  GRAD.:     1.377 HEAT: 9.912704
 CYCLE:    64 TIME:   0.019 TIME LEFT:  2.00D  GRAD.:     1.350 HEAT: 9.908628
 CYCLE:    65 TIME:   0.013 TIME LEFT:  2.00D  GRAD.:     1.396 HEAT: 9.903140
 CYCLE:    66 TIME:   0.014 TIME LEFT:  2.00D  GRAD.:     1.433 HEAT: 9.898502
 CYCLE:    67 TIME:   0.020 TIME LEFT:  2.00D  GRAD.:     1.632 HEAT: 9.892769
 CYCLE:    68 TIME:   0.017 TIME LEFT:  2.00D  GRAD.:     1.711 HEAT: 9.886604
 CYCLE:    69 TIME:   0.019 TIME LEFT:  2.00D  GRAD.:     2.213 HEAT: 9.877876
 CYCLE:    70 TIME:   0.016 TIME LEFT:  2.00D  GRAD.:     2.575 HEAT: 9.865105
 CYCLE:    71 TIME:   0.016 TIME LEFT:  2.00D  GRAD.:     3.013 HEAT: 9.844965
 CYCLE:    72 TIME:   0.015 TIME LEFT:  2.00D  GRAD.:     3.538 HEAT: 9.821288
 CYCLE:    73 TIME:   0.011 TIME LEFT:  2.00D  GRAD.:     3.924 HEAT: 9.797736
 CYCLE:    74 TIME:   0.013 TIME LEFT:  2.00D  GRAD.:     5.028 HEAT: 9.780622
 CYCLE:    75 TIME:   0.014 TIME LEFT:  2.00D  GRAD.:     3.002 HEAT: 9.755383
 CYCLE:    76 TIME:   0.011 TIME LEFT:  2.00D  GRAD.:     2.566 HEAT: 9.735086
 CYCLE:    77 TIME:   0.012 TIME LEFT:  2.00D  GRAD.:     2.694 HEAT: 9.713741
 CYCLE:    78 TIME:   0.013 TIME LEFT:  2.00D  GRAD.:     3.537 HEAT: 9.690941
 CYCLE:    79 TIME:   0.011 TIME LEFT:  2.00D  GRAD.:     3.522 HEAT: 9.667369
 CYCLE:    80 TIME:   0.012 TIME LEFT:  2.00D  GRAD.:     4.049 HEAT: 9.632545
 CYCLE:    81 TIME:   0.017 TIME LEFT:  2.00D  GRAD.:     3.699 HEAT: 9.602339
 CYCLE:    82 TIME:   0.014 TIME LEFT:  2.00D  GRAD.:     5.339 HEAT: 9.582934
 CYCLE:    83 TIME:   0.012 TIME LEFT:  2.00D  GRAD.:     3.878 HEAT: 9.558674
 CYCLE:    84 TIME:   0.014 TIME LEFT:  2.00D  GRAD.:     3.471 HEAT: 9.532166
 CYCLE:    85 TIME:   0.012 TIME LEFT:  2.00D  GRAD.:     4.468 HEAT: 9.485359
 CYCLE:    86 TIME:   0.013 TIME LEFT:  2.00D  GRAD.:     7.532 HEAT: 9.428783
 CYCLE:    87 TIME:   0.014 TIME LEFT:  2.00D  GRAD.:     6.059 HEAT: 9.374523
 CYCLE:    88 TIME:   0.012 TIME LEFT:  2.00D  GRAD.:     8.158 HEAT: 9.320666
 CYCLE:    89 TIME:   0.011 TIME LEFT:  2.00D  GRAD.:     5.264 HEAT: 9.254237
 CYCLE:    90 TIME:   0.012 TIME LEFT:  2.00D  GRAD.:     5.422 HEAT: 9.206037
 CYCLE:    91 TIME:   0.012 TIME LEFT:  2.00D  GRAD.:     5.365 HEAT: 9.148099
 CYCLE:    92 TIME:   0.012 TIME LEFT:  2.00D  GRAD.:     5.849 HEAT: 9.089124
 CYCLE:    93 TIME:   0.012 TIME LEFT:  2.00D  GRAD.:     7.756 HEAT: 9.060245
 CYCLE:    94 TIME:   0.012 TIME LEFT:  2.00D  GRAD.:    11.282 HEAT: 9.054558
 CYCLE:    95 TIME:   0.013 TIME LEFT:  2.00D  GRAD.:     5.893 HEAT: 8.978080
 CYCLE:    96 TIME:   0.013 TIME LEFT:  2.00D  GRAD.:     5.018 HEAT: 8.940935
 CYCLE:    97 TIME:   0.013 TIME LEFT:  2.00D  GRAD.:     4.636 HEAT: 8.883125
 CYCLE:    98 TIME:   0.013 TIME LEFT:  2.00D  GRAD.:     4.817 HEAT: 8.846380
 CYCLE:    99 TIME:   0.012 TIME LEFT:  2.00D  GRAD.:     6.232 HEAT: 8.812569
 CYCLE:   100 TIME:   0.013 TIME LEFT:  2.00D  GRAD.:     4.484 HEAT: 8.775505
 CYCLE:   101 TIME:   0.017 TIME LEFT:  2.00D  GRAD.:     4.145 HEAT: 8.748503
 CYCLE:   102 TIME:   0.016 TIME LEFT:  2.00D  GRAD.:     4.352 HEAT: 8.733648
 CYCLE:   103 TIME:   0.013 TIME LEFT:  2.00D  GRAD.:     5.016 HEAT: 8.730450
 CYCLE:   104 TIME:   0.012 TIME LEFT:  2.00D  GRAD.:     3.312 HEAT: 8.714880
 CYCLE:   105 TIME:   0.015 TIME LEFT:  2.00D  GRAD.:     3.136 HEAT: 8.706645
 CYCLE:   106 TIME:   0.016 TIME LEFT:  2.00D  GRAD.:     2.105 HEAT: 8.698765
 CYCLE:   107 TIME:   0.015 TIME LEFT:  2.00D  GRAD.:     2.719 HEAT: 8.684037
 CYCLE:   108 TIME:   0.012 TIME LEFT:  2.00D  GRAD.:     3.234 HEAT: 8.677125
 CYCLE:   109 TIME:   0.012 TIME LEFT:  2.00D  GRAD.:     3.326 HEAT: 8.666106
 CYCLE:   110 TIME:   0.013 TIME LEFT:  2.00D  GRAD.:     3.248 HEAT: 8.648711
 CYCLE:   111 TIME:   0.015 TIME LEFT:  2.00D  GRAD.:     3.160 HEAT: 8.635099
 CYCLE:   112 TIME:   0.014 TIME LEFT:  2.00D  GRAD.:     3.254 HEAT: 8.619332
 CYCLE:   113 TIME:   0.015 TIME LEFT:  2.00D  GRAD.:     3.099 HEAT: 8.601972
 CYCLE:   114 TIME:   0.011 TIME LEFT:  2.00D  GRAD.:     2.797 HEAT: 8.585920
 CYCLE:   115 TIME:   0.012 TIME LEFT:  2.00D  GRAD.:     2.266 HEAT: 8.575197
 CYCLE:   116 TIME:   0.015 TIME LEFT:  2.00D  GRAD.:     2.022 HEAT: 8.567144
 CYCLE:   117 TIME:   0.013 TIME LEFT:  2.00D  GRAD.:     2.106 HEAT: 8.559851
 CYCLE:   118 TIME:   0.018 TIME LEFT:  2.00D  GRAD.:     2.201 HEAT: 8.550553
 CYCLE:   119 TIME:   0.015 TIME LEFT:  2.00D  GRAD.:     2.255 HEAT: 8.540185
 CYCLE:   120 TIME:   0.017 TIME LEFT:  2.00D  GRAD.:     2.098 HEAT: 8.530496
 CYCLE:   121 TIME:   0.017 TIME LEFT:  2.00D  GRAD.:     2.129 HEAT: 8.522581
 CYCLE:   122 TIME:   0.012 TIME LEFT:  2.00D  GRAD.:     2.300 HEAT: 8.515478
 CYCLE:   123 TIME:   0.012 TIME LEFT:  2.00D  GRAD.:     2.116 HEAT: 8.507777
 CYCLE:   124 TIME:   0.013 TIME LEFT:  2.00D  GRAD.:     2.142 HEAT: 8.500018
 CYCLE:   125 TIME:   0.012 TIME LEFT:  2.00D  GRAD.:     2.045 HEAT: 8.492482
 CYCLE:   126 TIME:   0.014 TIME LEFT:  2.00D  GRAD.:     2.141 HEAT: 8.484679
 CYCLE:   127 TIME:   0.015 TIME LEFT:  2.00D  GRAD.:     2.206 HEAT: 8.476163
 CYCLE:   128 TIME:   0.012 TIME LEFT:  2.00D  GRAD.:     1.994 HEAT: 8.467031
 CYCLE:   129 TIME:   0.012 TIME LEFT:  2.00D  GRAD.:     1.803 HEAT: 8.458360
 CYCLE:   130 TIME:   0.012 TIME LEFT:  2.00D  GRAD.:     2.235 HEAT: 8.450528
 CYCLE:   131 TIME:   0.012 TIME LEFT:  2.00D  GRAD.:     2.571 HEAT: 8.443767
 CYCLE:   132 TIME:   0.011 TIME LEFT:  2.00D  GRAD.:     2.756 HEAT: 8.435600
 CYCLE:   133 TIME:   0.011 TIME LEFT:  2.00D  GRAD.:     2.000 HEAT: 8.427172
 CYCLE:   134 TIME:   0.011 TIME LEFT:  2.00D  GRAD.:     1.668 HEAT: 8.417836
 CYCLE:   135 TIME:   0.012 TIME LEFT:  2.00D  GRAD.:     1.547 HEAT: 8.413410
 CYCLE:   136 TIME:   0.012 TIME LEFT:  2.00D  GRAD.:     1.497 HEAT: 8.407865
 CYCLE:   137 TIME:   0.012 TIME LEFT:  2.00D  GRAD.:     1.220 HEAT: 8.404483
 CYCLE:   138 TIME:   0.015 TIME LEFT:  2.00D  GRAD.:     0.995 HEAT: 8.401328
 CYCLE:   139 TIME:   0.011 TIME LEFT:  2.00D  GRAD.:     0.843 HEAT: 8.399506
 CYCLE:   140 TIME:   0.013 TIME LEFT:  2.00D  GRAD.:     0.587 HEAT: 8.398504
 CYCLE:   141 TIME:   0.014 TIME LEFT:  2.00D  GRAD.:     0.641 HEAT: 8.397926
 CYCLE:   142 TIME:   0.012 TIME LEFT:  2.00D  GRAD.:     0.580 HEAT: 8.397417
 CYCLE:   143 TIME:   0.011 TIME LEFT:  2.00D  GRAD.:     0.572 HEAT: 8.396730
 CYCLE:   144 TIME:   0.012 TIME LEFT:  2.00D  GRAD.:     0.766 HEAT: 8.395800
 CYCLE:   145 TIME:   0.012 TIME LEFT:  2.00D  GRAD.:     0.923 HEAT: 8.394469
 CYCLE:   146 TIME:   0.012 TIME LEFT:  2.00D  GRAD.:     1.158 HEAT: 8.392380
 CYCLE:   147 TIME:   0.012 TIME LEFT:  2.00D  GRAD.:     1.385 HEAT: 8.388539
 CYCLE:   148 TIME:   0.012 TIME LEFT:  2.00D  GRAD.:     1.481 HEAT: 8.385552
 CYCLE:   149 TIME:   0.015 TIME LEFT:  2.00D  GRAD.:     2.560 HEAT: 8.378013
 CYCLE:   150 TIME:   0.014 TIME LEFT:  2.00D  GRAD.:     2.193 HEAT: 8.373248
 CYCLE:   151 TIME:   0.013 TIME LEFT:  2.00D  GRAD.:     1.981 HEAT: 8.361547
 CYCLE:   152 TIME:   0.016 TIME LEFT:  2.00D  GRAD.:     3.487 HEAT: 8.348357
 CYCLE:   153 TIME:   0.012 TIME LEFT:  2.00D  GRAD.:     2.755 HEAT: 8.339234
 CYCLE:   154 TIME:   0.012 TIME LEFT:  2.00D  GRAD.:     3.392 HEAT: 8.328642
 CYCLE:   155 TIME:   0.013 TIME LEFT:  2.00D  GRAD.:     3.150 HEAT: 8.312161
 CYCLE:   156 TIME:   0.017 TIME LEFT:  2.00D  GRAD.:     2.563 HEAT: 8.304085
 CYCLE:   157 TIME:   0.015 TIME LEFT:  2.00D  GRAD.:     1.989 HEAT: 8.292704
 CYCLE:   158 TIME:   0.012 TIME LEFT:  2.00D  GRAD.:     6.181 HEAT: 8.294861
 CYCLE:   159 TIME:   0.011 TIME LEFT:  2.00D  GRAD.:     3.349 HEAT: 8.283933
 CYCLE:   160 TIME:   0.011 TIME LEFT:  2.00D  GRAD.:     1.516 HEAT: 8.275172
 CYCLE:   161 TIME:   0.012 TIME LEFT:  2.00D  GRAD.:     1.854 HEAT: 8.271147
 CYCLE:   162 TIME:   0.012 TIME LEFT:  2.00D  GRAD.:     2.472 HEAT: 8.266751
 CYCLE:   163 TIME:   0.013 TIME LEFT:  2.00D  GRAD.:     1.881 HEAT: 8.262057
 CYCLE:   164 TIME:   0.015 TIME LEFT:  2.00D  GRAD.:     1.399 HEAT: 8.259127
 CYCLE:   165 TIME:   0.012 TIME LEFT:  2.00D  GRAD.:     1.574 HEAT: 8.255388
 CYCLE:   166 TIME:   0.012 TIME LEFT:  2.00D  GRAD.:     1.345 HEAT: 8.252130
 CYCLE:   167 TIME:   0.013 TIME LEFT:  2.00D  GRAD.:     1.625 HEAT: 8.249487
 CYCLE:   168 TIME:   0.018 TIME LEFT:  2.00D  GRAD.:     1.391 HEAT: 8.245538
 CYCLE:   169 TIME:   0.019 TIME LEFT:  2.00D  GRAD.:     1.687 HEAT: 8.241445
 CYCLE:   170 TIME:   0.013 TIME LEFT:  2.00D  GRAD.:     1.322 HEAT: 8.236761
 CYCLE:   171 TIME:   0.014 TIME LEFT:  2.00D  GRAD.:     1.623 HEAT: 8.232801
 CYCLE:   172 TIME:   0.016 TIME LEFT:  2.00D  GRAD.:     1.724 HEAT: 8.227002
 CYCLE:   173 TIME:   0.016 TIME LEFT:  2.00D  GRAD.:     2.324 HEAT: 8.221807
 CYCLE:   174 TIME:   0.012 TIME LEFT:  2.00D  GRAD.:     1.907 HEAT: 8.215957
 CYCLE:   175 TIME:   0.016 TIME LEFT:  2.00D  GRAD.:     2.245 HEAT: 8.210742
 CYCLE:   176 TIME:   0.012 TIME LEFT:  2.00D  GRAD.:     1.382 HEAT: 8.205474
 CYCLE:   177 TIME:   0.012 TIME LEFT:  2.00D  GRAD.:     1.877 HEAT: 8.202792
 CYCLE:   178 TIME:   0.012 TIME LEFT:  2.00D  GRAD.:     1.446 HEAT: 8.199625
 CYCLE:   179 TIME:   0.012 TIME LEFT:  2.00D  GRAD.:     0.930 HEAT: 8.197142
 CYCLE:   180 TIME:   0.012 TIME LEFT:  2.00D  GRAD.:     0.804 HEAT: 8.196014
 CYCLE:   181 TIME:   0.012 TIME LEFT:  2.00D  GRAD.:     1.255 HEAT: 8.195694
 CYCLE:   182 TIME:   0.012 TIME LEFT:  2.00D  GRAD.:     0.861 HEAT: 8.194611
 CYCLE:   183 TIME:   0.012 TIME LEFT:  2.00D  GRAD.:     0.585 HEAT: 8.194120
 CYCLE:   184 TIME:   0.012 TIME LEFT:  2.00D  GRAD.:     0.400 HEAT: 8.193630
 CYCLE:   185 TIME:   0.013 TIME LEFT:  2.00D  GRAD.:     0.382 HEAT: 8.193225
 CYCLE:   186 TIME:   0.015 TIME LEFT:  2.00D  GRAD.:     0.363 HEAT: 8.192954
 CYCLE:   187 TIME:   0.013 TIME LEFT:  2.00D  GRAD.:     0.338 HEAT: 8.192674
 CYCLE:   188 TIME:   0.017 TIME LEFT:  2.00D  GRAD.:     0.411 HEAT: 8.192273
 CYCLE:   189 TIME:   0.016 TIME LEFT:  2.00D  GRAD.:     0.422 HEAT: 8.191780
 CYCLE:   190 TIME:   0.016 TIME LEFT:  2.00D  GRAD.:     0.655 HEAT: 8.191196
 CYCLE:   191 TIME:   0.016 TIME LEFT:  2.00D  GRAD.:     0.709 HEAT: 8.190364
 CYCLE:   192 TIME:   0.013 TIME LEFT:  2.00D  GRAD.:     0.861 HEAT: 8.189290
 CYCLE:   193 TIME:   0.012 TIME LEFT:  2.00D  GRAD.:     0.834 HEAT: 8.188034
 CYCLE:   194 TIME:   0.012 TIME LEFT:  2.00D  GRAD.:     0.949 HEAT: 8.186905
 CYCLE:   195 TIME:   0.012 TIME LEFT:  2.00D  GRAD.:     0.841 HEAT: 8.185611
 CYCLE:   196 TIME:   0.012 TIME LEFT:  2.00D  GRAD.:     0.970 HEAT: 8.184039
 CYCLE:   197 TIME:   0.011 TIME LEFT:  2.00D  GRAD.:     0.872 HEAT: 8.183003
 CYCLE:   198 TIME:   0.012 TIME LEFT:  2.00D  GRAD.:     0.743 HEAT: 8.182019
 CYCLE:   199 TIME:   0.013 TIME LEFT:  2.00D  GRAD.:     0.583 HEAT: 8.181328
 CYCLE:   200 TIME:   0.016 TIME LEFT:  2.00D  GRAD.:     0.424 HEAT: 8.180934
 CYCLE:   201 TIME:   0.018 TIME LEFT:  2.00D  GRAD.:     0.679 HEAT: 8.180708
 CYCLE:   202 TIME:   0.014 TIME LEFT:  2.00D  GRAD.:     0.471 HEAT: 8.180447
 CYCLE:   203 TIME:   0.018 TIME LEFT:  2.00D  GRAD.:     0.359 HEAT: 8.180188
 CYCLE:   204 TIME:   0.018 TIME LEFT:  2.00D  GRAD.:     0.315 HEAT: 8.179996
 CYCLE:   205 TIME:   0.013 TIME LEFT:  2.00D  GRAD.:     0.373 HEAT: 8.179827
 CYCLE:   206 TIME:   0.012 TIME LEFT:  2.00D  GRAD.:     0.427 HEAT: 8.179608
 CYCLE:   207 TIME:   0.012 TIME LEFT:  2.00D  GRAD.:     0.436 HEAT: 8.179344
 CYCLE:   208 TIME:   0.013 TIME LEFT:  2.00D  GRAD.:     0.527 HEAT: 8.178954
 CYCLE:   209 TIME:   0.014 TIME LEFT:  2.00D  GRAD.:     0.532 HEAT: 8.178469
 CYCLE:   210 TIME:   0.013 TIME LEFT:  2.00D  GRAD.:     0.593 HEAT: 8.177684
 CYCLE:   211 TIME:   0.013 TIME LEFT:  2.00D  GRAD.:     0.645 HEAT: 8.177138
 CYCLE:   212 TIME:   0.016 TIME LEFT:  2.00D  GRAD.:     0.633 HEAT: 8.176408
 CYCLE:   213 TIME:   0.013 TIME LEFT:  2.00D  GRAD.:     0.566 HEAT: 8.175892
 CYCLE:   214 TIME:   0.014 TIME LEFT:  2.00D  GRAD.:     0.511 HEAT: 8.175390
 CYCLE:   215 TIME:   0.014 TIME LEFT:  2.00D  GRAD.:     0.427 HEAT: 8.175019
 CYCLE:   216 TIME:   0.012 TIME LEFT:  2.00D  GRAD.:     0.397 HEAT: 8.174740
 CYCLE:   217 TIME:   0.013 TIME LEFT:  2.00D  GRAD.:     0.322 HEAT: 8.174464
 CYCLE:   218 TIME:   0.012 TIME LEFT:  2.00D  GRAD.:     0.209 HEAT: 8.174315
 CYCLE:   219 TIME:   0.015 TIME LEFT:  2.00D  GRAD.:     0.140 HEAT: 8.174238
 CYCLE:   220 TIME:   0.011 TIME LEFT:  2.00D  GRAD.:     0.078 HEAT: 8.174224
 CYCLE:   221 TIME:   0.011 TIME LEFT:  2.00D  GRAD.:     0.064 HEAT: 8.174206
 CYCLE:   222 TIME:   0.011 TIME LEFT:  2.00D  GRAD.:     0.043 HEAT: 8.174199

     RMS GRADIENT =  0.04300  IS LESS THAN CUTOFF =  0.05000



 -------------------------------------------------------------------------------
pm3  precise nosym
 InChI=1S/C11H18/c1-3-5-7-11-9-8-10(11)6-4-2/h4-7,10-11H,3,8-9H2,1-2H3



     GEOMETRY OPTIMISED USING EIGENVECTOR FOLLOWING (EF).     
     SCF FIELD WAS ACHIEVED                                   


                              PM3 CALCULATION
                                                       MOPAC2012 (Version: 13.159M)
                                                       Mon Jun  2 11:06:40 2014
                                                       No. of days left =   6




          FINAL HEAT OF FORMATION =          8.17420 KCAL/MOL =      34.20085 KJ/MOL


          TOTAL ENERGY            =      -1580.67833 EV
          ELECTRONIC ENERGY       =      -9185.97966 EV  POINT GROUP:     C1  
          CORE-CORE REPULSION     =       7605.30133 EV
          COSMO AREA              =        229.98 SQUARE ANGSTROMS
          COSMO VOLUME            =        228.36 CUBIC ANGSTROMS

          GRADIENT NORM           =          0.04300
          IONIZATION POTENTIAL    =          9.539799 EV
          HOMO LUMO ENERGIES (EV) =         -9.540  0.935
          NO. OF FILLED LEVELS    =         31
          MOLECULAR WEIGHT        =        150.263

          MOLECULAR DIMENSIONS (Angstroms)

            Atom       Atom       Distance
            H    24    H    19     8.11338
            H    24    H    19     8.03394
            H    15    H    20     4.00820


          SCF CALCULATIONS        =        231
          COMPUTATION TIME        =          3.057 SECONDS




   ATOM   CHEMICAL          X               Y               Z
  NUMBER   SYMBOL      (ANGSTROMS)     (ANGSTROMS)     (ANGSTROMS)
 
     1       C         -1.20229043  *  -0.33311421  *  -0.95571589  *
     2       C         -0.02848943  *  -1.11823421  *  -0.28888641  *
     3       C         -1.57016912  *  -1.59878588  *  -1.77105600  *
     4       C         -0.38119949  *  -2.35587349  *  -1.15264202  *
     5       C          3.56074251  *   0.23492835  *   0.13336665  *
     6       C          3.90083790  *   1.35784910  *   1.08960006  *
     7       C         -3.73704303  *   1.81241022  *   0.99731521  *
     8       C          1.31335796  *  -0.54850315  *  -0.56138535  *
     9       C         -2.25213627  *   0.10620149  *  -0.00501604  *
    10       C          2.20473916  *  -0.31522971  *   0.40319697  *
    11       C         -2.68895315  *   1.36555219  *   0.05351542  *
    12       H         -0.85362170  *   0.50872642  *  -1.59196250  *
    13       H         -0.18393671  *  -1.28712365  *   0.79846504  *
    14       H         -2.55848802  *  -2.02375718  *  -1.53783604  *
    15       H         -1.52122565  *  -1.46837822  *  -2.86207278  *
    16       H          0.39949877  *  -2.65231246  *  -1.86981794  *
    17       H         -0.65067766  *  -3.25261779  *  -0.57564194  *
    18       H          3.64836518  *   0.58868968  *  -0.91352596  *
    19       H          4.29635366  *  -0.58864178  *   0.23379664  *
    20       H          3.86340294  *   1.02638427  *   2.13587057  *
    21       H          3.20257017  *   2.19875188  *   0.98920470  *
    22       H          4.91077354  *   1.74485852  *   0.90349610  *
    23       H         -3.35352649  *   2.60861502  *   1.64952457  *
    24       H         -4.59845492  *   2.21954486  *   0.45081420  *
    25       H         -4.10608295  *   1.00425627  *   1.64284866  *
    26       H         -2.65950993  *  -0.66842070  *   0.65788339  *
    27       H          1.97421242  *  -0.52873217  *   1.45509632  *
    28       H          1.54116999  *  -0.32941681  *  -1.61289293  *
    29       H         -2.27978431  *   2.13789038  *  -0.61013650  *

           Empirical Formula: C11 H18  =    29 atoms



      MOLECULAR POINT GROUP   :   C1  


                  EIGENVALUES  
 -41.12075 -36.70734 -34.70651 -30.16325 -27.82353 -24.89939 -23.20519 -21.79075
 -20.32627 -19.18807 -18.49085 -16.92199 -16.77895 -15.42512 -15.33502 -14.80192
 -14.43345 -14.34703 -14.19551 -13.89462 -13.50836 -12.95873 -12.85399 -12.36979
 -12.20883 -11.99286 -11.74839 -11.71850 -11.29775  -9.94113  -9.53980   0.93518
   1.16693   3.19815   3.40462   3.59519   3.61104   3.65471   3.81023   3.81513
   3.90146   3.94947   3.96924   4.03963   4.15835   4.21073   4.31032   4.36627
   4.41907   4.46262   4.50654   4.54224   4.59830   4.71278   4.79935   4.87120
   5.19623   5.29879   5.73962   5.83457   6.03865   6.08636


              NET ATOMIC CHARGES AND DIPOLE CONTRIBUTIONS

  ATOM NO.   TYPE          CHARGE      No. of ELECS.   s-Pop       p-Pop       
    1          C          -0.055407        4.0554     1.18135     2.87406
    2          C          -0.055976        4.0560     1.18147     2.87451
    3          C          -0.106637        4.1066     1.17369     2.93295
    4          C          -0.106590        4.1066     1.17366     2.93293
    5          C          -0.062634        4.0626     1.14590     2.91673
    6          C          -0.106075        4.1061     1.13771     2.96837
    7          C          -0.075067        4.0751     1.12531     2.94975
    8          C          -0.143219        4.1432     1.19460     2.94861
    9          C          -0.145336        4.1453     1.19474     2.95059
   10          C          -0.143070        4.1431     1.19803     2.94504
   11          C          -0.140701        4.1407     1.19401     2.94669
   12          H           0.077425        0.9226     0.92258
   13          H           0.077649        0.9224     0.92235
   14          H           0.059770        0.9402     0.94023
   15          H           0.055275        0.9447     0.94472
   16          H           0.059605        0.9404     0.94040
   17          H           0.055326        0.9447     0.94467
   18          H           0.051394        0.9486     0.94861
   19          H           0.053163        0.9468     0.94684
   20          H           0.037900        0.9621     0.96210
   21          H           0.040417        0.9596     0.95958
   22          H           0.036601        0.9634     0.96340
   23          H           0.044152        0.9558     0.95585
   24          H           0.043899        0.9561     0.95610
   25          H           0.040872        0.9591     0.95913
   26          H           0.103279        0.8967     0.89672
   27          H           0.102105        0.8979     0.89790
   28          H           0.103031        0.8970     0.89697
   29          H           0.098848        0.9012     0.90115
 DIPOLE           X         Y         Z       TOTAL
 POINT-CHG.     0.032     0.105     0.060     0.125
 HYBRID        -0.010     0.012     0.021     0.026
 SUM            0.022     0.117     0.081     0.144


          ATOMIC ORBITAL ELECTRON POPULATIONS

    Atom      s        px        py        pz   
    1  C   1.18135   0.94440   0.96773   0.96192
    2  C   1.18147   0.92610   0.95615   0.99226
    3  C   1.17369   0.98134   0.96333   0.98829
    4  C   1.17366   0.98127   0.96024   0.99143
    5  C   1.14590   0.95085   0.97533   0.99055
    6  C   1.13771   1.00377   0.97849   0.98611
    7  C   1.12531   0.96945   1.00422   0.97608
    8  C   1.19460   0.95497   1.00831   0.98533
    9  C   1.19474   0.98689   0.96767   0.99603
   10  C   1.19803   0.96034   0.99779   0.98691
   11  C   1.19401   0.98560   0.96759   0.99350
   12  H   0.92258
   13  H   0.92235
   14  H   0.94023
   15  H   0.94472
   16  H   0.94040
   17  H   0.94467
   18  H   0.94861
   19  H   0.94684
   20  H   0.96210
   21  H   0.95958
   22  H   0.96340
   23  H   0.95585
   24  H   0.95610
   25  H   0.95913
   26  H   0.89672
   27  H   0.89790
   28  H   0.89697
   29  H   0.90115
 *******************************************************************************
 ** Site#: 14399           For non-commercial use only        Version 13.159M **
 *******************************************************************************
 ** Cite this work as: MOPAC2012, James J. P. Stewart, Stewart Computational  **
 ** Chemistry, Version 13.159M web: HTTP://OpenMOPAC.net  Days remaining:   6 **
 *******************************************************************************
 **                                                                           **
 **                                MOPAC2012                                  **
 **                                                                           **
 *******************************************************************************

                            PM3 CALCULATION RESULTS


 *******************************************************************************
 *  CALCULATION DONE:                                Mon Jun  2 11:06:40 2014  *
 *  PM3      - The PM3 Hamiltonian to be used
 *  OLDGEO   - PREVIOUS GEOMETRY TO BE USED
 *  PRECISE  - CRITERIA TO BE INCREASED BY 100 TIMES
 *  NOSYM    - POINT-GROUP SYMMETRY SET TO C1
 *  T=       - A TIME OF 172800.0 SECONDS REQUESTED
 *  DUMP=N   - RESTART FILE WRITTEN EVERY  7200.000 SECONDS
 *  THERMO   - THERMODYNAMIC QUANTITIES TO BE CALCULATED
 *******************************************************************************
oldgeo thermo nosym precise  pm3

   ATOM   CHEMICAL          X               Y               Z
  NUMBER   SYMBOL      (ANGSTROMS)     (ANGSTROMS)     (ANGSTROMS)
 
     1       C         -1.20229043  *  -0.33311421  *  -0.95571589  *
     2       C         -0.02848943  *  -1.11823421  *  -0.28888641  *
     3       C         -1.57016912  *  -1.59878588  *  -1.77105600  *
     4       C         -0.38119949  *  -2.35587349  *  -1.15264202  *
     5       C          3.56074251  *   0.23492835  *   0.13336665  *
     6       C          3.90083790  *   1.35784910  *   1.08960006  *
     7       C         -3.73704303  *   1.81241022  *   0.99731521  *
     8       C          1.31335796  *  -0.54850315  *  -0.56138535  *
     9       C         -2.25213627  *   0.10620149  *  -0.00501604  *
    10       C          2.20473916  *  -0.31522971  *   0.40319697  *
    11       C         -2.68895315  *   1.36555219  *   0.05351542  *
    12       H         -0.85362170  *   0.50872642  *  -1.59196250  *
    13       H         -0.18393671  *  -1.28712365  *   0.79846504  *
    14       H         -2.55848802  *  -2.02375718  *  -1.53783604  *
    15       H         -1.52122565  *  -1.46837822  *  -2.86207278  *
    16       H          0.39949877  *  -2.65231246  *  -1.86981794  *
    17       H         -0.65067766  *  -3.25261779  *  -0.57564194  *
    18       H          3.64836518  *   0.58868968  *  -0.91352596  *
    19       H          4.29635366  *  -0.58864178  *   0.23379664  *
    20       H          3.86340294  *   1.02638427  *   2.13587057  *
    21       H          3.20257017  *   2.19875188  *   0.98920470  *
    22       H          4.91077354  *   1.74485852  *   0.90349610  *
    23       H         -3.35352649  *   2.60861502  *   1.64952457  *
    24       H         -4.59845492  *   2.21954486  *   0.45081420  *
    25       H         -4.10608295  *   1.00425627  *   1.64284866  *
    26       H         -2.65950993  *  -0.66842070  *   0.65788339  *
    27       H          1.97421242  *  -0.52873217  *   1.45509632  *
    28       H          1.54116999  *  -0.32941681  *  -1.61289293  *
    29       H         -2.27978431  *   2.13789038  *  -0.61013650  *
 


          CARTESIAN COORDINATES 

    NO.       ATOM         X         Y         Z

     1         C       -1.2023   -0.3331   -0.9557
     2         C       -0.0285   -1.1182   -0.2889
     3         C       -1.5702   -1.5988   -1.7711
     4         C       -0.3812   -2.3559   -1.1526
     5         C        3.5607    0.2349    0.1334
     6         C        3.9008    1.3578    1.0896
     7         C       -3.7370    1.8124    0.9973
     8         C        1.3134   -0.5485   -0.5614
     9         C       -2.2521    0.1062   -0.0050
    10         C        2.2047   -0.3152    0.4032
    11         C       -2.6890    1.3656    0.0535
    12         H       -0.8536    0.5087   -1.5920
    13         H       -0.1839   -1.2871    0.7985
    14         H       -2.5585   -2.0238   -1.5378
    15         H       -1.5212   -1.4684   -2.8621
    16         H        0.3995   -2.6523   -1.8698
    17         H       -0.6507   -3.2526   -0.5756
    18         H        3.6484    0.5887   -0.9135
    19         H        4.2964   -0.5886    0.2338
    20         H        3.8634    1.0264    2.1359
    21         H        3.2026    2.1988    0.9892
    22         H        4.9108    1.7449    0.9035
    23         H       -3.3535    2.6086    1.6495
    24         H       -4.5985    2.2195    0.4508
    25         H       -4.1061    1.0043    1.6428
    26         H       -2.6595   -0.6684    0.6579
    27         H        1.9742   -0.5287    1.4551
    28         H        1.5412   -0.3294   -1.6129
    29         H       -2.2798    2.1379   -0.6101

  H: (PM3): J. J. P. STEWART, J. COMP. CHEM. 10, 209 (1989).
  C: (PM3): J. J. P. STEWART, J. COMP. CHEM. 10, 209 (1989).

           Empirical Formula: C11 H18  =    29 atoms



      MOLECULAR POINT GROUP   :   C1  


      RHF CALCULATION, NO. OF DOUBLY OCCUPIED LEVELS =   31



          HEAT OF FORMATION =       8.174199 KCALS/MOLE


          INTERNAL COORDINATE DERIVATIVES

   NUMBER  ATOM       BOND         ANGLE      DIHEDRAL

     1       C     -0.000172     0.001520    -0.002308
     2       C      0.001271    -0.000971    -0.002593
     3       C      0.000036     0.001513    -0.003113
     4       C      0.001002    -0.000892    -0.001158
     5       C     -0.001670    -0.003965    -0.002017
     6       C      0.006361    -0.003336    -0.000388
     7       C     -0.006446     0.002136    -0.002376
     8       C     -0.000532    -0.001250     0.002178
     9       C      0.002812    -0.005225     0.001605
    10       C      0.000595     0.000736     0.001282
    11       C     -0.006385     0.006907    -0.003872
    12       H     -0.001547     0.001737     0.000966
    13       H     -0.002204    -0.003652     0.002569
    14       H      0.000933     0.005199    -0.002481
    15       H     -0.001673     0.003035    -0.000950
    16       H      0.000427     0.001268     0.000395
    17       H     -0.000630    -0.002069     0.000131
    18       H     -0.008048    -0.006647     0.000325
    19       H     -0.000279    -0.000919     0.006461
    20       H      0.016195     0.006481     0.008818
    21       H      0.015000     0.000430    -0.001035
    22       H      0.004431     0.000348    -0.002845
    23       H     -0.012341    -0.001577     0.004191
    24       H      0.005490     0.006468    -0.004760
    25       H     -0.000175    -0.005371     0.005151
    26       H     -0.000880    -0.004285     0.005641
    27       H      0.003838    -0.000558    -0.001575
    28       H     -0.005127    -0.004798     0.000399
    29       H     -0.010283     0.007739    -0.008641


          GRADIENT NORM =   0.04315


          TIME FOR SCF CALCULATION =    0.01

          TIME FOR DERIVATIVES     =    0.01

          MOLECULAR WEIGHT =  150.26



          ROTATIONAL CONSTANTS IN CM(-1)

          A =    0.04449926   B =    0.01719874   C =    0.01308704



           PRINCIPAL MOMENTS OF INERTIA IN UNITS OF 10**(-40)*GRAM-CM**2

          A =      629.0615   B =     1627.6062   C =     2138.9693


          ORIENTATION OF MOLECULE IN FORCE CALCULATION

    NO.       ATOM         X         Y         Z

     1          C      -1.0765    0.8803   -0.1893
     2          C       0.4852    0.8803   -0.1893
     3          C      -1.0648    2.4301   -0.1893
     4          C       0.4735    2.4293   -0.1362
     5          C       2.6830   -1.3154    2.1000
     6          C       2.7824   -2.8170    1.9377
     7          C      -3.2263   -1.2815   -2.5445
     8          C       1.0910    0.2353    1.0009
     9          C      -1.6805    0.2751   -1.4009
    10          C       2.0556   -0.6815    0.9089
    11          C      -2.6169   -0.6734   -1.3413
    12          H      -1.5093    0.4480    0.7386
    13          H       0.9176    0.4799   -1.1315
    14          H      -1.4944    2.8923   -1.0913
    15          H      -1.5594    2.8897    0.6790
    16          H       0.9031    2.8601    0.7811
    17          H       0.9682    2.9183   -0.9882
    18          H       2.1240   -1.0701    3.0253
    19          H       3.6928   -0.8779    2.2352
    20          H       3.3676   -3.0922    1.0501
    21          H       1.7919   -3.2777    1.8304
    22          H       3.2674   -3.2785    2.8072
    23          H      -3.0599   -2.3671   -2.5534
    24          H      -4.3118   -1.1138   -2.5523
    25          H      -2.8218   -0.8765   -3.4817
    26          H      -1.3142    0.6529   -2.3645
    27          H       2.4388   -1.0087   -0.0665
    28          H       0.7031    0.5584    1.9759
    29          H      -2.9810   -1.0494   -0.3767


    FIRST DERIVATIVES WILL BE USED IN THE CALCULATION OF SECOND DERIVATIVES

          ESTIMATED TIME TO COMPLETE CALCULATION =        5.62 SECONDS

    FOR POINT-GROUP C1   THERE ARE   1 UNIQUE SYMMETRY FUNCTIONS.

 STEP:   1 TIME =     0.06 SECS, INTEGRAL =      0.06 TIME LEFT: 172799.92
 STEP:   2 TIME =     0.05 SECS, INTEGRAL =      0.11 TIME LEFT: 172799.87
 STEP:   3 TIME =     0.06 SECS, INTEGRAL =      0.17 TIME LEFT: 172799.82
 STEP:   4 TIME =     0.05 SECS, INTEGRAL =      0.22 TIME LEFT: 172799.76
 STEP:   5 TIME =     0.06 SECS, INTEGRAL =      0.28 TIME LEFT: 172799.71
 STEP:   6 TIME =     0.06 SECS, INTEGRAL =      0.34 TIME LEFT: 172799.64
 STEP:   7 TIME =     0.05 SECS, INTEGRAL =      0.39 TIME LEFT: 172799.59
 STEP:   8 TIME =     0.05 SECS, INTEGRAL =      0.44 TIME LEFT: 172799.54
 STEP:   9 TIME =     0.05 SECS, INTEGRAL =      0.50 TIME LEFT: 172799.49
 STEP:  10 TIME =     0.05 SECS, INTEGRAL =      0.55 TIME LEFT: 172799.44
 STEP:  11 TIME =     0.05 SECS, INTEGRAL =      0.60 TIME LEFT: 172799.38
 STEP:  12 TIME =     0.06 SECS, INTEGRAL =      0.66 TIME LEFT: 172799.32
 STEP:  13 TIME =     0.06 SECS, INTEGRAL =      0.72 TIME LEFT: 172799.26
 STEP:  14 TIME =     0.06 SECS, INTEGRAL =      0.79 TIME LEFT: 172799.20
 STEP:  15 TIME =     0.06 SECS, INTEGRAL =      0.85 TIME LEFT: 172799.14
 STEP:  16 TIME =     0.06 SECS, INTEGRAL =      0.91 TIME LEFT: 172799.08
 STEP:  17 TIME =     0.06 SECS, INTEGRAL =      0.97 TIME LEFT: 172799.01
 STEP:  18 TIME =     0.07 SECS, INTEGRAL =      1.04 TIME LEFT: 172798.95
 STEP:  19 TIME =     0.05 SECS, INTEGRAL =      1.09 TIME LEFT: 172798.89
 STEP:  20 TIME =     0.06 SECS, INTEGRAL =      1.15 TIME LEFT: 172798.83
 STEP:  21 TIME =     0.07 SECS, INTEGRAL =      1.22 TIME LEFT: 172798.76
 STEP:  22 TIME =     0.06 SECS, INTEGRAL =      1.28 TIME LEFT: 172798.71
 STEP:  23 TIME =     0.07 SECS, INTEGRAL =      1.34 TIME LEFT: 172798.64
 STEP:  24 TIME =     0.06 SECS, INTEGRAL =      1.40 TIME LEFT: 172798.58
 STEP:  25 TIME =     0.06 SECS, INTEGRAL =      1.47 TIME LEFT: 172798.52
 STEP:  26 TIME =     0.05 SECS, INTEGRAL =      1.52 TIME LEFT: 172798.47
 STEP:  27 TIME =     0.05 SECS, INTEGRAL =      1.57 TIME LEFT: 172798.42
 STEP:  28 TIME =     0.05 SECS, INTEGRAL =      1.62 TIME LEFT: 172798.37
 STEP:  29 TIME =     0.05 SECS, INTEGRAL =      1.67 TIME LEFT: 172798.31
 STEP:  30 TIME =     0.05 SECS, INTEGRAL =      1.72 TIME LEFT: 172798.26
 STEP:  31 TIME =     0.05 SECS, INTEGRAL =      1.77 TIME LEFT: 172798.21
 STEP:  32 TIME =     0.05 SECS, INTEGRAL =      1.82 TIME LEFT: 172798.16
 STEP:  33 TIME =     0.05 SECS, INTEGRAL =      1.87 TIME LEFT: 172798.11
 STEP:  34 TIME =     0.05 SECS, INTEGRAL =      1.93 TIME LEFT: 172798.06
 STEP:  35 TIME =     0.05 SECS, INTEGRAL =      1.98 TIME LEFT: 172798.01
 STEP:  36 TIME =     0.05 SECS, INTEGRAL =      2.03 TIME LEFT: 172797.96
 STEP:  37 TIME =     0.05 SECS, INTEGRAL =      2.08 TIME LEFT: 172797.91
 STEP:  38 TIME =     0.05 SECS, INTEGRAL =      2.13 TIME LEFT: 172797.85
 STEP:  39 TIME =     0.05 SECS, INTEGRAL =      2.18 TIME LEFT: 172797.80
 STEP:  40 TIME =     0.05 SECS, INTEGRAL =      2.23 TIME LEFT: 172797.75
 STEP:  41 TIME =     0.05 SECS, INTEGRAL =      2.28 TIME LEFT: 172797.70
 STEP:  42 TIME =     0.05 SECS, INTEGRAL =      2.33 TIME LEFT: 172797.65
 STEP:  43 TIME =     0.05 SECS, INTEGRAL =      2.38 TIME LEFT: 172797.60
 STEP:  44 TIME =     0.05 SECS, INTEGRAL =      2.43 TIME LEFT: 172797.55
 STEP:  45 TIME =     0.05 SECS, INTEGRAL =      2.48 TIME LEFT: 172797.50
 STEP:  46 TIME =     0.05 SECS, INTEGRAL =      2.53 TIME LEFT: 172797.45
 STEP:  47 TIME =     0.05 SECS, INTEGRAL =      2.58 TIME LEFT: 172797.40
 STEP:  48 TIME =     0.06 SECS, INTEGRAL =      2.64 TIME LEFT: 172797.35
 STEP:  49 TIME =     0.06 SECS, INTEGRAL =      2.70 TIME LEFT: 172797.29
 STEP:  50 TIME =     0.05 SECS, INTEGRAL =      2.75 TIME LEFT: 172797.24
 STEP:  51 TIME =     0.05 SECS, INTEGRAL =      2.80 TIME LEFT: 172797.19
 STEP:  52 TIME =     0.06 SECS, INTEGRAL =      2.86 TIME LEFT: 172797.12
 STEP:  53 TIME =     0.06 SECS, INTEGRAL =      2.92 TIME LEFT: 172797.07
 STEP:  54 TIME =     0.07 SECS, INTEGRAL =      2.98 TIME LEFT: 172797.00
 STEP:  55 TIME =     0.07 SECS, INTEGRAL =      3.05 TIME LEFT: 172796.94
 STEP:  56 TIME =     0.06 SECS, INTEGRAL =      3.11 TIME LEFT: 172796.87
 STEP:  57 TIME =     0.05 SECS, INTEGRAL =      3.16 TIME LEFT: 172796.82
 STEP:  58 TIME =     0.05 SECS, INTEGRAL =      3.21 TIME LEFT: 172796.77
 STEP:  59 TIME =     0.05 SECS, INTEGRAL =      3.27 TIME LEFT: 172796.72
 STEP:  60 TIME =     0.05 SECS, INTEGRAL =      3.32 TIME LEFT: 172796.67
 STEP:  61 TIME =     0.06 SECS, INTEGRAL =      3.38 TIME LEFT: 172796.61
 STEP:  62 TIME =     0.06 SECS, INTEGRAL =      3.43 TIME LEFT: 172796.55
 STEP:  63 TIME =     0.06 SECS, INTEGRAL =      3.49 TIME LEFT: 172796.49
 STEP:  64 TIME =     0.06 SECS, INTEGRAL =      3.56 TIME LEFT: 172796.43
 STEP:  65 TIME =     0.05 SECS, INTEGRAL =      3.61 TIME LEFT: 172796.38
 STEP:  66 TIME =     0.05 SECS, INTEGRAL =      3.66 TIME LEFT: 172796.33
 STEP:  67 TIME =     0.06 SECS, INTEGRAL =      3.71 TIME LEFT: 172796.27
 STEP:  68 TIME =     0.05 SECS, INTEGRAL =      3.76 TIME LEFT: 172796.22
 STEP:  69 TIME =     0.05 SECS, INTEGRAL =      3.81 TIME LEFT: 172796.17
 STEP:  70 TIME =     0.07 SECS, INTEGRAL =      3.88 TIME LEFT: 172796.10
 STEP:  71 TIME =     0.06 SECS, INTEGRAL =      3.94 TIME LEFT: 172796.04
 STEP:  72 TIME =     0.06 SECS, INTEGRAL =      4.00 TIME LEFT: 172795.99
 STEP:  73 TIME =     0.05 SECS, INTEGRAL =      4.05 TIME LEFT: 172795.93
 STEP:  74 TIME =     0.05 SECS, INTEGRAL =      4.10 TIME LEFT: 172795.88
 STEP:  75 TIME =     0.05 SECS, INTEGRAL =      4.15 TIME LEFT: 172795.83
 STEP:  76 TIME =     0.05 SECS, INTEGRAL =      4.20 TIME LEFT: 172795.78
 STEP:  77 TIME =     0.06 SECS, INTEGRAL =      4.26 TIME LEFT: 172795.73
 STEP:  78 TIME =     0.05 SECS, INTEGRAL =      4.31 TIME LEFT: 172795.68
 STEP:  79 TIME =     0.05 SECS, INTEGRAL =      4.36 TIME LEFT: 172795.63
 STEP:  80 TIME =     0.05 SECS, INTEGRAL =      4.41 TIME LEFT: 172795.57
 STEP:  81 TIME =     0.05 SECS, INTEGRAL =      4.46 TIME LEFT: 172795.52
 STEP:  82 TIME =     0.05 SECS, INTEGRAL =      4.52 TIME LEFT: 172795.47
 STEP:  83 TIME =     0.06 SECS, INTEGRAL =      4.57 TIME LEFT: 172795.41
 STEP:  84 TIME =     0.05 SECS, INTEGRAL =      4.63 TIME LEFT: 172795.36
 STEP:  85 TIME =     0.05 SECS, INTEGRAL =      4.68 TIME LEFT: 172795.31
 STEP:  86 TIME =     0.06 SECS, INTEGRAL =      4.73 TIME LEFT: 172795.25
 STEP:  87 TIME =     0.05 SECS, INTEGRAL =      4.78 TIME LEFT: 172795.20

(To convert to Hartree/Bohr^2, multiply by (10^(-21) x N x a0^2)/(4.184 x 627.51) = 0.0642)


           FORCE MATRIX IN MILLIDYNES/ANGSTROM


                  C  1       C  2       C  3       C  4       C  5       C  6
 ------------------------------------------------------------------------------
     C    1  14.770698
     C    2   3.002630  14.767210
     C    3   3.392300   1.807135  14.390506
     C    4   1.807284   3.388805   3.757453  14.388590
     C    5   0.017742   0.142736   0.001895   0.019418  14.694809
     C    6   0.003205   0.018394   0.000707   0.001947   4.413157  14.352134
     C    7   0.145036   0.019045   0.018589   0.002073   0.000740   0.000599
     C    8   0.586042   5.072214   0.043928   0.591557   0.822328   0.042808
     C    9   5.076195   0.587725   0.590826   0.043789   0.002169   0.001162
     C   10   0.033705   0.853066   0.004730   0.031957   4.961908   0.716024
     C   11   0.853852   0.032680   0.033059   0.004488   0.000837   0.000571
     H   12   4.399188   0.435179   0.426188   0.025940   0.000916   0.000310
     H   13   0.435066   4.400983   0.025995   0.426288   0.001764   0.000783
     H   14   0.452671   0.028898   4.681545   0.445421   0.000218   0.000275
     H   15   0.444413   0.029788   4.710303   0.444573   0.000465   0.000209
     H   16   0.028894   0.452799   0.445540   4.682311   0.001219   0.000316
     H   17   0.029857   0.444340   0.444441   4.710575   0.002348   0.000255
     H   18   0.000307   0.003200   0.000208   0.001156   4.441572   0.434627
     H   19   0.002197   0.019413   0.000352   0.003509   4.419489   0.445351
     H   20   0.000276   0.000837   0.000212   0.000219   0.464397   4.725309
     H   21   0.000376   0.000858   0.000141   0.000300   0.460895   4.748829
     H   22   0.000694   0.003235   0.000231   0.000328   0.449242   4.750300
     H   23   0.019300   0.003096   0.002132   0.000421   0.000164   0.000266
     H   24   0.019306   0.002362   0.003199   0.000316   0.000163   0.000157
     H   25   0.002130   0.000583   0.000552   0.000336   0.000180   0.000250
     H   26   0.434048   0.019160   0.018195   0.000991   0.000404   0.000210
     H   27   0.008027   0.085603   0.001072   0.007941   0.430654   0.028454
     H   28   0.020091   0.434287   0.001077   0.017018   0.082592   0.007545
     H   29   0.084978   0.007922   0.007616   0.000969   0.000321   0.000243


                  C  7       C  8       C  9       C 10       C 11       H 12
 ------------------------------------------------------------------------------
     C    7  14.720821
     C    8   0.002776  18.321813
     C    9   0.847935   0.032312  18.318136
     C   10   0.000695  10.674256   0.004722  18.189181
     C   11   5.267492   0.004067  10.656130   0.001369  18.176090
     H   12   0.002099   0.036802   0.445157   0.002732   0.055317   4.900573
     H   13   0.001017   0.444653   0.036850   0.055673   0.002843   0.028354
     H   14   0.001149   0.003158   0.030232   0.000653   0.003094   0.030740
     H   15   0.002409   0.004298   0.031661   0.001048   0.003503   0.027442
     H   16   0.000167   0.029985   0.003407   0.003125   0.000441   0.002592
     H   17   0.000362   0.031823   0.004058   0.003146   0.001032   0.001214
     H   18   0.000217   0.050036   0.000389   0.458393   0.000198   0.000210
     H   19   0.000243   0.031402   0.000388   0.408418   0.000358   0.000159
     H   20   0.000158   0.001903   0.000297   0.027251   0.000357   0.000089
     H   21   0.000165   0.002283   0.000331   0.016033   0.000286   0.000088
     H   22   0.000133   0.007212   0.000441   0.052614   0.000242   0.000133
     H   23   4.707642   0.000954   0.035777   0.000580   0.439295   0.000472
     H   24   4.706018   0.000503   0.035398   0.000323   0.439086   0.000470
     H   25   4.724658   0.000431   0.041696   0.000426   0.478848   0.000573
     H   26   0.082189   0.001609   4.754896   0.000706   0.468219   0.036408
     H   27   0.000431   0.468896   0.001418   4.759415   0.000700   0.000847
     H   28   0.000350   4.752549   0.001587   0.468606   0.000529   0.021780
     H   29   0.423707   0.001432   0.470242   0.000821   4.772289   0.029914


                  H 13       H 14       H 15       H 16       H 17       H 18
 ------------------------------------------------------------------------------
     H   13   4.902166
     H   14   0.002592   5.309163
     H   15   0.001245   0.554881   5.330418
     H   16   0.030762   0.033054   0.023339   5.309528
     H   17   0.027455   0.023456   0.032142   0.554825   5.330667
     H   18   0.000556   0.000081   0.000098   0.000183   0.000193   5.052879
     H   19   0.000519   0.000069   0.000101   0.000346   0.000643   0.565816
     H   20   0.000224   0.000055   0.000096   0.000151   0.000100   0.047549
     H   21   0.000149   0.000127   0.000145   0.000129   0.000117   0.024432
     H   22   0.000230   0.000082   0.000065   0.000110   0.000108   0.030394
     H   23   0.000360   0.000202   0.000203   0.000096   0.000107   0.000058
     H   24   0.000203   0.000315   0.000555   0.000089   0.000084   0.000081
     H   25   0.000209   0.000183   0.000144   0.000062   0.000096   0.000051
     H   26   0.020083   0.017641   0.001360   0.000801   0.000720   0.000141
     H   27   0.029895   0.000157   0.000196   0.000661   0.001308   0.038020
     H   28   0.036180   0.000813   0.000769   0.016033   0.001288   0.030044
     H   29   0.000732   0.000690   0.001256   0.000154   0.000265   0.000118


                  H 19       H 20       H 21       H 22       H 23       H 24
 ------------------------------------------------------------------------------
     H   19   5.017545
     H   20   0.024074   5.470650
     H   21   0.048405   0.577111   5.486527
     H   22   0.028526   0.572397   0.572901   5.488117
     H   23   0.000076   0.000085   0.000067   0.000079   5.426732
     H   24   0.000128   0.000098   0.000122   0.000080   0.576660   5.425410
     H   25   0.000077   0.000062   0.000057   0.000091   0.564148   0.564360
     H   26   0.000141   0.000110   0.000134   0.000060   0.009185   0.009374
     H   27   0.016350   0.021015   0.002701   0.001994   0.000209   0.000122
     H   28   0.009684   0.000607   0.000499   0.001552   0.000125   0.000126
     H   29   0.000144   0.000127   0.000144   0.000110   0.024465   0.023792


                  H 25       H 26       H 27       H 28       H 29
 ------------------------------------------------------------------
     H   25   5.451460
     H   26   0.029670   5.136282
     H   27   0.000103   0.000575   5.140414
     H   28   0.000123   0.000764   0.103759   5.133814
     H   29   0.040854   0.102808   0.000394   0.000569   5.150068


          HEAT OF FORMATION =       8.174199 KCALS/MOLE

          ZERO POINT ENERGY     163.014 KCAL/MOL


           NORMAL COORDINATE ANALYSIS (Total motion = 1 Angstrom)


   Root No.       1         2         3         4         5         6         7         8

                 1 A       2 A       3 A       4 A       5 A       6 A       7 A       8 A   

                  33.8      52.4      83.1      99.9     128.4     138.2     157.8     178.8
  
           1   -0.0030   -0.0090   -0.0154   -0.0038   -0.0077   -0.0049    0.0063   -0.0012
           2   -0.0160    0.0190    0.0101    0.0046    0.0106    0.0003    0.0021    0.0014
           3   -0.0029   -0.0034    0.0062   -0.0075   -0.0005    0.0119   -0.0170    0.0009
           4   -0.0031   -0.0091   -0.0153   -0.0041   -0.0080   -0.0046    0.0061   -0.0004
           5   -0.0219   -0.0045   -0.0173   -0.0054    0.0033   -0.0068    0.0063   -0.0005
           6   -0.0010    0.0032   -0.0024    0.0120    0.0078   -0.0042   -0.0146   -0.0102
           7    0.0027    0.0143    0.0116    0.0068   -0.0008    0.0023    0.0014    0.0000
           8   -0.0159    0.0187    0.0098    0.0046    0.0106    0.0001    0.0018    0.0007
           9    0.0030   -0.0176    0.0129   -0.0241   -0.0107    0.0183    0.0098    0.0182
          10    0.0028    0.0139    0.0122    0.0052   -0.0017    0.0039    0.0007    0.0006
          11   -0.0216   -0.0041   -0.0169   -0.0057    0.0034   -0.0065    0.0056   -0.0008
          12   -0.0045   -0.0048   -0.0049    0.0207    0.0166   -0.0241    0.0280    0.0065
          13    0.0157   -0.0252    0.0178    0.0159    0.0136   -0.0059   -0.0119   -0.0046
          14    0.0146   -0.0100    0.0114    0.0035   -0.0001    0.0011    0.0038    0.0030
          15    0.0166    0.0126   -0.0071    0.0006   -0.0175    0.0037    0.0017   -0.0036
          16    0.0445    0.0431   -0.0083   -0.0180    0.0141   -0.0087    0.0014    0.0006
          17    0.0161   -0.0018    0.0074    0.0032   -0.0033    0.0024    0.0035    0.0022
          18    0.0213   -0.0216    0.0146   -0.0204    0.0159   -0.0122    0.0176    0.0110
          19   -0.0358    0.0081    0.0139   -0.0053    0.0123    0.0149   -0.0188    0.0201
          20    0.0376   -0.0126   -0.0035   -0.0090   -0.0079   -0.0022   -0.0040   -0.0204
          21   -0.0229    0.0102   -0.0089    0.0065   -0.0019   -0.0045    0.0142    0.0024
          22   -0.0047   -0.0211   -0.0140   -0.0148   -0.0053   -0.0009   -0.0026    0.0029
          23   -0.0161   -0.0089   -0.0198   -0.0172   -0.0058    0.0037   -0.0144   -0.0102
          24    0.0032    0.0068   -0.0045    0.0110    0.0014   -0.0005   -0.0220   -0.0182
          25   -0.0054   -0.0101   -0.0234    0.0032    0.0002   -0.0078   -0.0046   -0.0009
          26   -0.0038    0.0128    0.0235   -0.0077    0.0024    0.0069    0.0111    0.0028
          27   -0.0080    0.0002    0.0034   -0.0049   -0.0003    0.0102   -0.0162    0.0002
          28    0.0119   -0.0179    0.0067    0.0259   -0.0205    0.0050    0.0070    0.0081
          29    0.0006   -0.0061    0.0021    0.0260   -0.0210    0.0099   -0.0049   -0.0051
          30    0.0110    0.0110   -0.0062    0.0076   -0.0106    0.0029   -0.0138   -0.0153
          31   -0.0286    0.0037    0.0078   -0.0092   -0.0038    0.0066    0.0212   -0.0311
          32    0.0185   -0.0004   -0.0076    0.0048    0.0064   -0.0077   -0.0139    0.0327
          33   -0.0168    0.0062   -0.0036    0.0015   -0.0010    0.0027   -0.0016    0.0014
          34   -0.0065   -0.0196   -0.0203   -0.0167   -0.0144   -0.0013    0.0117    0.0042
          35   -0.0194    0.0349    0.0126    0.0197    0.0194   -0.0037   -0.0099   -0.0066
          36   -0.0062   -0.0009    0.0049   -0.0063    0.0003    0.0115   -0.0192   -0.0002
          37   -0.0028   -0.0124   -0.0283    0.0023   -0.0080   -0.0146    0.0122   -0.0045
          38   -0.0271   -0.0147   -0.0274   -0.0004    0.0092   -0.0221    0.0298    0.0077
          39    0.0015    0.0059   -0.0041    0.0126    0.0049   -0.0023   -0.0211   -0.0154
          40   -0.0004    0.0291    0.0087    0.0376    0.0185   -0.0222    0.0115   -0.0069
          41   -0.0106    0.0169    0.0221   -0.0035    0.0057    0.0075    0.0157    0.0108
          42    0.0072   -0.0256    0.0206   -0.0430   -0.0225    0.0338    0.0120    0.0269
          43    0.0089    0.0139    0.0303   -0.0165   -0.0149    0.0299   -0.0113    0.0072
          44   -0.0178    0.0344    0.0141    0.0187    0.0197   -0.0029   -0.0143   -0.0092
          45    0.0076   -0.0262    0.0213   -0.0449   -0.0237    0.0358    0.0111    0.0276
          46    0.0093    0.0125    0.0308   -0.0200   -0.0172    0.0329   -0.0127    0.0079
          47   -0.0208   -0.0064   -0.0227   -0.0157   -0.0047    0.0047   -0.0195   -0.0110
          48   -0.0079   -0.0030   -0.0109    0.0372    0.0278   -0.0431    0.0463    0.0079
          49    0.0002    0.0287    0.0106    0.0347    0.0167   -0.0188    0.0102   -0.0058
          50   -0.0257   -0.0156   -0.0273   -0.0029    0.0070   -0.0214    0.0321    0.0082
          51   -0.0084   -0.0028   -0.0118    0.0396    0.0295   -0.0460    0.0489    0.0081
          52    0.0054   -0.0615    0.0380    0.0222    0.0422   -0.0149   -0.0316   -0.0186
          53    0.0067   -0.0561    0.0342    0.0038    0.0195   -0.0070    0.0065    0.0080
          54    0.0125    0.0028   -0.0009    0.0043   -0.0054    0.0004   -0.0106   -0.0131
          55    0.0068   -0.0472    0.0267    0.0252    0.0169   -0.0064   -0.0175   -0.0077
          56    0.0336    0.0289   -0.0017   -0.0196    0.0055   -0.0025    0.0114    0.0062
          57    0.0218    0.0517   -0.0318    0.0046   -0.0590    0.0183    0.0190    0.0087
          58    0.0520    0.0783   -0.0314   -0.0259   -0.0306    0.0106    0.0356    0.0743
          59    0.0244    0.0445   -0.0153    0.0028   -0.0232    0.0110   -0.0006   -0.0042
          60    0.0237   -0.0128    0.0064   -0.0255   -0.0074   -0.0022    0.0415    0.0618
          61    0.0533    0.0654   -0.0175   -0.0286    0.0114   -0.0084    0.0077    0.0071
          62   -0.0026   -0.0411    0.0207    0.0271   -0.0123    0.0082   -0.0025    0.0073
          63    0.0199   -0.0591    0.0431   -0.0252    0.0802   -0.0411   -0.0152   -0.0713
          64    0.0506    0.0396    0.0034   -0.0267    0.0625   -0.0310   -0.0285   -0.0758
          65    0.0276   -0.0026    0.0139   -0.0200    0.0226   -0.0107    0.0134    0.0032
          66    0.0240   -0.0201    0.0115   -0.0279    0.0028   -0.0068    0.0395    0.0542
          67   -0.0739    0.0279    0.0643   -0.0288   -0.0457   -0.1040   -0.0720    0.0678
          68    0.0318   -0.0096    0.0044   -0.0127   -0.0170   -0.0206   -0.0121   -0.0137
          69   -0.0196    0.0107   -0.0404    0.0332    0.0463    0.0569    0.0262    0.0395
          70   -0.0298    0.0050    0.0061   -0.0016    0.0214    0.0336   -0.0110    0.0134
          71    0.0759   -0.0324   -0.0538    0.0145    0.0501    0.1170    0.0488   -0.0680
          72   -0.0354    0.0156    0.0146   -0.0126   -0.0517   -0.0771    0.0265   -0.0329
          73   -0.0110   -0.0041   -0.0214    0.0168    0.0713    0.1150   -0.0114    0.0293
          74    0.0221   -0.0065    0.0399   -0.0387   -0.0655   -0.0911   -0.0354   -0.0311
          75   -0.0189    0.0076   -0.0054    0.0032   -0.0014    0.0002    0.0040    0.0018
          76    0.0112   -0.0204   -0.0509    0.0183    0.0128   -0.0166   -0.0412    0.0392
          77   -0.0117    0.0170    0.0565   -0.0282   -0.0099    0.0210    0.0387   -0.0367
          78   -0.0048   -0.0020    0.0058   -0.0071   -0.0004    0.0122   -0.0187    0.0000
          79    0.0250   -0.0082    0.0178    0.0661   -0.0505    0.0137    0.0293    0.0194
          80    0.0065    0.0011    0.0154    0.0748   -0.0402    0.0163    0.0026   -0.0042
          81    0.0142    0.0123   -0.0063    0.0069   -0.0159    0.0041   -0.0070   -0.0106
          82   -0.0181   -0.0313   -0.0263   -0.0560    0.0183   -0.0073   -0.0187   -0.0016
          83   -0.0233   -0.0145   -0.0358   -0.0638    0.0082    0.0014   -0.0317   -0.0189
          84    0.0003    0.0045   -0.0042    0.0100    0.0061   -0.0023   -0.0221   -0.0167
          85   -0.0450    0.0135    0.0333   -0.0237   -0.0191    0.0106    0.0654   -0.0801
          86    0.0254   -0.0038   -0.0402    0.0260    0.0206   -0.0206   -0.0384    0.0824
          87   -0.0204    0.0086   -0.0067    0.0044   -0.0012   -0.0010    0.0059    0.0023


   Root No.       9        10        11        12        13        14        15        16

                 9 A      10 A      11 A      12 A      13 A      14 A      15 A      16 A   

                 198.7     246.4     317.6     326.2     403.1     412.5     470.6     510.7
  
           1    0.0063   -0.0016    0.0083    0.0089    0.0160    0.0161   -0.0164   -0.0182
           2   -0.0031    0.0025   -0.0035   -0.0089    0.0061   -0.0168    0.0246    0.0060
           3   -0.0086    0.0166    0.0071   -0.0044   -0.0189   -0.0107   -0.0062   -0.0249
           4    0.0063    0.0001   -0.0033    0.0096    0.0193    0.0124   -0.0126   -0.0207
           5    0.0008    0.0052   -0.0034   -0.0086    0.0237   -0.0063    0.0034   -0.0175
           6   -0.0117   -0.0081   -0.0032   -0.0127   -0.0115   -0.0210   -0.0173   -0.0198
           7    0.0017   -0.0033    0.0065    0.0272    0.0090   -0.0152   -0.0098   -0.0020
           8   -0.0038    0.0031   -0.0033   -0.0064    0.0087   -0.0242    0.0275    0.0053
           9    0.0211   -0.0182    0.0134    0.0080    0.0102   -0.0167    0.0095    0.0065
          10    0.0028   -0.0040    0.0092    0.0258    0.0099   -0.0158   -0.0090   -0.0022
          11    0.0004    0.0052   -0.0052   -0.0133    0.0257   -0.0035    0.0086   -0.0230
          12   -0.0014    0.0033   -0.0054    0.0292   -0.0061   -0.0032   -0.0016    0.0102
          13   -0.0161   -0.0200   -0.0160   -0.0079    0.0120    0.0127    0.0249   -0.0008
          14   -0.0012   -0.0028    0.0220    0.0226   -0.0134    0.0039    0.0024   -0.0129
          15    0.0099    0.0032   -0.0206    0.0053   -0.0059    0.0130    0.0387   -0.0103
          16   -0.0005    0.0006   -0.0063   -0.0123    0.0092   -0.0015   -0.0023    0.0062
          17    0.0013   -0.0017    0.0241    0.0268   -0.0176    0.0048    0.0036   -0.0191
          18   -0.0039    0.0104   -0.0057   -0.0209    0.0087   -0.0085   -0.0118    0.0081
          19    0.0009    0.0157    0.0083   -0.0020   -0.0032    0.0279   -0.0029    0.0159
          20   -0.0140    0.0191    0.0238   -0.0061   -0.0041    0.0212    0.0017    0.0181
          21    0.0086   -0.0128    0.0120   -0.0139   -0.0142    0.0172   -0.0023    0.0115
          22   -0.0045    0.0111   -0.0465    0.0063   -0.0251   -0.0148    0.0071    0.0036
          23   -0.0031   -0.0093   -0.0241    0.0188   -0.0008   -0.0122   -0.0187    0.0323
          24   -0.0083   -0.0241   -0.0014   -0.0012    0.0053   -0.0071   -0.0319   -0.0027
          25    0.0034   -0.0099    0.0483   -0.0193   -0.0198   -0.0126    0.0124    0.0048
          26    0.0055   -0.0138   -0.0324   -0.0119   -0.0176    0.0243   -0.0177   -0.0116
          27   -0.0118    0.0322    0.0077    0.0099    0.0090   -0.0046   -0.0001   -0.0201
          28    0.0060    0.0218   -0.0317   -0.0192   -0.0119   -0.0129    0.0047    0.0035
          29    0.0075    0.0012   -0.0032   -0.0036    0.0102   -0.0110   -0.0279    0.0297
          30    0.0028   -0.0184   -0.0196    0.0020    0.0177    0.0183    0.0236    0.0084
          31   -0.0058   -0.0098    0.0231   -0.0197   -0.0216   -0.0002    0.0051    0.0034
          32    0.0148   -0.0141   -0.0052   -0.0138   -0.0195    0.0175   -0.0112   -0.0063
          33   -0.0032    0.0186    0.0166    0.0021    0.0083    0.0272    0.0013    0.0245
          34    0.0113    0.0096    0.0023    0.0199    0.0334    0.0346   -0.0206   -0.0307
          35   -0.0188    0.0192   -0.0025   -0.0076    0.0013   -0.0331    0.0355    0.0064
          36   -0.0130    0.0290    0.0056    0.0015   -0.0117   -0.0089   -0.0032   -0.0299
          37    0.0106   -0.0129    0.0025    0.0106    0.0401    0.0263   -0.0270   -0.0271
          38    0.0049    0.0148   -0.0052   -0.0036    0.0347    0.0058    0.0134   -0.0300
          39   -0.0110   -0.0180   -0.0006   -0.0133   -0.0057   -0.0187   -0.0278   -0.0171
          40   -0.0145    0.0123   -0.0067    0.0475   -0.0089   -0.0125   -0.0170    0.0054
          41    0.0134   -0.0209    0.0017    0.0029    0.0277   -0.0403    0.0476    0.0392
          42    0.0380   -0.0384    0.0231    0.0033    0.0292   -0.0273    0.0240    0.0214
          43    0.0144   -0.0190    0.0204    0.0170    0.0186   -0.0374    0.0053    0.0064
          44   -0.0240    0.0261   -0.0108   -0.0084   -0.0188   -0.0252    0.0172   -0.0139
          45    0.0392   -0.0397    0.0253    0.0031    0.0307   -0.0293    0.0244    0.0221
          46    0.0164   -0.0209    0.0251    0.0130    0.0202   -0.0362    0.0015   -0.0021
          47   -0.0036   -0.0036   -0.0046   -0.0469    0.0302   -0.0106   -0.0054   -0.0606
          48   -0.0059    0.0155   -0.0136    0.0523   -0.0134    0.0096    0.0000    0.0292
          49   -0.0125    0.0097   -0.0015    0.0466   -0.0082   -0.0150   -0.0128    0.0145
          50    0.0066    0.0152   -0.0117    0.0130    0.0312    0.0183    0.0151   -0.0037
          51   -0.0067    0.0172   -0.0154    0.0569   -0.0140    0.0103    0.0000    0.0321
          52   -0.0354   -0.0593   -0.0065   -0.0049    0.0463    0.0398    0.0440    0.0006
          53   -0.0156   -0.0109    0.0306    0.0188   -0.0064    0.0078    0.0024   -0.0182
          54    0.0020   -0.0179   -0.0169    0.0078    0.0124    0.0275    0.0488   -0.0081
          55   -0.0220   -0.0294   -0.0193   -0.0100    0.0210    0.0184    0.0309    0.0036
          56    0.0052    0.0056    0.0362    0.0282   -0.0213    0.0002   -0.0073   -0.0239
          57    0.0336    0.0463   -0.0412   -0.0002   -0.0430   -0.0174    0.0220   -0.0055
          58   -0.1052   -0.0241    0.0020   -0.0209    0.0188   -0.0052   -0.0175    0.0138
          59    0.0150    0.0015    0.0203    0.0439   -0.0303    0.0150    0.0307   -0.0345
          60   -0.0773   -0.0068    0.0010   -0.0323    0.0192   -0.0145   -0.0311    0.0184
          61   -0.0027    0.0055   -0.0031   -0.0157    0.0103   -0.0076   -0.0158    0.0122
          62   -0.0229   -0.0210    0.0181    0.0344   -0.0185    0.0200    0.0356   -0.0331
          63    0.1208    0.0478   -0.0095   -0.0241    0.0047   -0.0186   -0.0278    0.0155
          64    0.1198    0.0382   -0.0104   -0.0073   -0.0007   -0.0073   -0.0071    0.0067
          65    0.0124    0.0143    0.0352    0.0055   -0.0065   -0.0189   -0.0522    0.0055
          66   -0.0650   -0.0019    0.0022   -0.0357    0.0206   -0.0183   -0.0399    0.0219
          67    0.0135    0.0145    0.0002    0.0010   -0.0016    0.0389   -0.0131    0.0115
          68   -0.0124    0.0193    0.0232   -0.0056   -0.0037    0.0230    0.0006    0.0183
          69    0.0327   -0.0422   -0.0199   -0.0207   -0.0313    0.0193   -0.0215   -0.0186
          70   -0.0010    0.0163    0.0095   -0.0023   -0.0031    0.0276   -0.0017    0.0176
          71   -0.0270    0.0216    0.0332   -0.0092   -0.0055    0.0138    0.0119    0.0270
          72    0.0031   -0.0343    0.0325   -0.0325   -0.0353   -0.0136    0.0105    0.0012
          73   -0.0016    0.0380   -0.0028    0.0129    0.0148    0.0523   -0.0093    0.0304
          74   -0.0296    0.0461    0.0469    0.0020    0.0117    0.0263    0.0134    0.0436
          75    0.0010    0.0080    0.0169   -0.0042   -0.0002    0.0292   -0.0001    0.0276
          76    0.0127   -0.0108    0.0883   -0.0298   -0.0361   -0.0515    0.0432    0.0128
          77   -0.0060   -0.0160   -0.0732   -0.0105   -0.0274    0.0479   -0.0553   -0.0475
          78   -0.0123    0.0299    0.0070    0.0059   -0.0015   -0.0101   -0.0033   -0.0308
          79    0.0311    0.0537   -0.0188   -0.0581    0.0121   -0.0115    0.0003   -0.0070
          80    0.0235    0.0154    0.0204   -0.0482    0.0484   -0.0193   -0.0767    0.0314
          81    0.0072   -0.0098   -0.0223    0.0014    0.0136    0.0209    0.0377    0.0034
          82   -0.0264   -0.0031   -0.0744    0.0393   -0.0726   -0.0323    0.0188    0.0138
          83   -0.0173   -0.0327   -0.0561    0.0677   -0.0305   -0.0053    0.0079    0.0673
          84   -0.0121   -0.0212   -0.0021   -0.0042   -0.0041   -0.0163   -0.0352   -0.0104
          85   -0.0141   -0.0244   -0.0045   -0.0258   -0.0298    0.0245   -0.0182   -0.0047
          86    0.0361   -0.0304    0.0225   -0.0247   -0.0311    0.0023    0.0094    0.0146
          87    0.0023    0.0057    0.0168   -0.0049   -0.0001    0.0299    0.0004    0.0287


   Root No.      17        18        19        20        21        22        23        24

                17 A      18 A      19 A      20 A      21 A      22 A      23 A      24 A   

                 560.5     793.3     814.8     843.3     861.1     911.1     922.2     924.7
  
           1   -0.0004    0.0272   -0.0023   -0.0100   -0.0101    0.0125    0.0043   -0.0004
           2   -0.0051    0.0242   -0.0057   -0.0111    0.0022   -0.0010   -0.0022    0.0049
           3    0.0369   -0.0106    0.0028    0.0076    0.0023   -0.0046   -0.0016   -0.0017
           4   -0.0017    0.0263   -0.0087   -0.0141    0.0103   -0.0110   -0.0054    0.0021
           5   -0.0023   -0.0238    0.0048    0.0100    0.0030   -0.0058   -0.0008   -0.0040
           6   -0.0366   -0.0136   -0.0047    0.0086   -0.0004    0.0015    0.0020   -0.0018
           7    0.0017   -0.0241    0.0062    0.0110    0.0035    0.0016   -0.0001    0.0024
           8   -0.0045    0.0274   -0.0066   -0.0142   -0.0155   -0.0019    0.0021   -0.0091
           9   -0.0008   -0.0082    0.0035   -0.0214   -0.0033   -0.0074   -0.0041   -0.0009
          10    0.0019   -0.0241    0.0064    0.0110    0.0036    0.0015   -0.0003    0.0025
          11   -0.0050   -0.0250    0.0123    0.0172    0.0038    0.0095   -0.0003    0.0082
          12    0.0018   -0.0097    0.0017   -0.0199   -0.0081    0.0055    0.0046   -0.0016
          13    0.0036    0.0048    0.0343    0.0030    0.0005   -0.0024    0.0014   -0.0002
          14   -0.0078    0.0016    0.0027   -0.0001   -0.0002    0.0018   -0.0012    0.0001
          15   -0.0010   -0.0097   -0.0082    0.0029   -0.0009    0.0018   -0.0007   -0.0006
          16    0.0050   -0.0003    0.0080    0.0012    0.0003   -0.0076    0.0065   -0.0018
          17   -0.0127    0.0042   -0.0058   -0.0013    0.0020   -0.0050    0.0019    0.0002
          18    0.0027   -0.0014   -0.0005    0.0011   -0.0001    0.0002    0.0002    0.0002
          19   -0.0098   -0.0040    0.0008   -0.0016    0.0155    0.0042    0.0018    0.0007
          20   -0.0096   -0.0039    0.0006    0.0048   -0.0142   -0.0006    0.0001    0.0006
          21   -0.0040   -0.0067    0.0010    0.0023    0.0009   -0.0016   -0.0004   -0.0007
          22   -0.0149   -0.0005   -0.0199   -0.0003    0.0047   -0.0247   -0.0059   -0.0183
          23    0.0164   -0.0056   -0.0057    0.0008    0.0015   -0.0217   -0.0057   -0.0202
          24   -0.0212    0.0245   -0.0010   -0.0031    0.0069   -0.0045   -0.0054    0.0030
          25    0.0134    0.0033    0.0000    0.0067   -0.0283    0.0034    0.0087   -0.0233
          26    0.0077    0.0020   -0.0003   -0.0066    0.0275   -0.0024   -0.0085    0.0232
          27    0.0240    0.0250   -0.0025   -0.0014   -0.0022    0.0105    0.0033    0.0032
          28   -0.0120    0.0020    0.0002   -0.0008   -0.0013    0.0176   -0.0186   -0.0002
          29    0.0177   -0.0014    0.0093   -0.0015   -0.0048    0.0216   -0.0178   -0.0017
          30    0.0194   -0.0024    0.0012   -0.0015   -0.0011   -0.0012    0.0014   -0.0011
          31    0.0116    0.0018    0.0003   -0.0036    0.0167    0.0046    0.0040   -0.0072
          32    0.0096    0.0022    0.0000    0.0052   -0.0167   -0.0014   -0.0030    0.0080
          33   -0.0234   -0.0057    0.0002   -0.0007    0.0001   -0.0025   -0.0009   -0.0007
          34    0.0221    0.0578    0.0001   -0.0394   -0.0026    0.0224    0.0073    0.0136
          35   -0.0038    0.0483   -0.0161    0.0043   -0.0111    0.0043    0.0032   -0.0015
          36    0.0468    0.0155   -0.0008    0.0014   -0.0005    0.0036    0.0025    0.0022
          37   -0.0252    0.0557   -0.0097   -0.0423    0.0139   -0.0033   -0.0117    0.0194
          38   -0.0033   -0.0476    0.0159   -0.0020   -0.0008    0.0101    0.0026    0.0034
          39   -0.0457    0.0106   -0.0098    0.0009    0.0038   -0.0022   -0.0028    0.0033
          40    0.0161   -0.0692    0.0203   -0.1133   -0.0277   -0.0095    0.0023   -0.0152
          41   -0.0456    0.0729   -0.0266    0.0251   -0.0255    0.0220    0.0239   -0.0219
          42   -0.0300    0.0385   -0.0144    0.0641    0.0069    0.0112    0.0067    0.0011
          43   -0.0092    0.0100   -0.0105    0.1236    0.0281   -0.0065   -0.0036    0.0043
          44    0.0381   -0.0097    0.0054   -0.0678   -0.0122   -0.0456   -0.0206   -0.0145
          45   -0.0309    0.0346   -0.0137    0.0764    0.0099    0.0119    0.0064    0.0033
          46   -0.0111   -0.0686    0.0221   -0.1114   -0.0362   -0.0035    0.0006   -0.0143
          47   -0.0496   -0.0754    0.0188   -0.0212   -0.0089    0.0419    0.0207    0.0163
          48    0.0305    0.0367   -0.0094    0.0612    0.0183   -0.0086   -0.0062    0.0028
          49    0.0150    0.0095   -0.0096    0.1241    0.0242    0.0062    0.0048    0.0024
          50    0.0367    0.0137    0.0121    0.0611    0.0345   -0.0217   -0.0252    0.0183
          51    0.0347    0.0359   -0.0087    0.0762    0.0230   -0.0102   -0.0073    0.0046
          52    0.0355   -0.0408   -0.1055   -0.0009   -0.0035    0.0035    0.0027   -0.0006
          53   -0.0051   -0.0226   -0.0969   -0.0043   -0.0032    0.0400   -0.0325    0.0076
          54    0.0165   -0.0290   -0.0615    0.0018   -0.0023   -0.0055    0.0086   -0.0030
          55    0.0132   -0.0117   -0.0164    0.0008   -0.0035    0.0276   -0.0199    0.0052
          56   -0.0184    0.0218    0.0576    0.0027    0.0085   -0.0705    0.0520   -0.0133
          57   -0.0337    0.0395    0.1592    0.0088    0.0005    0.0182   -0.0186    0.0038
          58    0.0107   -0.0086   -0.0365   -0.0032   -0.0026    0.0215   -0.0159    0.0041
          59   -0.0172   -0.0260   -0.1073   -0.0017   -0.0017    0.0398   -0.0324    0.0101
          60    0.0079    0.0035    0.0050   -0.0017   -0.0007    0.0039   -0.0026    0.0008
          61    0.0082   -0.0112   -0.0450   -0.0034   -0.0034    0.0287   -0.0214    0.0053
          62   -0.0188    0.0232    0.0939    0.0085    0.0092   -0.0768    0.0574   -0.0138
          63    0.0021    0.0113    0.0332   -0.0006    0.0007   -0.0088    0.0068   -0.0017
          64    0.0034   -0.0099   -0.0379   -0.0022   -0.0025    0.0231   -0.0177    0.0042
          65   -0.0048    0.0132   -0.0230   -0.0119   -0.0006    0.0221   -0.0189    0.0068
          66    0.0083    0.0089    0.0161   -0.0028    0.0000   -0.0014    0.0018    0.0005
          67   -0.0132   -0.0053    0.0007    0.0212   -0.0807   -0.0107   -0.0043    0.0028
          68   -0.0108   -0.0046    0.0007    0.0076   -0.0254   -0.0027   -0.0008    0.0006
          69    0.0213    0.0078    0.0000    0.0294   -0.1071    0.0000   -0.0002    0.0089
          70   -0.0106   -0.0050    0.0009   -0.0041    0.0270    0.0055    0.0024    0.0004
          71   -0.0101   -0.0070    0.0013   -0.0167    0.0825    0.0130    0.0061   -0.0019
          72    0.0251    0.0056    0.0010   -0.0204    0.1091    0.0320    0.0141    0.0016
          73   -0.0359   -0.0177    0.0015    0.0103   -0.0373   -0.0189   -0.0079   -0.0023
          74   -0.0337   -0.0186    0.0018   -0.0079    0.0397   -0.0079   -0.0025   -0.0069
          75   -0.0243   -0.0181    0.0018    0.0020    0.0014   -0.0139   -0.0054   -0.0049
          76    0.0422    0.0004    0.0019   -0.0177    0.0632   -0.0418   -0.0728    0.1775
          77    0.0248    0.0036   -0.0002    0.0317   -0.0602    0.0432    0.0731   -0.1771
          78    0.0412    0.0241   -0.0018    0.0046   -0.0016    0.0112    0.0044    0.0010
          79    0.0020   -0.0254   -0.0816    0.0000    0.0040   -0.0638    0.1538    0.0635
          80    0.0300   -0.0017   -0.0439   -0.0040    0.0051   -0.0588    0.1495    0.0667
          81    0.0200   -0.0131   -0.0126   -0.0001   -0.0024   -0.0061    0.0131    0.0010
          82   -0.0479    0.0011    0.0031   -0.0023   -0.0137    0.0776    0.1052    0.1234
          83    0.0298    0.0032    0.0378   -0.0163   -0.0230    0.0901    0.1115    0.1275
          84   -0.0383    0.0218   -0.0061    0.0020    0.0076   -0.0007    0.0000    0.0103
          85    0.0029   -0.0089    0.0008    0.0298   -0.1298   -0.0546   -0.0611    0.1265
          86    0.0099   -0.0097    0.0021   -0.0249    0.1298    0.0412    0.0556   -0.1280
          87   -0.0255   -0.0142    0.0013    0.0003    0.0019   -0.0080   -0.0026   -0.0032


   Root No.      25        26        27        28        29        30        31        32

                25 A      26 A      27 A      28 A      29 A      30 A      31 A      32 A   

                 941.2     967.9     976.6     991.9    1007.6    1028.9    1036.5    1042.8
  
           1    0.0038   -0.0007   -0.0058    0.0030    0.0340   -0.0048   -0.0017    0.0092
           2   -0.0030   -0.0008    0.0047   -0.0166   -0.0052   -0.0163    0.0076   -0.0193
           3    0.0070    0.0060   -0.0057    0.0002   -0.0052    0.0040   -0.0005    0.0022
           4   -0.0005    0.0053   -0.0008   -0.0034   -0.0326    0.0023   -0.0020   -0.0105
           5   -0.0036   -0.0009   -0.0078    0.0133   -0.0090   -0.0060    0.0170   -0.0187
           6   -0.0040    0.0033   -0.0026    0.0060    0.0062   -0.0027    0.0010   -0.0046
           7    0.0008    0.0004    0.0056   -0.0045   -0.0091    0.0189   -0.0216    0.0234
[...]
 FREQ.      1470.51        C  1 --  C  2          +11.0% ( 54.4%)    52.9%
 T-DIPOLE    0.1346        C  1 --  C  9           +7.9% ( 46.1%)    94.7%
 TRAVEL      0.0707        C  2 --  C  8           +7.7% ( 45.5%)    95.2%
 RED. MASS   1.1947        C  1 --  C  4           +7.2% ( 43.9%)    89.0%
 EFF. MASS   9.1633

 VIBRATION   62   62A       ATOM PAIR        ENERGY CONTRIBUTION    RADIAL
 FREQ.      1889.06        C  9 --  C 11          +23.9% ( 72.2%)    96.3%
 T-DIPOLE    0.2134        C  8 --  C 10          +19.7% ( 65.6%)    96.4%
 TRAVEL      0.0550        C  1 --  C  9           +7.9% ( 41.5%)    55.4%
 RED. MASS   2.7041        C  7 --  C 11           +7.8% ( 41.2%)    56.4%
 EFF. MASS  11.7885

 VIBRATION   63   63A       ATOM PAIR        ENERGY CONTRIBUTION    RADIAL
 FREQ.      1891.25        C  8 --  C 10          +23.9% ( 72.3%)    96.4%
 T-DIPOLE    0.2844        C  9 --  C 11          +19.6% ( 65.3%)    96.2%
 TRAVEL      0.0550        C  2 --  C  8           +8.0% ( 41.7%)    56.1%
 RED. MASS   2.7020        C  5 --  C 10           +7.7% ( 40.8%)    54.6%
 EFF. MASS  11.7997

 VIBRATION   64   64A       ATOM PAIR        ENERGY CONTRIBUTION    RADIAL
 FREQ.      2939.54        C  1 --  H 12          +50.9% ( 73.1%)   100.0%
 T-DIPOLE    0.0410        C  2 --  H 13          +44.1% ( 68.0%)   100.0%
 TRAVEL      0.1254        C  1 --  C  2           +1.2% ( 11.2%)    16.6%
 RED. MASS   0.4627        C  1 --  C  9           +0.6% (  7.8%)    13.5%
 EFF. MASS   1.4587

 VIBRATION   65   65A       ATOM PAIR        ENERGY CONTRIBUTION    RADIAL
 FREQ.      2944.77        C  5 --  H 19          +52.6% ( 75.3%)    96.9%
 T-DIPOLE    0.0184        C  5 --  H 18          +44.7% ( 69.4%)    96.0%
 TRAVEL      0.1218        C  5 --  C  6           +1.2% ( 11.2%)     0.0%
 RED. MASS   0.5171        C  5 --  C 10           +1.1% ( 11.1%)     0.2%
 EFF. MASS   1.5431

 VIBRATION   66   66A       ATOM PAIR        ENERGY CONTRIBUTION    RADIAL
 FREQ.      2946.22        C  2 --  H 13          +51.0% ( 73.0%)   100.0%
 T-DIPOLE    0.1194        C  1 --  H 12          +44.1% ( 67.8%)   100.0%
 TRAVEL      0.1258        C  1 --  C  2           +0.9% (  9.9%)     0.1%
 RED. MASS   0.4622        C  2 --  C  8           +0.6% (  7.9%)    13.7%
 EFF. MASS   1.4465

 VIBRATION   67   67A       ATOM PAIR        ENERGY CONTRIBUTION    RADIAL
 FREQ.      3024.20        C  5 --  H 18          +51.2% ( 70.6%)    98.1%
 T-DIPOLE    0.0498        C  5 --  H 19          +44.1% ( 65.5%)    97.3%
 TRAVEL      0.1316        C 10 --  H 27           +2.1% ( 14.3%)    99.8%
 RED. MASS   0.4561        C  8 --  H 28           +0.7% (  8.4%)    99.7%
 EFF. MASS   1.2877

 VIBRATION   68   68A       ATOM PAIR        ENERGY CONTRIBUTION    RADIAL
 FREQ.      3031.11        C  3 --  H 14          +26.6% ( 54.0%)    97.2%
 T-DIPOLE    0.0135        C  4 --  H 16          +26.0% ( 53.3%)    97.2%
 TRAVEL      0.1196        C  3 --  H 15          +21.9% ( 49.0%)    96.1%
 RED. MASS   0.2593        C  4 --  H 17          +21.5% ( 48.5%)    96.1%
 EFF. MASS   1.5545

 VIBRATION   69   69A       ATOM PAIR        ENERGY CONTRIBUTION    RADIAL
 FREQ.      3033.56        C  8 --  H 28          +82.8% ( 92.0%)   100.0%
 T-DIPOLE    0.3248        C 10 --  H 27          +14.6% ( 38.7%)   100.0%
 TRAVEL      0.1235        C  2 --  C  8           +1.1% ( 10.6%)    17.3%
 RED. MASS   0.6872        C  8 --  C 10           +1.0% ( 10.0%)    39.9%
 EFF. MASS   1.4573

 VIBRATION   70   70A       ATOM PAIR        ENERGY CONTRIBUTION    RADIAL
 FREQ.      3034.44        C  9 --  H 26          +94.9% ( 98.7%)   100.0%
 T-DIPOLE    0.2731        C 11 --  H 29           +2.0% ( 14.3%)    99.2%
 TRAVEL      0.1221        C  1 --  C  9           +1.3% ( 11.6%)    15.6%
 RED. MASS   0.8840        C  9 --  C 11           +1.3% ( 11.6%)    39.9%
 EFF. MASS   1.4918

 VIBRATION   71   71A       ATOM PAIR        ENERGY CONTRIBUTION    RADIAL
 FREQ.      3036.25        C 10 --  H 27          +79.9% ( 90.8%)   100.0%
 T-DIPOLE    0.1399        C  8 --  H 28          +13.7% ( 37.7%)    99.8%
 TRAVEL      0.1193        C  5 --  H 18           +2.1% ( 14.6%)    99.4%
 RED. MASS   0.6536        C  8 --  C 10           +2.0% ( 14.2%)    40.0%
 EFF. MASS   1.5599

 VIBRATION   72   72A       ATOM PAIR        ENERGY CONTRIBUTION    RADIAL
 FREQ.      3038.05        C 11 --  H 29          +92.6% ( 97.8%)   100.0%
 T-DIPOLE    0.2050        C  9 --  H 26           +1.9% ( 13.8%)    98.9%
 TRAVEL      0.1202        C  9 --  C 11           +1.7% ( 13.1%)    39.1%
 RED. MASS   0.8516        C  7 --  H 25           +1.4% ( 12.2%)    98.1%
 EFF. MASS   1.5373

 VIBRATION   73   73A       ATOM PAIR        ENERGY CONTRIBUTION    RADIAL
 FREQ.      3045.69        C  4 --  H 16          +27.2% ( 54.2%)    97.6%
 T-DIPOLE    0.0976        C  3 --  H 14          +26.6% ( 53.5%)    97.6%
 TRAVEL      0.1202        C  4 --  H 17          +21.6% ( 48.2%)    96.2%
 RED. MASS   0.2602        C  3 --  H 15          +21.0% ( 47.6%)    96.2%
 EFF. MASS   1.5320

 VIBRATION   74   74A       ATOM PAIR        ENERGY CONTRIBUTION    RADIAL
 FREQ.      3070.06        C  7 --  H 24          +50.4% ( 73.2%)    97.2%
 T-DIPOLE    0.0229        C  7 --  H 23          +47.7% ( 71.2%)    96.9%
 TRAVEL      0.1210        C  7 --  C 11           +1.0% ( 10.2%)     0.0%
 RED. MASS   0.5094        C  7 --  H 25           +0.9% ( 10.0%)     0.8%
 EFF. MASS   1.5010

 VIBRATION   75   75A       ATOM PAIR        ENERGY CONTRIBUTION    RADIAL
 FREQ.      3075.88        C  7 --  H 25          +62.7% ( 81.6%)    98.9%
 T-DIPOLE    0.0583        C  7 --  H 23          +18.4% ( 44.2%)    86.1%
 TRAVEL      0.1205        C  7 --  H 24          +15.9% ( 41.1%)    83.6%
 RED. MASS   0.4795        C 11 --  H 29           +2.0% ( 14.4%)   100.0%
 EFF. MASS   1.5085

 VIBRATION   76   76A       ATOM PAIR        ENERGY CONTRIBUTION    RADIAL
 FREQ.      3081.38        C  6 --  H 20          +65.2% ( 83.3%)    98.8%
 T-DIPOLE    0.0093        C  6 --  H 21          +25.5% ( 52.1%)    90.9%
 TRAVEL      0.1207        C  6 --  H 22           +8.0% ( 29.2%)    68.7%
 RED. MASS   0.5245        C  5 --  C  6           +1.0% ( 10.2%)     0.0%
 EFF. MASS   1.5013

 VIBRATION   77   77A       ATOM PAIR        ENERGY CONTRIBUTION    RADIAL
 FREQ.      3086.17        C  6 --  H 22          +56.7% ( 77.7%)    98.1%
 T-DIPOLE    0.0091        C  6 --  H 21          +39.2% ( 64.6%)    95.3%
 TRAVEL      0.1205        C  6 --  H 20           +2.7% ( 17.0%)    33.1%
 RED. MASS   0.5041        C  5 --  C  6           +1.0% ( 10.3%)     0.1%
 EFF. MASS   1.5042

 VIBRATION   78   78A       ATOM PAIR        ENERGY CONTRIBUTION    RADIAL
 FREQ.      3104.81        C  3 --  H 15          +29.1% ( 53.5%)    97.9%
 T-DIPOLE    0.0669        C  4 --  H 17          +26.0% ( 50.6%)    97.9%
 TRAVEL      0.1303        C  3 --  H 14          +22.6% ( 47.1%)    96.2%
 RED. MASS   0.2462        C  4 --  H 16          +20.2% ( 44.6%)    96.2%
 EFF. MASS   1.2799

 VIBRATION   79   79A       ATOM PAIR        ENERGY CONTRIBUTION    RADIAL
 FREQ.      3106.36        C  4 --  H 17          +28.5% ( 53.0%)    97.8%
 T-DIPOLE    0.0862        C  3 --  H 15          +25.5% ( 50.1%)    97.8%
 TRAVEL      0.1298        C  4 --  H 16          +23.1% ( 47.7%)    96.4%
 RED. MASS   0.2450        C  3 --  H 14          +20.7% ( 45.1%)    96.4%
 EFF. MASS   1.2878

 VIBRATION   80   80A       ATOM PAIR        ENERGY CONTRIBUTION    RADIAL
 FREQ.      3169.75        C  7 --  H 25          +34.5% ( 56.5%)    97.2%
 T-DIPOLE    0.0743        C  7 --  H 23          +32.7% ( 55.1%)    97.1%
 TRAVEL      0.1366        C  7 --  H 24          +32.5% ( 54.9%)    97.0%
 RED. MASS   0.3272        C  7 --  C 11           +0.3% (  5.4%)   100.0%
 EFF. MASS   1.1395

 VIBRATION   81   81A       ATOM PAIR        ENERGY CONTRIBUTION    RADIAL
 FREQ.      3183.17        C  6 --  H 21          +34.6% ( 56.6%)    97.4%
 T-DIPOLE    0.0182        C  6 --  H 22          +34.3% ( 56.4%)    97.3%
 TRAVEL      0.1366        C  6 --  H 20          +30.8% ( 53.4%)    96.7%
 RED. MASS   0.3278        C  5 --  C  6           +0.3% (  5.1%)    99.7%
 EFF. MASS   1.1360

 SYMMETRY NUMBER FOR POINT-GROUP C1  =  1


          SYSTEM IS A GROUND STATE


    NULL



          MOLECULE IS NOT LINEAR

          THERE ARE 81 GENUINE VIBRATIONS IN THIS SYSTEM
          THIS THERMODYNAMICS CALCULATION IS LIMITED TO
          MOLECULES WHICH HAVE NO INTERNAL ROTATIONS




                    CALCULATED THERMODYNAMIC PROPERTIES
                                          *
   TEMP. (K)   PARTITION FUNCTION   H.O.F.    ENTHALPY  HEAT CAPACITY ENTROPY
                                   KCAL/MOL   CAL/MOLE    CAL/K/MOL  CAL/K/MOL


 298.00  VIB.     0.2879D+05                  6271.3017    40.8416    41.4489
         ROT.     0.1669D+07                   888.2813     2.9808    31.4535
         INT.     0.4806D+11                  7159.5830    43.8224    72.9023
         TRA.     0.1781D+28                  1480.4688     4.9680    40.9296
         TOT.                        8.174    8640.0518    48.7904   113.8320

 200.00  VIB.     0.8283D+03                  2960.7493    27.3070    28.1566
         ROT.     0.9179D+06                   596.1620     2.9808    30.2648
         INT.     0.7603D+09                  3556.9112    30.2878    58.4214
         TRA.     0.9791D+27                   993.6033     4.9680    38.9485
         TOT.                        4.085    4550.5145    35.2558    97.3699

 210.00  VIB.     0.1200D+04                  3239.8168    28.5135    29.5180
         ROT.     0.9876D+06                   625.9700     2.9808    30.4102
         INT.     0.1186D+10                  3865.7869    31.4943    59.9282
         TRA.     0.1053D+28                  1043.2834     4.9680    39.1909
         TOT.                        4.443    4909.0703    36.4624    99.1191

 220.00  VIB.     0.1735D+04                  3531.1633    29.7630    30.8731
         ROT.     0.1059D+07                   655.7781     2.9808    30.5489
         INT.     0.1837D+10                  4186.9415    32.7438    61.4220
         TRA.     0.1130D+28                  1092.9636     4.9680    39.4220
         TOT.                        4.814    5279.9050    37.7119   100.8440

 230.00  VIB.     0.2502D+04                  3835.2237    31.0563    32.2245
         ROT.     0.1132D+07                   685.5862     2.9808    30.6814
         INT.     0.2832D+10                  4520.8100    34.0371    62.9059
         TRA.     0.1207D+28                  1142.6437     4.9680    39.6428
         TOT.                        5.198    5663.4537    39.0052   102.5487

 240.00  VIB.     0.3600D+04                  4152.4339    32.3927    33.5743
         ROT.     0.1207D+07                   715.3943     2.9808    30.8083
         INT.     0.4343D+10                  4867.8282    35.3736    64.3826
         TRA.     0.1287D+28                  1192.3239     4.9680    39.8543
         TOT.                        5.594    6060.1521    40.3416   104.2368

 250.00  VIB.     0.5169D+04                  4483.2158    33.7703    34.9244
         ROT.     0.1283D+07                   745.2024     2.9808    30.9299
         INT.     0.6631D+10                  5228.4183    36.7511    65.8544
         TRA.     0.1368D+28                  1242.0041     4.9680    40.0571
         TOT.                        6.005    6470.4223    41.7191   105.9114

 260.00  VIB.     0.7410D+04                  4827.9666    35.1859    36.2764
         ROT.     0.1361D+07                   775.0105     2.9808    31.0469
         INT.     0.1008D+11                  5602.9771    38.1667    67.3232
         TRA.     0.1451D+28                  1291.6842     4.9680    40.2519
         TOT.                        6.429    6894.6613    43.1348   107.5752

 270.00  VIB.     0.1061D+05                  5187.0490    36.6360    37.6314
         ROT.     0.1440D+07                   804.8186     2.9808    31.1593
         INT.     0.1527D+11                  5991.8677    39.6168    68.7908
         TRA.     0.1536D+28                  1341.3644     4.9680    40.4394
         TOT.                        6.867    7333.2321    44.5848   109.2302

 280.00  VIB.     0.1517D+05                  5560.7861    38.1161    38.9904
         ROT.     0.1520D+07                   834.6267     2.9808    31.2678
         INT.     0.2306D+11                  6395.4128    41.0969    70.2582
         TRA.     0.1622D+28                  1391.0445     4.9680    40.6201
         TOT.                        7.321    7786.4574    46.0649   110.8783

 290.00  VIB.     0.2166D+05                  5949.4562    39.6218    40.3542
         ROT.     0.1603D+07                   864.4348     2.9808    31.3724
         INT.     0.3471D+11                  6813.8911    42.6026    71.7265
         TRA.     0.1710D+28                  1440.7247     4.9680    40.7944
         TOT.                        7.789    8254.6158    47.5706   112.5209

 300.00  VIB.     0.3091D+05                  6353.2915    41.1483    41.7231
         ROT.     0.1686D+07                   894.2429     2.9808    31.4734
         INT.     0.5212D+11                  7247.5344    44.1291    73.1965
         TRA.     0.1799D+28                  1490.4049     4.9680    40.9628
         TOT.                        8.272    8737.9393    49.0972   114.1593

 310.00  VIB.     0.4408D+05                  6772.4768    42.6910    43.0975
         ROT.     0.1771D+07                   924.0510     2.9808    31.5711
         INT.     0.7808D+11                  7696.5278    45.6718    74.6686
         TRA.     0.1889D+28                  1540.0850     4.9680    41.1257
         TOT.                        8.771    9236.6129    50.6399   115.7944

 320.00  VIB.     0.6283D+05                  7207.1506    44.2453    44.4774
         ROT.     0.1858D+07                   953.8591     2.9808    31.6658
         INT.     0.1167D+12                  8161.0097    47.2261    76.1431
         TRA.     0.1982D+28                  1589.7652     4.9680    41.2835
         TOT.                        9.285    9750.7749    52.1941   117.4266

 330.00  VIB.     0.8952D+05                  7657.4064    45.8067    45.8627
         ROT.     0.1945D+07                   983.6672     2.9808    31.7575
         INT.     0.1741D+12                  8641.0736    48.7875    77.6203
         TRA.     0.2075D+28                  1639.4454     4.9680    41.4364
         TOT.                        9.815   10280.5190    53.7555   119.0566

 340.00  VIB.     0.1275D+06                  8123.2951    47.3712    47.2534
         ROT.     0.2035D+07                  1013.4753     2.9808    31.8465
         INT.     0.2594D+12                  9136.7704    50.3520    79.0999
         TRA.     0.2170D+28                  1689.1255     4.9680    41.5847
         TOT.                       10.360   10825.8959    55.3200   120.6846

 350.00  VIB.     0.1816D+06                  8604.8279    48.9349    48.6492
         ROT.     0.2125D+07                  1043.2834     2.9808    31.9329
         INT.     0.3858D+12                  9648.1114    51.9157    80.5821
         TRA.     0.2267D+28                  1738.8057     4.9680    41.7287
         TOT.                       10.921   11386.9170    56.8838   122.3108

 360.00  VIB.     0.2586D+06                  9101.9795    50.4944    50.0496
         ROT.     0.2217D+07                  1073.0915     2.9808    32.0169
         INT.     0.5731D+12                 10175.0710    53.4752    82.0665
         TRA.     0.2364D+28                  1788.4859     4.9680    41.8686
         TOT.                       11.498   11963.5568    58.4432   123.9351

 370.00  VIB.     0.3682D+06                  9614.6910    52.0464    51.4543
         ROT.     0.2310D+07                  1102.8996     2.9808    32.0985
         INT.     0.8503D+12                 10717.5906    55.0272    83.5528
         TRA.     0.2464D+28                  1838.1660     4.9680    42.0047
         TOT.                       12.090   12555.7566    59.9953   125.5576

 380.00  VIB.     0.5243D+06                 10142.8741    53.5883    52.8628
         ROT.     0.2404D+07                  1132.7077     2.9808    32.1780
         INT.     0.1260D+13                 11275.5818    56.5691    85.0408
         TRA.     0.2564D+28                  1887.8462     4.9680    42.1372
         TOT.                       12.698   13163.4279    61.5371   127.1780

 390.00  VIB.     0.7466D+06                 10686.4137    55.1174    54.2745
         ROT.     0.2499D+07                  1162.5158     2.9808    32.2555
         INT.     0.1866D+13                 11848.9295    58.0982    86.5300
         TRA.     0.2666D+28                  1937.5263     4.9680    42.2663
         TOT.                       13.321   13786.4558    63.0662   128.7963

 400.00  VIB.     0.1063D+07                 11245.1718    56.6316    55.6891
         ROT.     0.2596D+07                  1192.3239     2.9808    32.3309
         INT.     0.2760D+13                 12437.4957    59.6124    88.0200
         TRA.     0.2769D+28                  1987.2065     4.9680    42.3921
         TOT.                       13.959   14424.7022    64.5804   130.4121

   *: NOTE: HEATS OF FORMATION ARE RELATIVE TO THE
            ELEMENTS IN THEIR STANDARD STATE AT 298K
              (=  Standard Enthalpy of Formation).

            Hvib:  Zero-point energy is not included.
                   frequencies of less than zero cm-1 are not included.
            Hrot = (3/2)RT
            Htra = (3/2)RT + pV = (5/2)RT

            Heat capacity is Cp, not Cv

           For more information, see: HTTP://OpenMOPAC.net/Manual/thermochemistry.html


           FORCE CONSTANT IN CARTESIAN COORDINATES (Millidynes/A)

    ATOM   CHEMICAL       X               Y               Z
   NUMBER   SYMBOL  FORCE CONSTANT  FORCE CONSTANT  FORCE CONSTANT

      1       C        7.660436        7.988584        9.336491
      2       C        7.680458        7.980480        9.319784
      3       C        8.077061        7.790748        8.596579
      4       C        8.077881        7.789376        8.593786
      5       C        8.192939        8.414843        8.815438
      6       C        8.237525        8.295140        8.323599
      7       C        8.276498        8.286345        8.893480
      8       C        9.315622        8.738878        9.371400
      9       C        8.937075        9.101187        9.384493
     10       C        9.142374        8.783734        9.267194
     11       C        8.797394        8.957691        9.432873
     12       H        1.374765        1.343295        3.546720
     13       H        1.373702        1.257032        3.636010
     14       H        1.355480        1.485402        3.787627
     15       H        1.581102        1.458599        3.595194
     16       H        1.355382        1.381071        3.890525
     17       H        1.581621        1.561976        3.491752
     18       H        1.867121        0.919180        3.613338
     19       H        4.243804        1.331727        0.700240
     20       H        2.029541        0.981174        3.775713
     21       H        4.608065        1.466244        0.712173
     22       H        1.601637        1.478563        3.714033
     23       H        0.769460        5.218099        0.677887
     24       H        5.215246        0.771013        0.676742
     25       H        1.372793        1.374250        4.025506
     26       H        1.041930        1.076022        4.093651
     27       H        1.094151        0.944050        4.178477
     28       H        1.110537        0.927671        4.169477
     29       H        1.037945        1.075785        4.107667



 TOTAL CPU TIME:             7.89 SECONDS

 == MOPAC DONE ==
