 *******************************************************************************
 ** Site#: 14399           For non-commercial use only        Version 13.159M **
 *******************************************************************************
 ** Cite this work as: MOPAC2012, James J. P. Stewart, Stewart Computational  **
 ** Chemistry, Version 13.159M web: HTTP://OpenMOPAC.net  Days remaining:   6 **
 *******************************************************************************
 **                                                                           **
 **                                MOPAC2012                                  **
 **                                                                           **
 *******************************************************************************

                            PM3 CALCULATION RESULTS


 *******************************************************************************
 *  CALCULATION DONE:                                Mon Jun  2 11:03:09 2014  *
 *  PM3      - The PM3 Hamiltonian to be used
 *  PRECISE  - CRITERIA TO BE INCREASED BY 100 TIMES
 *  NOSYM    - POINT-GROUP SYMMETRY SET TO C1
 *  T=       - A TIME OF 172800.0 SECONDS REQUESTED
 *  DUMP=N   - RESTART FILE WRITTEN EVERY  7200.000 SECONDS
 *******************************************************************************
pm3  precise nosym
 InChI=1S/C12H20/c1-4-7-8-11-9-10(5-2)12(11)6-3/h5,7-8,10-12H,2,4,6,9H2,1,3H3

   ATOM   CHEMICAL          X               Y               Z
  NUMBER   SYMBOL      (ANGSTROMS)     (ANGSTROMS)     (ANGSTROMS)
 
     1       C         -0.83680000  *  -0.27080000  *   0.01480000  *
     2       C          0.13550000  *   0.29230000  *   1.10640000  *
     3       C         -1.83970000  *   0.80860000  *   0.43730000  *
     4       C         -0.78190000  *   1.50710000  *   1.22750000  *
     5       C         -1.27590000  *  -1.72190000  *   0.24360000  *
     6       C          3.77500000  *  -0.18720000  *  -0.16300000  *
     7       C         -2.32910000  *  -2.17140000  *  -0.76270000  *
     8       C          3.97480000  *  -0.77650000  *  -1.55320000  *
     9       C          1.53220000  *   0.57280000  *   0.61990000  *
    10       C          2.37570000  *  -0.42580000  *   0.32810000  *
    11       C         -2.43410000  *   1.60510000  *  -0.69480000  *
    12       C         -3.22210000  *   2.65890000  *  -0.47010000  *
    13       H         -0.42730000  *  -0.12420000  *  -1.01550000  *
    14       H          0.14060000  *  -0.29890000  *   2.05430000  *
    15       H         -2.64370000  *   0.41160000  *   1.10420000  *
    16       H         -1.08720000  *   1.72000000  *   2.27850000  *
    17       H         -0.38570000  *   2.42520000  *   0.72970000  *
    18       H         -1.67380000  *  -1.86620000  *   1.27520000  *
    19       H         -0.38510000  *  -2.38330000  *   0.14130000  *
    20       H          4.48350000  *  -0.67140000  *   0.54710000  *
    21       H          4.03460000  *   0.89700000  *  -0.19500000  *
    22       H          3.28920000  *  -0.29490000  *  -2.28780000  *
    23       H          5.02180000  *  -0.60230000  *  -1.89030000  *
    24       H          3.79220000  *  -1.87570000  *  -1.55200000  *
    25       H         -3.25610000  *  -1.56140000  *  -0.66770000  *
    26       H         -1.94460000  *  -2.08540000  *  -1.80470000  *
    27       H         -2.59680000  *  -3.23650000  *  -0.57880000  *
    28       H          2.04860000  *  -1.45920000  *   0.44360000  *
    29       H          1.86030000  *   1.60630000  *   0.51240000  *
    30       H         -2.24270000  *   1.31010000  *  -1.72580000  *
    31       H         -3.64830000  *   3.21110000  *  -1.30550000  *
    32       H         -3.45300000  *   2.98680000  *   0.54230000  *
 


          CARTESIAN COORDINATES 

    NO.       ATOM         X         Y         Z

     1         C       -0.8368   -0.2708    0.0148
     2         C        0.1355    0.2923    1.1064
     3         C       -1.8397    0.8086    0.4373
     4         C       -0.7819    1.5071    1.2275
     5         C       -1.2759   -1.7219    0.2436
     6         C        3.7750   -0.1872   -0.1630
     7         C       -2.3291   -2.1714   -0.7627
     8         C        3.9748   -0.7765   -1.5532
     9         C        1.5322    0.5728    0.6199
    10         C        2.3757   -0.4258    0.3281
    11         C       -2.4341    1.6051   -0.6948
    12         C       -3.2221    2.6589   -0.4701
    13         H       -0.4273   -0.1242   -1.0155
    14         H        0.1406   -0.2989    2.0543
    15         H       -2.6437    0.4116    1.1042
    16         H       -1.0872    1.7200    2.2785
    17         H       -0.3857    2.4252    0.7297
    18         H       -1.6738   -1.8662    1.2752
    19         H       -0.3851   -2.3833    0.1413
    20         H        4.4835   -0.6714    0.5471
    21         H        4.0346    0.8970   -0.1950
    22         H        3.2892   -0.2949   -2.2878
    23         H        5.0218   -0.6023   -1.8903
    24         H        3.7922   -1.8757   -1.5520
    25         H       -3.2561   -1.5614   -0.6677
    26         H       -1.9446   -2.0854   -1.8047
    27         H       -2.5968   -3.2365   -0.5788
    28         H        2.0486   -1.4592    0.4436
    29         H        1.8603    1.6063    0.5124
    30         H       -2.2427    1.3101   -1.7258
    31         H       -3.6483    3.2111   -1.3055
    32         H       -3.4530    2.9868    0.5423

  H: (PM3): J. J. P. STEWART, J. COMP. CHEM. 10, 209 (1989).
  C: (PM3): J. J. P. STEWART, J. COMP. CHEM. 10, 209 (1989).

           Empirical Formula: C12 H20  =    32 atoms



      MOLECULAR POINT GROUP   :   C1  


      RHF CALCULATION, NO. OF DOUBLY OCCUPIED LEVELS =   34

      Geometry optimization using EF

          DIAGONAL MATRIX USED AS START HESSIAN

 CYCLE:     1 TIME:   0.018 TIME LEFT:  2.00D  GRAD.:   110.700 HEAT: 13.47329
 CYCLE:     2 TIME:   0.026 TIME LEFT:  2.00D  GRAD.:   111.471 HEAT: 12.29913
 CYCLE:     3 TIME:   0.014 TIME LEFT:  2.00D  GRAD.:   109.690 HEAT: 11.61902
 CYCLE:     4 TIME:   0.025 TIME LEFT:  2.00D  GRAD.:    43.112 HEAT: 9.215893
 CYCLE:     5 TIME:   0.025 TIME LEFT:  2.00D  GRAD.:    36.224 HEAT: 8.779167
 CYCLE:     6 TIME:   0.014 TIME LEFT:  2.00D  GRAD.:    43.211 HEAT: 8.670421
 CYCLE:     7 TIME:   0.014 TIME LEFT:  2.00D  GRAD.:    24.825 HEAT: 8.296877
 CYCLE:     8 TIME:   0.029 TIME LEFT:  2.00D  GRAD.:    26.363 HEAT: 8.216888
 CYCLE:     9 TIME:   0.018 TIME LEFT:  2.00D  GRAD.:    19.704 HEAT: 8.067747
 CYCLE:    10 TIME:   0.030 TIME LEFT:  2.00D  GRAD.:    15.770 HEAT: 7.994400
 CYCLE:    11 TIME:   0.014 TIME LEFT:  2.00D  GRAD.:    17.948 HEAT: 7.964442
 CYCLE:    12 TIME:   0.014 TIME LEFT:  2.00D  GRAD.:    15.250 HEAT: 7.925697
 CYCLE:    13 TIME:   0.014 TIME LEFT:  2.00D  GRAD.:    14.499 HEAT: 7.894677
 CYCLE:    14 TIME:   0.024 TIME LEFT:  2.00D  GRAD.:     6.907 HEAT: 7.845794
 CYCLE:    15 TIME:   0.014 TIME LEFT:  2.00D  GRAD.:     9.975 HEAT: 7.843894
 CYCLE:    16 TIME:   0.014 TIME LEFT:  2.00D  GRAD.:     7.935 HEAT: 7.814494
 CYCLE:    17 TIME:   0.025 TIME LEFT:  2.00D  GRAD.:     7.619 HEAT: 7.801283
 CYCLE:    18 TIME:   0.013 TIME LEFT:  2.00D  GRAD.:     7.777 HEAT: 7.792736
 CYCLE:    19 TIME:   0.014 TIME LEFT:  2.00D  GRAD.:     6.253 HEAT: 7.775265
 CYCLE:    20 TIME:   0.013 TIME LEFT:  2.00D  GRAD.:     6.780 HEAT: 7.762245
 CYCLE:    21 TIME:   0.013 TIME LEFT:  2.00D  GRAD.:    10.478 HEAT: 7.759412
 CYCLE:    22 TIME:   0.021 TIME LEFT:  2.00D  GRAD.:    11.883 HEAT: 7.756769
 CYCLE:    23 TIME:   0.024 TIME LEFT:  2.00D  GRAD.:     6.667 HEAT: 7.729710
 CYCLE:    24 TIME:   0.025 TIME LEFT:  2.00D  GRAD.:     4.156 HEAT: 7.717870
 CYCLE:    25 TIME:   0.014 TIME LEFT:  2.00D  GRAD.:     2.771 HEAT: 7.709496
 CYCLE:    26 TIME:   0.016 TIME LEFT:  2.00D  GRAD.:     5.631 HEAT: 7.701474
 CYCLE:    27 TIME:   0.026 TIME LEFT:  2.00D  GRAD.:     8.145 HEAT: 7.695009
 CYCLE:    28 TIME:   0.013 TIME LEFT:  2.00D  GRAD.:     9.102 HEAT: 7.689834
 CYCLE:    29 TIME:   0.013 TIME LEFT:  2.00D  GRAD.:     6.164 HEAT: 7.669021
 CYCLE:    30 TIME:   0.013 TIME LEFT:  2.00D  GRAD.:     6.730 HEAT: 7.659509
 CYCLE:    31 TIME:   0.013 TIME LEFT:  2.00D  GRAD.:     4.258 HEAT: 7.643649
 CYCLE:    32 TIME:   0.013 TIME LEFT:  2.00D  GRAD.:     5.105 HEAT: 7.632177
 CYCLE:    33 TIME:   0.013 TIME LEFT:  2.00D  GRAD.:     4.054 HEAT: 7.617308
 CYCLE:    34 TIME:   0.017 TIME LEFT:  2.00D  GRAD.:     4.949 HEAT: 7.603189
 CYCLE:    35 TIME:   0.014 TIME LEFT:  2.00D  GRAD.:     6.416 HEAT: 7.593658
 CYCLE:    36 TIME:   0.014 TIME LEFT:  2.00D  GRAD.:     4.193 HEAT: 7.575819
 CYCLE:    37 TIME:   0.014 TIME LEFT:  2.00D  GRAD.:     3.698 HEAT: 7.562637
 CYCLE:    38 TIME:   0.014 TIME LEFT:  2.00D  GRAD.:     3.801 HEAT: 7.546976
 CYCLE:    39 TIME:   0.014 TIME LEFT:  2.00D  GRAD.:     4.171 HEAT: 7.530464
 CYCLE:    40 TIME:   0.014 TIME LEFT:  2.00D  GRAD.:     3.871 HEAT: 7.516384
 CYCLE:    41 TIME:   0.014 TIME LEFT:  2.00D  GRAD.:     3.699 HEAT: 7.495965
 CYCLE:    42 TIME:   0.014 TIME LEFT:  2.00D  GRAD.:     4.474 HEAT: 7.471837
 CYCLE:    43 TIME:   0.015 TIME LEFT:  2.00D  GRAD.:     4.163 HEAT: 7.454408
 CYCLE:    44 TIME:   0.015 TIME LEFT:  2.00D  GRAD.:     3.860 HEAT: 7.429123
 CYCLE:    45 TIME:   0.015 TIME LEFT:  2.00D  GRAD.:     5.312 HEAT: 7.366162
 CYCLE:    46 TIME:   0.018 TIME LEFT:  2.00D  GRAD.:     4.179 HEAT: 7.331145
 CYCLE:    47 TIME:   0.022 TIME LEFT:  2.00D  GRAD.:     3.417 HEAT: 7.305541
 CYCLE:    48 TIME:   0.015 TIME LEFT:  2.00D  GRAD.:     3.453 HEAT: 7.293376
 CYCLE:    49 TIME:   0.014 TIME LEFT:  2.00D  GRAD.:     2.591 HEAT: 7.283475
 CYCLE:    50 TIME:   0.014 TIME LEFT:  2.00D  GRAD.:     2.593 HEAT: 7.271507
 CYCLE:    51 TIME:   0.014 TIME LEFT:  2.00D  GRAD.:     2.582 HEAT: 7.260320
 CYCLE:    52 TIME:   0.014 TIME LEFT:  2.00D  GRAD.:     2.134 HEAT: 7.252194
 CYCLE:    53 TIME:   0.014 TIME LEFT:  2.00D  GRAD.:     2.116 HEAT: 7.244476
 CYCLE:    54 TIME:   0.014 TIME LEFT:  2.00D  GRAD.:     2.676 HEAT: 7.235282
 CYCLE:    55 TIME:   0.014 TIME LEFT:  2.00D  GRAD.:     2.360 HEAT: 7.225290
 CYCLE:    56 TIME:   0.015 TIME LEFT:  2.00D  GRAD.:     1.884 HEAT: 7.216844
 CYCLE:    57 TIME:   0.017 TIME LEFT:  2.00D  GRAD.:     1.930 HEAT: 7.211575
 CYCLE:    58 TIME:   0.015 TIME LEFT:  2.00D  GRAD.:     2.024 HEAT: 7.207739
 CYCLE:    59 TIME:   0.015 TIME LEFT:  2.00D  GRAD.:     1.424 HEAT: 7.203686
 CYCLE:    60 TIME:   0.014 TIME LEFT:  2.00D  GRAD.:     0.988 HEAT: 7.200179
 CYCLE:    61 TIME:   0.014 TIME LEFT:  2.00D  GRAD.:     1.193 HEAT: 7.197215
 CYCLE:    62 TIME:   0.014 TIME LEFT:  2.00D  GRAD.:     1.247 HEAT: 7.193880
 CYCLE:    63 TIME:   0.014 TIME LEFT:  2.00D  GRAD.:     1.391 HEAT: 7.190590
 CYCLE:    64 TIME:   0.014 TIME LEFT:  2.00D  GRAD.:     1.332 HEAT: 7.187241
 CYCLE:    65 TIME:   0.014 TIME LEFT:  2.00D  GRAD.:     1.418 HEAT: 7.183283
 CYCLE:    66 TIME:   0.014 TIME LEFT:  2.00D  GRAD.:     1.578 HEAT: 7.177782
 CYCLE:    67 TIME:   0.014 TIME LEFT:  2.00D  GRAD.:     1.506 HEAT: 7.172887
 CYCLE:    68 TIME:   0.014 TIME LEFT:  2.00D  GRAD.:     1.498 HEAT: 7.166387
 CYCLE:    69 TIME:   0.014 TIME LEFT:  2.00D  GRAD.:     1.362 HEAT: 7.162816
 CYCLE:    70 TIME:   0.014 TIME LEFT:  2.00D  GRAD.:     1.514 HEAT: 7.156555
 CYCLE:    71 TIME:   0.013 TIME LEFT:  2.00D  GRAD.:     1.097 HEAT: 7.154250
 CYCLE:    72 TIME:   0.013 TIME LEFT:  2.00D  GRAD.:     0.871 HEAT: 7.150433
 CYCLE:    73 TIME:   0.014 TIME LEFT:  2.00D  GRAD.:     1.008 HEAT: 7.148779
 CYCLE:    74 TIME:   0.018 TIME LEFT:  2.00D  GRAD.:     1.045 HEAT: 7.145969
 CYCLE:    75 TIME:   0.016 TIME LEFT:  2.00D  GRAD.:     0.893 HEAT: 7.144348
 CYCLE:    76 TIME:   0.014 TIME LEFT:  2.00D  GRAD.:     0.871 HEAT: 7.141680
 CYCLE:    77 TIME:   0.016 TIME LEFT:  2.00D  GRAD.:     0.850 HEAT: 7.140497
 CYCLE:    78 TIME:   0.019 TIME LEFT:  2.00D  GRAD.:     1.001 HEAT: 7.137513
 CYCLE:    79 TIME:   0.018 TIME LEFT:  2.00D  GRAD.:     0.853 HEAT: 7.136134
 CYCLE:    80 TIME:   0.014 TIME LEFT:  2.00D  GRAD.:     0.818 HEAT: 7.133705
 CYCLE:    81 TIME:   0.014 TIME LEFT:  2.00D  GRAD.:     0.863 HEAT: 7.132453
 CYCLE:    82 TIME:   0.014 TIME LEFT:  2.00D  GRAD.:     0.927 HEAT: 7.129752
 CYCLE:    83 TIME:   0.014 TIME LEFT:  2.00D  GRAD.:     0.782 HEAT: 7.128674
 CYCLE:    84 TIME:   0.014 TIME LEFT:  2.00D  GRAD.:     0.621 HEAT: 7.127194
 CYCLE:    85 TIME:   0.014 TIME LEFT:  2.00D  GRAD.:     0.646 HEAT: 7.126483
 CYCLE:    86 TIME:   0.014 TIME LEFT:  2.00D  GRAD.:     0.532 HEAT: 7.125372
 CYCLE:    87 TIME:   0.014 TIME LEFT:  2.00D  GRAD.:     0.498 HEAT: 7.124681
 CYCLE:    88 TIME:   0.014 TIME LEFT:  2.00D  GRAD.:     0.493 HEAT: 7.124153
 CYCLE:    89 TIME:   0.014 TIME LEFT:  2.00D  GRAD.:     0.549 HEAT: 7.123305
 CYCLE:    90 TIME:   0.014 TIME LEFT:  2.00D  GRAD.:     0.521 HEAT: 7.122659
 CYCLE:    91 TIME:   0.014 TIME LEFT:  2.00D  GRAD.:     0.459 HEAT: 7.122083
 CYCLE:    92 TIME:   0.015 TIME LEFT:  2.00D  GRAD.:     0.431 HEAT: 7.121603
 CYCLE:    93 TIME:   0.014 TIME LEFT:  2.00D  GRAD.:     0.410 HEAT: 7.121221
 CYCLE:    94 TIME:   0.014 TIME LEFT:  2.00D  GRAD.:     0.357 HEAT: 7.120883
 CYCLE:    95 TIME:   0.016 TIME LEFT:  2.00D  GRAD.:     0.308 HEAT: 7.120653
 CYCLE:    96 TIME:   0.017 TIME LEFT:  2.00D  GRAD.:     0.320 HEAT: 7.120418
 CYCLE:    97 TIME:   0.014 TIME LEFT:  2.00D  GRAD.:     0.327 HEAT: 7.120227
 CYCLE:    98 TIME:   0.014 TIME LEFT:  2.00D  GRAD.:     0.333 HEAT: 7.119927
 CYCLE:    99 TIME:   0.014 TIME LEFT:  2.00D  GRAD.:     0.323 HEAT: 7.119663
 CYCLE:   100 TIME:   0.018 TIME LEFT:  2.00D  GRAD.:     0.319 HEAT: 7.119380
 CYCLE:   101 TIME:   0.015 TIME LEFT:  2.00D  GRAD.:     0.331 HEAT: 7.119118
 CYCLE:   102 TIME:   0.016 TIME LEFT:  2.00D  GRAD.:     0.342 HEAT: 7.118831
 CYCLE:   103 TIME:   0.014 TIME LEFT:  2.00D  GRAD.:     0.347 HEAT: 7.118509
 CYCLE:   104 TIME:   0.014 TIME LEFT:  2.00D  GRAD.:     0.374 HEAT: 7.118103
 CYCLE:   105 TIME:   0.014 TIME LEFT:  2.00D  GRAD.:     0.479 HEAT: 7.117592
 CYCLE:   106 TIME:   0.014 TIME LEFT:  2.00D  GRAD.:     0.519 HEAT: 7.117099
 CYCLE:   107 TIME:   0.014 TIME LEFT:  2.00D  GRAD.:     0.769 HEAT: 7.115866
 CYCLE:   108 TIME:   0.014 TIME LEFT:  2.00D  GRAD.:     0.790 HEAT: 7.114929
 CYCLE:   109 TIME:   0.016 TIME LEFT:  2.00D  GRAD.:     2.118 HEAT: 7.108394
 CYCLE:   110 TIME:   0.014 TIME LEFT:  2.00D  GRAD.:     1.638 HEAT: 7.104837
 CYCLE:   111 TIME:   0.015 TIME LEFT:  2.00D  GRAD.:     1.428 HEAT: 7.096164
 CYCLE:   112 TIME:   0.015 TIME LEFT:  2.00D  GRAD.:     3.812 HEAT: 7.093186
 CYCLE:   113 TIME:   0.014 TIME LEFT:  2.00D  GRAD.:     1.633 HEAT: 7.087070
 CYCLE:   114 TIME:   0.014 TIME LEFT:  2.00D  GRAD.:     1.145 HEAT: 7.082760
 CYCLE:   115 TIME:   0.017 TIME LEFT:  2.00D  GRAD.:     2.331 HEAT: 7.077123
 CYCLE:   116 TIME:   0.016 TIME LEFT:  2.00D  GRAD.:     1.176 HEAT: 7.074096
 CYCLE:   117 TIME:   0.015 TIME LEFT:  2.00D  GRAD.:     1.026 HEAT: 7.071243
 CYCLE:   118 TIME:   0.018 TIME LEFT:  2.00D  GRAD.:     0.956 HEAT: 7.067779
 CYCLE:   119 TIME:   0.022 TIME LEFT:  2.00D  GRAD.:     2.136 HEAT: 7.064311
 CYCLE:   120 TIME:   0.015 TIME LEFT:  2.00D  GRAD.:     1.740 HEAT: 7.061543
 CYCLE:   121 TIME:   0.016 TIME LEFT:  2.00D  GRAD.:     1.074 HEAT: 7.059130
 CYCLE:   122 TIME:   0.015 TIME LEFT:  2.00D  GRAD.:     2.231 HEAT: 7.056243
 CYCLE:   123 TIME:   0.014 TIME LEFT:  2.00D  GRAD.:     1.678 HEAT: 7.052962
 CYCLE:   124 TIME:   0.015 TIME LEFT:  2.00D  GRAD.:     1.661 HEAT: 7.047959
 CYCLE:   125 TIME:   0.015 TIME LEFT:  2.00D  GRAD.:     3.185 HEAT: 7.039764
 CYCLE:   126 TIME:   0.014 TIME LEFT:  2.00D  GRAD.:     2.205 HEAT: 7.031786
 CYCLE:   127 TIME:   0.015 TIME LEFT:  2.00D  GRAD.:     2.318 HEAT: 7.019111
 CYCLE:   128 TIME:   0.015 TIME LEFT:  2.00D  GRAD.:     7.934 HEAT: 7.015262
 CYCLE:   129 TIME:   0.017 TIME LEFT:  2.00D  GRAD.:     5.067 HEAT: 7.005946
 CYCLE:   130 TIME:   0.015 TIME LEFT:  2.00D  GRAD.:     2.287 HEAT: 6.990397
 CYCLE:   131 TIME:   0.015 TIME LEFT:  2.00D  GRAD.:     3.514 HEAT: 6.974495
 CYCLE:   132 TIME:   0.026 TIME LEFT:  2.00D  GRAD.:     5.117 HEAT: 6.957633
 CYCLE:   133 TIME:   0.014 TIME LEFT:  2.00D  GRAD.:    12.578 HEAT: 6.936528
 CYCLE:   134 TIME:   0.016 TIME LEFT:  2.00D  GRAD.:     4.323 HEAT: 6.906060
 CYCLE:   135 TIME:   0.028 TIME LEFT:  2.00D  GRAD.:     5.695 HEAT: 6.895879
 CYCLE:   136 TIME:   0.025 TIME LEFT:  2.00D  GRAD.:     4.634 HEAT: 6.877595
 CYCLE:   137 TIME:   0.014 TIME LEFT:  2.00D  GRAD.:     2.819 HEAT: 6.859103
 CYCLE:   138 TIME:   0.014 TIME LEFT:  2.00D  GRAD.:     3.381 HEAT: 6.842226
 CYCLE:   139 TIME:   0.015 TIME LEFT:  2.00D  GRAD.:     7.265 HEAT: 6.827999
 CYCLE:   140 TIME:   0.013 TIME LEFT:  2.00D  GRAD.:     2.403 HEAT: 6.808523
 CYCLE:   141 TIME:   0.015 TIME LEFT:  2.00D  GRAD.:     2.651 HEAT: 6.797314
 CYCLE:   142 TIME:   0.014 TIME LEFT:  2.00D  GRAD.:     3.174 HEAT: 6.788492
 CYCLE:   143 TIME:   0.018 TIME LEFT:  2.00D  GRAD.:     2.957 HEAT: 6.777061
 CYCLE:   144 TIME:   0.015 TIME LEFT:  2.00D  GRAD.:     6.083 HEAT: 6.758234
 CYCLE:   145 TIME:   0.014 TIME LEFT:  2.00D  GRAD.:     4.704 HEAT: 6.745063
 CYCLE:   146 TIME:   0.014 TIME LEFT:  2.00D  GRAD.:     4.279 HEAT: 6.731502
 CYCLE:   147 TIME:   0.013 TIME LEFT:  2.00D  GRAD.:     2.935 HEAT: 6.721883
 CYCLE:   148 TIME:   0.014 TIME LEFT:  2.00D  GRAD.:     5.149 HEAT: 6.715846
 CYCLE:   149 TIME:   0.013 TIME LEFT:  2.00D  GRAD.:     2.693 HEAT: 6.706968
 CYCLE:   150 TIME:   0.014 TIME LEFT:  2.00D  GRAD.:     1.877 HEAT: 6.701176
 CYCLE:   151 TIME:   0.014 TIME LEFT:  2.00D  GRAD.:     1.515 HEAT: 6.695657
 CYCLE:   152 TIME:   0.014 TIME LEFT:  2.00D  GRAD.:     2.736 HEAT: 6.690983
 CYCLE:   153 TIME:   0.015 TIME LEFT:  2.00D  GRAD.:     1.952 HEAT: 6.687134
 CYCLE:   154 TIME:   0.017 TIME LEFT:  2.00D  GRAD.:     1.435 HEAT: 6.683033
 CYCLE:   155 TIME:   0.015 TIME LEFT:  2.00D  GRAD.:     1.709 HEAT: 6.678841
 CYCLE:   156 TIME:   0.014 TIME LEFT:  2.00D  GRAD.:     1.453 HEAT: 6.675982
 CYCLE:   157 TIME:   0.014 TIME LEFT:  2.00D  GRAD.:     1.377 HEAT: 6.671625
 CYCLE:   158 TIME:   0.015 TIME LEFT:  2.00D  GRAD.:     1.813 HEAT: 6.667241
 CYCLE:   159 TIME:   0.014 TIME LEFT:  2.00D  GRAD.:     1.587 HEAT: 6.663030
 CYCLE:   160 TIME:   0.014 TIME LEFT:  2.00D  GRAD.:     1.477 HEAT: 6.659063
 CYCLE:   161 TIME:   0.014 TIME LEFT:  2.00D  GRAD.:     1.419 HEAT: 6.655865
 CYCLE:   162 TIME:   0.014 TIME LEFT:  2.00D  GRAD.:     1.050 HEAT: 6.654149
 CYCLE:   163 TIME:   0.014 TIME LEFT:  2.00D  GRAD.:     0.867 HEAT: 6.652748
 CYCLE:   164 TIME:   0.014 TIME LEFT:  2.00D  GRAD.:     0.819 HEAT: 6.651529
 CYCLE:   165 TIME:   0.014 TIME LEFT:  2.00D  GRAD.:     0.827 HEAT: 6.650830
 CYCLE:   166 TIME:   0.014 TIME LEFT:  2.00D  GRAD.:     1.081 HEAT: 6.648917
 CYCLE:   167 TIME:   0.014 TIME LEFT:  2.00D  GRAD.:     1.126 HEAT: 6.647515
 CYCLE:   168 TIME:   0.015 TIME LEFT:  2.00D  GRAD.:     1.400 HEAT: 6.644252
 CYCLE:   169 TIME:   0.014 TIME LEFT:  2.00D  GRAD.:     1.230 HEAT: 6.642898
 CYCLE:   170 TIME:   0.014 TIME LEFT:  2.00D  GRAD.:     1.493 HEAT: 6.639518
 CYCLE:   171 TIME:   0.014 TIME LEFT:  2.00D  GRAD.:     1.154 HEAT: 6.637964
 CYCLE:   172 TIME:   0.015 TIME LEFT:  2.00D  GRAD.:     1.587 HEAT: 6.633700
 CYCLE:   173 TIME:   0.014 TIME LEFT:  2.00D  GRAD.:     1.145 HEAT: 6.632131
 CYCLE:   174 TIME:   0.014 TIME LEFT:  2.00D  GRAD.:     1.145 HEAT: 6.629251
 CYCLE:   175 TIME:   0.014 TIME LEFT:  2.00D  GRAD.:     0.661 HEAT: 6.628222
 CYCLE:   176 TIME:   0.016 TIME LEFT:  2.00D  GRAD.:     0.718 HEAT: 6.626887
 CYCLE:   177 TIME:   0.015 TIME LEFT:  2.00D  GRAD.:     0.682 HEAT: 6.625968
 CYCLE:   178 TIME:   0.015 TIME LEFT:  2.00D  GRAD.:     0.699 HEAT: 6.625018
 CYCLE:   179 TIME:   0.014 TIME LEFT:  2.00D  GRAD.:     0.582 HEAT: 6.624097
 CYCLE:   180 TIME:   0.014 TIME LEFT:  2.00D  GRAD.:     0.540 HEAT: 6.623424
 CYCLE:   181 TIME:   0.014 TIME LEFT:  2.00D  GRAD.:     0.507 HEAT: 6.622955
 CYCLE:   182 TIME:   0.014 TIME LEFT:  2.00D  GRAD.:     0.540 HEAT: 6.622415
 CYCLE:   183 TIME:   0.014 TIME LEFT:  2.00D  GRAD.:     0.622 HEAT: 6.621722
 CYCLE:   184 TIME:   0.014 TIME LEFT:  2.00D  GRAD.:     0.821 HEAT: 6.620625
 CYCLE:   185 TIME:   0.014 TIME LEFT:  2.00D  GRAD.:     0.771 HEAT: 6.619895
 CYCLE:   186 TIME:   0.014 TIME LEFT:  2.00D  GRAD.:     0.954 HEAT: 6.618444
 CYCLE:   187 TIME:   0.015 TIME LEFT:  2.00D  GRAD.:     0.975 HEAT: 6.617567
 CYCLE:   188 TIME:   0.015 TIME LEFT:  2.00D  GRAD.:     1.252 HEAT: 6.615075
 CYCLE:   189 TIME:   0.014 TIME LEFT:  2.00D  GRAD.:     0.902 HEAT: 6.614156
 CYCLE:   190 TIME:   0.014 TIME LEFT:  2.00D  GRAD.:     0.931 HEAT: 6.612139
 CYCLE:   191 TIME:   0.014 TIME LEFT:  2.00D  GRAD.:     0.905 HEAT: 6.610813
 CYCLE:   192 TIME:   0.015 TIME LEFT:  2.00D  GRAD.:     1.627 HEAT: 6.607325
 CYCLE:   193 TIME:   0.014 TIME LEFT:  2.00D  GRAD.:     1.111 HEAT: 6.606092
 CYCLE:   194 TIME:   0.014 TIME LEFT:  2.00D  GRAD.:     0.613 HEAT: 6.604924
 CYCLE:   195 TIME:   0.015 TIME LEFT:  2.00D  GRAD.:     0.557 HEAT: 6.603791
 CYCLE:   196 TIME:   0.013 TIME LEFT:  2.00D  GRAD.:     0.453 HEAT: 6.603412
 CYCLE:   197 TIME:   0.018 TIME LEFT:  2.00D  GRAD.:     0.310 HEAT: 6.603065
 CYCLE:   198 TIME:   0.017 TIME LEFT:  2.00D  GRAD.:     0.276 HEAT: 6.602880
 CYCLE:   199 TIME:   0.016 TIME LEFT:  2.00D  GRAD.:     0.316 HEAT: 6.602714
 CYCLE:   200 TIME:   0.015 TIME LEFT:  2.00D  GRAD.:     0.372 HEAT: 6.602409
 CYCLE:   201 TIME:   0.015 TIME LEFT:  2.00D  GRAD.:     0.457 HEAT: 6.602104
 CYCLE:   202 TIME:   0.014 TIME LEFT:  2.00D  GRAD.:     0.365 HEAT: 6.601935
 CYCLE:   203 TIME:   0.014 TIME LEFT:  2.00D  GRAD.:     0.330 HEAT: 6.601782
 CYCLE:   204 TIME:   0.013 TIME LEFT:  2.00D  GRAD.:     0.262 HEAT: 6.601729
 CYCLE:   205 TIME:   0.014 TIME LEFT:  2.00D  GRAD.:     0.295 HEAT: 6.601547
 CYCLE:   206 TIME:   0.014 TIME LEFT:  2.00D  GRAD.:     0.267 HEAT: 6.601427
 CYCLE:   207 TIME:   0.014 TIME LEFT:  2.00D  GRAD.:     0.462 HEAT: 6.601158
 CYCLE:   208 TIME:   0.014 TIME LEFT:  2.00D  GRAD.:     0.496 HEAT: 6.601019
 CYCLE:   209 TIME:   0.014 TIME LEFT:  2.00D  GRAD.:     0.697 HEAT: 6.600282
 CYCLE:   210 TIME:   0.014 TIME LEFT:  2.00D  GRAD.:     0.664 HEAT: 6.599587
 CYCLE:   211 TIME:   0.015 TIME LEFT:  2.00D  GRAD.:     1.243 HEAT: 6.597907
 CYCLE:   212 TIME:   0.014 TIME LEFT:  2.00D  GRAD.:     0.586 HEAT: 6.597180
 CYCLE:   213 TIME:   0.014 TIME LEFT:  2.00D  GRAD.:     0.627 HEAT: 6.596202
 CYCLE:   214 TIME:   0.015 TIME LEFT:  2.00D  GRAD.:     0.677 HEAT: 6.595006
 CYCLE:   215 TIME:   0.015 TIME LEFT:  2.00D  GRAD.:     1.449 HEAT: 6.593418
 CYCLE:   216 TIME:   0.014 TIME LEFT:  2.00D  GRAD.:     1.073 HEAT: 6.591795
 CYCLE:   217 TIME:   0.015 TIME LEFT:  2.00D  GRAD.:     1.323 HEAT: 6.589998
 CYCLE:   218 TIME:   0.015 TIME LEFT:  2.00D  GRAD.:     0.572 HEAT: 6.588543
 CYCLE:   219 TIME:   0.017 TIME LEFT:  2.00D  GRAD.:     1.371 HEAT: 6.588164
 CYCLE:   220 TIME:   0.017 TIME LEFT:  2.00D  GRAD.:     0.894 HEAT: 6.587705
 CYCLE:   221 TIME:   0.015 TIME LEFT:  2.00D  GRAD.:     0.703 HEAT: 6.586591
 CYCLE:   222 TIME:   0.016 TIME LEFT:  2.00D  GRAD.:     1.047 HEAT: 6.585223
 CYCLE:   223 TIME:   0.028 TIME LEFT:  2.00D  GRAD.:     4.551 HEAT: 6.585156
 CYCLE:   224 TIME:   0.014 TIME LEFT:  2.00D  GRAD.:     1.545 HEAT: 6.582221
 CYCLE:   225 TIME:   0.015 TIME LEFT:  2.00D  GRAD.:     1.142 HEAT: 6.579384
 CYCLE:   226 TIME:   0.015 TIME LEFT:  2.00D  GRAD.:     5.041 HEAT: 6.579356
 CYCLE:   227 TIME:   0.014 TIME LEFT:  2.00D  GRAD.:     1.113 HEAT: 6.575228
 CYCLE:   228 TIME:   0.015 TIME LEFT:  2.00D  GRAD.:     1.064 HEAT: 6.572156
 CYCLE:   229 TIME:   0.015 TIME LEFT:  2.00D  GRAD.:     4.378 HEAT: 6.568466
 CYCLE:   230 TIME:   0.014 TIME LEFT:  2.00D  GRAD.:     0.619 HEAT: 6.563848
 CYCLE:   231 TIME:   0.015 TIME LEFT:  2.00D  GRAD.:     0.843 HEAT: 6.559944
 CYCLE:   232 TIME:   0.018 TIME LEFT:  2.00D  GRAD.:     3.704 HEAT: 6.559762
 CYCLE:   233 TIME:   0.015 TIME LEFT:  2.00D  GRAD.:     0.849 HEAT: 6.555816
 CYCLE:   234 TIME:   0.015 TIME LEFT:  2.00D  GRAD.:     0.974 HEAT: 6.554470
 CYCLE:   235 TIME:   0.015 TIME LEFT:  2.00D  GRAD.:     0.876 HEAT: 6.552954
 CYCLE:   236 TIME:   0.014 TIME LEFT:  2.00D  GRAD.:     0.581 HEAT: 6.552002
 CYCLE:   237 TIME:   0.014 TIME LEFT:  2.00D  GRAD.:     1.109 HEAT: 6.551137
 CYCLE:   238 TIME:   0.015 TIME LEFT:  2.00D  GRAD.:     0.716 HEAT: 6.550618
 CYCLE:   239 TIME:   0.014 TIME LEFT:  2.00D  GRAD.:     0.624 HEAT: 6.550279
 CYCLE:   240 TIME:   0.015 TIME LEFT:  2.00D  GRAD.:     0.819 HEAT: 6.549443
 CYCLE:   241 TIME:   0.014 TIME LEFT:  2.00D  GRAD.:     1.103 HEAT: 6.547987
 CYCLE:   242 TIME:   0.015 TIME LEFT:  2.00D  GRAD.:     1.689 HEAT: 6.546131
 CYCLE:   243 TIME:   0.014 TIME LEFT:  2.00D  GRAD.:     1.668 HEAT: 6.542765
 CYCLE:   244 TIME:   0.014 TIME LEFT:  2.00D  GRAD.:     1.810 HEAT: 6.538872
 CYCLE:   245 TIME:   0.014 TIME LEFT:  2.00D  GRAD.:     0.855 HEAT: 6.537417
 CYCLE:   246 TIME:   0.014 TIME LEFT:  2.00D  GRAD.:     0.513 HEAT: 6.536290
 CYCLE:   247 TIME:   0.014 TIME LEFT:  2.00D  GRAD.:     0.342 HEAT: 6.535837
 CYCLE:   248 TIME:   0.014 TIME LEFT:  2.00D  GRAD.:     0.151 HEAT: 6.535679
 CYCLE:   249 TIME:   0.014 TIME LEFT:  2.00D  GRAD.:     0.164 HEAT: 6.535623
 CYCLE:   250 TIME:   0.013 TIME LEFT:  2.00D  GRAD.:     0.080 HEAT: 6.535595
 CYCLE:   251 TIME:   0.013 TIME LEFT:  2.00D  GRAD.:     0.061 HEAT: 6.535584
 CYCLE:   252 TIME:   0.013 TIME LEFT:  2.00D  GRAD.:     0.065 HEAT: 6.535574
 CYCLE:   253 TIME:   0.013 TIME LEFT:  2.00D  GRAD.:     0.074 HEAT: 6.535567
 CYCLE:   254 TIME:   0.013 TIME LEFT:  2.00D  GRAD.:     0.082 HEAT: 6.535557
 CYCLE:   255 TIME:   0.013 TIME LEFT:  2.00D  GRAD.:     0.105 HEAT: 6.535546
 CYCLE:   256 TIME:   0.013 TIME LEFT:  2.00D  GRAD.:     0.247 HEAT: 6.535515
 CYCLE:   257 TIME:   0.013 TIME LEFT:  2.00D  GRAD.:     0.302 HEAT: 6.535462
 CYCLE:   258 TIME:   0.014 TIME LEFT:  2.00D  GRAD.:     0.352 HEAT: 6.535302
 CYCLE:   259 TIME:   0.016 TIME LEFT:  2.00D  GRAD.:     0.415 HEAT: 6.535093
 CYCLE:   260 TIME:   0.015 TIME LEFT:  2.00D  GRAD.:     0.566 HEAT: 6.534381
 CYCLE:   261 TIME:   0.018 TIME LEFT:  2.00D  GRAD.:     0.681 HEAT: 6.533547
 CYCLE:   262 TIME:   0.016 TIME LEFT:  2.00D  GRAD.:     0.689 HEAT: 6.532578
 CYCLE:   263 TIME:   0.015 TIME LEFT:  2.00D  GRAD.:     0.283 HEAT: 6.531870
 CYCLE:   264 TIME:   0.014 TIME LEFT:  2.00D  GRAD.:     0.203 HEAT: 6.531740
 CYCLE:   265 TIME:   0.014 TIME LEFT:  2.00D  GRAD.:     0.124 HEAT: 6.531690
 CYCLE:   266 TIME:   0.013 TIME LEFT:  2.00D  GRAD.:     0.081 HEAT: 6.531654
 CYCLE:   267 TIME:   0.014 TIME LEFT:  2.00D  GRAD.:     0.078 HEAT: 6.531623
 CYCLE:   268 TIME:   0.014 TIME LEFT:  2.00D  GRAD.:     0.054 HEAT: 6.531591
 CYCLE:   269 TIME:   0.014 TIME LEFT:  2.00D  GRAD.:     0.104 HEAT: 6.531596
 CYCLE:   270 TIME:   0.014 TIME LEFT:  2.00D  GRAD.:     0.047 HEAT: 6.531567

     RMS GRADIENT =  0.04680  IS LESS THAN CUTOFF =  0.05000



 -------------------------------------------------------------------------------
pm3  precise nosym
 InChI=1S/C12H20/c1-4-7-8-11-9-10(5-2)12(11)6-3/h5,7-8,10-12H,2,4,6,9H2,1,3H3



     GEOMETRY OPTIMISED USING EIGENVECTOR FOLLOWING (EF).     
     SCF FIELD WAS ACHIEVED                                   


                              PM3 CALCULATION
                                                       MOPAC2012 (Version: 13.159M)
                                                       Mon Jun  2 11:03:14 2014
                                                       No. of days left =   6




          FINAL HEAT OF FORMATION =          6.53157 KCAL/MOL =      27.32808 KJ/MOL


          TOTAL ENERGY            =      -1730.05533 EV
          ELECTRONIC ENERGY       =     -10945.74382 EV  POINT GROUP:     C1  
          CORE-CORE REPULSION     =       9215.68849 EV
          COSMO AREA              =        237.98 SQUARE ANGSTROMS
          COSMO VOLUME            =        253.49 CUBIC ANGSTROMS

          GRADIENT NORM           =          0.04680
          IONIZATION POTENTIAL    =          9.679650 EV
          HOMO LUMO ENERGIES (EV) =         -9.680  1.092
          NO. OF FILLED LEVELS    =         34
          MOLECULAR WEIGHT        =        164.290

          MOLECULAR DIMENSIONS (Angstroms)

            Atom       Atom       Distance
            H    20    H    31     8.63964
            H    23    H    27     6.53356
            H    24    H    16     5.61588


          SCF CALCULATIONS        =        285
          COMPUTATION TIME        =          4.115 SECONDS




   ATOM   CHEMICAL          X               Y               Z
  NUMBER   SYMBOL      (ANGSTROMS)     (ANGSTROMS)     (ANGSTROMS)
 
     1       C         -0.83717554  *  -0.26791103  *   0.21362175  *
     2       C          0.17591604  *   0.15650024  *   1.31631332  *
     3       C         -1.72570074  *   0.96201063  *   0.56734169  *
     4       C         -0.66831482  *   1.42203246  *   1.59785642  *
     5       C         -1.47639935  *  -1.62287258  *   0.43093839  *
     6       C          3.65325224  *  -0.22349481  *  -0.31679141  *
     7       C         -2.49506564  *  -1.94081996  *  -0.64065410  *
     8       C          3.82541754  *  -0.42175430  *  -1.80752839  *
     9       C          1.56835265  *   0.40511449  *   0.87146484  *
    10       C          2.24259062  *  -0.44760105  *   0.09848716  *
    11       C         -1.95211540  *   1.88751017  *  -0.57103866  *
    12       C         -3.08107396  *   1.89343836  *  -1.27098630  *
    13       H         -0.40894168  *  -0.20805137  *  -0.81102114  *
    14       H          0.20119459  *  -0.54825188  *   2.17648027  *
    15       H         -2.69215956  *   0.67484929  *   1.03666073  *
    16       H         -1.04054170  *   1.50580564  *   2.62948431  *
    17       H         -0.16744080  *   2.37291832  *   1.35400539  *
    18       H         -1.95186564  *  -1.66757234  *   1.43148308  *
    19       H         -0.68010277  *  -2.39410542  *   0.44311532  *
    20       H          4.29724538  *  -0.93342336  *   0.24051584  *
    21       H          4.00079548  *   0.78813435  *  -0.02589413  *
    22       H          3.22072573  *   0.29191776  *  -2.38183973  *
    23       H          4.87174227  *  -0.28297116  *  -2.10797931  *
    24       H          3.52405727  *  -1.43013579  *  -2.12088497  *
    25       H         -3.28642970  *  -1.17837129  *  -0.68001135  *
    26       H         -2.03573342  *  -1.98368173  *  -1.63715247  *
    27       H         -2.97691817  *  -2.90949488  *  -0.45813525  *
    28       H          1.77112464  *  -1.37048705  *  -0.26508039  *
    29       H          2.02963601  *   1.33293583  *   1.23381509  *
    30       H         -1.12653454  *   2.56560840  *  -0.82014053  *
    31       H         -3.24639144  *   2.56010262  *  -2.11153712  *
    32       H         -3.91577526  *   1.23037278  *  -1.05623185  *

           Empirical Formula: C12 H20  =    32 atoms



      MOLECULAR POINT GROUP   :   C1  


                  EIGENVALUES  
 -41.99100 -36.78078 -33.73660 -32.75603 -29.29785 -25.32419 -24.66534 -22.36449
 -21.00313 -20.04963 -19.45074 -18.72669 -16.97098 -16.43935 -15.98433 -15.54620
 -15.14933 -15.01270 -14.69655 -14.27291 -13.81587 -13.58873 -13.41353 -12.92417
 -12.57845 -12.37655 -12.22564 -12.05007 -11.86616 -11.66078 -11.49558 -11.37869
 -10.09269  -9.67965   1.09248   1.12638   3.18371   3.26817   3.33259   3.57407
   3.63502   3.74629   3.77882   3.85037   3.86928   3.94749   3.98367   4.01305
   4.10681   4.15764   4.17028   4.25727   4.31472   4.40464   4.47785   4.53268
   4.65564   4.78895   4.81522   4.87749   4.89083   4.97358   5.21090   5.42353
   5.68277   5.85775   5.93421   5.99127


              NET ATOMIC CHARGES AND DIPOLE CONTRIBUTIONS

  ATOM NO.   TYPE          CHARGE      No. of ELECS.   s-Pop       p-Pop       
    1          C          -0.088146        4.0881     1.19690     2.89124
    2          C          -0.060983        4.0610     1.17962     2.88137
    3          C          -0.064855        4.0649     1.18117     2.88368
    4          C          -0.103160        4.1032     1.17684     2.92632
    5          C          -0.089391        4.0894     1.15743     2.93196
    6          C          -0.059295        4.0593     1.14526     2.91403
    7          C          -0.112657        4.1127     1.13867     2.97398
    8          C          -0.106190        4.1062     1.13772     2.96847
    9          C          -0.139530        4.1395     1.19444     2.94509
   10          C          -0.155094        4.1551     1.19643     2.95866
   11          C          -0.125070        4.1251     1.19408     2.93099
   12          C          -0.166105        4.1661     1.18328     2.98283
   13          H           0.085377        0.9146     0.91462
   14          H           0.079667        0.9203     0.92033
   15          H           0.079497        0.9205     0.92050
   16          H           0.055181        0.9448     0.94482
   17          H           0.063734        0.9363     0.93627
   18          H           0.050757        0.9492     0.94924
   19          H           0.050044        0.9500     0.94996
   20          H           0.052554        0.9474     0.94745
   21          H           0.050635        0.9494     0.94937
   22          H           0.039977        0.9600     0.96002
   23          H           0.036637        0.9634     0.96336
   24          H           0.037895        0.9621     0.96211
   25          H           0.041976        0.9580     0.95802
   26          H           0.039286        0.9607     0.96071
   27          H           0.037290        0.9627     0.96271
   28          H           0.104450        0.8956     0.89555
   29          H           0.103552        0.8964     0.89645
   30          H           0.100651        0.8993     0.89935
   31          H           0.079422        0.9206     0.92058
   32          H           0.081894        0.9181     0.91811
 DIPOLE           X         Y         Z       TOTAL
 POINT-CHG.     0.158    -0.142     0.067     0.223
 HYBRID        -0.021    -0.008    -0.039     0.045
 SUM            0.137    -0.151     0.028     0.205


          ATOMIC ORBITAL ELECTRON POPULATIONS

    Atom      s        px        py        pz   
    1  C   1.19690   0.95924   0.93824   0.99376
    2  C   1.17962   0.92218   0.97780   0.98139
    3  C   1.18117   0.97789   0.95414   0.95165
    4  C   1.17684   0.97004   0.97101   0.98527
    5  C   1.15743   0.98364   0.96157   0.98674
    6  C   1.14526   0.94362   1.01118   0.95923
    7  C   1.13867   0.98623   1.00546   0.98230
    8  C   1.13772   1.00586   1.00957   0.95304
    9  C   1.19444   0.95942   0.99025   0.99543
   10  C   1.19643   0.96679   0.99492   0.99695
   11  C   1.19408   0.97843   0.98361   0.96895
   12  C   1.18328   0.97510   1.01028   0.99744
   13  H   0.91462
   14  H   0.92033
   15  H   0.92050
   16  H   0.94482
   17  H   0.93627
   18  H   0.94924
   19  H   0.94996
   20  H   0.94745
   21  H   0.94937
   22  H   0.96002
   23  H   0.96336
   24  H   0.96211
   25  H   0.95802
   26  H   0.96071
   27  H   0.96271
   28  H   0.89555
   29  H   0.89645
   30  H   0.89935
   31  H   0.92058
   32  H   0.91811
 *******************************************************************************
 ** Site#: 14399           For non-commercial use only        Version 13.159M **
 *******************************************************************************
 ** Cite this work as: MOPAC2012, James J. P. Stewart, Stewart Computational  **
 ** Chemistry, Version 13.159M web: HTTP://OpenMOPAC.net  Days remaining:   6 **
 *******************************************************************************
 **                                                                           **
 **                                MOPAC2012                                  **
 **                                                                           **
 *******************************************************************************

                            PM3 CALCULATION RESULTS


 *******************************************************************************
 *  CALCULATION DONE:                                Mon Jun  2 11:03:14 2014  *
 *  PM3      - The PM3 Hamiltonian to be used
 *  OLDGEO   - PREVIOUS GEOMETRY TO BE USED
 *  PRECISE  - CRITERIA TO BE INCREASED BY 100 TIMES
 *  NOSYM    - POINT-GROUP SYMMETRY SET TO C1
 *  T=       - A TIME OF 172800.0 SECONDS REQUESTED
 *  DUMP=N   - RESTART FILE WRITTEN EVERY  7200.000 SECONDS
 *  THERMO   - THERMODYNAMIC QUANTITIES TO BE CALCULATED
 *******************************************************************************
oldgeo thermo nosym precise  pm3

   ATOM   CHEMICAL          X               Y               Z
  NUMBER   SYMBOL      (ANGSTROMS)     (ANGSTROMS)     (ANGSTROMS)
 
     1       C         -0.83717554  *  -0.26791103  *   0.21362175  *
     2       C          0.17591604  *   0.15650024  *   1.31631332  *
     3       C         -1.72570074  *   0.96201063  *   0.56734169  *
     4       C         -0.66831482  *   1.42203246  *   1.59785642  *
     5       C         -1.47639935  *  -1.62287258  *   0.43093839  *
     6       C          3.65325224  *  -0.22349481  *  -0.31679141  *
     7       C         -2.49506564  *  -1.94081996  *  -0.64065410  *
     8       C          3.82541754  *  -0.42175430  *  -1.80752839  *
     9       C          1.56835265  *   0.40511449  *   0.87146484  *
    10       C          2.24259062  *  -0.44760105  *   0.09848716  *
    11       C         -1.95211540  *   1.88751017  *  -0.57103866  *
    12       C         -3.08107396  *   1.89343836  *  -1.27098630  *
    13       H         -0.40894168  *  -0.20805137  *  -0.81102114  *
    14       H          0.20119459  *  -0.54825188  *   2.17648027  *
    15       H         -2.69215956  *   0.67484929  *   1.03666073  *
    16       H         -1.04054170  *   1.50580564  *   2.62948431  *
    17       H         -0.16744080  *   2.37291832  *   1.35400539  *
    18       H         -1.95186564  *  -1.66757234  *   1.43148308  *
    19       H         -0.68010277  *  -2.39410542  *   0.44311532  *
    20       H          4.29724538  *  -0.93342336  *   0.24051584  *
    21       H          4.00079548  *   0.78813435  *  -0.02589413  *
    22       H          3.22072573  *   0.29191776  *  -2.38183973  *
    23       H          4.87174227  *  -0.28297116  *  -2.10797931  *
    24       H          3.52405727  *  -1.43013579  *  -2.12088497  *
    25       H         -3.28642970  *  -1.17837129  *  -0.68001135  *
    26       H         -2.03573342  *  -1.98368173  *  -1.63715247  *
    27       H         -2.97691817  *  -2.90949488  *  -0.45813525  *
    28       H          1.77112464  *  -1.37048705  *  -0.26508039  *
    29       H          2.02963601  *   1.33293583  *   1.23381509  *
    30       H         -1.12653454  *   2.56560840  *  -0.82014053  *
    31       H         -3.24639144  *   2.56010262  *  -2.11153712  *
    32       H         -3.91577526  *   1.23037278  *  -1.05623185  *
 


          CARTESIAN COORDINATES 

    NO.       ATOM         X         Y         Z

     1         C       -0.8372   -0.2679    0.2136
     2         C        0.1759    0.1565    1.3163
     3         C       -1.7257    0.9620    0.5673
     4         C       -0.6683    1.4220    1.5979
     5         C       -1.4764   -1.6229    0.4309
     6         C        3.6533   -0.2235   -0.3168
     7         C       -2.4951   -1.9408   -0.6407
     8         C        3.8254   -0.4218   -1.8075
     9         C        1.5684    0.4051    0.8715
    10         C        2.2426   -0.4476    0.0985
    11         C       -1.9521    1.8875   -0.5710
    12         C       -3.0811    1.8934   -1.2710
    13         H       -0.4089   -0.2081   -0.8110
    14         H        0.2012   -0.5483    2.1765
    15         H       -2.6922    0.6748    1.0367
    16         H       -1.0405    1.5058    2.6295
    17         H       -0.1674    2.3729    1.3540
    18         H       -1.9519   -1.6676    1.4315
    19         H       -0.6801   -2.3941    0.4431
    20         H        4.2972   -0.9334    0.2405
    21         H        4.0008    0.7881   -0.0259
    22         H        3.2207    0.2919   -2.3818
    23         H        4.8717   -0.2830   -2.1080
    24         H        3.5241   -1.4301   -2.1209
    25         H       -3.2864   -1.1784   -0.6800
    26         H       -2.0357   -1.9837   -1.6372
    27         H       -2.9769   -2.9095   -0.4581
    28         H        1.7711   -1.3705   -0.2651
    29         H        2.0296    1.3329    1.2338
    30         H       -1.1265    2.5656   -0.8201
    31         H       -3.2464    2.5601   -2.1115
    32         H       -3.9158    1.2304   -1.0562

  H: (PM3): J. J. P. STEWART, J. COMP. CHEM. 10, 209 (1989).
  C: (PM3): J. J. P. STEWART, J. COMP. CHEM. 10, 209 (1989).

           Empirical Formula: C12 H20  =    32 atoms



      MOLECULAR POINT GROUP   :   C1  


      RHF CALCULATION, NO. OF DOUBLY OCCUPIED LEVELS =   34



          HEAT OF FORMATION =       6.531567 KCALS/MOLE


          INTERNAL COORDINATE DERIVATIVES

   NUMBER  ATOM       BOND         ANGLE      DIHEDRAL

     1       C     -0.000149     0.001722    -0.000169
     2       C      0.001141     0.002358    -0.001683
     3       C     -0.001278    -0.001463    -0.001377
     4       C     -0.001425     0.001404    -0.001908
     5       C      0.003573     0.001183    -0.002251
     6       C      0.001480    -0.005890     0.003123
     7       C     -0.001538    -0.000368     0.003126
     8       C     -0.007458    -0.002861     0.006279
     9       C      0.000703    -0.014524    -0.002366
    10       C     -0.001683     0.012740     0.006240
    11       C      0.009722    -0.006230    -0.000665
    12       C     -0.005815     0.005311     0.009836
    13       H      0.000250    -0.001000     0.001012
    14       H     -0.002854     0.000349    -0.001023
    15       H      0.000368    -0.001042    -0.001044
    16       H      0.000205    -0.001456    -0.001563
    17       H     -0.001261    -0.000394     0.002199
    18       H     -0.000437     0.000208     0.000351
    19       H     -0.000771     0.001196     0.000543
    20       H     -0.006412     0.005872    -0.005189
    21       H     -0.002550    -0.001386     0.001677
    22       H      0.009083    -0.014313     0.003523
    23       H     -0.007020     0.004343     0.002978
    24       H      0.012675     0.013093    -0.007726
    25       H      0.001217    -0.000717     0.001657
    26       H     -0.001409    -0.000472     0.001926
    27       H      0.002763     0.002512    -0.005857
    28       H      0.005533     0.006037    -0.008773
    29       H     -0.004872    -0.004616     0.001738
    30       H     -0.000606     0.001748     0.003556
    31       H     -0.000488     0.002030     0.000209
    32       H     -0.000686    -0.005375    -0.008378


          GRADIENT NORM =   0.04693


          TIME FOR SCF CALCULATION =    0.01

          TIME FOR DERIVATIVES     =    0.01

          MOLECULAR WEIGHT =  164.29



          ROTATIONAL CONSTANTS IN CM(-1)

          A =    0.04002927   B =    0.01560523   C =    0.01463731



           PRINCIPAL MOMENTS OF INERTIA IN UNITS OF 10**(-40)*GRAM-CM**2

          A =      699.3077   B =     1793.8074   C =     1912.4259


          ORIENTATION OF MOLECULE IN FORCE CALCULATION

    NO.       ATOM         X         Y         Z

     1          C      -0.4731    0.1870    0.7400
     2          C       1.0834    0.1870    0.7400
     3          C      -0.4654    1.7450    0.7400
     4          C       1.0784    1.7315    0.6500
     5          C      -1.1046   -0.4656    1.9511
     6          C       2.0862   -2.4718   -1.8731
     7          C      -2.6136   -0.3716    1.9159
     8          C       1.0880   -3.0601   -2.8472
     9          C       1.7423   -0.5151   -0.3876
    10          C       1.4010   -1.7466   -0.7698
    11          C      -1.1670    2.3497   -0.4201
    12          C      -2.3961    2.8454   -0.3304
    13          H      -0.9039   -0.2405   -0.1919
    14          H       1.5170   -0.1906    1.6921
    15          H      -0.8403    2.1779    1.6933
    16          H       1.5898    2.2416    1.4794
    17          H       1.4909    2.1391   -0.2871
    18          H      -0.7175   -0.0045    2.8820
    19          H      -0.7880   -1.5274    1.9888
    20          H       2.7066   -3.2761   -1.4286
    21          H       2.7943   -1.8088   -2.4095
    22          H       0.4821   -2.2792   -3.3247
    23          H       1.5940   -3.6180   -3.6453
    24          H       0.3949   -3.7520   -2.3506
    25          H      -2.9487    0.6743    1.8625
    26          H      -3.0323   -0.8916    1.0441
    27          H      -3.0621   -0.8179    2.8124
    28          H       0.5849   -2.2848   -0.2694
    29          H       2.5523    0.0326   -0.8865
    30          H      -0.6211    2.3550   -1.3717
    31          H      -2.9174    3.2777   -1.1787
    32          H      -2.9681    2.8495    0.5944


    FIRST DERIVATIVES WILL BE USED IN THE CALCULATION OF SECOND DERIVATIVES

          ESTIMATED TIME TO COMPLETE CALCULATION =        7.29 SECONDS

    FOR POINT-GROUP C1   THERE ARE   1 UNIQUE SYMMETRY FUNCTIONS.

 STEP:   1 TIME =     0.06 SECS, INTEGRAL =      0.06 TIME LEFT: 172799.92
 STEP:   2 TIME =     0.07 SECS, INTEGRAL =      0.13 TIME LEFT: 172799.85
 STEP:   3 TIME =     0.06 SECS, INTEGRAL =      0.19 TIME LEFT: 172799.79
 STEP:   4 TIME =     0.07 SECS, INTEGRAL =      0.27 TIME LEFT: 172799.72
 STEP:   5 TIME =     0.06 SECS, INTEGRAL =      0.33 TIME LEFT: 172799.65
 STEP:   6 TIME =     0.06 SECS, INTEGRAL =      0.39 TIME LEFT: 172799.59
 STEP:   7 TIME =     0.06 SECS, INTEGRAL =      0.45 TIME LEFT: 172799.53
 STEP:   8 TIME =     0.06 SECS, INTEGRAL =      0.51 TIME LEFT: 172799.47
 STEP:   9 TIME =     0.06 SECS, INTEGRAL =      0.57 TIME LEFT: 172799.41
 STEP:  10 TIME =     0.06 SECS, INTEGRAL =      0.63 TIME LEFT: 172799.35
 STEP:  11 TIME =     0.06 SECS, INTEGRAL =      0.70 TIME LEFT: 172799.29
 STEP:  12 TIME =     0.06 SECS, INTEGRAL =      0.76 TIME LEFT: 172799.22
 STEP:  13 TIME =     0.06 SECS, INTEGRAL =      0.82 TIME LEFT: 172799.16
 STEP:  14 TIME =     0.06 SECS, INTEGRAL =      0.88 TIME LEFT: 172799.10
 STEP:  15 TIME =     0.06 SECS, INTEGRAL =      0.94 TIME LEFT: 172799.04
 STEP:  16 TIME =     0.07 SECS, INTEGRAL =      1.01 TIME LEFT: 172798.98
 STEP:  17 TIME =     0.06 SECS, INTEGRAL =      1.07 TIME LEFT: 172798.92
 STEP:  18 TIME =     0.06 SECS, INTEGRAL =      1.13 TIME LEFT: 172798.85
 STEP:  19 TIME =     0.06 SECS, INTEGRAL =      1.19 TIME LEFT: 172798.79
 STEP:  20 TIME =     0.06 SECS, INTEGRAL =      1.25 TIME LEFT: 172798.73
 STEP:  21 TIME =     0.06 SECS, INTEGRAL =      1.31 TIME LEFT: 172798.67
 STEP:  22 TIME =     0.06 SECS, INTEGRAL =      1.37 TIME LEFT: 172798.61
 STEP:  23 TIME =     0.06 SECS, INTEGRAL =      1.43 TIME LEFT: 172798.55
 STEP:  24 TIME =     0.06 SECS, INTEGRAL =      1.49 TIME LEFT: 172798.49
 STEP:  25 TIME =     0.06 SECS, INTEGRAL =      1.55 TIME LEFT: 172798.43
 STEP:  26 TIME =     0.07 SECS, INTEGRAL =      1.62 TIME LEFT: 172798.36
 STEP:  27 TIME =     0.06 SECS, INTEGRAL =      1.68 TIME LEFT: 172798.30
 STEP:  28 TIME =     0.06 SECS, INTEGRAL =      1.74 TIME LEFT: 172798.24
 STEP:  29 TIME =     0.06 SECS, INTEGRAL =      1.80 TIME LEFT: 172798.18
 STEP:  30 TIME =     0.06 SECS, INTEGRAL =      1.86 TIME LEFT: 172798.12
 STEP:  31 TIME =     0.06 SECS, INTEGRAL =      1.93 TIME LEFT: 172798.05
 STEP:  32 TIME =     0.07 SECS, INTEGRAL =      2.00 TIME LEFT: 172797.98
 STEP:  33 TIME =     0.06 SECS, INTEGRAL =      2.06 TIME LEFT: 172797.92
 STEP:  34 TIME =     0.07 SECS, INTEGRAL =      2.12 TIME LEFT: 172797.86
 STEP:  35 TIME =     0.06 SECS, INTEGRAL =      2.19 TIME LEFT: 172797.80
 STEP:  36 TIME =     0.06 SECS, INTEGRAL =      2.25 TIME LEFT: 172797.73
 STEP:  37 TIME =     0.06 SECS, INTEGRAL =      2.31 TIME LEFT: 172797.67
 STEP:  38 TIME =     0.06 SECS, INTEGRAL =      2.38 TIME LEFT: 172797.60
 STEP:  39 TIME =     0.06 SECS, INTEGRAL =      2.44 TIME LEFT: 172797.55
 STEP:  40 TIME =     0.06 SECS, INTEGRAL =      2.50 TIME LEFT: 172797.48
 STEP:  41 TIME =     0.06 SECS, INTEGRAL =      2.56 TIME LEFT: 172797.42
 STEP:  42 TIME =     0.06 SECS, INTEGRAL =      2.62 TIME LEFT: 172797.36
 STEP:  43 TIME =     0.06 SECS, INTEGRAL =      2.69 TIME LEFT: 172797.30
 STEP:  44 TIME =     0.06 SECS, INTEGRAL =      2.75 TIME LEFT: 172797.23
 STEP:  45 TIME =     0.06 SECS, INTEGRAL =      2.81 TIME LEFT: 172797.17
 STEP:  46 TIME =     0.07 SECS, INTEGRAL =      2.87 TIME LEFT: 172797.11
 STEP:  47 TIME =     0.06 SECS, INTEGRAL =      2.94 TIME LEFT: 172797.04
 STEP:  48 TIME =     0.06 SECS, INTEGRAL =      3.00 TIME LEFT: 172796.98
 STEP:  49 TIME =     0.06 SECS, INTEGRAL =      3.06 TIME LEFT: 172796.92
 STEP:  50 TIME =     0.06 SECS, INTEGRAL =      3.12 TIME LEFT: 172796.86
 STEP:  51 TIME =     0.06 SECS, INTEGRAL =      3.19 TIME LEFT: 172796.80
 STEP:  52 TIME =     0.06 SECS, INTEGRAL =      3.25 TIME LEFT: 172796.73
 STEP:  53 TIME =     0.07 SECS, INTEGRAL =      3.31 TIME LEFT: 172796.67
 STEP:  54 TIME =     0.06 SECS, INTEGRAL =      3.37 TIME LEFT: 172796.61
 STEP:  55 TIME =     0.06 SECS, INTEGRAL =      3.44 TIME LEFT: 172796.54
 STEP:  56 TIME =     0.06 SECS, INTEGRAL =      3.50 TIME LEFT: 172796.48
 STEP:  57 TIME =     0.06 SECS, INTEGRAL =      3.56 TIME LEFT: 172796.42
 STEP:  58 TIME =     0.06 SECS, INTEGRAL =      3.63 TIME LEFT: 172796.35
 STEP:  59 TIME =     0.06 SECS, INTEGRAL =      3.69 TIME LEFT: 172796.29
 STEP:  60 TIME =     0.06 SECS, INTEGRAL =      3.75 TIME LEFT: 172796.23
 STEP:  61 TIME =     0.06 SECS, INTEGRAL =      3.81 TIME LEFT: 172796.17
 STEP:  62 TIME =     0.06 SECS, INTEGRAL =      3.87 TIME LEFT: 172796.11
 STEP:  63 TIME =     0.06 SECS, INTEGRAL =      3.94 TIME LEFT: 172796.05
 STEP:  64 TIME =     0.06 SECS, INTEGRAL =      4.00 TIME LEFT: 172795.98
 STEP:  65 TIME =     0.07 SECS, INTEGRAL =      4.07 TIME LEFT: 172795.91
 STEP:  66 TIME =     0.07 SECS, INTEGRAL =      4.13 TIME LEFT: 172795.85
 STEP:  67 TIME =     0.06 SECS, INTEGRAL =      4.19 TIME LEFT: 172795.79
 STEP:  68 TIME =     0.06 SECS, INTEGRAL =      4.26 TIME LEFT: 172795.72
 STEP:  69 TIME =     0.06 SECS, INTEGRAL =      4.32 TIME LEFT: 172795.66
 STEP:  70 TIME =     0.06 SECS, INTEGRAL =      4.38 TIME LEFT: 172795.60
 STEP:  71 TIME =     0.06 SECS, INTEGRAL =      4.44 TIME LEFT: 172795.54
 STEP:  72 TIME =     0.06 SECS, INTEGRAL =      4.50 TIME LEFT: 172795.48
 STEP:  73 TIME =     0.06 SECS, INTEGRAL =      4.56 TIME LEFT: 172795.42
 STEP:  74 TIME =     0.06 SECS, INTEGRAL =      4.62 TIME LEFT: 172795.36
 STEP:  75 TIME =     0.06 SECS, INTEGRAL =      4.69 TIME LEFT: 172795.30
 STEP:  76 TIME =     0.07 SECS, INTEGRAL =      4.75 TIME LEFT: 172795.23
 STEP:  77 TIME =     0.06 SECS, INTEGRAL =      4.81 TIME LEFT: 172795.17
 STEP:  78 TIME =     0.06 SECS, INTEGRAL =      4.87 TIME LEFT: 172795.11
 STEP:  79 TIME =     0.07 SECS, INTEGRAL =      4.94 TIME LEFT: 172795.04
 STEP:  80 TIME =     0.06 SECS, INTEGRAL =      5.01 TIME LEFT: 172794.97
 STEP:  81 TIME =     0.06 SECS, INTEGRAL =      5.07 TIME LEFT: 172794.92
 STEP:  82 TIME =     0.06 SECS, INTEGRAL =      5.13 TIME LEFT: 172794.85
 STEP:  83 TIME =     0.06 SECS, INTEGRAL =      5.19 TIME LEFT: 172794.79
 STEP:  84 TIME =     0.06 SECS, INTEGRAL =      5.25 TIME LEFT: 172794.73
 STEP:  85 TIME =     0.06 SECS, INTEGRAL =      5.31 TIME LEFT: 172794.67
 STEP:  86 TIME =     0.06 SECS, INTEGRAL =      5.37 TIME LEFT: 172794.61
 STEP:  87 TIME =     0.06 SECS, INTEGRAL =      5.44 TIME LEFT: 172794.55
 STEP:  88 TIME =     0.06 SECS, INTEGRAL =      5.50 TIME LEFT: 172794.48
 STEP:  89 TIME =     0.07 SECS, INTEGRAL =      5.57 TIME LEFT: 172794.41
 STEP:  90 TIME =     0.06 SECS, INTEGRAL =      5.63 TIME LEFT: 172794.35
 STEP:  91 TIME =     0.06 SECS, INTEGRAL =      5.69 TIME LEFT: 172794.29
 STEP:  92 TIME =     0.06 SECS, INTEGRAL =      5.75 TIME LEFT: 172794.23
 STEP:  93 TIME =     0.06 SECS, INTEGRAL =      5.81 TIME LEFT: 172794.17
 STEP:  94 TIME =     0.06 SECS, INTEGRAL =      5.87 TIME LEFT: 172794.11
 STEP:  95 TIME =     0.07 SECS, INTEGRAL =      5.94 TIME LEFT: 172794.04
 STEP:  96 TIME =     0.06 SECS, INTEGRAL =      6.00 TIME LEFT: 172793.98

(To convert to Hartree/Bohr^2, multiply by (10^(-21) x N x a0^2)/(4.184 x 627.51) = 0.0642)


           FORCE MATRIX IN MILLIDYNES/ANGSTROM


                  C  1       C  2       C  3       C  4       C  5       C  6
 ------------------------------------------------------------------------------
     C    1  14.273885
     C    2   3.169430  14.813328
     C    3   3.104016   1.788369  14.838473
     C    4   1.801019   3.488732   3.498860  14.355496
     C    5   4.321524   0.531963   0.529525   0.042132  14.489968
     C    6   0.008643   0.138827   0.001761   0.010146   0.000912  14.704258
     C    7   0.660920   0.049993   0.031223   0.005358   4.462261   0.000767
     C    8   0.000816   0.017509   0.000528   0.002188   0.000359   4.408927
     C    9   0.548535   5.078676   0.039678   0.569595   0.032978   0.823255
     C   10   0.053069   0.828660   0.005952   0.048528   0.005593   4.979662
     C   11   0.582578   0.042722   5.039650   0.573173   0.032622   0.000948
     C   12   0.027337   0.004402   0.857866   0.046439   0.004264   0.000494
     H   13   4.381325   0.435789   0.437947   0.024476   0.428283   0.001312
     H   14   0.442583   4.352480   0.025964   0.432202   0.035813   0.016231
     H   15   0.439497   0.026418   4.373929   0.425974   0.030707   0.000368
     H   16   0.031691   0.439540   0.442711   4.710070   0.004109   0.001236
     H   17   0.027571   0.454228   0.452982   4.637938   0.001512   0.000901
     H   18   0.450012   0.021365   0.022671   0.001556   4.436112   0.000355
     H   19   0.431037   0.018936   0.046708   0.003251   4.440918   0.000709
     H   20   0.001430   0.018590   0.000255   0.000988   0.000441   4.421328
     H   21   0.000230   0.003140   0.000250   0.000395   0.000190   4.440857
     H   22   0.000315   0.000716   0.000189   0.000114   0.000291   0.460901
     H   23   0.000297   0.002759   0.000242   0.000460   0.000204   0.449325
     H   24   0.000181   0.000642   0.000193   0.000245   0.000276   0.464151
     H   25   0.022371   0.002136   0.007764   0.000544   0.463233   0.000257
     H   26   0.022732   0.001517   0.002190   0.000540   0.463378   0.000230
     H   27   0.051882   0.008411   0.002127   0.000728   0.451110   0.000224
     H   28   0.016305   0.083442   0.001618   0.002903   0.005641   0.429423
     H   29   0.033117   0.434125   0.002444   0.030873   0.004106   0.083177
     H   30   0.010854   0.001601   0.439560   0.032944   0.001338   0.000373
     H   31   0.018036   0.001841   0.136040   0.011383   0.001905   0.000417
     H   32   0.013029   0.001273   0.099233   0.005568   0.001926   0.000327


                  C  7       C  8       C  9       C 10       C 11       C 12
 ------------------------------------------------------------------------------
     C    7  14.361550
     C    8   0.000408  14.352168
     C    9   0.007143   0.040283  18.282852
     C   10   0.001128   0.717963  10.678883  18.191414
     C   11   0.004099   0.000946   0.006595   0.002267  18.275341
     C   12   0.007050   0.000808   0.002502   0.001319  11.051913  18.020307
     H   13   0.030439   0.000530   0.024783   0.013292   0.034161   0.004061
     H   14   0.002932   0.001684   0.391360   0.025080   0.002476   0.000454
     H   15   0.008450   0.000246   0.001776   0.000714   0.434123   0.048800
     H   16   0.000726   0.000472   0.033400   0.005084   0.032526   0.005577
     H   17   0.000520   0.000394   0.027133   0.003039   0.031985   0.003211
     H   18   0.437141   0.000134   0.001081   0.000705   0.001003   0.000576
     H   19   0.439954   0.000292   0.001669   0.003419   0.006247   0.001401
     H   20   0.000355   0.445524   0.032174   0.407968   0.000268   0.000193
     H   21   0.000338   0.434663   0.049866   0.459013   0.000354   0.000175
     H   22   0.000181   4.746271   0.002177   0.016114   0.000308   0.000200
     H   23   0.000316   4.750579   0.006704   0.052312   0.000215   0.000160
     H   24   0.000134   4.726645   0.001887   0.027154   0.000405   0.000226
     H   25   4.681378   0.000125   0.000617   0.000487   0.002679   0.006528
     H   26   4.728073   0.000246   0.000758   0.000309   0.000799   0.000575
     H   27   4.757237   0.000320   0.001225   0.000311   0.000649   0.001223
     H   28   0.001137   0.025815   0.470620   4.749134   0.000976   0.000559
     H   29   0.001220   0.008290   4.760570   0.470282   0.001665   0.000829
     H   30   0.000700   0.000376   0.001810   0.001102   4.785016   0.452900
     H   31   0.000447   0.000192   0.000798   0.000485   0.461466   5.112148
     H   32   0.008643   0.000256   0.000427   0.000454   0.492297   5.048861


                  H 13       H 14       H 15       H 16       H 17       H 18
 ------------------------------------------------------------------------------
     H   13   4.890074
     H   14   0.030029   4.840297
     H   15   0.029338   0.002343   4.873835
     H   16   0.000978   0.027024   0.027914   5.327885
     H   17   0.002453   0.032159   0.030812   0.551563   5.271846
     H   18   0.042021   0.020861   0.025680   0.000651   0.000571   5.052453
     H   19   0.026551   0.009980   0.003026   0.000699   0.000580   0.566447
     H   20   0.000274   0.002648   0.000105   0.000099   0.000226   0.000094
     H   21   0.000444   0.000643   0.000076   0.000111   0.000218   0.000105
     H   22   0.000332   0.000198   0.000064   0.000068   0.000100   0.000064
     H   23   0.000167   0.000325   0.000063   0.000072   0.000102   0.000088
     H   24   0.000186   0.000146   0.000071   0.000052   0.000066   0.000116
     H   25   0.002144   0.000527   0.011409   0.000241   0.000273   0.023173
     H   26   0.020015   0.000437   0.000478   0.000199   0.000124   0.047554
     H   27   0.002037   0.000682   0.000473   0.000134   0.000109   0.031443
     H   28   0.019645   0.009513   0.000464   0.000701   0.000703   0.000784
     H   29   0.003021   0.014484   0.000620   0.001884   0.029294   0.000349
     H   30   0.004448   0.000741   0.033177   0.001785   0.029579   0.000616
     H   31   0.001098   0.000216   0.004593   0.001569   0.000824   0.000075
     H   32   0.000904   0.000248   0.026638   0.000934   0.000694   0.000440


                  H 19       H 20       H 21       H 22       H 23       H 24
 ------------------------------------------------------------------------------
     H   19   5.045741
     H   20   0.000117   5.019095
     H   21   0.000155   0.565598   5.052048
     H   22   0.000104   0.048685   0.024492   5.485046
     H   23   0.000106   0.028597   0.030122   0.573213   5.488544
     H   24   0.000093   0.023957   0.047357   0.578083   0.572488   5.471877
     H   25   0.048339   0.000070   0.000079   0.000099   0.000125   0.000086
     H   26   0.025771   0.000053   0.000086   0.000057   0.000087   0.000075
     H   27   0.027303   0.000096   0.000082   0.000075   0.000073   0.000046
     H   28   0.009362   0.017377   0.038608   0.002672   0.002042   0.019667
     H   29   0.000372   0.009641   0.029977   0.000507   0.001571   0.000623
     H   30   0.000457   0.000140   0.000169   0.000195   0.000130   0.000115
     H   31   0.000360   0.000108   0.000086   0.000088   0.000107   0.000098
     H   32   0.000684   0.000125   0.000071   0.000074   0.000092   0.000086


                  H 25       H 26       H 27       H 28       H 29       H 30
 ------------------------------------------------------------------------------
     H   25   5.416890
     H   26   0.575253   5.469458
     H   27   0.564794   0.571394   5.490328
     H   28   0.000405   0.000352   0.000290   5.126201
     H   29   0.000162   0.000230   0.000279   0.103173   5.135529
     H   30   0.000418   0.000340   0.000203   0.000400   0.001027   5.153460
     H   31   0.000637   0.000302   0.000237   0.000141   0.000204   0.079460
     H   32   0.009986   0.000558   0.000605   0.000273   0.000161   0.118774


                  H 31       H 32
 ------------------------------
     H   31   5.497955
     H   32   0.418146   5.443024


          HEAT OF FORMATION =       6.531567 KCALS/MOLE

          ZERO POINT ENERGY     180.125 KCAL/MOL


           NORMAL COORDINATE ANALYSIS (Total motion = 1 Angstrom)


   Root No.       1         2         3         4         5         6         7         8

                 1 A       2 A       3 A       4 A       5 A       6 A       7 A       8 A   

                  37.2      60.4      65.2      90.3     108.4     131.7     149.4     184.2
  
           1    0.0011   -0.0023   -0.0128   -0.0010    0.0050    0.0114   -0.0052   -0.0043
           2   -0.0061   -0.0030   -0.0067   -0.0130   -0.0121   -0.0073   -0.0001    0.0055
           3    0.0131    0.0079    0.0007    0.0026   -0.0139    0.0078    0.0042   -0.0046
           4    0.0012   -0.0022   -0.0128   -0.0008    0.0056    0.0113   -0.0048   -0.0042
           5   -0.0051   -0.0043   -0.0110    0.0028    0.0003   -0.0006   -0.0097    0.0008
           6    0.0126    0.0097   -0.0066    0.0018   -0.0011    0.0155   -0.0037    0.0028
           7   -0.0003   -0.0016   -0.0084   -0.0171   -0.0070    0.0045    0.0041    0.0010
           8   -0.0061   -0.0030   -0.0065   -0.0132   -0.0124   -0.0077    0.0001    0.0059
           9   -0.0064    0.0072   -0.0014   -0.0085   -0.0014   -0.0073   -0.0020   -0.0066
          10    0.0003   -0.0004   -0.0090   -0.0163   -0.0064    0.0035    0.0033    0.0009
          11   -0.0054   -0.0032   -0.0108    0.0023    0.0005   -0.0018   -0.0093   -0.0003
          12    0.0057    0.0290   -0.0058   -0.0021    0.0066   -0.0196   -0.0054   -0.0126
          13    0.0027   -0.0034   -0.0071    0.0091   -0.0019   -0.0069   -0.0102    0.0033
          14    0.0098   -0.0001    0.0017   -0.0112   -0.0279    0.0069    0.0208   -0.0044
          15    0.0226    0.0091    0.0087    0.0090   -0.0264    0.0054    0.0133   -0.0058
          16   -0.0072   -0.0045    0.0211   -0.0004    0.0044   -0.0050    0.0155   -0.0019
          17    0.0030    0.0330   -0.0014    0.0042    0.0024    0.0159    0.0041    0.0025
          18    0.0000   -0.0296   -0.0050    0.0013   -0.0012   -0.0105   -0.0128    0.0035
          19    0.0028   -0.0032   -0.0054    0.0079    0.0014   -0.0061   -0.0112    0.0030
          20    0.0122    0.0034    0.0400   -0.0335    0.0369    0.0189    0.0049   -0.0139
          21    0.0253    0.0097    0.0394    0.0075    0.0039   -0.0218   -0.0083    0.0137
          22   -0.0093   -0.0061    0.0451   -0.0104   -0.0235   -0.0028   -0.0036    0.0025
          23    0.0505   -0.0317   -0.0131    0.0103    0.0143   -0.0025    0.0105    0.0031
          24   -0.0267    0.0113   -0.0221    0.0076    0.0195   -0.0018    0.0027   -0.0010
          25    0.0011   -0.0042   -0.0101    0.0017    0.0120    0.0222   -0.0120    0.0025
          26   -0.0059    0.0121   -0.0082    0.0056    0.0077   -0.0109   -0.0047   -0.0123
          27    0.0130   -0.0019   -0.0065    0.0015   -0.0021    0.0284   -0.0113    0.0162
          28   -0.0049   -0.0030   -0.0024    0.0078    0.0272   -0.0074    0.0283   -0.0085
          29   -0.0016    0.0167   -0.0076    0.0020   -0.0018    0.0085   -0.0235   -0.0059
          30    0.0045   -0.0179   -0.0150    0.0076    0.0151   -0.0070    0.0142    0.0052
          31    0.0090    0.0172   -0.0090   -0.0095   -0.0064   -0.0153   -0.0002    0.0034
          32   -0.0231   -0.0070   -0.0038   -0.0244   -0.0105   -0.0228    0.0018    0.0148
          33   -0.0211   -0.0065    0.0004   -0.0190   -0.0008   -0.0027    0.0018   -0.0039
          34    0.0046    0.0144    0.0020    0.0278   -0.0034   -0.0056   -0.0009   -0.0006
          35   -0.0305   -0.0099    0.0219    0.0663   -0.0034   -0.0026   -0.0009    0.0052
          36   -0.0408   -0.0294    0.0088   -0.0109    0.0007    0.0196    0.0092   -0.0066
          37    0.0002   -0.0025   -0.0200    0.0020    0.0161    0.0209   -0.0105   -0.0034
          38   -0.0185   -0.0042   -0.0085   -0.0245   -0.0069   -0.0164   -0.0056    0.0080
          39    0.0192    0.0085    0.0052    0.0065   -0.0215    0.0071    0.0095   -0.0060
          40    0.0026   -0.0024   -0.0107    0.0044    0.0021    0.0087   -0.0029   -0.0107
          41   -0.0020   -0.0183   -0.0125    0.0091   -0.0008    0.0204   -0.0132    0.0102
          42    0.0130    0.0041   -0.0080    0.0019    0.0000    0.0247   -0.0062    0.0098
          43   -0.0090   -0.0167   -0.0040   -0.0267   -0.0146    0.0140    0.0108    0.0056
          44    0.0064   -0.0007   -0.0047   -0.0109   -0.0229   -0.0013    0.0056    0.0062
          45   -0.0156    0.0001   -0.0004   -0.0133    0.0004   -0.0062   -0.0017   -0.0051
          46   -0.0070   -0.0126   -0.0052   -0.0253   -0.0150    0.0087    0.0082    0.0070
          47   -0.0017   -0.0146   -0.0126    0.0095    0.0006    0.0210   -0.0115    0.0072
          48    0.0080    0.0437   -0.0070   -0.0010    0.0118   -0.0369   -0.0071   -0.0210
          49    0.0078    0.0140   -0.0106   -0.0167   -0.0050   -0.0076    0.0032   -0.0020
          50   -0.0086    0.0094   -0.0114    0.0046    0.0086   -0.0228   -0.0117   -0.0124
          51    0.0076    0.0409   -0.0068   -0.0012    0.0108   -0.0336   -0.0067   -0.0192
          52    0.0059   -0.0019    0.0219    0.0024    0.0327   -0.0180   -0.0258    0.0098
          53    0.0205    0.0004   -0.0128    0.0035   -0.0757    0.0135    0.0477   -0.0123
          54    0.0161    0.0082    0.0040    0.0045   -0.0171    0.0066    0.0065   -0.0046
          55    0.0007   -0.0059   -0.0328    0.0250   -0.0445   -0.0151   -0.0001    0.0086
          56    0.0097   -0.0008   -0.0062   -0.0062   -0.0421    0.0053    0.0251   -0.0036
          57    0.0350    0.0106   -0.0027    0.0192   -0.0687    0.0209    0.0439   -0.0200
          58   -0.0350    0.0486    0.0220    0.0011    0.0110    0.0112    0.0384    0.0049
          59   -0.0228    0.0699    0.0054    0.0012   -0.0031    0.0267    0.0046    0.0043
          60   -0.0080   -0.0367    0.0061   -0.0062   -0.0207   -0.0136   -0.0443   -0.0030
          61    0.0180   -0.0536    0.0234   -0.0031   -0.0054   -0.0196   -0.0078   -0.0073
          62   -0.0047    0.0591    0.0053    0.0045    0.0031    0.0260    0.0239    0.0121
          63    0.0238   -0.0622    0.0062   -0.0018   -0.0130   -0.0175   -0.0191    0.0079
          64    0.0171   -0.0572    0.0465   -0.0128   -0.0334   -0.0260   -0.0475   -0.0813
          65    0.0767   -0.0689   -0.0200    0.0137    0.0210   -0.0144    0.0102   -0.0059
          66   -0.0173    0.0151   -0.0354    0.0162    0.0428    0.0082    0.0578    0.0905
          67   -0.0129   -0.0038    0.0655   -0.0188   -0.0470    0.0009   -0.0175    0.0119
          68    0.0554   -0.0224   -0.0100    0.0124    0.0196    0.0123    0.0583    0.1094
          69   -0.0324    0.0063   -0.0114    0.0009    0.0010   -0.0098   -0.0394   -0.0693
          70   -0.0336    0.0412    0.0424   -0.0076   -0.0129    0.0186    0.0381    0.0801
          71    0.0572   -0.0554   -0.0186    0.0100    0.0126   -0.0205   -0.0311   -0.0932
          72   -0.0514    0.0444   -0.0336    0.0110    0.0319    0.0030    0.0030   -0.0270
          73    0.0043   -0.0009    0.0189   -0.0060    0.0432    0.0033   -0.0205   -0.0056
          74    0.0123    0.0041    0.0486   -0.0390    0.0530    0.0209   -0.0007   -0.0131
          75    0.0166    0.0078    0.0550   -0.0122    0.0569   -0.0435   -0.0617    0.0876
          76   -0.0001   -0.0049   -0.0355    0.0152   -0.0354    0.0048    0.0040   -0.0013
          77    0.0050    0.0027    0.0578   -0.0555    0.0937    0.0093   -0.0404    0.0416
          78    0.0310    0.0110    0.0433    0.0172   -0.0122   -0.0214    0.0115   -0.0173
          79    0.0042   -0.0038    0.0014    0.0141   -0.0014   -0.0257   -0.0176    0.0155
          80    0.0211    0.0063    0.0434   -0.0232    0.0153    0.0362    0.0431   -0.0783
          81    0.0304    0.0108    0.0446    0.0158   -0.0082   -0.0231    0.0075   -0.0120
          82   -0.0096    0.0007   -0.0071    0.0157    0.0472   -0.0351    0.0689   -0.0213
          83   -0.0005    0.0078   -0.0125   -0.0022   -0.0109    0.0210   -0.0543   -0.0015
          84   -0.0021   -0.0214   -0.0284    0.0162    0.0386   -0.0387    0.0463   -0.0115
          85    0.0068   -0.0071   -0.0062   -0.0057   -0.0074    0.0548   -0.0501    0.0189
          86   -0.0088    0.0204   -0.0059    0.0107    0.0204   -0.0288    0.0202   -0.0235
          87    0.0188    0.0025    0.0019   -0.0047   -0.0191    0.0614   -0.0466    0.0302
          88    0.0200    0.0337   -0.0187   -0.0338   -0.0084   -0.0396   -0.0040    0.0100
          89   -0.0298   -0.0084   -0.0235   -0.1095   -0.0160   -0.0527    0.0057    0.0326
          90   -0.0149    0.0029   -0.0052   -0.0335   -0.0020   -0.0168   -0.0003   -0.0001
          91    0.0114    0.0279    0.0022    0.0373   -0.0028   -0.0217   -0.0059    0.0028
          92   -0.0432   -0.0138    0.0254    0.0646   -0.0025   -0.0128    0.0005    0.0134
          93   -0.0514   -0.0397    0.0105   -0.0177    0.0007    0.0244    0.0130   -0.0045
          94   -0.0059   -0.0014    0.0114    0.0512   -0.0014    0.0187    0.0034   -0.0075
          95   -0.0244   -0.0088    0.0415    0.1486    0.0026    0.0267   -0.0043   -0.0129
          96   -0.0473   -0.0392    0.0146    0.0030    0.0019    0.0346    0.0119   -0.0108


   Root No.       9        10        11        12        13        14        15        16

                 9 A      10 A      11 A      12 A      13 A      14 A      15 A      16 A   

                 203.9     216.8     273.9     312.0     320.3     351.3     405.1     460.4
  
           1   -0.0006   -0.0094   -0.0033    0.0112    0.0044   -0.0031   -0.0128    0.0053
           2   -0.0035   -0.0016   -0.0123   -0.0159   -0.0030    0.0261    0.0024   -0.0135
           3   -0.0116   -0.0099   -0.0103    0.0124   -0.0234   -0.0049   -0.0095   -0.0316
           4   -0.0005   -0.0074   -0.0008    0.0080    0.0006   -0.0046   -0.0211    0.0099
           5    0.0011   -0.0082   -0.0080    0.0025   -0.0028    0.0045   -0.0161   -0.0038
           6   -0.0015    0.0063   -0.0073    0.0043    0.0088   -0.0029   -0.0141   -0.0146
           7   -0.0047   -0.0011   -0.0097   -0.0195   -0.0029   -0.0029    0.0011    0.0029
           8   -0.0028   -0.0006   -0.0128   -0.0144   -0.0051    0.0261    0.0033   -0.0177
           9   -0.0008   -0.0140   -0.0096    0.0076   -0.0279    0.0212    0.0091    0.0185
          10   -0.0041   -0.0015   -0.0089   -0.0181    0.0005    0.0012    0.0015    0.0032
          11    0.0010   -0.0099   -0.0071    0.0031   -0.0005    0.0117   -0.0184   -0.0069
          12    0.0054   -0.0158    0.0174   -0.0040    0.0302    0.0250   -0.0021   -0.0057
          13    0.0054   -0.0039   -0.0014    0.0188    0.0181    0.0077    0.0205   -0.0049
          14   -0.0129    0.0013    0.0226   -0.0066    0.0139    0.0112    0.0011    0.0259
          15   -0.0135   -0.0040    0.0117    0.0207   -0.0100   -0.0106    0.0025   -0.0192
          16   -0.0029    0.0077    0.0093   -0.0063   -0.0138    0.0050    0.0233   -0.0171
          17   -0.0047    0.0148   -0.0210   -0.0015    0.0124   -0.0180    0.0133    0.0153
          18    0.0067   -0.0152   -0.0002   -0.0050    0.0036   -0.0194    0.0078    0.0112
          19    0.0064   -0.0046   -0.0028    0.0218    0.0201    0.0082    0.0249   -0.0080
          20    0.0032   -0.0117    0.0031    0.0147    0.0047    0.0000    0.0072    0.0001
          21    0.0082    0.0199    0.0022   -0.0218   -0.0046   -0.0011   -0.0137    0.0081
          22   -0.0007   -0.0084   -0.0099    0.0017    0.0065   -0.0063    0.0001    0.0051
          23    0.0005    0.0042   -0.0017   -0.0061   -0.0015   -0.0113    0.0212    0.0028
          24    0.0013    0.0070    0.0061   -0.0109   -0.0075   -0.0166    0.0322   -0.0002
          25    0.0092    0.0152    0.0261   -0.0019   -0.0122    0.0150   -0.0156    0.0158
          26   -0.0004   -0.0144    0.0085   -0.0094   -0.0085   -0.0228   -0.0110    0.0021
          27    0.0057    0.0243   -0.0053    0.0043    0.0082    0.0188   -0.0045   -0.0078
          28   -0.0061    0.0153    0.0157   -0.0007   -0.0150    0.0210   -0.0219   -0.0099
          29    0.0065   -0.0077    0.0168   -0.0119   -0.0121   -0.0209   -0.0028    0.0016
          30   -0.0032    0.0047   -0.0220    0.0073    0.0190   -0.0012   -0.0144    0.0186
          31    0.0010    0.0033   -0.0034   -0.0077   -0.0055   -0.0208   -0.0028   -0.0034
          32    0.0107    0.0245    0.0073    0.0204    0.0016   -0.0060   -0.0037   -0.0111
          33    0.0026   -0.0040   -0.0027    0.0170   -0.0234    0.0133    0.0087    0.0331
          34   -0.0031   -0.0039   -0.0048   -0.0121   -0.0049   -0.0189   -0.0025   -0.0006
          35    0.0014    0.0069    0.0035    0.0164   -0.0015    0.0053   -0.0010    0.0006
          36   -0.0025   -0.0016    0.0070   -0.0205    0.0192   -0.0150   -0.0040   -0.0090
          37    0.0011   -0.0071   -0.0061    0.0142    0.0129   -0.0087   -0.0341    0.0099
          38    0.0010   -0.0038   -0.0252   -0.0293   -0.0167    0.0441    0.0144   -0.0071
          39   -0.0139   -0.0091   -0.0019    0.0172   -0.0205   -0.0106   -0.0051   -0.0355
          40   -0.0064   -0.0221   -0.0071    0.0220   -0.0108   -0.0205   -0.0277   -0.0003
          41    0.0004    0.0034   -0.0200    0.0176   -0.0154    0.0005   -0.0311   -0.0077
          42    0.0013    0.0178   -0.0088    0.0039    0.0092    0.0039   -0.0159   -0.0114
          43   -0.0092    0.0052   -0.0221   -0.0222   -0.0251   -0.0053    0.0109    0.0088
          44   -0.0117   -0.0026   -0.0209   -0.0258   -0.0124    0.0258    0.0048   -0.0433
          45    0.0015   -0.0103   -0.0097    0.0119   -0.0318    0.0195    0.0116    0.0322
          46   -0.0088    0.0039   -0.0285   -0.0185   -0.0396   -0.0009    0.0174    0.0191
          47   -0.0015    0.0017   -0.0200    0.0162   -0.0164   -0.0127   -0.0346   -0.0064
          48    0.0099   -0.0264    0.0378   -0.0121    0.0654    0.0416   -0.0022   -0.0163
          49   -0.0009   -0.0023    0.0081   -0.0317    0.0404    0.0091    0.0002   -0.0190
          50    0.0057   -0.0273    0.0116    0.0024    0.0189    0.0292   -0.0186   -0.0028
          51    0.0090   -0.0241    0.0335   -0.0105    0.0574    0.0373   -0.0027   -0.0142
          52    0.0219    0.0033   -0.0121    0.0096    0.0207    0.0099    0.0234   -0.0068
          53   -0.0250    0.0064    0.0630    0.0024    0.0345    0.0051    0.0095    0.0735
          54   -0.0141   -0.0092   -0.0035    0.0198   -0.0208   -0.0082   -0.0028   -0.0405
          55   -0.0041    0.0028    0.0109    0.0123    0.0273    0.0165    0.0268    0.0076
          56   -0.0162    0.0031    0.0282   -0.0075    0.0172    0.0133    0.0033    0.0318
          57   -0.0268   -0.0036    0.0555    0.0375    0.0082   -0.0236    0.0073    0.0307
          58   -0.0135    0.0337   -0.0240    0.0031    0.0080    0.0089    0.0327    0.0005
          59   -0.0084    0.0232   -0.0359    0.0007    0.0223   -0.0247    0.0223    0.0252
          60    0.0149   -0.0367    0.0193   -0.0141   -0.0088   -0.0372    0.0094    0.0047
          61    0.0071   -0.0184    0.0371   -0.0143   -0.0312   -0.0013    0.0153   -0.0307
          62   -0.0126    0.0321   -0.0541    0.0085    0.0357   -0.0152    0.0223    0.0331
          63    0.0102   -0.0281   -0.0033   -0.0037    0.0083   -0.0238    0.0085    0.0135
          64   -0.0316    0.0364   -0.0186    0.0032    0.0087   -0.0028    0.0022    0.0040
          65   -0.0002    0.0048    0.0093   -0.0097   -0.0110   -0.0072    0.0315   -0.0079
          66    0.0392   -0.0490    0.0350   -0.0185   -0.0255   -0.0141    0.0454   -0.0161
          67    0.0032   -0.0261   -0.0276    0.0108    0.0270   -0.0143   -0.0338    0.0306
          68    0.0443   -0.0701    0.0138   -0.0063   -0.0030   -0.0149    0.0056    0.0075
          69   -0.0268    0.0478   -0.0156   -0.0053    0.0062   -0.0195    0.0229    0.0122
          70    0.0278   -0.0496   -0.0010   -0.0001    0.0038   -0.0092   -0.0012    0.0056
          71   -0.0378    0.0688   -0.0106   -0.0075   -0.0040   -0.0068    0.0392   -0.0055
          72   -0.0124    0.0401    0.0063   -0.0155   -0.0152   -0.0144    0.0568   -0.0117
          73    0.0196   -0.0149   -0.0180    0.0410    0.0132   -0.0003    0.0343   -0.0351
          74    0.0006   -0.0152   -0.0005    0.0210    0.0029   -0.0027    0.0104   -0.0080
          75   -0.1305    0.0179    0.0272   -0.0258    0.0023    0.0002   -0.0172    0.0248
          76   -0.0205   -0.0153    0.0117    0.0433    0.0214    0.0068    0.0364   -0.0186
          77   -0.1133   -0.0226    0.0199    0.0293    0.0069   -0.0043    0.0134   -0.0048
          78    0.0909    0.0317   -0.0149   -0.0412   -0.0066    0.0022   -0.0233    0.0166
          79    0.0208    0.0156   -0.0034   -0.0169    0.0259    0.0184    0.0067    0.0273
          80    0.1357   -0.0088   -0.0272    0.0154   -0.0032   -0.0032    0.0079   -0.0169
          81    0.0813    0.0317   -0.0132   -0.0415   -0.0058    0.0024   -0.0232    0.0179
          82   -0.0237    0.0108   -0.0111    0.0091    0.0006    0.0125   -0.0502   -0.0037
          83    0.0199   -0.0125    0.0401   -0.0198   -0.0245   -0.0208    0.0032    0.0098
          84   -0.0172   -0.0077   -0.0389    0.0144    0.0300   -0.0149   -0.0543    0.0363
          85    0.0261    0.0279    0.0480   -0.0088   -0.0247    0.0322    0.0117    0.0129
          86   -0.0104   -0.0160    0.0048   -0.0094   -0.0078   -0.0294   -0.0252   -0.0064
          87    0.0226    0.0426    0.0275   -0.0073   -0.0115    0.0394    0.0241   -0.0213
          88    0.0105    0.0147    0.0021    0.0259   -0.0202   -0.0337   -0.0062    0.0042
          89    0.0315    0.0667    0.0335    0.0732    0.0111   -0.0673   -0.0252   -0.0259
          90    0.0081    0.0028    0.0009    0.0357   -0.0306    0.0051    0.0064    0.0362
          91    0.0036    0.0011   -0.0036    0.0349   -0.0353   -0.0165    0.0004    0.0390
          92    0.0121    0.0311    0.0265    0.0567    0.0112   -0.0532   -0.0241   -0.0144
          93   -0.0013    0.0077    0.0180   -0.0294    0.0447   -0.0468   -0.0176   -0.0417
          94   -0.0137   -0.0152   -0.0074   -0.0620    0.0247   -0.0191   -0.0045   -0.0353
          95   -0.0167   -0.0341   -0.0233   -0.0259   -0.0179    0.0754    0.0255    0.0302
          96   -0.0090   -0.0083    0.0057   -0.0516    0.0382   -0.0159   -0.0056   -0.0316


   Root No.      17        18        19        20        21        22        23        24

                17 A      18 A      19 A      20 A      21 A      22 A      23 A      24 A   

                 483.9     506.9     574.1     646.9     732.3     819.2     823.5     895.7
  
[...]
 RED. MASS   5.3647        C  9 --  H 29          +13.2% ( 53.7%)     3.5%
 EFF. MASS  11.8191        C 10 --  H 28          +13.2% ( 53.6%)     3.4%

 VIBRATION   71   71A       ATOM PAIR        ENERGY CONTRIBUTION    RADIAL
 FREQ.      2927.16        C  2 --  H 14          +86.1% ( 94.9%)   100.0%
 T-DIPOLE    0.0831        C  1 --  H 13           +8.7% ( 30.1%)   100.0%
 TRAVEL      0.1262        C  1 --  C  2           +1.1% ( 10.6%)    16.3%
 RED. MASS   0.7597        C  2 --  C  4           +0.9% (  9.8%)    14.0%
 EFF. MASS   1.4460

 VIBRATION   72   72A       ATOM PAIR        ENERGY CONTRIBUTION    RADIAL
 FREQ.      2933.06        C  3 --  H 15          +72.8% ( 87.4%)   100.0%
 T-DIPOLE    0.0616        C  1 --  H 13          +17.6% ( 43.0%)   100.0%
 TRAVEL      0.1259        C  2 --  H 14           +3.3% ( 18.6%)   100.0%
 RED. MASS   0.5727        C  1 --  C  3           +1.1% ( 10.7%)    15.9%
 EFF. MASS   1.4507

 VIBRATION   73   73A       ATOM PAIR        ENERGY CONTRIBUTION    RADIAL
 FREQ.      2940.77        C  1 --  H 13          +52.2% ( 74.0%)   100.0%
 T-DIPOLE    0.1514        C  3 --  H 15          +21.3% ( 47.3%)   100.0%
 TRAVEL      0.1253        C  5 --  H 18           +8.3% ( 29.6%)    96.3%
 RED. MASS   0.3436        C  5 --  H 19           +8.2% ( 29.4%)    96.3%
 EFF. MASS   1.4608

 VIBRATION   74   74A       ATOM PAIR        ENERGY CONTRIBUTION    RADIAL
 FREQ.      2944.94        C  6 --  H 20          +52.1% ( 75.0%)    96.8%
 T-DIPOLE    0.0178        C  6 --  H 21          +45.1% ( 69.7%)    96.1%
 TRAVEL      0.1218        C  6 --  C  8           +1.2% ( 11.2%)     0.0%
 RED. MASS   0.5160        C  6 --  C 10           +1.2% ( 11.1%)     0.2%
 EFF. MASS   1.5439

 VIBRATION   75   75A       ATOM PAIR        ENERGY CONTRIBUTION    RADIAL
 FREQ.      2950.60        C  5 --  H 19          +40.2% ( 65.5%)    96.6%
 T-DIPOLE    0.0636        C  5 --  H 18          +39.6% ( 65.0%)    96.5%
 TRAVEL      0.1226        C  1 --  H 13          +16.5% ( 42.0%)   100.0%
 RED. MASS   0.3693        C  1 --  C  5           +1.0% ( 10.5%)     2.9%
 EFF. MASS   1.5202

 VIBRATION   76   76A       ATOM PAIR        ENERGY CONTRIBUTION    RADIAL
 FREQ.      3024.06        C  6 --  H 21          +48.7% ( 68.9%)    98.0%
 T-DIPOLE    0.0477        C  6 --  H 20          +43.4% ( 65.1%)    97.4%
 TRAVEL      0.1312        C 10 --  H 28           +4.6% ( 21.2%)    99.9%
 RED. MASS   0.4285        C  6 --  C 10           +0.7% (  8.4%)    28.8%
 EFF. MASS   1.2952

 VIBRATION   77   77A       ATOM PAIR        ENERGY CONTRIBUTION    RADIAL
 FREQ.      3026.85        C  5 --  H 18          +46.3% ( 67.2%)    97.7%
 T-DIPOLE    0.0708        C  5 --  H 19          +45.5% ( 66.6%)    97.7%
 TRAVEL      0.1317        C 10 --  H 28           +4.5% ( 20.9%)   100.0%
 RED. MASS   0.4237        C  6 --  H 21           +1.0% (  9.7%)    98.6%
 EFF. MASS   1.2846

 VIBRATION   78   78A       ATOM PAIR        ENERGY CONTRIBUTION    RADIAL
 FREQ.      3031.01        C  4 --  H 17          +56.4% ( 78.0%)    98.1%
 T-DIPOLE    0.1657        C  4 --  H 16          +32.0% ( 58.8%)    94.8%
 TRAVEL      0.1206        C  9 --  H 29           +3.7% ( 20.0%)   100.0%
 RED. MASS   0.4619        C 10 --  H 28           +3.1% ( 18.3%)   100.0%
 EFF. MASS   1.5303

 VIBRATION   79   79A       ATOM PAIR        ENERGY CONTRIBUTION    RADIAL
 FREQ.      3032.18        C 10 --  H 28          +79.3% ( 90.1%)   100.0%
 T-DIPOLE    0.2675        C  9 --  H 29           +5.4% ( 23.6%)    99.9%
 TRAVEL      0.1234        C  4 --  H 17           +3.6% ( 19.3%)    98.0%
 RED. MASS   0.6191        C  5 --  H 19           +2.5% ( 15.9%)    98.4%
 EFF. MASS   1.4608

 VIBRATION   80   80A       ATOM PAIR        ENERGY CONTRIBUTION    RADIAL
 FREQ.      3034.91        C  9 --  H 29          +86.7% ( 94.6%)   100.0%
 T-DIPOLE    0.1794        C 10 --  H 28           +6.1% ( 25.1%)    99.6%
 TRAVEL      0.1198        C  9 --  C 10           +1.8% ( 13.6%)    39.6%
 RED. MASS   0.7515        C  2 --  C  9           +1.3% ( 11.5%)    13.1%
 EFF. MASS   1.5484

 VIBRATION   81   81A       ATOM PAIR        ENERGY CONTRIBUTION    RADIAL
 FREQ.      3040.10        C 11 --  H 30          +95.6% ( 99.2%)   100.0%
 T-DIPOLE    0.2432        C 11 --  C 12           +1.4% ( 12.1%)    30.8%
 TRAVEL      0.1214        C  3 --  C 11           +1.3% ( 11.8%)    15.4%
 RED. MASS   0.9005        C 12 --  H 31           +0.9% (  9.4%)    95.3%
 EFF. MASS   1.5040

 VIBRATION   82   82A       ATOM PAIR        ENERGY CONTRIBUTION    RADIAL
 FREQ.      3069.71        C  7 --  H 25          +68.0% ( 85.1%)    98.9%
 T-DIPOLE    0.0283        C  7 --  H 26          +25.8% ( 52.4%)    91.5%
 TRAVEL      0.1210        C  7 --  H 27           +4.7% ( 22.3%)    54.0%
 RED. MASS   0.5588        C  5 --  C  7           +1.0% ( 10.2%)     0.1%
 EFF. MASS   1.4997

 VIBRATION   83   83A       ATOM PAIR        ENERGY CONTRIBUTION    RADIAL
 FREQ.      3081.46        C  8 --  H 24          +63.3% ( 82.1%)    98.6%
 T-DIPOLE    0.0093        C  8 --  H 22          +29.8% ( 56.4%)    92.7%
 TRAVEL      0.1207        C  8 --  H 23           +5.6% ( 24.5%)    58.4%
 RED. MASS   0.5203        C  6 --  C  8           +1.0% ( 10.2%)     0.0%
 EFF. MASS   1.5012

 VIBRATION   84   84A       ATOM PAIR        ENERGY CONTRIBUTION    RADIAL
 FREQ.      3084.64        C  7 --  H 27          +55.4% ( 76.8%)    98.1%
 T-DIPOLE    0.0035        C  7 --  H 26          +38.4% ( 63.9%)    94.9%
 TRAVEL      0.1206        C  7 --  H 25           +4.8% ( 22.5%)    51.8%
 RED. MASS   0.4853        C  5 --  C  7           +1.0% ( 10.3%)     0.0%
 EFF. MASS   1.5042

 VIBRATION   85   85A       ATOM PAIR        ENERGY CONTRIBUTION    RADIAL
 FREQ.      3086.16        C  8 --  H 23          +59.1% ( 79.3%)    98.4%
 T-DIPOLE    0.0106        C  8 --  H 22          +35.1% ( 61.1%)    94.2%
 TRAVEL      0.1205        C  8 --  H 24           +4.5% ( 21.8%)    50.2%
 RED. MASS   0.5023        C  6 --  C  8           +1.0% ( 10.3%)     0.1%
 EFF. MASS   1.5041

 VIBRATION   86   86A       ATOM PAIR        ENERGY CONTRIBUTION    RADIAL
 FREQ.      3099.69        C  4 --  H 16          +63.0% ( 78.8%)    98.6%
 T-DIPOLE    0.0763        C  4 --  H 17          +34.8% ( 58.6%)    94.5%
 TRAVEL      0.1300        C  1 --  C  4           +0.7% (  8.3%)    97.4%
 RED. MASS   0.5178        C  3 --  C  4           +0.7% (  8.3%)    47.6%
 EFF. MASS   1.2881

 VIBRATION   87   87A       ATOM PAIR        ENERGY CONTRIBUTION    RADIAL
 FREQ.      3128.44        C 12 --  H 32          +96.1% ( 99.5%)   100.0%
 T-DIPOLE    0.2031        C 12 --  H 31           +2.3% ( 15.5%)    42.6%
 TRAVEL      0.1194        C 11 --  C 12           +1.4% ( 11.8%)    33.5%
 RED. MASS   0.9137
 EFF. MASS   1.5128

 VIBRATION   88   88A       ATOM PAIR        ENERGY CONTRIBUTION    RADIAL
 FREQ.      3147.60        C 12 --  H 31          +95.8% ( 98.9%)    99.9%
 T-DIPOLE    0.2486        C 12 --  H 32           +1.9% ( 13.9%)     2.0%
 TRAVEL      0.1198        C 11 --  C 12           +1.5% ( 12.6%)    60.2%
 RED. MASS   0.8927        C 11 --  H 30           +0.8% (  8.8%)    95.3%
 EFF. MASS   1.4918

 VIBRATION   89   89A       ATOM PAIR        ENERGY CONTRIBUTION    RADIAL
 FREQ.      3176.24        C  7 --  H 27          +39.5% ( 60.5%)    97.9%
 T-DIPOLE    0.0144        C  7 --  H 26          +35.0% ( 57.0%)    97.3%
 TRAVEL      0.1365        C  7 --  H 25          +25.1% ( 48.2%)    95.4%
 RED. MASS   0.3356        C  5 --  C  7           +0.3% (  5.2%)    97.2%
 EFF. MASS   1.1391

 VIBRATION   90   90A       ATOM PAIR        ENERGY CONTRIBUTION    RADIAL
 FREQ.      3183.25        C  8 --  H 23          +34.3% ( 56.4%)    97.3%
 T-DIPOLE    0.0186        C  8 --  H 22          +34.3% ( 56.4%)    97.3%
 TRAVEL      0.1366        C  8 --  H 24          +31.0% ( 53.6%)    96.7%
 RED. MASS   0.3276        C  6 --  C  8           +0.3% (  5.1%)    99.8%
 EFF. MASS   1.1360

 SYMMETRY NUMBER FOR POINT-GROUP C1  =  1


          SYSTEM IS A GROUND STATE


    NULL



          MOLECULE IS NOT LINEAR

          THERE ARE 90 GENUINE VIBRATIONS IN THIS SYSTEM
          THIS THERMODYNAMICS CALCULATION IS LIMITED TO
          MOLECULES WHICH HAVE NO INTERNAL ROTATIONS




                    CALCULATED THERMODYNAMIC PROPERTIES
                                          *
   TEMP. (K)   PARTITION FUNCTION   H.O.F.    ENTHALPY  HEAT CAPACITY ENTROPY
                                   KCAL/MOL   CAL/MOLE    CAL/K/MOL  CAL/K/MOL


 298.00  VIB.     0.6758D+05                  6972.9991    46.0028    45.4993
         ROT.     0.1747D+07                   888.2813     2.9808    31.5440
         INT.     0.1181D+12                  7861.2804    48.9837    77.0433
         TRA.     0.2036D+28                  1480.4688     4.9680    41.1956
         TOT.                        6.532    9341.7492    53.9517   118.2389

 200.00  VIB.     0.1337D+04                  3249.8409    30.5654    30.5532
         ROT.     0.9607D+06                   596.1620     2.9808    30.3554
         INT.     0.1284D+10                  3846.0029    33.5462    60.9086
         TRA.     0.1119D+28                   993.6033     4.9680    39.2145
         TOT.                        2.029    4839.6061    38.5142   100.1231

 210.00  VIB.     0.2010D+04                  3562.4603    31.9656    32.0782
         ROT.     0.1034D+07                   625.9700     2.9808    30.5008
         INT.     0.2077D+10                  4188.4304    34.9464    62.5790
         TRA.     0.1204D+28                  1043.2834     4.9680    39.4569
         TOT.                        2.422    5231.7138    39.9144   102.0359

 220.00  VIB.     0.3014D+04                  3889.2967    33.4090    33.5984
         ROT.     0.1108D+07                   655.7781     2.9808    30.6395
         INT.     0.3341D+10                  4545.0749    36.3899    64.2379
         TRA.     0.1291D+28                  1092.9636     4.9680    39.6880
         TOT.                        2.828    5638.0385    41.3579   103.9259

 230.00  VIB.     0.4512D+04                  4230.7886    34.8967    35.1162
         ROT.     0.1185D+07                   685.5862     2.9808    30.7720
         INT.     0.5346D+10                  4916.3749    37.8775    65.8881
         TRA.     0.1380D+28                  1142.6437     4.9680    39.9088
         TOT.                        3.249    6059.0186    42.8455   105.7970

 240.00  VIB.     0.6742D+04                  4587.3751    36.4277    36.6336
         ROT.     0.1263D+07                   715.3943     2.9808    30.8988
         INT.     0.8514D+10                  5302.7694    39.4085    67.5324
         TRA.     0.1471D+28                  1192.3239     4.9680    40.1203
         TOT.                        3.685    6495.0933    44.3765   107.6527

 250.00  VIB.     0.1006D+05                  4959.4805    38.0000    38.1523
         ROT.     0.1343D+07                   745.2024     2.9808    31.0205
         INT.     0.1350D+11                  5704.6830    40.9808    69.1728
         TRA.     0.1564D+28                  1242.0041     4.9680    40.3231
         TOT.                        4.137    6946.6870    45.9489   109.4959

 260.00  VIB.     0.1499D+05                  5347.5031    39.6105    39.6740
         ROT.     0.1424D+07                   775.0105     2.9808    31.1374
         INT.     0.2134D+11                  6122.5136    42.5913    70.8114
         TRA.     0.1659D+28                  1291.6842     4.9680    40.5179
         TOT.                        4.604    7414.1979    47.5594   111.3293

 270.00  VIB.     0.2230D+05                  5751.8051    41.2552    41.1996
         ROT.     0.1507D+07                   804.8186     2.9808    31.2499
         INT.     0.3360D+11                  6556.6237    44.2360    72.4495
         TRA.     0.1756D+28                  1341.3644     4.9680    40.7054
         TOT.                        5.088    7897.9881    49.2040   113.1550

 280.00  VIB.     0.3316D+05                  6172.7063    42.9296    42.7302
         ROT.     0.1591D+07                   834.6267     2.9808    31.3583
         INT.     0.5276D+11                  7007.3330    45.9104    74.0885
         TRA.     0.1854D+28                  1391.0445     4.9680    40.8861
         TOT.                        5.588    8398.3776    50.8784   114.9746

 290.00  VIB.     0.4926D+05                  6610.4799    44.6289    44.2662
         ROT.     0.1677D+07                   864.4348     2.9808    31.4629
         INT.     0.8262D+11                  7474.9147    47.6097    75.7291
         TRA.     0.1954D+28                  1440.7247     4.9680    41.0604
         TOT.                        6.105    8915.6394    52.5777   116.7896

 300.00  VIB.     0.7314D+05                  7065.3498    46.3480    45.8081
         ROT.     0.1765D+07                   894.2429     2.9808    31.5640
         INT.     0.1291D+12                  7959.5927    49.3288    77.3721
         TRA.     0.2056D+28                  1490.4049     4.9680    41.2289
         TOT.                        6.640    9449.9976    54.2969   118.6010

 310.00  VIB.     0.1086D+06                  7537.4902    48.0821    47.3561
         ROT.     0.1854D+07                   924.0510     2.9808    31.6617
         INT.     0.2012D+12                  8461.5412    51.0629    79.0178
         TRA.     0.2160D+28                  1540.0850     4.9680    41.3918
         TOT.                        7.191   10001.6263    56.0310   120.4096

 320.00  VIB.     0.1611D+06                  8027.0260    49.8263    48.9102
         ROT.     0.1944D+07                   953.8591     2.9808    31.7563
         INT.     0.3131D+12                  8980.8851    52.8071    80.6665
         TRA.     0.2265D+28                  1589.7652     4.9680    41.5495
         TOT.                        7.760   10570.6503    57.7751   122.2160

 330.00  VIB.     0.2389D+06                  8534.0345    51.5759    50.4702
         ROT.     0.2036D+07                   983.6672     2.9808    31.8481
         INT.     0.4865D+12                  9517.7017    54.5567    82.3183
         TRA.     0.2372D+28                  1639.4454     4.9680    41.7024
         TOT.                        8.347   11157.1471    59.5248   124.0206

 340.00  VIB.     0.3544D+06                  9058.5481    53.3266    52.0359
         ROT.     0.2129D+07                  1013.4753     2.9808    31.9371
         INT.     0.7547D+12                 10072.0234    56.3074    83.9729
         TRA.     0.2481D+28                  1689.1255     4.9680    41.8507
         TOT.                        8.951   11761.1489    61.2755   125.8236

 350.00  VIB.     0.5258D+06                  9600.5571    55.0744    53.6069
         ROT.     0.2224D+07                  1043.2834     2.9808    32.0235
         INT.     0.1169D+13                 10643.8405    58.0552    85.6304
         TRA.     0.2591D+28                  1738.8057     4.9680    41.9947
         TOT.                        9.572   12382.6462    63.0232   127.6251

 360.00  VIB.     0.7800D+06                 10160.0130    56.8154    55.1828
         ROT.     0.2320D+07                  1073.0915     2.9808    32.1074
         INT.     0.1810D+13                 11233.1045    59.7962    87.2903
         TRA.     0.2703D+28                  1788.4859     4.9680    42.1347
         TOT.                       10.211   13021.5904    64.7643   129.4249

 370.00  VIB.     0.1157D+07                 10736.8325    58.5465    56.7631
         ROT.     0.2417D+07                  1102.8996     2.9808    32.1891
         INT.     0.2798D+13                 11839.7321    61.5273    88.9523
         TRA.     0.2817D+28                  1838.1660     4.9680    42.2708
         TOT.                       10.868   13677.8981    66.4954   131.2230

 380.00  VIB.     0.1718D+07                 11330.9005    60.2647    58.3473
         ROT.     0.2516D+07                  1132.7077     2.9808    32.2686
         INT.     0.4321D+13                 12463.6082    63.2455    90.6159
         TRA.     0.2932D+28                  1887.8462     4.9680    42.4033
         TOT.                       11.541   14351.4543    68.2135   133.0192

 390.00  VIB.     0.2549D+07                 11942.0743    61.9673    59.9348
         ROT.     0.2616D+07                  1162.5158     2.9808    32.3460
         INT.     0.6669D+13                 13104.5901    64.9481    92.2808
         TRA.     0.3048D+28                  1937.5263     4.9680    42.5323
         TOT.                       12.232   15042.1165    69.9161   134.8131

 400.00  VIB.     0.3785D+07                 12570.1871    63.6521    61.5249
         ROT.     0.2717D+07                  1192.3239     2.9808    32.4215
         INT.     0.1029D+14                 13762.5110    66.6329    93.9464
         TRA.     0.3166D+28                  1987.2065     4.9680    42.6581
         TOT.                       12.940   15749.7175    71.6009   136.6045

   *: NOTE: HEATS OF FORMATION ARE RELATIVE TO THE
            ELEMENTS IN THEIR STANDARD STATE AT 298K
              (=  Standard Enthalpy of Formation).

            Hvib:  Zero-point energy is not included.
                   frequencies of less than zero cm-1 are not included.
            Hrot = (3/2)RT
            Htra = (3/2)RT + pV = (5/2)RT

            Heat capacity is Cp, not Cv

           For more information, see: HTTP://OpenMOPAC.net/Manual/thermochemistry.html


           FORCE CONSTANT IN CARTESIAN COORDINATES (Millidynes/A)

    ATOM   CHEMICAL       X               Y               Z
   NUMBER   SYMBOL  FORCE CONSTANT  FORCE CONSTANT  FORCE CONSTANT

      1       C        7.930181        7.708750        8.705313
      2       C        7.880896        8.431525        8.897322
      3       C        8.401323        7.565416        9.180402
      4       C        7.918660        7.862379        8.638391
      5       C        8.488785        8.296131        8.310665
      6       C        8.446255        8.387602        8.605644
      7       C        8.309335        8.210299        8.351598
      8       C        8.222733        8.263227        8.370288
      9       C        6.738973       13.550175        7.097792
     10       C        6.695214       13.413844        7.116159
     11       C       13.640020        4.819825        8.877731
     12       C       13.521660        4.282444        8.683908
     13       H        1.352443        1.336840        3.552017
     14       H        1.336083        1.169317        3.606892
     15       H        1.196697        1.356685        3.671562
     16       H        1.644806        1.640576        3.349100
     17       H        1.323467        1.308217        3.983488
     18       H        1.218194        1.514308        3.665811
     19       H        1.034939        4.627892        0.690755
     20       H        1.917749        2.968903        1.392921
     21       H        2.327105        2.310932        1.761302
     22       H        2.067428        3.187330        1.529725
     23       H        1.802450        1.871185        3.120185
     24       H        2.499084        2.530350        1.757347
     25       H        1.103616        4.941180        0.680042
     26       H        1.340864        1.758444        3.682158
     27       H        1.435450        1.466168        3.890339
     28       H        2.961108        1.738212        1.500248
     29       H        2.936164        1.786277        1.484097
     30       H        1.764858        0.428473        4.020353
     31       H        1.717854        1.158360        3.604000
     32       H        1.945750        0.417214        4.086639



 TOTAL CPU TIME:            10.17 SECONDS

 == MOPAC DONE ==
