 *******************************************************************************
 ** Site#: 14399           For non-commercial use only        Version 13.159M **
 *******************************************************************************
 ** Cite this work as: MOPAC2012, James J. P. Stewart, Stewart Computational  **
 ** Chemistry, Version 13.159M web: HTTP://OpenMOPAC.net  Days remaining:   6 **
 *******************************************************************************
 **                                                                           **
 **                                MOPAC2012                                  **
 **                                                                           **
 *******************************************************************************

                            PM3 CALCULATION RESULTS


 *******************************************************************************
 *  CALCULATION DONE:                                Mon Jun  2 11:08:16 2014  *
 *  PM3      - The PM3 Hamiltonian to be used
 *  PRECISE  - CRITERIA TO BE INCREASED BY 100 TIMES
 *  NOSYM    - POINT-GROUP SYMMETRY SET TO C1
 *  T=       - A TIME OF 172800.0 SECONDS REQUESTED
 *  DUMP=N   - RESTART FILE WRITTEN EVERY  7200.000 SECONDS
 *******************************************************************************
pm3  precise nosym
 InChI=1S/C10H16/c1-3-5-9-7-8-10(9)6-4-2/h3-6,9-10H,7-8H2,1-2H3

   ATOM   CHEMICAL          X               Y               Z
  NUMBER   SYMBOL      (ANGSTROMS)     (ANGSTROMS)     (ANGSTROMS)
 
     1       C         -0.69760000  *  -0.81490000  *   0.73590000  *
     2       C          0.47610000  *  -0.84020000  *  -0.29750000  *
     3       C         -0.68880000  *  -2.34140000  *   0.70680000  *
     4       C          0.57070000  *  -2.34780000  *  -0.08770000  *
     5       C         -3.25950000  *   1.83430000  *  -0.44410000  *
     6       C          3.46660000  *   1.62380000  *  -0.17440000  *
     7       C         -1.95420000  *  -0.15700000  *   0.23270000  *
     8       C          1.68970000  *  -0.06730000  *   0.14640000  *
     9       C         -2.01440000  *   1.16780000  *   0.05100000  *
    10       C          2.26590000  *   0.85640000  *  -0.63220000  *
    11       H         -0.40980000  *  -0.43260000  *   1.74540000  *
    12       H          0.14270000  *  -0.60730000  *  -1.33900000  *
    13       H         -0.57310000  *  -2.79550000  *   1.71870000  *
    14       H         -1.53320000  *  -2.80260000  *   0.14130000  *
    15       H          1.44570000  *  -2.67720000  *   0.52240000  *
    16       H          0.49030000  *  -2.92590000  *  -1.03800000  *
    17       H         -3.09740000  *   2.93260000  *  -0.52650000  *
    18       H         -3.53280000  *   1.44330000  *  -1.45030000  *
    19       H          3.78740000  *   2.33870000  *  -0.96530000  *
    20       H          4.31200000  *   0.92990000  *   0.03530000  *
    21       H         -4.10100000  *   1.65560000  *   0.26310000  *
    22       H          3.22700000  *   2.20320000  *   0.74600000  *
    23       H         -2.83280000  *  -0.76790000  *   0.02540000  *
    24       H          2.09870000  *  -0.26540000  *   1.13780000  *
    25       H         -1.14250000  *   1.78750000  *   0.26090000  *
    26       H          1.86440000  *   1.06990000  *  -1.62250000  *
 


          CARTESIAN COORDINATES 

    NO.       ATOM         X         Y         Z

     1         C       -0.6976   -0.8149    0.7359
     2         C        0.4761   -0.8402   -0.2975
     3         C       -0.6888   -2.3414    0.7068
     4         C        0.5707   -2.3478   -0.0877
     5         C       -3.2595    1.8343   -0.4441
     6         C        3.4666    1.6238   -0.1744
     7         C       -1.9542   -0.1570    0.2327
     8         C        1.6897   -0.0673    0.1464
     9         C       -2.0144    1.1678    0.0510
    10         C        2.2659    0.8564   -0.6322
    11         H       -0.4098   -0.4326    1.7454
    12         H        0.1427   -0.6073   -1.3390
    13         H       -0.5731   -2.7955    1.7187
    14         H       -1.5332   -2.8026    0.1413
    15         H        1.4457   -2.6772    0.5224
    16         H        0.4903   -2.9259   -1.0380
    17         H       -3.0974    2.9326   -0.5265
    18         H       -3.5328    1.4433   -1.4503
    19         H        3.7874    2.3387   -0.9653
    20         H        4.3120    0.9299    0.0353
    21         H       -4.1010    1.6556    0.2631
    22         H        3.2270    2.2032    0.7460
    23         H       -2.8328   -0.7679    0.0254
    24         H        2.0987   -0.2654    1.1378
    25         H       -1.1425    1.7875    0.2609
    26         H        1.8644    1.0699   -1.6225

  H: (PM3): J. J. P. STEWART, J. COMP. CHEM. 10, 209 (1989).
  C: (PM3): J. J. P. STEWART, J. COMP. CHEM. 10, 209 (1989).

           Empirical Formula: C10 H16  =    26 atoms



      MOLECULAR POINT GROUP   :   C1  


      RHF CALCULATION, NO. OF DOUBLY OCCUPIED LEVELS =   28

      Geometry optimization using EF

          DIAGONAL MATRIX USED AS START HESSIAN

 CYCLE:     1 TIME:   0.012 TIME LEFT:  2.00D  GRAD.:   106.650 HEAT: 20.81527
 CYCLE:     2 TIME:   0.017 TIME LEFT:  2.00D  GRAD.:   113.242 HEAT: 19.83674
 CYCLE:     3 TIME:   0.016 TIME LEFT:  2.00D  GRAD.:    60.006 HEAT: 17.31365
 CYCLE:     4 TIME:   0.016 TIME LEFT:  2.00D  GRAD.:    45.574 HEAT: 16.73166
 CYCLE:     5 TIME:   0.009 TIME LEFT:  2.00D  GRAD.:    34.398 HEAT: 16.24681
 CYCLE:     6 TIME:   0.009 TIME LEFT:  2.00D  GRAD.:    49.198 HEAT: 16.01064
 CYCLE:     7 TIME:   0.009 TIME LEFT:  2.00D  GRAD.:    48.293 HEAT: 15.69456
 CYCLE:     8 TIME:   0.016 TIME LEFT:  2.00D  GRAD.:    27.492 HEAT: 15.36414
 CYCLE:     9 TIME:   0.009 TIME LEFT:  2.00D  GRAD.:    27.188 HEAT: 15.33508
 CYCLE:    10 TIME:   0.009 TIME LEFT:  2.00D  GRAD.:    19.086 HEAT: 15.21680
 CYCLE:    11 TIME:   0.016 TIME LEFT:  2.00D  GRAD.:     9.105 HEAT: 15.13133
 CYCLE:    12 TIME:   0.016 TIME LEFT:  2.00D  GRAD.:     7.874 HEAT: 15.11877
 CYCLE:    13 TIME:   0.009 TIME LEFT:  2.00D  GRAD.:     6.756 HEAT: 15.10503
 CYCLE:    14 TIME:   0.009 TIME LEFT:  2.00D  GRAD.:     7.476 HEAT: 15.10217
 CYCLE:    15 TIME:   0.009 TIME LEFT:  2.00D  GRAD.:     7.390 HEAT: 15.09485
 CYCLE:    16 TIME:   0.009 TIME LEFT:  2.00D  GRAD.:     7.190 HEAT: 15.09120
 CYCLE:    17 TIME:   0.009 TIME LEFT:  2.00D  GRAD.:     8.282 HEAT: 15.09017
 CYCLE:    18 TIME:   0.009 TIME LEFT:  2.00D  GRAD.:     7.835 HEAT: 15.08592
 CYCLE:    19 TIME:   0.009 TIME LEFT:  2.00D  GRAD.:     7.610 HEAT: 15.08069
 CYCLE:    20 TIME:   0.009 TIME LEFT:  2.00D  GRAD.:     6.556 HEAT: 15.07264
 CYCLE:    21 TIME:   0.016 TIME LEFT:  2.00D  GRAD.:     3.130 HEAT: 15.06100
 CYCLE:    22 TIME:   0.009 TIME LEFT:  2.00D  GRAD.:     5.552 HEAT: 15.06335
 CYCLE:    23 TIME:   0.009 TIME LEFT:  2.00D  GRAD.:     4.125 HEAT: 15.05415
 CYCLE:    24 TIME:   0.008 TIME LEFT:  2.00D  GRAD.:     4.169 HEAT: 15.04825
 CYCLE:    25 TIME:   0.008 TIME LEFT:  2.00D  GRAD.:     2.729 HEAT: 15.03679
 CYCLE:    26 TIME:   0.009 TIME LEFT:  2.00D  GRAD.:     4.365 HEAT: 15.02612
 CYCLE:    27 TIME:   0.009 TIME LEFT:  2.00D  GRAD.:     6.512 HEAT: 15.02014
 CYCLE:    28 TIME:   0.008 TIME LEFT:  2.00D  GRAD.:     4.732 HEAT: 15.00732
 CYCLE:    29 TIME:   0.008 TIME LEFT:  2.00D  GRAD.:     5.638 HEAT: 15.00367
 CYCLE:    30 TIME:   0.008 TIME LEFT:  2.00D  GRAD.:     2.828 HEAT: 14.98982
 CYCLE:    31 TIME:   0.009 TIME LEFT:  2.00D  GRAD.:     4.508 HEAT: 14.98308
 CYCLE:    32 TIME:   0.009 TIME LEFT:  2.00D  GRAD.:     3.948 HEAT: 14.96695
 CYCLE:    33 TIME:   0.009 TIME LEFT:  2.00D  GRAD.:     3.478 HEAT: 14.95009
 CYCLE:    34 TIME:   0.009 TIME LEFT:  2.00D  GRAD.:     2.761 HEAT: 14.94080
 CYCLE:    35 TIME:   0.009 TIME LEFT:  2.00D  GRAD.:     2.573 HEAT: 14.93254
 CYCLE:    36 TIME:   0.009 TIME LEFT:  2.00D  GRAD.:     2.985 HEAT: 14.92286
 CYCLE:    37 TIME:   0.009 TIME LEFT:  2.00D  GRAD.:     3.749 HEAT: 14.91219
 CYCLE:    38 TIME:   0.008 TIME LEFT:  2.00D  GRAD.:     2.408 HEAT: 14.90229
 CYCLE:    39 TIME:   0.009 TIME LEFT:  2.00D  GRAD.:     2.469 HEAT: 14.89412
 CYCLE:    40 TIME:   0.009 TIME LEFT:  2.00D  GRAD.:     3.320 HEAT: 14.87800
 CYCLE:    41 TIME:   0.009 TIME LEFT:  2.00D  GRAD.:     3.239 HEAT: 14.86641
 CYCLE:    42 TIME:   0.009 TIME LEFT:  2.00D  GRAD.:     2.579 HEAT: 14.85770
 CYCLE:    43 TIME:   0.009 TIME LEFT:  2.00D  GRAD.:     2.155 HEAT: 14.84969
 CYCLE:    44 TIME:   0.009 TIME LEFT:  2.00D  GRAD.:     2.303 HEAT: 14.83903
 CYCLE:    45 TIME:   0.009 TIME LEFT:  2.00D  GRAD.:     2.204 HEAT: 14.83384
 CYCLE:    46 TIME:   0.009 TIME LEFT:  2.00D  GRAD.:     1.611 HEAT: 14.82797
 CYCLE:    47 TIME:   0.009 TIME LEFT:  2.00D  GRAD.:     1.708 HEAT: 14.82249
 CYCLE:    48 TIME:   0.009 TIME LEFT:  2.00D  GRAD.:     1.823 HEAT: 14.81745
 CYCLE:    49 TIME:   0.009 TIME LEFT:  2.00D  GRAD.:     1.894 HEAT: 14.81163
 CYCLE:    50 TIME:   0.009 TIME LEFT:  2.00D  GRAD.:     1.909 HEAT: 14.80477
 CYCLE:    51 TIME:   0.009 TIME LEFT:  2.00D  GRAD.:     1.924 HEAT: 14.79721
 CYCLE:    52 TIME:   0.009 TIME LEFT:  2.00D  GRAD.:     1.984 HEAT: 14.78984
 CYCLE:    53 TIME:   0.009 TIME LEFT:  2.00D  GRAD.:     1.854 HEAT: 14.78246
 CYCLE:    54 TIME:   0.009 TIME LEFT:  2.00D  GRAD.:     2.191 HEAT: 14.77089
 CYCLE:    55 TIME:   0.009 TIME LEFT:  2.00D  GRAD.:     2.605 HEAT: 14.75591
 CYCLE:    56 TIME:   0.009 TIME LEFT:  2.00D  GRAD.:     2.534 HEAT: 14.74297
 CYCLE:    57 TIME:   0.010 TIME LEFT:  2.00D  GRAD.:     2.432 HEAT: 14.72971
 CYCLE:    58 TIME:   0.009 TIME LEFT:  2.00D  GRAD.:     3.573 HEAT: 14.71211
 CYCLE:    59 TIME:   0.009 TIME LEFT:  2.00D  GRAD.:     4.285 HEAT: 14.69046
 CYCLE:    60 TIME:   0.009 TIME LEFT:  2.00D  GRAD.:     3.906 HEAT: 14.66464
 CYCLE:    61 TIME:   0.009 TIME LEFT:  2.00D  GRAD.:     2.611 HEAT: 14.64342
 CYCLE:    62 TIME:   0.009 TIME LEFT:  2.00D  GRAD.:     2.900 HEAT: 14.62931
 CYCLE:    63 TIME:   0.009 TIME LEFT:  2.00D  GRAD.:     4.408 HEAT: 14.60168
 CYCLE:    64 TIME:   0.009 TIME LEFT:  2.00D  GRAD.:     5.141 HEAT: 14.57080
 CYCLE:    65 TIME:   0.009 TIME LEFT:  2.00D  GRAD.:     4.581 HEAT: 14.54235
 CYCLE:    66 TIME:   0.009 TIME LEFT:  2.00D  GRAD.:     5.938 HEAT: 14.51786
 CYCLE:    67 TIME:   0.009 TIME LEFT:  2.00D  GRAD.:     3.043 HEAT: 14.49482
 CYCLE:    68 TIME:   0.009 TIME LEFT:  2.00D  GRAD.:     2.243 HEAT: 14.47015
 CYCLE:    69 TIME:   0.010 TIME LEFT:  2.00D  GRAD.:     2.696 HEAT: 14.43848
 CYCLE:    70 TIME:   0.009 TIME LEFT:  2.00D  GRAD.:     5.546 HEAT: 14.41042
 CYCLE:    71 TIME:   0.009 TIME LEFT:  2.00D  GRAD.:     4.395 HEAT: 14.37768
 CYCLE:    72 TIME:   0.009 TIME LEFT:  2.00D  GRAD.:     4.830 HEAT: 14.30396
 CYCLE:    73 TIME:   0.009 TIME LEFT:  2.00D  GRAD.:    10.421 HEAT: 14.22929
 CYCLE:    74 TIME:   0.016 TIME LEFT:  2.00D  GRAD.:     8.516 HEAT: 14.16395
 CYCLE:    75 TIME:   0.009 TIME LEFT:  2.00D  GRAD.:     5.389 HEAT: 14.09920
 CYCLE:    76 TIME:   0.009 TIME LEFT:  2.00D  GRAD.:     6.163 HEAT: 14.01753
 CYCLE:    77 TIME:   0.009 TIME LEFT:  2.00D  GRAD.:     8.421 HEAT: 13.96060
 CYCLE:    78 TIME:   0.009 TIME LEFT:  2.00D  GRAD.:     5.109 HEAT: 13.91045
 CYCLE:    79 TIME:   0.009 TIME LEFT:  2.00D  GRAD.:     8.221 HEAT: 13.87874
 CYCLE:    80 TIME:   0.009 TIME LEFT:  2.00D  GRAD.:     4.695 HEAT: 13.82897
 CYCLE:    81 TIME:   0.009 TIME LEFT:  2.00D  GRAD.:     5.344 HEAT: 13.78288
 CYCLE:    82 TIME:   0.009 TIME LEFT:  2.00D  GRAD.:     6.578 HEAT: 13.69919
 CYCLE:    83 TIME:   0.009 TIME LEFT:  2.00D  GRAD.:     6.738 HEAT: 13.64797
 CYCLE:    84 TIME:   0.009 TIME LEFT:  2.00D  GRAD.:     7.734 HEAT: 13.59672
 CYCLE:    85 TIME:   0.009 TIME LEFT:  2.00D  GRAD.:     4.634 HEAT: 13.54528
 CYCLE:    86 TIME:   0.009 TIME LEFT:  2.00D  GRAD.:     6.384 HEAT: 13.51731
 CYCLE:    87 TIME:   0.009 TIME LEFT:  2.00D  GRAD.:     5.023 HEAT: 13.48431
 CYCLE:    88 TIME:   0.009 TIME LEFT:  2.00D  GRAD.:     4.077 HEAT: 13.45829
 CYCLE:    89 TIME:   0.009 TIME LEFT:  2.00D  GRAD.:     6.255 HEAT: 13.44197
 CYCLE:    90 TIME:   0.009 TIME LEFT:  2.00D  GRAD.:     3.555 HEAT: 13.42654
 CYCLE:    91 TIME:   0.009 TIME LEFT:  2.00D  GRAD.:     3.687 HEAT: 13.40323
 CYCLE:    92 TIME:   0.009 TIME LEFT:  2.00D  GRAD.:     3.996 HEAT: 13.38290
 CYCLE:    93 TIME:   0.009 TIME LEFT:  2.00D  GRAD.:     5.523 HEAT: 13.37166
 CYCLE:    94 TIME:   0.009 TIME LEFT:  2.00D  GRAD.:     3.361 HEAT: 13.35454
 CYCLE:    95 TIME:   0.009 TIME LEFT:  2.00D  GRAD.:     2.183 HEAT: 13.34158
 CYCLE:    96 TIME:   0.009 TIME LEFT:  2.00D  GRAD.:     2.348 HEAT: 13.33392
 CYCLE:    97 TIME:   0.009 TIME LEFT:  2.00D  GRAD.:     1.947 HEAT: 13.32808
 CYCLE:    98 TIME:   0.009 TIME LEFT:  2.00D  GRAD.:     1.889 HEAT: 13.32323
 CYCLE:    99 TIME:   0.009 TIME LEFT:  2.00D  GRAD.:     1.526 HEAT: 13.31965
 CYCLE:   100 TIME:   0.009 TIME LEFT:  2.00D  GRAD.:     1.390 HEAT: 13.31693
 CYCLE:   101 TIME:   0.009 TIME LEFT:  2.00D  GRAD.:     1.025 HEAT: 13.31528
 CYCLE:   102 TIME:   0.009 TIME LEFT:  2.00D  GRAD.:     0.760 HEAT: 13.31387
 CYCLE:   103 TIME:   0.009 TIME LEFT:  2.00D  GRAD.:     0.758 HEAT: 13.31263
 CYCLE:   104 TIME:   0.009 TIME LEFT:  2.00D  GRAD.:     0.774 HEAT: 13.31140
 CYCLE:   105 TIME:   0.009 TIME LEFT:  2.00D  GRAD.:     0.727 HEAT: 13.31025
 CYCLE:   106 TIME:   0.009 TIME LEFT:  2.00D  GRAD.:     0.641 HEAT: 13.30930
 CYCLE:   107 TIME:   0.009 TIME LEFT:  2.00D  GRAD.:     0.573 HEAT: 13.30862
 CYCLE:   108 TIME:   0.009 TIME LEFT:  2.00D  GRAD.:     0.590 HEAT: 13.30804
 CYCLE:   109 TIME:   0.009 TIME LEFT:  2.00D  GRAD.:     0.611 HEAT: 13.30741
 CYCLE:   110 TIME:   0.009 TIME LEFT:  2.00D  GRAD.:     0.671 HEAT: 13.30665
 CYCLE:   111 TIME:   0.009 TIME LEFT:  2.00D  GRAD.:     0.652 HEAT: 13.30584
 CYCLE:   112 TIME:   0.009 TIME LEFT:  2.00D  GRAD.:     0.619 HEAT: 13.30508
 CYCLE:   113 TIME:   0.009 TIME LEFT:  2.00D  GRAD.:     0.544 HEAT: 13.30451
 CYCLE:   114 TIME:   0.009 TIME LEFT:  2.00D  GRAD.:     0.557 HEAT: 13.30391
 CYCLE:   115 TIME:   0.009 TIME LEFT:  2.00D  GRAD.:     0.616 HEAT: 13.30325
 CYCLE:   116 TIME:   0.009 TIME LEFT:  2.00D  GRAD.:     0.679 HEAT: 13.30230
 CYCLE:   117 TIME:   0.009 TIME LEFT:  2.00D  GRAD.:     0.698 HEAT: 13.30137
 CYCLE:   118 TIME:   0.009 TIME LEFT:  2.00D  GRAD.:     0.683 HEAT: 13.30028
 CYCLE:   119 TIME:   0.009 TIME LEFT:  2.00D  GRAD.:     0.632 HEAT: 13.29969
 CYCLE:   120 TIME:   0.009 TIME LEFT:  2.00D  GRAD.:     1.204 HEAT: 13.29838
 CYCLE:   121 TIME:   0.009 TIME LEFT:  2.00D  GRAD.:     0.850 HEAT: 13.29753
 CYCLE:   122 TIME:   0.009 TIME LEFT:  2.00D  GRAD.:     1.182 HEAT: 13.29424
 CYCLE:   123 TIME:   0.009 TIME LEFT:  2.00D  GRAD.:     1.357 HEAT: 13.29197
 CYCLE:   124 TIME:   0.009 TIME LEFT:  2.00D  GRAD.:     3.820 HEAT: 13.28367
 CYCLE:   125 TIME:   0.009 TIME LEFT:  2.00D  GRAD.:     2.016 HEAT: 13.27679
 CYCLE:   126 TIME:   0.009 TIME LEFT:  2.00D  GRAD.:     1.566 HEAT: 13.27031
 CYCLE:   127 TIME:   0.009 TIME LEFT:  2.00D  GRAD.:     2.122 HEAT: 13.25749
 CYCLE:   128 TIME:   0.009 TIME LEFT:  2.00D  GRAD.:     1.916 HEAT: 13.25401
 CYCLE:   129 TIME:   0.009 TIME LEFT:  2.00D  GRAD.:     2.532 HEAT: 13.24624
 CYCLE:   130 TIME:   0.009 TIME LEFT:  2.00D  GRAD.:     2.213 HEAT: 13.24407
 CYCLE:   131 TIME:   0.009 TIME LEFT:  2.00D  GRAD.:     1.283 HEAT: 13.24137
 CYCLE:   132 TIME:   0.009 TIME LEFT:  2.00D  GRAD.:     0.899 HEAT: 13.23975
 CYCLE:   133 TIME:   0.009 TIME LEFT:  2.00D  GRAD.:     0.919 HEAT: 13.23816
 CYCLE:   134 TIME:   0.009 TIME LEFT:  2.00D  GRAD.:     0.935 HEAT: 13.23695
 CYCLE:   135 TIME:   0.009 TIME LEFT:  2.00D  GRAD.:     1.145 HEAT: 13.23490
 CYCLE:   136 TIME:   0.009 TIME LEFT:  2.00D  GRAD.:     1.110 HEAT: 13.23295
 CYCLE:   137 TIME:   0.009 TIME LEFT:  2.00D  GRAD.:     0.941 HEAT: 13.23112
 CYCLE:   138 TIME:   0.009 TIME LEFT:  2.00D  GRAD.:     1.092 HEAT: 13.22841
 CYCLE:   139 TIME:   0.009 TIME LEFT:  2.00D  GRAD.:     1.278 HEAT: 13.22621
 CYCLE:   140 TIME:   0.009 TIME LEFT:  2.00D  GRAD.:     1.873 HEAT: 13.22062
 CYCLE:   141 TIME:   0.009 TIME LEFT:  2.00D  GRAD.:     2.775 HEAT: 13.21893
 CYCLE:   142 TIME:   0.009 TIME LEFT:  2.00D  GRAD.:     1.629 HEAT: 13.21177
 CYCLE:   143 TIME:   0.009 TIME LEFT:  2.00D  GRAD.:     1.345 HEAT: 13.20911
 CYCLE:   144 TIME:   0.009 TIME LEFT:  2.00D  GRAD.:     1.393 HEAT: 13.20674
 CYCLE:   145 TIME:   0.009 TIME LEFT:  2.00D  GRAD.:     1.249 HEAT: 13.20479
 CYCLE:   146 TIME:   0.009 TIME LEFT:  2.00D  GRAD.:     1.454 HEAT: 13.20222
 CYCLE:   147 TIME:   0.009 TIME LEFT:  2.00D  GRAD.:     1.721 HEAT: 13.19981
 CYCLE:   148 TIME:   0.009 TIME LEFT:  2.00D  GRAD.:     2.007 HEAT: 13.19732
 CYCLE:   149 TIME:   0.009 TIME LEFT:  2.00D  GRAD.:     1.228 HEAT: 13.19563
 CYCLE:   150 TIME:   0.009 TIME LEFT:  2.00D  GRAD.:     0.846 HEAT: 13.19407
 CYCLE:   151 TIME:   0.009 TIME LEFT:  2.00D  GRAD.:     0.757 HEAT: 13.19283
 CYCLE:   152 TIME:   0.009 TIME LEFT:  2.00D  GRAD.:     0.956 HEAT: 13.19145
 CYCLE:   153 TIME:   0.009 TIME LEFT:  2.00D  GRAD.:     0.986 HEAT: 13.18984
 CYCLE:   154 TIME:   0.009 TIME LEFT:  2.00D  GRAD.:     1.041 HEAT: 13.18812
 CYCLE:   155 TIME:   0.009 TIME LEFT:  2.00D  GRAD.:     1.058 HEAT: 13.18592
 CYCLE:   156 TIME:   0.009 TIME LEFT:  2.00D  GRAD.:     1.192 HEAT: 13.18297
 CYCLE:   157 TIME:   0.009 TIME LEFT:  2.00D  GRAD.:     1.499 HEAT: 13.17912
 CYCLE:   158 TIME:   0.009 TIME LEFT:  2.00D  GRAD.:     1.797 HEAT: 13.17474
 CYCLE:   159 TIME:   0.009 TIME LEFT:  2.00D  GRAD.:     2.405 HEAT: 13.17135
 CYCLE:   160 TIME:   0.009 TIME LEFT:  2.00D  GRAD.:     2.990 HEAT: 13.17017
 CYCLE:   161 TIME:   0.009 TIME LEFT:  2.00D  GRAD.:     1.526 HEAT: 13.16427
 CYCLE:   162 TIME:   0.009 TIME LEFT:  2.00D  GRAD.:     1.130 HEAT: 13.16164
 CYCLE:   163 TIME:   0.009 TIME LEFT:  2.00D  GRAD.:     1.024 HEAT: 13.15974
 CYCLE:   164 TIME:   0.009 TIME LEFT:  2.00D  GRAD.:     0.865 HEAT: 13.15871
 CYCLE:   165 TIME:   0.009 TIME LEFT:  2.00D  GRAD.:     0.856 HEAT: 13.15774
 CYCLE:   166 TIME:   0.009 TIME LEFT:  2.00D  GRAD.:     0.977 HEAT: 13.15667
 CYCLE:   167 TIME:   0.009 TIME LEFT:  2.00D  GRAD.:     1.189 HEAT: 13.15545
 CYCLE:   168 TIME:   0.009 TIME LEFT:  2.00D  GRAD.:     1.463 HEAT: 13.15385
 CYCLE:   169 TIME:   0.009 TIME LEFT:  2.00D  GRAD.:     1.684 HEAT: 13.15157
 CYCLE:   170 TIME:   0.009 TIME LEFT:  2.00D  GRAD.:     1.645 HEAT: 13.14887
 CYCLE:   171 TIME:   0.009 TIME LEFT:  2.00D  GRAD.:     1.268 HEAT: 13.14543
 CYCLE:   172 TIME:   0.009 TIME LEFT:  2.00D  GRAD.:     1.106 HEAT: 13.14358
 CYCLE:   173 TIME:   0.009 TIME LEFT:  2.00D  GRAD.:     0.833 HEAT: 13.14211
 CYCLE:   174 TIME:   0.009 TIME LEFT:  2.00D  GRAD.:     0.657 HEAT: 13.14135
 CYCLE:   175 TIME:   0.009 TIME LEFT:  2.00D  GRAD.:     0.768 HEAT: 13.14062
 CYCLE:   176 TIME:   0.009 TIME LEFT:  2.00D  GRAD.:     0.731 HEAT: 13.14006
 CYCLE:   177 TIME:   0.009 TIME LEFT:  2.00D  GRAD.:     0.575 HEAT: 13.13948
 CYCLE:   178 TIME:   0.009 TIME LEFT:  2.00D  GRAD.:     0.590 HEAT: 13.13905
 CYCLE:   179 TIME:   0.009 TIME LEFT:  2.00D  GRAD.:     0.533 HEAT: 13.13867
 CYCLE:   180 TIME:   0.009 TIME LEFT:  2.00D  GRAD.:     0.678 HEAT: 13.13821
 CYCLE:   181 TIME:   0.009 TIME LEFT:  2.00D  GRAD.:     0.594 HEAT: 13.13762
 CYCLE:   182 TIME:   0.009 TIME LEFT:  2.00D  GRAD.:     0.714 HEAT: 13.13721
 CYCLE:   183 TIME:   0.009 TIME LEFT:  2.00D  GRAD.:     0.565 HEAT: 13.13668
 CYCLE:   184 TIME:   0.009 TIME LEFT:  2.00D  GRAD.:     0.572 HEAT: 13.13627
 CYCLE:   185 TIME:   0.010 TIME LEFT:  2.00D  GRAD.:     0.517 HEAT: 13.13574
 CYCLE:   186 TIME:   0.009 TIME LEFT:  2.00D  GRAD.:     0.557 HEAT: 13.13533
 CYCLE:   187 TIME:   0.009 TIME LEFT:  2.00D  GRAD.:     0.383 HEAT: 13.13517
 CYCLE:   188 TIME:   0.009 TIME LEFT:  2.00D  GRAD.:     0.315 HEAT: 13.13508
 CYCLE:   189 TIME:   0.009 TIME LEFT:  2.00D  GRAD.:     0.144 HEAT: 13.13503
 CYCLE:   190 TIME:   0.009 TIME LEFT:  2.00D  GRAD.:     0.091 HEAT: 13.13501
 CYCLE:   191 TIME:   0.009 TIME LEFT:  2.00D  GRAD.:     0.139 HEAT: 13.13500
 CYCLE:   192 TIME:   0.009 TIME LEFT:  2.00D  GRAD.:     0.062 HEAT: 13.13500
 CYCLE:   193 TIME:   0.009 TIME LEFT:  2.00D  GRAD.:     0.059 HEAT: 13.13499
 CYCLE:   194 TIME:   0.009 TIME LEFT:  2.00D  GRAD.:     0.066 HEAT: 13.13498
 CYCLE:   195 TIME:   0.008 TIME LEFT:  2.00D  GRAD.:     0.043 HEAT: 13.13498

     RMS GRADIENT =  0.04297  IS LESS THAN CUTOFF =  0.05000



 -------------------------------------------------------------------------------
pm3  precise nosym
 InChI=1S/C10H16/c1-3-5-9-7-8-10(9)6-4-2/h3-6,9-10H,7-8H2,1-2H3



     GEOMETRY OPTIMISED USING EIGENVECTOR FOLLOWING (EF).     
     SCF FIELD WAS ACHIEVED                                   


                              PM3 CALCULATION
                                                       MOPAC2012 (Version: 13.159M)
                                                       Mon Jun  2 11:08:18 2014
                                                       No. of days left =   6




          FINAL HEAT OF FORMATION =         13.13498 KCAL/MOL =      54.95675 KJ/MOL


          TOTAL ENERGY            =      -1431.15743 EV
          ELECTRONIC ENERGY       =      -7934.07658 EV  POINT GROUP:     C1  
          CORE-CORE REPULSION     =       6502.91914 EV
          COSMO AREA              =        209.49 SQUARE ANGSTROMS
          COSMO VOLUME            =        207.18 CUBIC ANGSTROMS

          GRADIENT NORM           =          0.04297
          IONIZATION POTENTIAL    =          9.503516 EV
          HOMO LUMO ENERGIES (EV) =         -9.504  0.926
          NO. OF FILLED LEVELS    =         28
          MOLECULAR WEIGHT        =        136.236

          MOLECULAR DIMENSIONS (Angstroms)

            Atom       Atom       Distance
            H    19    H    21     9.17697
            H    22    H    16     5.73036
            H    18    H    13     4.08733


          SCF CALCULATIONS        =        204
          COMPUTATION TIME        =          1.812 SECONDS




   ATOM   CHEMICAL          X               Y               Z
  NUMBER   SYMBOL      (ANGSTROMS)     (ANGSTROMS)     (ANGSTROMS)
 
     1       C         -0.64385553  *  -0.59771511  *   0.57363479  *
     2       C          0.58611671  *  -0.77026087  *  -0.37382594  *
     3       C         -0.69889734  *  -2.13477790  *   0.76259703  *
     4       C          0.54461017  *  -2.29995800  *  -0.12958624  *
     5       C         -3.64668299  *   1.65671819  *  -0.28784268  *
     6       C          3.73828295  *   1.43311910  *  -0.14844423  *
     7       C         -1.83700564  *  -0.01849579  *  -0.08948471  *
     8       C          1.81873069  *  -0.10543572  *   0.11350526  *
     9       C         -2.45765238  *   1.07013313  *   0.36868986  *
    10       C          2.50903672  *   0.76338889  *  -0.62733433  *
    11       H         -0.39544792  *  -0.05263833  *   1.50966121  *
    12       H          0.36356077  *  -0.49117329  *  -1.42620513  *
    13       H         -0.57251123  *  -2.47081094  *   1.80224598  *
    14       H         -1.61132581  *  -2.61302160  *   0.37451915  *
    15       H          1.42915546  *  -2.70733269  *   0.38367750  *
    16       H          0.38882819  *  -2.90212224  *  -1.03671570  *
    17       H         -3.44377343  *   2.69071590  *  -0.59791392  *
    18       H         -3.96319558  *   1.09947063  *  -1.17965783  *
    19       H          4.58658399  *   1.19520133  *  -0.80433818  *
    20       H          4.01654101  *   1.14013087  *   0.87270153  *
    21       H         -4.49712035  *   1.68121223  *   0.40680228  *
    22       H          3.61018710  *   2.52398871  *  -0.15686196  *
    23       H         -2.18884634  *  -0.53658748  *  -0.99129177  *
    24       H          2.13950057  *  -0.36641267  *   1.13058217  *
    25       H         -2.10324260  *   1.58643201  *   1.26991441  *
    26       H          2.18585259  *   1.02266991  *  -1.64354413  *

           Empirical Formula: C10 H16  =    26 atoms



      MOLECULAR POINT GROUP   :   C1  


                  EIGENVALUES  
 -41.07033 -35.53337 -34.16824 -28.10076 -27.62986 -23.40675 -22.87467 -20.28817
 -19.12065 -18.55844 -16.83400 -16.79408 -15.15208 -14.76395 -14.53712 -14.36064
 -14.30705 -14.13869 -13.80628 -12.87662 -12.84911 -12.39057 -12.29850 -11.79698
 -11.72445 -11.30201  -9.94849  -9.50352   0.92645   1.17513   3.23449   3.42671
   3.60610   3.61635   3.65140   3.82601   3.90121   3.94130   3.96324   4.15180
   4.20953   4.31768   4.33461   4.40394   4.50527   4.51102   4.52109   4.55893
   4.59991   4.60332   5.18892   5.28803   5.73699   5.83120   6.03650   6.08612


              NET ATOMIC CHARGES AND DIPOLE CONTRIBUTIONS

  ATOM NO.   TYPE          CHARGE      No. of ELECS.   s-Pop       p-Pop       
    1          C          -0.055511        4.0555     1.18134     2.87417
    2          C          -0.055484        4.0555     1.18133     2.87416
    3          C          -0.106670        4.1067     1.17371     2.93296
    4          C          -0.106643        4.1066     1.17370     2.93295
    5          C          -0.075041        4.0750     1.12531     2.94973
    6          C          -0.075043        4.0750     1.12532     2.94973
    7          C          -0.145428        4.1454     1.19478     2.95065
    8          C          -0.145417        4.1454     1.19478     2.95064
    9          C          -0.140842        4.1408     1.19403     2.94682
   10          C          -0.140846        4.1408     1.19402     2.94682
   11          H           0.077499        0.9225     0.92250
   12          H           0.077518        0.9225     0.92248
   13          H           0.055256        0.9447     0.94474
   14          H           0.059616        0.9404     0.94038
   15          H           0.059625        0.9404     0.94038
   16          H           0.055259        0.9447     0.94474
   17          H           0.044157        0.9558     0.95584
   18          H           0.040852        0.9591     0.95915
   19          H           0.043890        0.9561     0.95611
   20          H           0.040849        0.9592     0.95915
   21          H           0.043840        0.9562     0.95616
   22          H           0.044115        0.9559     0.95589
   23          H           0.103293        0.8967     0.89671
   24          H           0.103281        0.8967     0.89672
   25          H           0.098942        0.9011     0.90106
   26          H           0.098933        0.9011     0.90107
 DIPOLE           X         Y         Z       TOTAL
 POINT-CHG.     0.006     0.160    -0.024     0.162
 HYBRID         0.002     0.035    -0.005     0.036
 SUM            0.008     0.195    -0.029     0.197


          ATOMIC ORBITAL ELECTRON POPULATIONS

    Atom      s        px        py        pz   
    1  C   1.18134   0.93520   0.95728   0.98170
    2  C   1.18133   0.93264   0.95188   0.98964
    3  C   1.17371   0.98149   0.95487   0.99660
    4  C   1.17370   0.98151   0.95393   0.99751
    5  C   1.12531   0.95975   0.99765   0.99233
    6  C   1.12532   0.95690   0.99243   1.00040
    7  C   1.19478   0.97463   0.97745   0.99857
    8  C   1.19478   0.97022   0.98780   0.99262
    9  C   1.19403   0.97654   0.97371   0.99656
   10  C   1.19402   0.97315   0.98167   0.99201
   11  H   0.92250
   12  H   0.92248
   13  H   0.94474
   14  H   0.94038
   15  H   0.94038
   16  H   0.94474
   17  H   0.95584
   18  H   0.95915
   19  H   0.95611
   20  H   0.95915
   21  H   0.95616
   22  H   0.95589
   23  H   0.89671
   24  H   0.89672
   25  H   0.90106
   26  H   0.90107
 *******************************************************************************
 ** Site#: 14399           For non-commercial use only        Version 13.159M **
 *******************************************************************************
 ** Cite this work as: MOPAC2012, James J. P. Stewart, Stewart Computational  **
 ** Chemistry, Version 13.159M web: HTTP://OpenMOPAC.net  Days remaining:   6 **
 *******************************************************************************
 **                                                                           **
 **                                MOPAC2012                                  **
 **                                                                           **
 *******************************************************************************

                            PM3 CALCULATION RESULTS


 *******************************************************************************
 *  CALCULATION DONE:                                Mon Jun  2 11:08:18 2014  *
 *  PM3      - The PM3 Hamiltonian to be used
 *  OLDGEO   - PREVIOUS GEOMETRY TO BE USED
 *  PRECISE  - CRITERIA TO BE INCREASED BY 100 TIMES
 *  NOSYM    - POINT-GROUP SYMMETRY SET TO C1
 *  T=       - A TIME OF 172800.0 SECONDS REQUESTED
 *  DUMP=N   - RESTART FILE WRITTEN EVERY  7200.000 SECONDS
 *  THERMO   - THERMODYNAMIC QUANTITIES TO BE CALCULATED
 *******************************************************************************
oldgeo thermo nosym precise  pm3

   ATOM   CHEMICAL          X               Y               Z
  NUMBER   SYMBOL      (ANGSTROMS)     (ANGSTROMS)     (ANGSTROMS)
 
     1       C         -0.64385553  *  -0.59771511  *   0.57363479  *
     2       C          0.58611671  *  -0.77026087  *  -0.37382594  *
     3       C         -0.69889734  *  -2.13477790  *   0.76259703  *
     4       C          0.54461017  *  -2.29995800  *  -0.12958624  *
     5       C         -3.64668299  *   1.65671819  *  -0.28784268  *
     6       C          3.73828295  *   1.43311910  *  -0.14844423  *
     7       C         -1.83700564  *  -0.01849579  *  -0.08948471  *
     8       C          1.81873069  *  -0.10543572  *   0.11350526  *
     9       C         -2.45765238  *   1.07013313  *   0.36868986  *
    10       C          2.50903672  *   0.76338889  *  -0.62733433  *
    11       H         -0.39544792  *  -0.05263833  *   1.50966121  *
    12       H          0.36356077  *  -0.49117329  *  -1.42620513  *
    13       H         -0.57251123  *  -2.47081094  *   1.80224598  *
    14       H         -1.61132581  *  -2.61302160  *   0.37451915  *
    15       H          1.42915546  *  -2.70733269  *   0.38367750  *
    16       H          0.38882819  *  -2.90212224  *  -1.03671570  *
    17       H         -3.44377343  *   2.69071590  *  -0.59791392  *
    18       H         -3.96319558  *   1.09947063  *  -1.17965783  *
    19       H          4.58658399  *   1.19520133  *  -0.80433818  *
    20       H          4.01654101  *   1.14013087  *   0.87270153  *
    21       H         -4.49712035  *   1.68121223  *   0.40680228  *
    22       H          3.61018710  *   2.52398871  *  -0.15686196  *
    23       H         -2.18884634  *  -0.53658748  *  -0.99129177  *
    24       H          2.13950057  *  -0.36641267  *   1.13058217  *
    25       H         -2.10324260  *   1.58643201  *   1.26991441  *
    26       H          2.18585259  *   1.02266991  *  -1.64354413  *
 


          CARTESIAN COORDINATES 

    NO.       ATOM         X         Y         Z

     1         C       -0.6439   -0.5977    0.5736
     2         C        0.5861   -0.7703   -0.3738
     3         C       -0.6989   -2.1348    0.7626
     4         C        0.5446   -2.3000   -0.1296
     5         C       -3.6467    1.6567   -0.2878
     6         C        3.7383    1.4331   -0.1484
     7         C       -1.8370   -0.0185   -0.0895
     8         C        1.8187   -0.1054    0.1135
     9         C       -2.4577    1.0701    0.3687
    10         C        2.5090    0.7634   -0.6273
    11         H       -0.3954   -0.0526    1.5097
    12         H        0.3636   -0.4912   -1.4262
    13         H       -0.5725   -2.4708    1.8022
    14         H       -1.6113   -2.6130    0.3745
    15         H        1.4292   -2.7073    0.3837
    16         H        0.3888   -2.9021   -1.0367
    17         H       -3.4438    2.6907   -0.5979
    18         H       -3.9632    1.0995   -1.1797
    19         H        4.5866    1.1952   -0.8043
    20         H        4.0165    1.1401    0.8727
    21         H       -4.4971    1.6812    0.4068
    22         H        3.6102    2.5240   -0.1569
    23         H       -2.1888   -0.5366   -0.9913
    24         H        2.1395   -0.3664    1.1306
    25         H       -2.1032    1.5864    1.2699
    26         H        2.1859    1.0227   -1.6435

  H: (PM3): J. J. P. STEWART, J. COMP. CHEM. 10, 209 (1989).
  C: (PM3): J. J. P. STEWART, J. COMP. CHEM. 10, 209 (1989).

           Empirical Formula: C10 H16  =    26 atoms



      MOLECULAR POINT GROUP   :   C1  


      RHF CALCULATION, NO. OF DOUBLY OCCUPIED LEVELS =   28



          HEAT OF FORMATION =      13.134978 KCALS/MOLE


          INTERNAL COORDINATE DERIVATIVES

   NUMBER  ATOM       BOND         ANGLE      DIHEDRAL

     1       C      0.001485     0.000192    -0.001523
     2       C      0.001104    -0.000320     0.000481
     3       C     -0.003847     0.001736     0.001546
     4       C      0.001693    -0.001320    -0.001378
     5       C     -0.006407     0.010303    -0.002514
     6       C      0.005675     0.018733    -0.005167
     7       C      0.001390     0.004228    -0.005843
     8       C     -0.001088     0.000950    -0.001269
     9       C     -0.000748    -0.002664    -0.004549
    10       C     -0.002821    -0.004443    -0.000203
    11       H     -0.002177    -0.003836    -0.001430
    12       H     -0.001781    -0.000107     0.001387
    13       H      0.004010    -0.000770    -0.004646
    14       H     -0.004339     0.002090     0.007502
    15       H      0.000199    -0.000176    -0.000965
    16       H      0.003594    -0.001447     0.001172
    17       H      0.001915     0.000085     0.006261
    18       H     -0.003679    -0.001049     0.002375
    19       H     -0.002189     0.001688     0.001198
    20       H     -0.005747    -0.008545     0.011958
    21       H      0.010410    -0.006410    -0.006016
    22       H     -0.004134    -0.012245    -0.005287
    23       H      0.000054     0.000870     0.008406
    24       H      0.004381     0.001494     0.002639
    25       H     -0.001414    -0.003119     0.000200
    26       H      0.004462     0.004085    -0.004337


          GRADIENT NORM =   0.04172


          TIME FOR SCF CALCULATION =    0.01

          TIME FOR DERIVATIVES     =    0.01

          MOLECULAR WEIGHT =  136.24



          ROTATIONAL CONSTANTS IN CM(-1)

          A =    0.05652531   B =    0.02298749   C =    0.01747528



           PRINCIPAL MOMENTS OF INERTIA IN UNITS OF 10**(-40)*GRAM-CM**2

          A =      495.2255   B =     1217.7395   C =     1601.8496


          ORIENTATION OF MOLECULE IN FORCE CALCULATION

    NO.       ATOM         X         Y         Z

     1          C      -0.7833    0.6079   -0.0102
     2          C       0.7788    0.6079   -0.0102
     3          C      -0.7715    2.1574   -0.0102
     4          C       0.7670    2.1566   -0.0624
     5          C      -2.8741   -1.6108    2.3452
     6          C       2.8807   -1.6783   -2.2900
     7          C      -1.3845   -0.0006    1.2011
     8          C       1.3803   -0.0405   -1.2004
     9          C      -2.2713   -0.9957    1.1422
    10          C       2.2772   -1.0241   -1.1081
    11          H      -1.2156    0.1758   -0.9383
    12          H       1.2111    0.2073    0.9320
    13          H      -1.2654    2.6168   -0.8789
    14          H      -1.2017    2.6202    0.8913
    15          H       1.1971    2.5885   -0.9790
    16          H       1.2610    2.6450    0.7903
    17          H      -2.6405   -2.6833    2.3867
    18          H      -2.5209   -1.1583    3.2814
    19          H       3.9727   -1.5607   -2.2792
    20          H       2.5128   -1.2702   -3.2409
    21          H      -3.9678   -1.5118    2.3212
    22          H       2.6644   -2.7551   -2.2859
    23          H      -1.0574    0.4134    2.1640
    24          H       1.0449    0.3335   -2.1766
    25          H      -2.5959   -1.4081    0.1783
    26          H       2.6105   -1.3962   -0.1310


    FIRST DERIVATIVES WILL BE USED IN THE CALCULATION OF SECOND DERIVATIVES

          ESTIMATED TIME TO COMPLETE CALCULATION =        3.79 SECONDS

    FOR POINT-GROUP C1   THERE ARE   1 UNIQUE SYMMETRY FUNCTIONS.

 STEP:   1 TIME =     0.04 SECS, INTEGRAL =      0.04 TIME LEFT: 172799.95
 STEP:   2 TIME =     0.04 SECS, INTEGRAL =      0.08 TIME LEFT: 172799.91
 STEP:   3 TIME =     0.04 SECS, INTEGRAL =      0.12 TIME LEFT: 172799.87
 STEP:   4 TIME =     0.04 SECS, INTEGRAL =      0.16 TIME LEFT: 172799.83
 STEP:   5 TIME =     0.04 SECS, INTEGRAL =      0.20 TIME LEFT: 172799.79
 STEP:   6 TIME =     0.04 SECS, INTEGRAL =      0.24 TIME LEFT: 172799.75
 STEP:   7 TIME =     0.04 SECS, INTEGRAL =      0.28 TIME LEFT: 172799.71
 STEP:   8 TIME =     0.04 SECS, INTEGRAL =      0.31 TIME LEFT: 172799.67
 STEP:   9 TIME =     0.04 SECS, INTEGRAL =      0.35 TIME LEFT: 172799.64
 STEP:  10 TIME =     0.04 SECS, INTEGRAL =      0.39 TIME LEFT: 172799.60
 STEP:  11 TIME =     0.04 SECS, INTEGRAL =      0.43 TIME LEFT: 172799.56
 STEP:  12 TIME =     0.04 SECS, INTEGRAL =      0.47 TIME LEFT: 172799.52
 STEP:  13 TIME =     0.04 SECS, INTEGRAL =      0.51 TIME LEFT: 172799.48
 STEP:  14 TIME =     0.04 SECS, INTEGRAL =      0.54 TIME LEFT: 172799.44
 STEP:  15 TIME =     0.04 SECS, INTEGRAL =      0.58 TIME LEFT: 172799.41
 STEP:  16 TIME =     0.04 SECS, INTEGRAL =      0.62 TIME LEFT: 172799.37
 STEP:  17 TIME =     0.04 SECS, INTEGRAL =      0.66 TIME LEFT: 172799.33
 STEP:  18 TIME =     0.04 SECS, INTEGRAL =      0.70 TIME LEFT: 172799.29
 STEP:  19 TIME =     0.04 SECS, INTEGRAL =      0.74 TIME LEFT: 172799.25
 STEP:  20 TIME =     0.04 SECS, INTEGRAL =      0.78 TIME LEFT: 172799.21
 STEP:  21 TIME =     0.04 SECS, INTEGRAL =      0.82 TIME LEFT: 172799.17
 STEP:  22 TIME =     0.04 SECS, INTEGRAL =      0.86 TIME LEFT: 172799.13
 STEP:  23 TIME =     0.04 SECS, INTEGRAL =      0.90 TIME LEFT: 172799.09
 STEP:  24 TIME =     0.04 SECS, INTEGRAL =      0.93 TIME LEFT: 172799.05
 STEP:  25 TIME =     0.04 SECS, INTEGRAL =      0.97 TIME LEFT: 172799.02
 STEP:  26 TIME =     0.04 SECS, INTEGRAL =      1.01 TIME LEFT: 172798.98
 STEP:  27 TIME =     0.04 SECS, INTEGRAL =      1.05 TIME LEFT: 172798.94
 STEP:  28 TIME =     0.04 SECS, INTEGRAL =      1.09 TIME LEFT: 172798.90
 STEP:  29 TIME =     0.04 SECS, INTEGRAL =      1.13 TIME LEFT: 172798.86
 STEP:  30 TIME =     0.04 SECS, INTEGRAL =      1.17 TIME LEFT: 172798.82
 STEP:  31 TIME =     0.04 SECS, INTEGRAL =      1.21 TIME LEFT: 172798.78
 STEP:  32 TIME =     0.04 SECS, INTEGRAL =      1.25 TIME LEFT: 172798.74
 STEP:  33 TIME =     0.04 SECS, INTEGRAL =      1.29 TIME LEFT: 172798.70
 STEP:  34 TIME =     0.04 SECS, INTEGRAL =      1.33 TIME LEFT: 172798.66
 STEP:  35 TIME =     0.04 SECS, INTEGRAL =      1.37 TIME LEFT: 172798.62
 STEP:  36 TIME =     0.04 SECS, INTEGRAL =      1.41 TIME LEFT: 172798.58
 STEP:  37 TIME =     0.04 SECS, INTEGRAL =      1.44 TIME LEFT: 172798.54
 STEP:  38 TIME =     0.04 SECS, INTEGRAL =      1.48 TIME LEFT: 172798.50
 STEP:  39 TIME =     0.04 SECS, INTEGRAL =      1.52 TIME LEFT: 172798.46
 STEP:  40 TIME =     0.04 SECS, INTEGRAL =      1.56 TIME LEFT: 172798.42
 STEP:  41 TIME =     0.04 SECS, INTEGRAL =      1.60 TIME LEFT: 172798.38
 STEP:  42 TIME =     0.04 SECS, INTEGRAL =      1.64 TIME LEFT: 172798.35
 STEP:  43 TIME =     0.04 SECS, INTEGRAL =      1.69 TIME LEFT: 172798.30
 STEP:  44 TIME =     0.04 SECS, INTEGRAL =      1.73 TIME LEFT: 172798.26
 STEP:  45 TIME =     0.04 SECS, INTEGRAL =      1.76 TIME LEFT: 172798.22
 STEP:  46 TIME =     0.04 SECS, INTEGRAL =      1.80 TIME LEFT: 172798.18
 STEP:  47 TIME =     0.04 SECS, INTEGRAL =      1.84 TIME LEFT: 172798.14
 STEP:  48 TIME =     0.04 SECS, INTEGRAL =      1.88 TIME LEFT: 172798.10
 STEP:  49 TIME =     0.04 SECS, INTEGRAL =      1.92 TIME LEFT: 172798.07
 STEP:  50 TIME =     0.04 SECS, INTEGRAL =      1.96 TIME LEFT: 172798.03
 STEP:  51 TIME =     0.04 SECS, INTEGRAL =      2.00 TIME LEFT: 172797.99
 STEP:  52 TIME =     0.04 SECS, INTEGRAL =      2.04 TIME LEFT: 172797.95
 STEP:  53 TIME =     0.04 SECS, INTEGRAL =      2.08 TIME LEFT: 172797.91
 STEP:  54 TIME =     0.04 SECS, INTEGRAL =      2.12 TIME LEFT: 172797.87
 STEP:  55 TIME =     0.04 SECS, INTEGRAL =      2.15 TIME LEFT: 172797.84
 STEP:  56 TIME =     0.04 SECS, INTEGRAL =      2.19 TIME LEFT: 172797.80
 STEP:  57 TIME =     0.04 SECS, INTEGRAL =      2.23 TIME LEFT: 172797.76
 STEP:  58 TIME =     0.04 SECS, INTEGRAL =      2.27 TIME LEFT: 172797.72
 STEP:  59 TIME =     0.04 SECS, INTEGRAL =      2.31 TIME LEFT: 172797.68
 STEP:  60 TIME =     0.04 SECS, INTEGRAL =      2.35 TIME LEFT: 172797.64
 STEP:  61 TIME =     0.04 SECS, INTEGRAL =      2.38 TIME LEFT: 172797.60
 STEP:  62 TIME =     0.04 SECS, INTEGRAL =      2.42 TIME LEFT: 172797.56
 STEP:  63 TIME =     0.04 SECS, INTEGRAL =      2.46 TIME LEFT: 172797.52
 STEP:  64 TIME =     0.04 SECS, INTEGRAL =      2.50 TIME LEFT: 172797.48
 STEP:  65 TIME =     0.04 SECS, INTEGRAL =      2.54 TIME LEFT: 172797.45
 STEP:  66 TIME =     0.04 SECS, INTEGRAL =      2.58 TIME LEFT: 172797.41
 STEP:  67 TIME =     0.04 SECS, INTEGRAL =      2.62 TIME LEFT: 172797.37
 STEP:  68 TIME =     0.04 SECS, INTEGRAL =      2.66 TIME LEFT: 172797.33
 STEP:  69 TIME =     0.04 SECS, INTEGRAL =      2.70 TIME LEFT: 172797.29
 STEP:  70 TIME =     0.04 SECS, INTEGRAL =      2.74 TIME LEFT: 172797.25
 STEP:  71 TIME =     0.04 SECS, INTEGRAL =      2.78 TIME LEFT: 172797.21
 STEP:  72 TIME =     0.04 SECS, INTEGRAL =      2.82 TIME LEFT: 172797.17
 STEP:  73 TIME =     0.04 SECS, INTEGRAL =      2.86 TIME LEFT: 172797.13
 STEP:  74 TIME =     0.04 SECS, INTEGRAL =      2.90 TIME LEFT: 172797.09
 STEP:  75 TIME =     0.04 SECS, INTEGRAL =      2.93 TIME LEFT: 172797.05
 STEP:  76 TIME =     0.04 SECS, INTEGRAL =      2.97 TIME LEFT: 172797.01
 STEP:  77 TIME =     0.04 SECS, INTEGRAL =      3.01 TIME LEFT: 172796.97
 STEP:  78 TIME =     0.04 SECS, INTEGRAL =      3.05 TIME LEFT: 172796.94

(To convert to Hartree/Bohr^2, multiply by (10^(-21) x N x a0^2)/(4.184 x 627.51) = 0.0642)


           FORCE MATRIX IN MILLIDYNES/ANGSTROM


                  C  1       C  2       C  3       C  4       C  5       C  6
 ------------------------------------------------------------------------------
     C    1  14.765703
     C    2   2.982510  14.764960
     C    3   3.401093   1.807259  14.393718
     C    4   1.807350   3.400100   3.754580  14.392887
     C    5   0.144327   0.019289   0.018112   0.001784  14.719225
     C    6   0.019516   0.144683   0.001817   0.018167   0.000460  14.719027
     C    7   5.076814   0.589397   0.588581   0.043598   0.848508   0.002933
     C    8   0.589344   5.077099   0.043339   0.589087   0.002925   0.848710
     C    9   0.853810   0.031790   0.034905   0.004677   5.266692   0.000616
     C   10   0.031804   0.853663   0.004717   0.034345   0.000507   5.266724
     H   11   4.401777   0.435658   0.425872   0.025925   0.002130   0.001095
     H   12   0.435597   4.402445   0.026018   0.425995   0.001077   0.002063
     H   13   0.444475   0.029837   4.709724   0.444450   0.002246   0.000226
     H   14   0.452795   0.029016   4.679716   0.445566   0.001057   0.000255
     H   15   0.029032   0.452794   0.445562   4.680814   0.000274   0.001136
     H   16   0.029828   0.444511   0.444539   4.709878   0.000212   0.002263
     H   17   0.019364   0.003141   0.002138   0.000459   4.706578   0.000162
     H   18   0.002088   0.000550   0.000581   0.000198   4.723904   0.000134
     H   19   0.002390   0.019346   0.000383   0.002992   0.000157   4.707049
     H   20   0.000580   0.001982   0.000178   0.000613   0.000172   4.724720
     H   21   0.019335   0.002370   0.003139   0.000348   4.707755   0.000126
     H   22   0.003170   0.019315   0.000382   0.001953   0.000212   4.706490
     H   23   0.433932   0.017153   0.020433   0.001168   0.081866   0.000339
     H   24   0.017445   0.433962   0.001090   0.020089   0.000447   0.082077
     H   25   0.085030   0.008435   0.007450   0.001091   0.423721   0.000325
     H   26   0.008411   0.085018   0.001048   0.007359   0.000317   0.423725


                  C  7       C  8       C  9       C 10       H 11       H 12
 ------------------------------------------------------------------------------
     C    7  18.317020
     C    8   0.032245  18.318301
     C    9  10.655702   0.004783  18.173317
     C   10   0.004668  10.656020   0.001890  18.173478
     H   11   0.444497   0.036510   0.055292   0.003032   4.902609
     H   12   0.036451   0.444581   0.003091   0.055240   0.028450   4.903135
     H   13   0.031766   0.004201   0.003707   0.001078   0.027545   0.001243
     H   14   0.030257   0.003218   0.003069   0.000493   0.030625   0.002560
     H   15   0.003280   0.030166   0.000492   0.003059   0.002565   0.030680
     H   16   0.004183   0.031721   0.001031   0.003621   0.001219   0.027502
     H   17   0.035301   0.000814   0.438803   0.000343   0.000517   0.000298
     H   18   0.041762   0.000261   0.479817   0.000192   0.000545   0.000220
     H   19   0.000323   0.035769   0.000233   0.439070   0.000200   0.000402
     H   20   0.000270   0.041973   0.000240   0.478830   0.000208   0.000591
     H   21   0.036031   0.000369   0.439252   0.000159   0.000385   0.000185
     H   22   0.000777   0.035505   0.000326   0.438792   0.000292   0.000497
     H   23   4.754305   0.001676   0.468183   0.000640   0.036137   0.017072
     H   24   0.001611   4.754548   0.000680   0.468256   0.017728   0.036141
     H   25   0.470499   0.001338   4.771851   0.000695   0.029885   0.000767
     H   26   0.001293   0.470495   0.000623   4.772091   0.000780   0.029892


                  H 13       H 14       H 15       H 16       H 17       H 18
 ------------------------------------------------------------------------------
     H   13   5.329883
     H   14   0.555098   5.307914
     H   15   0.023404   0.032962   5.308681
     H   16   0.032270   0.023405   0.554416   5.330010
     H   17   0.000196   0.000138   0.000103   0.000093   5.425936
     H   18   0.000110   0.000252   0.000073   0.000109   0.563835   5.450823
     H   19   0.000131   0.000108   0.000318   0.000591   0.000111   0.000067
     H   20   0.000126   0.000122   0.000223   0.000146   0.000087   0.000024
     H   21   0.000578   0.000289   0.000082   0.000141   0.576679   0.564729
     H   22   0.000082   0.000106   0.000122   0.000222   0.000082   0.000096
     H   23   0.001471   0.020317   0.000803   0.000718   0.009097   0.029632
     H   24   0.000688   0.000827   0.019755   0.001463   0.000083   0.000102
     H   25   0.001207   0.000718   0.000122   0.000254   0.023974   0.041101
     H   26   0.000260   0.000147   0.000705   0.001232   0.000153   0.000103


                  H 19       H 20       H 21       H 22       H 23       H 24
 ------------------------------------------------------------------------------
     H   19   5.426244
     H   20   0.564580   5.451536
     H   21   0.000073   0.000072   5.426887
     H   22   0.576583   0.564339   0.000097   5.425929
     H   23   0.000098   0.000123   0.009208   0.000101   5.135786
     H   24   0.009231   0.029607   0.000095   0.009128   0.000769   5.135909
     H   25   0.000144   0.000101   0.024323   0.000151   0.103196   0.000561
     H   26   0.024078   0.040732   0.000128   0.024232   0.000568   0.103346


                  H 25       H 26
 ------------------------------
     H   25   5.149820
     H   26   0.000448   5.149945


          HEAT OF FORMATION =      13.134978 KCALS/MOLE

          ZERO POINT ENERGY     145.386 KCAL/MOL


           NORMAL COORDINATE ANALYSIS (Total motion = 1 Angstrom)


   Root No.       1         2         3         4         5         6         7         8

                 1 A       2 A       3 A       4 A       5 A       6 A       7 A       8 A   

                  34.5      72.8     100.9     130.7     136.1     158.5     177.5     197.8
  
           1    0.0000    0.0178   -0.0005   -0.0133    0.0004    0.0056    0.0005   -0.0049
           2    0.0206   -0.0175   -0.0073    0.0080    0.0003   -0.0015    0.0026   -0.0007
           3   -0.0018    0.0016   -0.0106   -0.0085   -0.0071    0.0119    0.0077   -0.0178
           4    0.0001    0.0178   -0.0001   -0.0133    0.0006    0.0056   -0.0005   -0.0048
           5    0.0208    0.0173   -0.0075   -0.0081    0.0012    0.0021    0.0023   -0.0001
           6    0.0011    0.0014    0.0110   -0.0075    0.0076    0.0120   -0.0077   -0.0178
           7   -0.0001   -0.0167   -0.0006    0.0028   -0.0008    0.0019    0.0008   -0.0041
           8    0.0203   -0.0172   -0.0074    0.0080    0.0001   -0.0017    0.0032    0.0003
           9    0.0032   -0.0023   -0.0275    0.0011   -0.0161   -0.0098    0.0174    0.0267
          10   -0.0002   -0.0167    0.0012    0.0029    0.0005    0.0019   -0.0007   -0.0041
          11    0.0204    0.0169   -0.0070   -0.0078    0.0012    0.0015    0.0025    0.0004
          12   -0.0037   -0.0019    0.0276    0.0027    0.0163   -0.0097   -0.0175    0.0271
          13    0.0350   -0.0134    0.0042    0.0193    0.0104   -0.0202   -0.0204   -0.0011
          14   -0.0330    0.0099    0.0113   -0.0053   -0.0014    0.0007    0.0124    0.0253
          15   -0.0219   -0.0006    0.0122    0.0088   -0.0006   -0.0108   -0.0010    0.0128
          16   -0.0349   -0.0133   -0.0039    0.0178   -0.0119   -0.0208    0.0199   -0.0010
          17   -0.0326   -0.0094    0.0115    0.0054   -0.0022   -0.0016    0.0123   -0.0249
          18    0.0231   -0.0008   -0.0127    0.0089    0.0000   -0.0105    0.0004    0.0134
          19    0.0001    0.0243   -0.0108   -0.0081   -0.0030   -0.0059   -0.0005    0.0011
          20    0.0103   -0.0231    0.0104    0.0060    0.0050    0.0079    0.0016   -0.0140
          21   -0.0070    0.0020   -0.0067   -0.0069   -0.0067    0.0110    0.0071   -0.0223
          22    0.0000    0.0246    0.0099   -0.0078    0.0036   -0.0060    0.0003    0.0012
          23    0.0109    0.0236    0.0098   -0.0058    0.0059   -0.0077    0.0013    0.0134
          24    0.0066    0.0013    0.0064   -0.0059    0.0068    0.0116   -0.0072   -0.0229
          25    0.0287   -0.0075    0.0092   -0.0036    0.0082    0.0245    0.0285    0.0108
          26   -0.0147    0.0054   -0.0080    0.0017   -0.0052   -0.0190   -0.0242   -0.0230
          27   -0.0157    0.0001    0.0046    0.0007   -0.0036    0.0020    0.0049   -0.0070
          28   -0.0287   -0.0077   -0.0088   -0.0046   -0.0078    0.0247   -0.0277    0.0110
          29   -0.0144   -0.0059   -0.0082   -0.0023   -0.0048    0.0197   -0.0239    0.0231
          30    0.0161    0.0002   -0.0042    0.0015    0.0036    0.0014   -0.0039   -0.0081
          31    0.0025    0.0288    0.0095   -0.0203    0.0074    0.0105   -0.0054   -0.0104
          32    0.0250   -0.0296   -0.0207    0.0166   -0.0065   -0.0120    0.0090    0.0194
          33   -0.0052    0.0020   -0.0087   -0.0088   -0.0071    0.0138    0.0074   -0.0237
          34   -0.0023    0.0284   -0.0103   -0.0210   -0.0058    0.0104    0.0054   -0.0104
          35    0.0253    0.0289   -0.0212   -0.0171   -0.0052    0.0126    0.0087   -0.0207
          36    0.0042    0.0013    0.0095   -0.0074    0.0077    0.0136   -0.0077   -0.0231
          37   -0.0042   -0.0269    0.0319    0.0087    0.0183    0.0009   -0.0203   -0.0038
          38    0.0235   -0.0303   -0.0189    0.0186   -0.0066   -0.0156    0.0103    0.0266
          39    0.0072   -0.0034   -0.0522    0.0033   -0.0306   -0.0167    0.0333    0.0407
          40    0.0044   -0.0272   -0.0349    0.0067   -0.0213    0.0005    0.0231   -0.0039
          41    0.0173   -0.0250    0.0043    0.0071    0.0060    0.0104   -0.0030   -0.0256
          42    0.0069   -0.0033   -0.0499    0.0034   -0.0291   -0.0167    0.0315    0.0404
          43   -0.0047   -0.0260    0.0356    0.0083    0.0206    0.0009   -0.0229   -0.0035
          44    0.0174    0.0251    0.0048   -0.0063    0.0078   -0.0107   -0.0041    0.0269
          45   -0.0073   -0.0024    0.0494    0.0059    0.0289   -0.0159   -0.0313    0.0401
          46    0.0039   -0.0281   -0.0309    0.0072   -0.0189    0.0006    0.0203   -0.0042
          47    0.0234    0.0295   -0.0178   -0.0186   -0.0043    0.0150    0.0091   -0.0256
          48   -0.0078   -0.0026    0.0525    0.0064    0.0308   -0.0167   -0.0335    0.0422
          49    0.0761   -0.0589    0.0391   -0.0726   -0.0765   -0.0847   -0.0650   -0.0171
          50   -0.0239   -0.0008    0.0204   -0.0276   -0.0219   -0.0133    0.0039    0.0237
          51   -0.0148   -0.0229    0.0522   -0.0576   -0.0487   -0.0176    0.0226    0.0556
          52    0.0044    0.0214   -0.0305    0.1178    0.0865   -0.0053   -0.0279   -0.0008
          53   -0.0158   -0.0214    0.0537   -0.0817   -0.0641   -0.0283    0.0136    0.0559
          54   -0.0187    0.0014    0.0048    0.0087    0.0010   -0.0025    0.0012   -0.0019
          55   -0.0307   -0.0085   -0.0004    0.0260   -0.0216   -0.0139    0.0152    0.0010
          56   -0.0740   -0.0565   -0.0244   -0.0786    0.0958   -0.0672    0.0563   -0.0429
          57    0.0400    0.0213    0.0151    0.0797   -0.0594   -0.0222    0.0295    0.0043
          58   -0.0052    0.0216    0.0303    0.1060   -0.0957   -0.0073    0.0275    0.0007
          59   -0.0155    0.0238    0.0549    0.0754   -0.0736    0.0275    0.0132   -0.0548
          60    0.0189   -0.0001   -0.0073    0.0049    0.0018   -0.0034   -0.0021    0.0003
          61    0.0316   -0.0096    0.0015    0.0264    0.0174   -0.0143   -0.0160    0.0004
          62   -0.0757    0.0575   -0.0260    0.0927    0.0901    0.0661    0.0563    0.0407
          63   -0.0376    0.0191   -0.0140    0.0822    0.0483   -0.0239   -0.0322    0.0028
          64   -0.0758   -0.0596   -0.0389   -0.0645    0.0842   -0.0854    0.0634   -0.0188
          65   -0.0245   -0.0003    0.0183    0.0214   -0.0209    0.0111    0.0038   -0.0214
          66    0.0162   -0.0246   -0.0532   -0.0515    0.0546   -0.0167   -0.0222    0.0557
          67   -0.0222    0.0516   -0.0341   -0.0010   -0.0119   -0.0485   -0.0393   -0.0094
          68    0.0213   -0.0474    0.0397    0.0045    0.0149    0.0401    0.0335   -0.0004
          69   -0.0043    0.0031   -0.0113   -0.0085   -0.0079    0.0112    0.0065   -0.0238
          70    0.0224    0.0526    0.0321    0.0001    0.0118   -0.0490    0.0376   -0.0093
          71    0.0224    0.0496    0.0387   -0.0034    0.0158   -0.0411    0.0327   -0.0004
          72    0.0033    0.0016    0.0098   -0.0075    0.0077    0.0132   -0.0079   -0.0238
          73    0.0508   -0.0336    0.0315   -0.0166    0.0142    0.0744    0.0766    0.0200
          74   -0.0245    0.0290   -0.0387    0.0045   -0.0139   -0.0506   -0.0625   -0.0533
          75   -0.0189   -0.0012    0.0103    0.0041   -0.0018   -0.0016    0.0050    0.0035
          76   -0.0509   -0.0344   -0.0300   -0.0180   -0.0126    0.0754   -0.0742    0.0201
          77   -0.0247   -0.0313   -0.0387   -0.0059   -0.0132    0.0525   -0.0615    0.0540
          78    0.0198   -0.0004   -0.0087    0.0049    0.0019   -0.0037   -0.0023    0.0011


   Root No.       9        10        11        12        13        14        15        16

                 9 A      10 A      11 A      12 A      13 A      14 A      15 A      16 A   

                 254.8     325.1     365.0     412.3     442.7     502.8     559.6     796.0
  
           1   -0.0010    0.0057    0.0148   -0.0240   -0.0042   -0.0213    0.0002    0.0302
           2    0.0020    0.0003   -0.0049    0.0100    0.0275    0.0154   -0.0024    0.0278
           3   -0.0134   -0.0071    0.0119   -0.0197    0.0049    0.0263   -0.0383    0.0125
           4    0.0011   -0.0057    0.0147   -0.0240    0.0038   -0.0212   -0.0003    0.0301
           5    0.0026    0.0006    0.0053   -0.0110    0.0273   -0.0144   -0.0012   -0.0273
           6    0.0133    0.0069    0.0118   -0.0192   -0.0064    0.0266    0.0385    0.0134
           7    0.0007   -0.0015    0.0360    0.0099   -0.0006   -0.0068   -0.0001   -0.0280
           8    0.0028   -0.0001    0.0004    0.0150    0.0341    0.0156   -0.0015    0.0322
           9    0.0178   -0.0111   -0.0198   -0.0100   -0.0137   -0.0091    0.0010    0.0099
          10   -0.0008    0.0015    0.0360    0.0099    0.0008   -0.0068    0.0001   -0.0280
          11    0.0023    0.0002   -0.0010   -0.0158    0.0343   -0.0158   -0.0017   -0.0318
          12   -0.0177    0.0112   -0.0199   -0.0097    0.0125   -0.0085   -0.0010    0.0109
          13    0.0154    0.0103   -0.0094   -0.0193   -0.0191    0.0133   -0.0108   -0.0046
          14    0.0165    0.0274   -0.0105   -0.0138   -0.0163    0.0178   -0.0114   -0.0042
          15    0.0142   -0.0142    0.0211    0.0058    0.0188   -0.0094    0.0052    0.0074
          16   -0.0155   -0.0105   -0.0096   -0.0197    0.0189    0.0135    0.0109   -0.0046
          17    0.0158    0.0277    0.0113    0.0140   -0.0165   -0.0181   -0.0116    0.0045
          18   -0.0147    0.0134    0.0208    0.0055   -0.0180   -0.0089   -0.0048    0.0073
          19   -0.0163    0.0511   -0.0184    0.0244   -0.0004    0.0075    0.0141    0.0048
          20   -0.0119   -0.0298   -0.0290   -0.0130   -0.0238   -0.0161    0.0076    0.0012
          21   -0.0313   -0.0073   -0.0128    0.0010   -0.0092    0.0181   -0.0262   -0.0278
          22    0.0163   -0.0507   -0.0185    0.0244    0.0007    0.0076   -0.0141    0.0045
          23   -0.0108   -0.0296    0.0285    0.0134   -0.0233    0.0166    0.0086   -0.0024
          24    0.0316    0.0083   -0.0137    0.0005    0.0099    0.0175    0.0260   -0.0276
          25   -0.0136    0.0255   -0.0253    0.0127   -0.0092    0.0047    0.0113    0.0013
          26   -0.0147   -0.0043   -0.0273   -0.0046   -0.0218   -0.0105    0.0098    0.0029
          27   -0.0182   -0.0198   -0.0017    0.0248    0.0129   -0.0239    0.0253    0.0061
          28    0.0138   -0.0255   -0.0254    0.0128    0.0093    0.0047   -0.0114    0.0014
          29   -0.0139   -0.0035    0.0272    0.0058   -0.0221    0.0094    0.0089   -0.0025
          30    0.0186    0.0198   -0.0025    0.0249   -0.0117   -0.0242   -0.0257    0.0062
          31    0.0130    0.0007    0.0279   -0.0499   -0.0052   -0.0323    0.0254    0.0630
          32    0.0184    0.0010   -0.0052    0.0266    0.0386    0.0194    0.0001    0.0569
          33   -0.0270   -0.0059    0.0050   -0.0139    0.0002    0.0291   -0.0499   -0.0170
          34   -0.0128   -0.0010    0.0279   -0.0501    0.0044   -0.0322   -0.0256    0.0629
          35    0.0194    0.0012    0.0054   -0.0275    0.0382   -0.0182    0.0017   -0.0574
          36    0.0263    0.0058    0.0049   -0.0128   -0.0019    0.0295    0.0501   -0.0150
          37   -0.0234    0.0132    0.0417    0.0228    0.0234    0.0055   -0.0113    0.0145
          38    0.0260   -0.0075   -0.0184    0.0317    0.0154   -0.0071    0.0420   -0.0119
          39    0.0442   -0.0235   -0.0331   -0.0085   -0.0383   -0.0290    0.0316   -0.0420
          40    0.0270   -0.0187    0.0402    0.0208   -0.0241   -0.0036    0.0131   -0.0808
          41   -0.0191    0.0024    0.0246    0.0194    0.0546    0.0538   -0.0437    0.0881
          42    0.0422   -0.0213   -0.0313   -0.0076   -0.0366   -0.0283    0.0304   -0.0464
          43   -0.0270    0.0186    0.0402    0.0204    0.0244   -0.0034   -0.0129   -0.0807
          44   -0.0202    0.0033   -0.0257   -0.0204    0.0557   -0.0543   -0.0450   -0.0894
          45   -0.0411    0.0214   -0.0305   -0.0075    0.0348   -0.0263   -0.0289   -0.0433
          46    0.0232   -0.0133    0.0418    0.0232   -0.0229    0.0054    0.0112    0.0145
          47    0.0244   -0.0068    0.0173   -0.0321    0.0161    0.0060    0.0408    0.0103
          48   -0.0447    0.0239   -0.0339   -0.0081    0.0378   -0.0290   -0.0331   -0.0424
          49    0.0168    0.0007   -0.0088   -0.0310   -0.0277    0.0055   -0.0152   -0.0044
          50    0.0179    0.0271   -0.0098   -0.0165   -0.0177    0.0182   -0.0138   -0.0054
          51    0.0395    0.0211    0.0376    0.0031    0.0305    0.0256   -0.0198   -0.0100
          52    0.0402   -0.0007    0.0063   -0.0482   -0.0263    0.0249   -0.0384   -0.0185
          53    0.0426    0.0529    0.0053   -0.0244   -0.0114    0.0467   -0.0374   -0.0219
          54   -0.0072   -0.0221    0.0080    0.0210    0.0189   -0.0267    0.0267    0.0204
          55   -0.0154   -0.0118   -0.0099   -0.0189    0.0186    0.0148    0.0111   -0.0053
          56    0.0154    0.0388    0.0128    0.0045   -0.0106   -0.0293   -0.0108    0.0088
          57   -0.0424    0.0329    0.0397   -0.0320   -0.0084   -0.0018    0.0273   -0.0052
          58   -0.0409    0.0003    0.0062   -0.0490    0.0259    0.0250    0.0387   -0.0185
          59    0.0419    0.0528   -0.0048    0.0250   -0.0112   -0.0470   -0.0382    0.0221
          60    0.0057    0.0196    0.0083    0.0206   -0.0182   -0.0247   -0.0255    0.0194
          61    0.0149    0.0115   -0.0099   -0.0183   -0.0189    0.0143   -0.0106   -0.0052
          62    0.0164    0.0374   -0.0116   -0.0055   -0.0108    0.0290   -0.0114   -0.0092
          63    0.0419   -0.0340    0.0404   -0.0318    0.0088   -0.0021   -0.0273   -0.0049
          64   -0.0163   -0.0008   -0.0092   -0.0313    0.0273    0.0057    0.0151   -0.0047
          65    0.0159    0.0260    0.0113    0.0164   -0.0182   -0.0171   -0.0128    0.0050
          66   -0.0400   -0.0214    0.0375    0.0025   -0.0299    0.0259    0.0207   -0.0097
          67   -0.0221    0.0949   -0.0258    0.0713    0.0193    0.0254    0.0471   -0.0022
          68   -0.0120   -0.0709   -0.0394   -0.0305   -0.0483   -0.0608    0.0232    0.0059
          69   -0.0282   -0.0046   -0.0052   -0.0076   -0.0050    0.0310   -0.0436   -0.0270
          70    0.0218   -0.0940   -0.0257    0.0713   -0.0186    0.0254   -0.0467   -0.0016
          71   -0.0111   -0.0711    0.0395    0.0313   -0.0484    0.0619    0.0252   -0.0063
          72    0.0285    0.0074   -0.0064   -0.0090    0.0065    0.0285    0.0431   -0.0266
          73   -0.0260   -0.0045   -0.0407   -0.0079   -0.0328   -0.0122    0.0001   -0.0087
          74   -0.0333    0.0228   -0.0376    0.0160   -0.0177    0.0138    0.0103   -0.0123
          75   -0.0050   -0.0210    0.0085    0.0219    0.0191   -0.0278    0.0278    0.0159
          76    0.0266    0.0039   -0.0410   -0.0078    0.0326   -0.0119   -0.0005   -0.0090
          77   -0.0327    0.0240    0.0376   -0.0153   -0.0179   -0.0153    0.0092    0.0124
          78    0.0060    0.0200    0.0074    0.0229   -0.0181   -0.0270   -0.0283    0.0154


   Root No.      17        18        19        20        21        22        23        24

                17 A      18 A      19 A      20 A      21 A      22 A      23 A      24 A   

                 843.5     855.0     865.8     919.2     924.5     937.0     964.1     984.7
  
           1   -0.0122    0.0119   -0.0013    0.0102    0.0007    0.0018    0.0055    0.0009
           2   -0.0106   -0.0029   -0.0006   -0.0026    0.0043   -0.0031   -0.0033   -0.0015
           3   -0.0079    0.0016   -0.0002    0.0040    0.0023   -0.0065   -0.0073    0.0040
           4   -0.0122   -0.0121   -0.0013   -0.0102    0.0012   -0.0017    0.0056   -0.0008
           5    0.0103   -0.0028    0.0006   -0.0028   -0.0041   -0.0029    0.0031   -0.0012
           6   -0.0083   -0.0016   -0.0002   -0.0039    0.0025    0.0065   -0.0073   -0.0043
           7    0.0108    0.0001   -0.0034    0.0000    0.0022    0.0014   -0.0039    0.0007
           8   -0.0149    0.0065    0.0101    0.0013   -0.0075    0.0110    0.0102    0.0056
           9    0.0205    0.0027   -0.0053    0.0083    0.0010   -0.0155   -0.0005   -0.0097
          10    0.0108    0.0001   -0.0034    0.0001    0.0021   -0.0014   -0.0039   -0.0009
          11    0.0154    0.0068   -0.0103    0.0012    0.0074    0.0116   -0.0105    0.0051
          12    0.0198   -0.0028   -0.0049   -0.0084    0.0009    0.0152   -0.0007    0.0094
          13   -0.0008   -0.0095   -0.0099    0.0042    0.0010   -0.0076   -0.0117    0.0114
          14    0.0039    0.0084    0.0082    0.0004    0.0005   -0.0058   -0.0157    0.0137
          15   -0.0027    0.0007   -0.0007    0.0012    0.0008   -0.0015   -0.0028    0.0036
          16   -0.0008    0.0095   -0.0098   -0.0042    0.0010    0.0074   -0.0115   -0.0116
          17   -0.0041    0.0085   -0.0082    0.0003   -0.0005   -0.0055    0.0150    0.0138
          18   -0.0025   -0.0011   -0.0003   -0.0012    0.0008    0.0016   -0.0032   -0.0041
          19    0.0046    0.0196    0.0163    0.0122   -0.0216    0.0080    0.0021   -0.0047
          20   -0.0044   -0.0164   -0.0153   -0.0105    0.0193   -0.0055    0.0068   -0.0062
          21    0.0029   -0.0050    0.0043   -0.0087   -0.0043    0.0158    0.0092    0.0032
          22    0.0047   -0.0195    0.0162   -0.0125   -0.0208   -0.0081    0.0021    0.0047
          23    0.0047   -0.0165    0.0156   -0.0107   -0.0192   -0.0063   -0.0061   -0.0064
          24    0.0027    0.0058    0.0037    0.0091   -0.0038   -0.0155    0.0097   -0.0025
          25   -0.0027   -0.0106   -0.0111    0.0068   -0.0066    0.0001   -0.0005   -0.0022
          26    0.0037    0.0110    0.0085   -0.0034    0.0067   -0.0037    0.0007   -0.0032
          27    0.0004    0.0008   -0.0015    0.0025    0.0004   -0.0043   -0.0037   -0.0001
          28   -0.0028    0.0105   -0.0109   -0.0069   -0.0062   -0.0001   -0.0005    0.0020
          29   -0.0038    0.0111   -0.0086   -0.0038   -0.0066   -0.0036   -0.0007   -0.0032
          30    0.0005   -0.0013   -0.0011   -0.0023    0.0008    0.0044   -0.0039    0.0000
          31   -0.0428    0.0088   -0.0127    0.0133    0.0169    0.0142    0.0241    0.0020
          32    0.0034    0.0059    0.0059    0.0077   -0.0013   -0.0347   -0.0190   -0.0284
          33   -0.0004   -0.0017    0.0026   -0.0031   -0.0029    0.0035   -0.0081    0.0168
          34   -0.0427   -0.0095   -0.0127   -0.0131    0.0175   -0.0140    0.0243    0.0000
          35   -0.0034    0.0063   -0.0061    0.0080    0.0015   -0.0349    0.0202   -0.0264
          36   -0.0003    0.0017    0.0027    0.0028   -0.0029   -0.0026   -0.0080   -0.0160
          37    0.1215   -0.0019   -0.0210   -0.0082    0.0019    0.0103    0.0336    0.0109
          38   -0.0640   -0.0129    0.0248   -0.0458   -0.0155    0.0938    0.0467    0.0578
          39   -0.0736   -0.0068    0.0136   -0.0128   -0.0034    0.0254   -0.0027    0.0134
          40   -0.1094   -0.0052    0.0294   -0.0007   -0.0122    0.0006   -0.0287   -0.0037
          41    0.0219    0.0182    0.0108    0.0397   -0.0166   -0.0619   -0.0105   -0.0417
          42   -0.0617   -0.0065    0.0109   -0.0131   -0.0014    0.0241   -0.0021    0.0139
          43   -0.1095    0.0045    0.0295    0.0006   -0.0121   -0.0013   -0.0289    0.0018
          44   -0.0239    0.0189   -0.0108    0.0408    0.0157   -0.0626    0.0129   -0.0410
          45   -0.0609    0.0057    0.0111    0.0118   -0.0021   -0.0223   -0.0016   -0.0125
          46    0.1217    0.0027   -0.0210    0.0082    0.0015   -0.0097    0.0340   -0.0077
          47    0.0612   -0.0123   -0.0241   -0.0452    0.0163    0.0930   -0.0501    0.0531
          48   -0.0759    0.0069    0.0143    0.0145   -0.0041   -0.0289   -0.0001   -0.0154
          49    0.0161    0.0508    0.0495   -0.0090    0.0018   -0.0021   -0.0201    0.0156
          50    0.0065    0.0170    0.0172   -0.0023    0.0002   -0.0031   -0.0137    0.0115
          51   -0.0216   -0.0704   -0.0605   -0.0018   -0.0079    0.0356    0.0823   -0.0676
          52    0.0087    0.0202    0.0272   -0.0183   -0.0033    0.0298    0.0474   -0.0432
          53   -0.0041   -0.0279   -0.0184   -0.0082   -0.0067    0.0280    0.0539   -0.0467
          54   -0.0024    0.0067   -0.0016    0.0131    0.0056   -0.0300   -0.0555    0.0508
          55   -0.0022    0.0151   -0.0151   -0.0054    0.0010    0.0082   -0.0116   -0.0121
          56    0.0118   -0.0529    0.0508    0.0136    0.0002   -0.0124    0.0113    0.0135
          57    0.0142   -0.0616    0.0677    0.0316   -0.0046   -0.0474    0.0687    0.0653
          58    0.0090   -0.0202    0.0271    0.0183   -0.0038   -0.0292    0.0463    0.0441
          59    0.0041   -0.0280    0.0181   -0.0083    0.0071    0.0280   -0.0539   -0.0494
          60   -0.0028   -0.0050   -0.0031   -0.0128    0.0056    0.0282   -0.0519   -0.0501
          61   -0.0019   -0.0147   -0.0149    0.0055    0.0010   -0.0087   -0.0125    0.0125
          62   -0.0108   -0.0503   -0.0485    0.0123   -0.0005   -0.0110   -0.0094    0.0117
          63    0.0138    0.0628    0.0694   -0.0320   -0.0041    0.0493    0.0713   -0.0652
          64    0.0164   -0.0506    0.0490    0.0092    0.0016    0.0019   -0.0196   -0.0164
          65   -0.0072    0.0190   -0.0186   -0.0022   -0.0005   -0.0044    0.0165    0.0147
          66   -0.0217    0.0695   -0.0591    0.0017   -0.0079   -0.0347    0.0805    0.0699
          67   -0.0116   -0.0462   -0.0329   -0.1074    0.1641   -0.0442    0.0253   -0.0335
          68    0.0235    0.0436    0.0257    0.0981   -0.1474    0.0351    0.0124   -0.0332
          69   -0.0039   -0.0084    0.0034   -0.0147    0.0043    0.0163   -0.0008    0.0242
          70   -0.0122    0.0462   -0.0327    0.1101    0.1579    0.0447    0.0236    0.0342
          71   -0.0242    0.0445   -0.0260    0.1030    0.1447    0.0351   -0.0113   -0.0335
          72   -0.0029    0.0065    0.0045    0.0105   -0.0024   -0.0179    0.0007   -0.0226
          73    0.0235    0.0804    0.0866   -0.0985    0.1146   -0.0097    0.0313   -0.0294
          74   -0.0158   -0.0758   -0.0750    0.0758   -0.1058    0.0374    0.0279   -0.0287
          75   -0.0003    0.0072    0.0014    0.0039    0.0077   -0.0181   -0.0253    0.0194
          76    0.0239   -0.0797    0.0855    0.1007    0.1100    0.0104    0.0301    0.0303
          77    0.0165   -0.0767    0.0752    0.0792    0.1042    0.0382   -0.0282   -0.0297
          78   -0.0010   -0.0039   -0.0020   -0.0072    0.0033    0.0163   -0.0241   -0.0191


   Root No.      25        26        27        28        29        30        31        32

                25 A      26 A      27 A      28 A      29 A      30 A      31 A      32 A   

                 993.7    1005.4    1028.5    1029.4    1042.9    1050.9    1091.3    1150.7
  
           1    0.0014   -0.0363    0.0008    0.0051   -0.0107    0.0109   -0.0227   -0.0239
           2    0.0161    0.0087    0.0053    0.0132    0.0228    0.0228    0.0093    0.0136
           3    0.0023   -0.0054    0.0014    0.0034    0.0019    0.0030   -0.0050   -0.0109
           4    0.0009    0.0363    0.0012   -0.0050    0.0109    0.0108    0.0227    0.0238
           5   -0.0161    0.0086   -0.0066    0.0127    0.0223   -0.0229    0.0095    0.0140
           6    0.0026    0.0051    0.0020   -0.0037   -0.0027    0.0038    0.0046    0.0104
           7    0.0046    0.0088    0.0020   -0.0238   -0.0294    0.0012   -0.0068   -0.0059
           8   -0.0198   -0.0180   -0.0033   -0.0050   -0.0168   -0.0111   -0.0042   -0.0103
           9    0.0027    0.0004   -0.0023   -0.0016   -0.0012   -0.0145   -0.0332    0.0144
          10    0.0047   -0.0088   -0.0003    0.0239    0.0294    0.0008    0.0068    0.0059
          11    0.0202   -0.0177    0.0039   -0.0047   -0.0165    0.0108   -0.0032   -0.0108
          12    0.0022    0.0002   -0.0026    0.0016    0.0016   -0.0148    0.0334   -0.0140
          13   -0.0090   -0.0077   -0.0171   -0.0135    0.0075    0.0019    0.0023    0.0019
          14   -0.0076    0.0112    0.0146    0.0094   -0.0085   -0.0028   -0.0004    0.0019
          15   -0.0005   -0.0028    0.0000    0.0015    0.0023    0.0061   -0.0013    0.0076
          16   -0.0095    0.0073   -0.0182    0.0120   -0.0074    0.0021   -0.0023   -0.0020
          17    0.0078    0.0114   -0.0156    0.0082   -0.0086    0.0031   -0.0003    0.0016
          18   -0.0009    0.0024    0.0008   -0.0019   -0.0017    0.0060    0.0013   -0.0076
          19    0.0046    0.0005   -0.0100   -0.0069    0.0107    0.0052    0.0057    0.0020
          20    0.0037   -0.0032    0.0096    0.0085   -0.0078   -0.0024   -0.0061   -0.0068
          21   -0.0061    0.0027   -0.0007   -0.0020   -0.0006    0.0042    0.0024    0.0114
          22    0.0048   -0.0004   -0.0105    0.0060   -0.0105    0.0053   -0.0056   -0.0019
          23   -0.0040   -0.0035   -0.0105    0.0078   -0.0080    0.0028   -0.0063   -0.0073
          24   -0.0059   -0.0027   -0.0005    0.0016    0.0010    0.0042   -0.0021   -0.0111
          25    0.0032    0.0097    0.0234    0.0177   -0.0131   -0.0044   -0.0054   -0.0032
          26    0.0018   -0.0101   -0.0206   -0.0146    0.0128    0.0040    0.0022    0.0004
          27   -0.0001    0.0020    0.0005   -0.0007   -0.0019   -0.0054   -0.0004   -0.0047
          28    0.0034   -0.0094    0.0249   -0.0156    0.0130   -0.0046    0.0054    0.0032
          29   -0.0018   -0.0102    0.0222   -0.0130    0.0130   -0.0045    0.0023    0.0006
          30   -0.0001   -0.0016   -0.0005    0.0013    0.0012   -0.0052    0.0003    0.0045
          31   -0.0460   -0.1022    0.0122    0.0428   -0.0311   -0.0491   -0.0158    0.1262
          32    0.0824    0.0805   -0.0019   -0.0286    0.0441    0.0724   -0.0416   -0.0549
          33   -0.0077   -0.0066   -0.0006    0.0045    0.0016    0.0084    0.0157   -0.0494
          34   -0.0472    0.1014    0.0156   -0.0413    0.0302   -0.0497    0.0160   -0.1258
          35   -0.0846    0.0793    0.0042   -0.0284    0.0428   -0.0732   -0.0419   -0.0531
          36   -0.0055    0.0038   -0.0002   -0.0037   -0.0029    0.0108   -0.0144    0.0510
          37   -0.0711    0.0577    0.0146   -0.0637   -0.0303    0.0233   -0.1416    0.0591
          38   -0.1026    0.0276    0.0167   -0.0350   -0.0062    0.0567   -0.0367    0.0109
          39    0.0010   -0.0047    0.0008    0.0062    0.0054    0.0074    0.0270   -0.0124
          40    0.0304    0.0128   -0.0199   -0.0416   -0.0821   -0.0755    0.1575    0.0143
          41    0.0179   -0.0038   -0.0315   -0.0354   -0.0780   -0.1208    0.0587    0.0566
          42   -0.0035   -0.0042    0.0021    0.0054    0.0055    0.0069    0.0143   -0.0110
          43    0.0306   -0.0124   -0.0240    0.0400    0.0809   -0.0770   -0.1572   -0.0142
          44   -0.0188   -0.0039    0.0352   -0.0332   -0.0762    0.1224    0.0576    0.0568
          45   -0.0032    0.0042    0.0014   -0.0041   -0.0029    0.0028   -0.0163    0.0091
          46   -0.0707   -0.0587    0.0086    0.0646    0.0305    0.0234    0.1415   -0.0593
          47    0.1036    0.0293   -0.0132   -0.0364   -0.0071   -0.0567   -0.0370    0.0115
          48   -0.0028    0.0037    0.0019   -0.0049   -0.0050    0.0093   -0.0260    0.0120
          49   -0.0058    0.0377    0.0548    0.0375   -0.0297   -0.0118   -0.0028   -0.0004
          50   -0.0056    0.0182    0.0258    0.0173   -0.0145   -0.0057   -0.0012    0.0010
          51    0.0338   -0.0541   -0.0740   -0.0491    0.0410    0.0127    0.0020   -0.0038
          52    0.0241    0.0133    0.0195    0.0130   -0.0123   -0.0156   -0.0012   -0.0153
          53    0.0222   -0.0111   -0.0196   -0.0153    0.0066   -0.0106    0.0018   -0.0154
          54   -0.0258   -0.0003    0.0028    0.0036    0.0026    0.0167   -0.0012    0.0228
          55   -0.0107    0.0111   -0.0260    0.0169   -0.0107    0.0026   -0.0031   -0.0022
          56    0.0161   -0.0304    0.0627   -0.0399    0.0265   -0.0056    0.0065    0.0019
          57    0.0484   -0.0353    0.0814   -0.0529    0.0336   -0.0108    0.0102    0.0066
          58    0.0259   -0.0129    0.0208   -0.0114    0.0121   -0.0160    0.0012    0.0153
          59   -0.0246   -0.0112    0.0211   -0.0138    0.0068    0.0111    0.0019   -0.0159
          60   -0.0268    0.0009    0.0016   -0.0025   -0.0028    0.0166    0.0011   -0.0222
          61   -0.0104   -0.0112   -0.0237   -0.0186    0.0104    0.0023    0.0030    0.0022
          62   -0.0138   -0.0295   -0.0556   -0.0424    0.0250    0.0047    0.0060    0.0015
          63    0.0464    0.0373    0.0772    0.0604   -0.0340   -0.0100   -0.0103   -0.0065
          64   -0.0060   -0.0374    0.0581   -0.0329    0.0295   -0.0122    0.0027    0.0003
          65    0.0073    0.0198   -0.0295    0.0163   -0.0155    0.0061   -0.0012    0.0012
          66    0.0359    0.0536   -0.0772    0.0423   -0.0401    0.0127   -0.0018    0.0041
          67    0.0104   -0.0095    0.0248    0.0127   -0.0446   -0.0514   -0.0120   -0.0296
          68    0.0185    0.0269   -0.0297   -0.0308    0.0212   -0.0283    0.0167   -0.0184
          69   -0.0139   -0.0072    0.0044    0.0085    0.0059    0.0349   -0.0017    0.0269
          70    0.0112    0.0090    0.0255   -0.0101    0.0433   -0.0523    0.0118    0.0296
          71   -0.0205    0.0275    0.0326   -0.0287    0.0223    0.0287    0.0170   -0.0193
          72   -0.0139    0.0062    0.0037   -0.0071   -0.0061    0.0342    0.0011   -0.0263
          73    0.0135   -0.0287   -0.0557   -0.0413    0.0310    0.0064    0.0024    0.0480
          74    0.0182    0.0262    0.0489    0.0349   -0.0268   -0.0137   -0.0191    0.0371
          75   -0.0101   -0.0007   -0.0025   -0.0018    0.0004   -0.0012    0.0057   -0.0371
          76    0.0144    0.0283   -0.0588    0.0363   -0.0305    0.0066   -0.0021   -0.0484
          77   -0.0199    0.0259   -0.0530    0.0313   -0.0272    0.0144   -0.0194    0.0382
          78   -0.0102   -0.0005   -0.0006    0.0004    0.0006   -0.0016   -0.0051    0.0359


   Root No.      33        34        35        36        37        38        39        40

                33 A      34 A      35 A      36 A      37 A      38 A      39 A      40 A   

                1151.8    1162.6    1172.7    1173.0    1195.0    1202.2    1217.8    1222.3
  
           1    0.0178    0.0074   -0.0133   -0.0096   -0.0203    0.0074    0.0097   -0.0100
           2    0.0019   -0.0110    0.0095   -0.0216    0.0275    0.0054    0.0121    0.0084
           3    0.0013   -0.0171    0.0118   -0.0126    0.0055    0.0010    0.0279   -0.0130
           4   -0.0181    0.0069   -0.0155    0.0046   -0.0201   -0.0070   -0.0097   -0.0106
           5    0.0015    0.0105   -0.0016   -0.0229   -0.0277    0.0057    0.0110   -0.0083
           6   -0.0010   -0.0176    0.0073    0.0167    0.0070   -0.0014   -0.0273   -0.0142
           7    0.0127   -0.0027    0.0046   -0.0116    0.0070    0.0042    0.0000    0.0029
           8   -0.0085    0.0051   -0.0122    0.0204   -0.0060   -0.0083   -0.0131   -0.0031
           9   -0.0125    0.0044   -0.0045   -0.0007    0.0041   -0.0066   -0.0110    0.0023
          10   -0.0126   -0.0031    0.0007    0.0125    0.0071   -0.0043    0.0000    0.0027
          11   -0.0080   -0.0052    0.0047    0.0234    0.0065   -0.0082   -0.0126    0.0026
          12    0.0127    0.0047   -0.0047   -0.0017    0.0037    0.0068    0.0113    0.0028
          13   -0.0024   -0.0010    0.0027    0.0063   -0.0040    0.0015    0.0021    0.0002
          14   -0.0015    0.0005    0.0028    0.0072   -0.0044    0.0007    0.0025   -0.0005
[...]
 RED. MASS   0.2744        C  3 --  H 13          +17.9% ( 43.9%)     3.9%
 EFF. MASS   2.1945

 VIBRATION   52   52A       ATOM PAIR        ENERGY CONTRIBUTION    RADIAL
 FREQ.      1428.20        C  3 --  H 13           +8.7% ( 35.5%)     3.7%
 T-DIPOLE    0.0038        C  4 --  H 16           +8.6% ( 35.3%)     3.7%
 TRAVEL      0.1075        C  3 --  H 14           +8.3% ( 34.6%)     4.9%
 RED. MASS   0.2357        C  4 --  H 15           +8.2% ( 34.5%)     4.8%
 EFF. MASS   4.0868

 VIBRATION   53   53A       ATOM PAIR        ENERGY CONTRIBUTION    RADIAL
 FREQ.      1434.97        C  6 --  C 10           +9.2% ( 43.8%)    99.9%
 T-DIPOLE    0.0490        C  5 --  C  9           +9.1% ( 43.4%)    99.9%
 TRAVEL      0.0806        C  6 --  H 20           +8.4% ( 41.8%)     5.0%
 RED. MASS   0.7393        C  5 --  H 18           +8.2% ( 41.3%)     5.1%
 EFF. MASS   7.2294

 VIBRATION   54   54A       ATOM PAIR        ENERGY CONTRIBUTION    RADIAL
 FREQ.      1470.57        C  1 --  C  2          +10.9% ( 53.6%)    52.4%
 T-DIPOLE    0.0933        C  1 --  C  7           +7.7% ( 45.3%)    94.7%
 TRAVEL      0.0713        C  2 --  C  8           +7.7% ( 45.2%)    94.7%
 RED. MASS   1.1494        C  1 --  C  4           +7.2% ( 43.5%)    89.2%
 EFF. MASS   9.0123

 VIBRATION   55   55A       ATOM PAIR        ENERGY CONTRIBUTION    RADIAL
 FREQ.      1888.89        C  7 --  C  9          +22.2% ( 69.5%)    96.3%
 T-DIPOLE    0.3031        C  8 --  C 10          +21.4% ( 68.3%)    96.3%
 TRAVEL      0.0550        C  1 --  C  7           +7.3% ( 39.9%)    55.3%
 RED. MASS   2.6771        C  5 --  C  9           +7.2% ( 39.6%)    56.4%
 EFF. MASS  11.7850

 VIBRATION   56   56A       ATOM PAIR        ENERGY CONTRIBUTION    RADIAL
 FREQ.      1891.11        C  8 --  C 10          +22.1% ( 69.4%)    96.2%
 T-DIPOLE    0.3244        C  7 --  C  9          +21.3% ( 68.2%)    96.2%
 TRAVEL      0.0550        C  2 --  C  8           +7.4% ( 40.1%)    56.3%
 RED. MASS   2.6740        C  6 --  C 10           +7.1% ( 39.4%)    56.3%
 EFF. MASS  11.7953

 VIBRATION   57   57A       ATOM PAIR        ENERGY CONTRIBUTION    RADIAL
 FREQ.      2940.14        C  1 --  H 11          +48.9% ( 71.7%)   100.0%
 T-DIPOLE    0.0408        C  2 --  H 12          +46.1% ( 69.5%)   100.0%
 TRAVEL      0.1254        C  1 --  C  2           +1.2% ( 11.2%)    16.5%
 RED. MASS   0.4607        C  1 --  C  7           +0.6% (  7.7%)    13.5%
 EFF. MASS   1.4584

 VIBRATION   58   58A       ATOM PAIR        ENERGY CONTRIBUTION    RADIAL
 FREQ.      2946.84        C  2 --  H 12          +49.0% ( 71.5%)   100.0%
 T-DIPOLE    0.1199        C  1 --  H 11          +46.1% ( 69.4%)   100.0%
 TRAVEL      0.1258        C  1 --  C  2           +0.9% (  9.9%)     0.0%
 RED. MASS   0.4601        C  2 --  C  8           +0.6% (  7.7%)    13.8%
 EFF. MASS   1.4466

 VIBRATION   59   59A       ATOM PAIR        ENERGY CONTRIBUTION    RADIAL
 FREQ.      3030.73        C  3 --  H 14          +26.8% ( 54.1%)    97.2%
 T-DIPOLE    0.0156        C  4 --  H 15          +26.1% ( 53.4%)    97.2%
 TRAVEL      0.1196        C  3 --  H 13          +21.9% ( 48.9%)    96.0%
 RED. MASS   0.2602        C  4 --  H 16          +21.4% ( 48.4%)    96.1%
 EFF. MASS   1.5545

 VIBRATION   60   60A       ATOM PAIR        ENERGY CONTRIBUTION    RADIAL
 FREQ.      3034.26        C  7 --  H 23          +73.1% ( 86.6%)   100.0%
 T-DIPOLE    0.3164        C  8 --  H 24          +22.4% ( 47.9%)   100.0%
 TRAVEL      0.1220        C  9 --  H 25           +1.4% ( 11.8%)    99.2%
 RED. MASS   0.5727        C  7 --  C  9           +1.0% ( 10.2%)    39.9%
 EFF. MASS   1.4931

 VIBRATION   61   61A       ATOM PAIR        ENERGY CONTRIBUTION    RADIAL
 FREQ.      3034.37        C  8 --  H 24          +72.9% ( 86.5%)   100.0%
 T-DIPOLE    0.2373        C  7 --  H 23          +22.3% ( 47.8%)   100.0%
 TRAVEL      0.1220        C 10 --  H 26           +1.5% ( 12.2%)    99.2%
 RED. MASS   0.5707        C  8 --  C 10           +1.0% ( 10.2%)    39.9%
 EFF. MASS   1.4925

 VIBRATION   62   62A       ATOM PAIR        ENERGY CONTRIBUTION    RADIAL
 FREQ.      3038.00        C  9 --  H 25          +90.9% ( 96.9%)   100.0%
 T-DIPOLE    0.2176        C 10 --  H 26           +1.9% ( 14.0%)   100.0%
 TRAVEL      0.1202        C  7 --  H 23           +1.6% ( 13.0%)    98.8%
 RED. MASS   0.8214        C  7 --  C  9           +1.6% ( 12.9%)    39.1%
 EFF. MASS   1.5360

 VIBRATION   63   63A       ATOM PAIR        ENERGY CONTRIBUTION    RADIAL
 FREQ.      3038.05        C 10 --  H 26          +90.8% ( 96.9%)   100.0%
 T-DIPOLE    0.1960        C  9 --  H 25           +1.9% ( 13.9%)   100.0%
 TRAVEL      0.1202        C  8 --  H 24           +1.7% ( 13.2%)    98.8%
 RED. MASS   0.8203        C  8 --  C 10           +1.6% ( 12.9%)    39.1%
 EFF. MASS   1.5366

 VIBRATION   64   64A       ATOM PAIR        ENERGY CONTRIBUTION    RADIAL
 FREQ.      3045.32        C  4 --  H 15          +27.3% ( 54.2%)    97.6%
 T-DIPOLE    0.0956        C  3 --  H 14          +26.7% ( 53.7%)    97.6%
 TRAVEL      0.1202        C  4 --  H 16          +21.5% ( 48.1%)    96.2%
 RED. MASS   0.2603        C  3 --  H 13          +20.9% ( 47.5%)    96.2%
 EFF. MASS   1.5319

 VIBRATION   65   65A       ATOM PAIR        ENERGY CONTRIBUTION    RADIAL
 FREQ.      3070.06        C  6 --  H 22          +49.5% ( 72.6%)    97.1%
 T-DIPOLE    0.0230        C  6 --  H 19          +48.3% ( 71.7%)    97.0%
 TRAVEL      0.1210        C  6 --  C 10           +1.0% ( 10.2%)     0.0%
 RED. MASS   0.5068        C  6 --  H 20           +0.9% (  9.9%)     0.2%
 EFF. MASS   1.5009

 VIBRATION   66   66A       ATOM PAIR        ENERGY CONTRIBUTION    RADIAL
 FREQ.      3070.15        C  5 --  H 17          +50.1% ( 73.0%)    97.2%
 T-DIPOLE    0.0231        C  5 --  H 21          +47.7% ( 71.3%)    96.9%
 TRAVEL      0.1210        C  5 --  C  9           +1.0% ( 10.2%)     0.0%
 RED. MASS   0.5068        C  5 --  H 18           +0.9% ( 10.0%)     0.6%
 EFF. MASS   1.5010

 VIBRATION   67   67A       ATOM PAIR        ENERGY CONTRIBUTION    RADIAL
 FREQ.      3075.87        C  5 --  H 18          +60.1% ( 79.9%)    98.9%
 T-DIPOLE    0.0595        C  5 --  H 21          +17.4% ( 43.0%)    85.9%
 TRAVEL      0.1205        C  5 --  H 17          +15.3% ( 40.3%)    83.7%
 RED. MASS   0.4408        C  6 --  H 20           +2.7% ( 17.0%)    98.9%
 EFF. MASS   1.5086

 VIBRATION   68   68A       ATOM PAIR        ENERGY CONTRIBUTION    RADIAL
 FREQ.      3075.89        C  6 --  H 20          +60.0% ( 79.8%)    98.9%
 T-DIPOLE    0.0571        C  6 --  H 19          +16.9% ( 42.4%)    85.5%
 TRAVEL      0.1206        C  6 --  H 22          +15.8% ( 41.0%)    84.3%
 RED. MASS   0.4396        C  5 --  H 18           +2.7% ( 17.0%)    98.9%
 EFF. MASS   1.5085

 VIBRATION   69   69A       ATOM PAIR        ENERGY CONTRIBUTION    RADIAL
 FREQ.      3104.55        C  3 --  H 13          +29.2% ( 53.6%)    97.9%
 T-DIPOLE    0.0664        C  4 --  H 16          +26.2% ( 50.8%)    97.9%
 TRAVEL      0.1303        C  3 --  H 14          +22.4% ( 47.0%)    96.2%
 RED. MASS   0.2463        C  4 --  H 15          +20.2% ( 44.5%)    96.2%
 EFF. MASS   1.2801

 VIBRATION   70   70A       ATOM PAIR        ENERGY CONTRIBUTION    RADIAL
 FREQ.      3106.08        C  4 --  H 16          +28.5% ( 53.0%)    97.8%
 T-DIPOLE    0.0847        C  3 --  H 13          +25.7% ( 50.3%)    97.8%
 TRAVEL      0.1298        C  4 --  H 15          +23.0% ( 47.6%)    96.4%
 RED. MASS   0.2451        C  3 --  H 14          +20.6% ( 45.1%)    96.4%
 EFF. MASS   1.2879

 VIBRATION   71   71A       ATOM PAIR        ENERGY CONTRIBUTION    RADIAL
 FREQ.      3169.75        C  5 --  H 18          +32.5% ( 54.9%)    97.2%
 T-DIPOLE    0.0751        C  5 --  H 21          +31.1% ( 53.7%)    97.1%
 TRAVEL      0.1366        C  5 --  H 17          +30.9% ( 53.5%)    97.0%
 RED. MASS   0.2946        C  6 --  H 20           +1.8% ( 13.0%)    97.2%
 EFF. MASS   1.1395

 VIBRATION   72   72A       ATOM PAIR        ENERGY CONTRIBUTION    RADIAL
 FREQ.      3169.77        C  6 --  H 20          +32.7% ( 55.0%)    97.2%
 T-DIPOLE    0.0713        C  6 --  H 19          +30.9% ( 53.6%)    97.1%
 TRAVEL      0.1366        C  6 --  H 22          +30.8% ( 53.5%)    97.0%
 RED. MASS   0.2946        C  5 --  H 18           +1.8% ( 12.9%)    97.2%
 EFF. MASS   1.1396

 SYMMETRY NUMBER FOR POINT-GROUP C1  =  1


          SYSTEM IS A GROUND STATE


    NULL



          MOLECULE IS NOT LINEAR

          THERE ARE 72 GENUINE VIBRATIONS IN THIS SYSTEM
          THIS THERMODYNAMICS CALCULATION IS LIMITED TO
          MOLECULES WHICH HAVE NO INTERNAL ROTATIONS




                    CALCULATED THERMODYNAMIC PROPERTIES
                                          *
   TEMP. (K)   PARTITION FUNCTION   H.O.F.    ENTHALPY  HEAT CAPACITY ENTROPY
                                   KCAL/MOL   CAL/MOLE    CAL/K/MOL  CAL/K/MOL


 298.00  VIB.     0.5554D+04                  5471.2648    36.0840    35.4942
         ROT.     0.1109D+07                   888.2813     2.9808    30.6402
         INT.     0.6158D+10                  6359.5461    39.0648    66.1344
         TRA.     0.1537D+28                  1480.4688     4.9680    40.6375
         TOT.                       13.135    7840.0150    44.0328   106.7719

 200.00  VIB.     0.2554D+03                  2552.6388    23.9955    23.7776
         ROT.     0.6096D+06                   596.1620     2.9808    29.4515
         INT.     0.1557D+09                  3148.8007    26.9763    53.2291
         TRA.     0.8452D+27                   993.6033     4.9680    38.6564
         TOT.                        9.437    4142.4040    31.9443    91.8855

 210.00  VIB.     0.3517D+03                  2797.9629    25.0755    24.9743
         ROT.     0.6559D+06                   625.9700     2.9808    29.5970
         INT.     0.2307D+09                  3423.9329    28.0563    54.5713
         TRA.     0.9094D+27                  1043.2834     4.9680    38.8988
         TOT.                        9.762    4467.2163    33.0243    93.4701

 220.00  VIB.     0.4836D+03                  3054.2739    26.1932    26.1665
         ROT.     0.7033D+06                   655.7781     2.9808    29.7356
         INT.     0.3401D+09                  3710.0521    29.1740    55.9021
         TRA.     0.9752D+27                  1092.9636     4.9680    39.1299
         TOT.                       10.098    4803.0156    34.1420    95.0320

 230.00  VIB.     0.6638D+03                  3321.9549    27.3494    27.3562
         ROT.     0.7518D+06                   685.5862     2.9808    29.8681
         INT.     0.4991D+09                  4007.5411    30.3303    57.2243
         TRA.     0.1042D+28                  1142.6437     4.9680    39.3507
         TOT.                       10.445    5150.1848    35.2983    96.5750

 240.00  VIB.     0.9099D+03                  3601.3895    28.5437    28.5453
         ROT.     0.8014D+06                   715.3943     2.9808    29.9950
         INT.     0.7291D+09                  4316.7838    31.5245    58.5403
         TRA.     0.1111D+28                  1192.3239     4.9680    39.5621
         TOT.                       10.804    5509.1077    36.4925    98.1024

 250.00  VIB.     0.1246D+04                  3892.9496    29.7742    29.7353
         ROT.     0.8520D+06                   745.2024     2.9808    30.1167
         INT.     0.1061D+10                  4638.1520    32.7550    59.8520
         TRA.     0.1181D+28                  1242.0041     4.9680    39.7650
         TOT.                       11.175    5880.1561    37.7230    99.6169

 260.00  VIB.     0.1703D+04                  4196.9847    31.0382    30.9276
         ROT.     0.9036D+06                   775.0105     2.9808    30.2336
         INT.     0.1539D+10                  4971.9952    34.0190    61.1612
         TRA.     0.1253D+28                  1291.6842     4.9680    39.9598
         TOT.                       11.559    6263.6795    38.9870   101.1210

 270.00  VIB.     0.2327D+04                  4513.8142    32.3324    32.1232
         ROT.     0.9562D+06                   804.8186     2.9808    30.3461
         INT.     0.2225D+10                  5318.6328    35.3132    62.4693
         TRA.     0.1326D+28                  1341.3644     4.9680    40.1473
         TOT.                       11.955    6659.9972    40.2813   102.6166

 280.00  VIB.     0.3176D+04                  4843.7216    33.6531    33.3228
         ROT.     0.1010D+07                   834.6267     2.9808    30.4545
         INT.     0.3208D+10                  5678.3483    36.6339    63.7773
         TRA.     0.1400D+28                  1391.0445     4.9680    40.3280
         TOT.                       12.364    7069.3929    41.6019   104.1053

 290.00  VIB.     0.4333D+04                  5186.9512    34.9962    34.5271
         ROT.     0.1064D+07                   864.4348     2.9808    30.5591
         INT.     0.4612D+10                  6051.3861    37.9770    65.0862
         TRA.     0.1476D+28                  1440.7247     4.9680    40.5023
         TOT.                       12.787    7492.1108    42.9450   105.5885

 300.00  VIB.     0.5909D+04                  5543.7061    36.3575    35.7364
         ROT.     0.1120D+07                   894.2429     2.9808    30.6601
         INT.     0.6618D+10                  6437.9491    39.3383    66.3966
         TRA.     0.1553D+28                  1490.4049     4.9680    40.6707
         TOT.                       13.223    7928.3539    44.3063   107.0673

 310.00  VIB.     0.8055D+04                  5914.1475    37.7328    36.9510
         ROT.     0.1176D+07                   924.0510     2.9808    30.7579
         INT.     0.9476D+10                  6838.1985    40.7136    67.7089
         TRA.     0.1631D+28                  1540.0850     4.9680    40.8336
         TOT.                       13.673    8378.2836    45.6816   108.5425

 320.00  VIB.     0.1098D+05                  6298.3953    39.1181    38.1708
         ROT.     0.1234D+07                   953.8591     2.9808    30.8525
         INT.     0.1354D+11                  7252.2544    42.0989    69.0233
         TRA.     0.1711D+28                  1589.7652     4.9680    40.9914
         TOT.                       14.137    8842.0196    47.0669   110.0147

 330.00  VIB.     0.1496D+05                  6696.5296    40.5095    39.3958
         ROT.     0.1292D+07                   983.6672     2.9808    30.9443
         INT.     0.1933D+11                  7680.1969    43.4903    70.3401
         TRA.     0.1791D+28                  1639.4454     4.9680    41.1442
         TOT.                       14.615    9319.6422    48.4583   111.4843

 340.00  VIB.     0.2039D+05                  7108.5931    41.9033    40.6258
         ROT.     0.1351D+07                  1013.4753     2.9808    31.0332
         INT.     0.2755D+11                  8122.0684    44.8841    71.6591
         TRA.     0.1874D+28                  1689.1255     4.9680    41.2926
         TOT.                       15.106    9811.1939    49.8521   112.9516

 350.00  VIB.     0.2778D+05                  7534.5929    43.2962    41.8606
         ROT.     0.1411D+07                  1043.2834     2.9808    31.1196
         INT.     0.3920D+11                  8577.8763    46.2770    72.9803
         TRA.     0.1957D+28                  1738.8057     4.9680    41.4366
         TOT.                       15.612   10316.6820    51.2450   114.4168

 360.00  VIB.     0.3786D+05                  7974.5041    44.6851    43.0998
         ROT.     0.1472D+07                  1073.0915     2.9808    31.2036
         INT.     0.5574D+11                  9047.5956    47.6659    74.3034
         TRA.     0.2041D+28                  1788.4859     4.9680    41.5765
         TOT.                       16.131   10836.0814    52.6339   115.8799

 370.00  VIB.     0.5160D+05                  8428.2721    46.0672    44.3430
         ROT.     0.1534D+07                  1102.8996     2.9808    31.2853
         INT.     0.7916D+11                  9531.1717    49.0480    75.6283
         TRA.     0.2127D+28                  1838.1660     4.9680    41.7126
         TOT.                       16.664   11369.3377    54.0160   117.3409

 380.00  VIB.     0.7035D+05                  8895.8162    47.4399    45.5898
         ROT.     0.1597D+07                  1132.7077     2.9808    31.3648
         INT.     0.1123D+12                 10028.5239    50.4207    76.9545
         TRA.     0.2214D+28                  1887.8462     4.9680    41.8451
         TOT.                       17.211   11916.3701    55.3888   118.7997

 390.00  VIB.     0.9593D+05                  9377.0323    48.8012    46.8397
         ROT.     0.1660D+07                  1162.5158     2.9808    31.4422
         INT.     0.1592D+12                 10539.5481    51.7820    78.2819
         TRA.     0.2302D+28                  1937.5263     4.9680    41.9742
         TOT.                       17.772   12477.0745    56.7500   120.2560

 400.00  VIB.     0.1308D+06                  9871.7960    50.1491    48.0922
         ROT.     0.1724D+07                  1192.3239     2.9808    31.5177
         INT.     0.2256D+12                 11064.1199    53.1299    79.6099
         TRA.     0.2391D+28                  1987.2065     4.9680    42.1000
         TOT.                       18.346   13051.3264    58.0980   121.7099

   *: NOTE: HEATS OF FORMATION ARE RELATIVE TO THE
            ELEMENTS IN THEIR STANDARD STATE AT 298K
              (=  Standard Enthalpy of Formation).

            Hvib:  Zero-point energy is not included.
                   frequencies of less than zero cm-1 are not included.
            Hrot = (3/2)RT
            Htra = (3/2)RT + pV = (5/2)RT

            Heat capacity is Cp, not Cv

           For more information, see: HTTP://OpenMOPAC.net/Manual/thermochemistry.html


           FORCE CONSTANT IN CARTESIAN COORDINATES (Millidynes/A)

    ATOM   CHEMICAL       X               Y               Z
   NUMBER   SYMBOL  FORCE CONSTANT  FORCE CONSTANT  FORCE CONSTANT

      1       C        7.609411        8.032489        9.333207
      2       C        7.614887        8.039718        9.319260
      3       C        8.073721        7.799440        8.597234
      4       C        8.073723        7.799764        8.595415
      5       C        8.257603        8.303864        8.892121
      6       C        8.259755        8.317225        8.876271
      7       C        8.306290        9.735647        9.377414
      8       C        8.431170        9.604043        9.385745
      9       C        8.157910        9.603243        9.422615
     10       C        8.283497        9.469257        9.430761
     11       H        1.369358        1.344978        3.550661
     12       H        1.368972        1.259691        3.636249
     13       H        1.578777        1.457701        3.598201
     14       H        1.357038        1.488437        3.783455
     15       H        1.356901        1.386923        3.886405
     16       H        1.579049        1.559648        3.495970
     17       H        0.882919        5.104385        0.677315
     18       H        1.211434        1.542086        4.016563
     19       H        5.273419        0.709376        0.680571
     20       H        1.254921        1.390633        4.127025
     21       H        5.288269        0.690665        0.685220
     22       H        0.850374        5.135669        0.678863
     23       H        0.922996        1.200066        4.087776
     24       H        0.946395        1.084325        4.179692
     25       H        0.919278        1.198157        4.102125
     26       H        0.943452        1.081671        4.194401



 TOTAL CPU TIME:             4.90 SECONDS

 == MOPAC DONE ==
