 *******************************************************************************
 ** Site#: 14399           For non-commercial use only        Version 13.159M **
 *******************************************************************************
 ** Cite this work as: MOPAC2012, James J. P. Stewart, Stewart Computational  **
 ** Chemistry, Version 13.159M web: HTTP://OpenMOPAC.net  Days remaining:   6 **
 *******************************************************************************
 **                                                                           **
 **                                MOPAC2012                                  **
 **                                                                           **
 *******************************************************************************

                            PM3 CALCULATION RESULTS


 *******************************************************************************
 *  CALCULATION DONE:                                Mon Jun  2 14:11:07 2014  *
 *  PM3      - The PM3 Hamiltonian to be used
 *  PRECISE  - CRITERIA TO BE INCREASED BY 100 TIMES
 *  NOSYM    - POINT-GROUP SYMMETRY SET TO C1
 *  T=       - A TIME OF 172800.0 SECONDS REQUESTED
 *  DUMP=N   - RESTART FILE WRITTEN EVERY  7200.000 SECONDS
 *******************************************************************************
pm3  precise nosym
 InChI=1S/C8H12O/c1-2-3-4-7-5-8(9)6-7/h3-4,7H,2,5-6H2,1H3

   ATOM   CHEMICAL          X               Y               Z
  NUMBER   SYMBOL      (ANGSTROMS)     (ANGSTROMS)     (ANGSTROMS)
 
     1       C         -1.41240000  *  -0.48100000  *   0.47290000  *
     2       C         -2.65830000  *  -0.41130000  *  -0.41090000  *
     3       C         -1.69580000  *   0.95800000  *   1.03410000  *
     4       C          2.38900000  *  -0.67290000  *  -0.31040000  *
     5       C          3.22120000  *   0.59170000  *  -0.14190000  *
     6       C         -2.92080000  *   0.88380000  *   0.19120000  *
     7       C         -0.10420000  *  -0.61050000  *  -0.26240000  *
     8       C          1.06500000  *  -0.54570000  *   0.38790000  *
     9       H         -1.51620000  *  -1.26360000  *   1.26300000  *
    10       H          2.93750000  *  -1.53560000  *   0.13200000  *
    11       H          2.27590000  *  -0.88210000  *  -1.40000000  *
    12       H         -3.42290000  *  -1.18540000  *  -0.16600000  *
    13       H         -2.47610000  *  -0.30010000  *  -1.50480000  *
    14       H         -1.90210000  *   0.98070000  *   2.12940000  *
    15       H         -1.00900000  *   1.75740000  *   0.67120000  *
    16       H          4.20290000  *   0.46850000  *  -0.65310000  *
    17       H          3.41790000  *   0.80080000  *   0.93470000  *
    18       H          2.70250000  *   1.46810000  *  -0.59380000  *
    19       O         -4.05270000  *   1.14240000  *   0.68760000  *
    20       H          1.07310000  *  -0.39290000  *   1.46740000  *
    21       H         -0.11430000  *  -0.77040000  *  -1.34030000  *
 


          CARTESIAN COORDINATES 

    NO.       ATOM         X         Y         Z

     1         C       -1.4124   -0.4810    0.4729
     2         C       -2.6583   -0.4113   -0.4109
     3         C       -1.6958    0.9580    1.0341
     4         C        2.3890   -0.6729   -0.3104
     5         C        3.2212    0.5917   -0.1419
     6         C       -2.9208    0.8838    0.1912
     7         C       -0.1042   -0.6105   -0.2624
     8         C        1.0650   -0.5457    0.3879
     9         H       -1.5162   -1.2636    1.2630
    10         H        2.9375   -1.5356    0.1320
    11         H        2.2759   -0.8821   -1.4000
    12         H       -3.4229   -1.1854   -0.1660
    13         H       -2.4761   -0.3001   -1.5048
    14         H       -1.9021    0.9807    2.1294
    15         H       -1.0090    1.7574    0.6712
    16         H        4.2029    0.4685   -0.6531
    17         H        3.4179    0.8008    0.9347
    18         H        2.7025    1.4681   -0.5938
    19         O       -4.0527    1.1424    0.6876
    20         H        1.0731   -0.3929    1.4674
    21         H       -0.1143   -0.7704   -1.3403

  H: (PM3): J. J. P. STEWART, J. COMP. CHEM. 10, 209 (1989).
  C: (PM3): J. J. P. STEWART, J. COMP. CHEM. 10, 209 (1989).
  O: (PM3): J. J. P. STEWART, J. COMP. CHEM. 10, 209 (1989).

           Empirical Formula: C8 H12 O  =    21 atoms



      MOLECULAR POINT GROUP   :   C1  


      RHF CALCULATION, NO. OF DOUBLY OCCUPIED LEVELS =   25

      Geometry optimization using EF

          DIAGONAL MATRIX USED AS START HESSIAN

 CYCLE:     1 TIME:   0.008 TIME LEFT:  2.00D  GRAD.:   243.100 HEAT:0.5098675
 CYCLE:     2 TIME:   0.012 TIME LEFT:  2.00D  GRAD.:   188.421 HEAT:-8.126555
 CYCLE:     3 TIME:   0.007 TIME LEFT:  2.00D  GRAD.:    90.924 HEAT:-15.78116
 CYCLE:     4 TIME:   0.007 TIME LEFT:  2.00D  GRAD.:   140.593 HEAT:-17.41433
 CYCLE:     5 TIME:   0.012 TIME LEFT:  2.00D  GRAD.:    92.921 HEAT:-21.08953
 CYCLE:     6 TIME:   0.012 TIME LEFT:  2.00D  GRAD.:    51.186 HEAT:-22.50531
 CYCLE:     7 TIME:   0.006 TIME LEFT:  2.00D  GRAD.:    37.729 HEAT:-23.62609
 CYCLE:     8 TIME:   0.006 TIME LEFT:  2.00D  GRAD.:    87.716 HEAT:-24.17508
 CYCLE:     9 TIME:   0.006 TIME LEFT:  2.00D  GRAD.:    66.580 HEAT:-25.17182
 CYCLE:    10 TIME:   0.011 TIME LEFT:  2.00D  GRAD.:    54.326 HEAT:-25.97469
 CYCLE:    11 TIME:   0.006 TIME LEFT:  2.00D  GRAD.:    46.389 HEAT:-26.24043
 CYCLE:    12 TIME:   0.006 TIME LEFT:  2.00D  GRAD.:    41.379 HEAT:-26.73134
 CYCLE:    13 TIME:   0.011 TIME LEFT:  2.00D  GRAD.:    20.060 HEAT:-27.07298
 CYCLE:    14 TIME:   0.011 TIME LEFT:  2.00D  GRAD.:    17.808 HEAT:-27.19135
 CYCLE:    15 TIME:   0.006 TIME LEFT:  2.00D  GRAD.:    12.752 HEAT:-27.34017
 CYCLE:    16 TIME:   0.006 TIME LEFT:  2.00D  GRAD.:    28.046 HEAT:-27.41845
 CYCLE:    17 TIME:   0.006 TIME LEFT:  2.00D  GRAD.:    20.713 HEAT:-27.54519
 CYCLE:    18 TIME:   0.011 TIME LEFT:  2.00D  GRAD.:    25.064 HEAT:-27.55725
 CYCLE:    19 TIME:   0.006 TIME LEFT:  2.00D  GRAD.:    10.111 HEAT:-27.69783
 CYCLE:    20 TIME:   0.006 TIME LEFT:  2.00D  GRAD.:    13.705 HEAT:-27.71942
 CYCLE:    21 TIME:   0.006 TIME LEFT:  2.00D  GRAD.:     6.461 HEAT:-27.76889
 CYCLE:    22 TIME:   0.006 TIME LEFT:  2.00D  GRAD.:     9.809 HEAT:-27.79851
 CYCLE:    23 TIME:   0.006 TIME LEFT:  2.00D  GRAD.:    10.101 HEAT:-27.85280
 CYCLE:    24 TIME:   0.006 TIME LEFT:  2.00D  GRAD.:    11.408 HEAT:-27.88926
 CYCLE:    25 TIME:   0.006 TIME LEFT:  2.00D  GRAD.:     9.918 HEAT:-27.94313
 CYCLE:    26 TIME:   0.006 TIME LEFT:  2.00D  GRAD.:     7.083 HEAT:-27.99901
 CYCLE:    27 TIME:   0.006 TIME LEFT:  2.00D  GRAD.:    11.197 HEAT:-28.06405
 CYCLE:    28 TIME:   0.006 TIME LEFT:  2.00D  GRAD.:    11.692 HEAT:-28.17000
 CYCLE:    29 TIME:   0.006 TIME LEFT:  2.00D  GRAD.:    14.583 HEAT:-28.23109
 CYCLE:    30 TIME:   0.006 TIME LEFT:  2.00D  GRAD.:     7.444 HEAT:-28.29901
 CYCLE:    31 TIME:   0.006 TIME LEFT:  2.00D  GRAD.:     6.223 HEAT:-28.34014
 CYCLE:    32 TIME:   0.006 TIME LEFT:  2.00D  GRAD.:     5.725 HEAT:-28.37709
 CYCLE:    33 TIME:   0.006 TIME LEFT:  2.00D  GRAD.:     4.698 HEAT:-28.41553
 CYCLE:    34 TIME:   0.006 TIME LEFT:  2.00D  GRAD.:     3.208 HEAT:-28.43624
 CYCLE:    35 TIME:   0.006 TIME LEFT:  2.00D  GRAD.:     2.911 HEAT:-28.45951
 CYCLE:    36 TIME:   0.007 TIME LEFT:  2.00D  GRAD.:     2.370 HEAT:-28.46824
 CYCLE:    37 TIME:   0.009 TIME LEFT:  2.00D  GRAD.:     2.443 HEAT:-28.47658
 CYCLE:    38 TIME:   0.006 TIME LEFT:  2.00D  GRAD.:     2.815 HEAT:-28.49001
 CYCLE:    39 TIME:   0.006 TIME LEFT:  2.00D  GRAD.:     3.135 HEAT:-28.50102
 CYCLE:    40 TIME:   0.006 TIME LEFT:  2.00D  GRAD.:     2.835 HEAT:-28.51251
 CYCLE:    41 TIME:   0.006 TIME LEFT:  2.00D  GRAD.:     1.904 HEAT:-28.52131
 CYCLE:    42 TIME:   0.008 TIME LEFT:  2.00D  GRAD.:     2.390 HEAT:-28.52704
 CYCLE:    43 TIME:   0.009 TIME LEFT:  2.00D  GRAD.:     1.494 HEAT:-28.53144
 CYCLE:    44 TIME:   0.008 TIME LEFT:  2.00D  GRAD.:     1.511 HEAT:-28.53507
 CYCLE:    45 TIME:   0.006 TIME LEFT:  2.00D  GRAD.:     1.713 HEAT:-28.53903
 CYCLE:    46 TIME:   0.006 TIME LEFT:  2.00D  GRAD.:     1.539 HEAT:-28.54354
 CYCLE:    47 TIME:   0.006 TIME LEFT:  2.00D  GRAD.:     1.591 HEAT:-28.54874
 CYCLE:    48 TIME:   0.006 TIME LEFT:  2.00D  GRAD.:     1.426 HEAT:-28.55347
 CYCLE:    49 TIME:   0.006 TIME LEFT:  2.00D  GRAD.:     1.350 HEAT:-28.55625
 CYCLE:    50 TIME:   0.006 TIME LEFT:  2.00D  GRAD.:     1.100 HEAT:-28.55837
 CYCLE:    51 TIME:   0.006 TIME LEFT:  2.00D  GRAD.:     1.028 HEAT:-28.56094
 CYCLE:    52 TIME:   0.006 TIME LEFT:  2.00D  GRAD.:     1.168 HEAT:-28.56330
 CYCLE:    53 TIME:   0.006 TIME LEFT:  2.00D  GRAD.:     1.195 HEAT:-28.56527
 CYCLE:    54 TIME:   0.006 TIME LEFT:  2.00D  GRAD.:     1.109 HEAT:-28.56708
 CYCLE:    55 TIME:   0.006 TIME LEFT:  2.00D  GRAD.:     1.118 HEAT:-28.56947
 CYCLE:    56 TIME:   0.006 TIME LEFT:  2.00D  GRAD.:     1.220 HEAT:-28.57284
 CYCLE:    57 TIME:   0.006 TIME LEFT:  2.00D  GRAD.:     1.191 HEAT:-28.57608
 CYCLE:    58 TIME:   0.006 TIME LEFT:  2.00D  GRAD.:     0.982 HEAT:-28.57879
 CYCLE:    59 TIME:   0.006 TIME LEFT:  2.00D  GRAD.:     0.768 HEAT:-28.57985
 CYCLE:    60 TIME:   0.006 TIME LEFT:  2.00D  GRAD.:     1.219 HEAT:-28.58247
 CYCLE:    61 TIME:   0.006 TIME LEFT:  2.00D  GRAD.:     0.922 HEAT:-28.58362
 CYCLE:    62 TIME:   0.006 TIME LEFT:  2.00D  GRAD.:     1.054 HEAT:-28.58592
 CYCLE:    63 TIME:   0.006 TIME LEFT:  2.00D  GRAD.:     0.612 HEAT:-28.58677
 CYCLE:    64 TIME:   0.006 TIME LEFT:  2.00D  GRAD.:     0.418 HEAT:-28.58747
 CYCLE:    65 TIME:   0.006 TIME LEFT:  2.00D  GRAD.:     0.459 HEAT:-28.58825
 CYCLE:    66 TIME:   0.006 TIME LEFT:  2.00D  GRAD.:     0.382 HEAT:-28.58869
 CYCLE:    67 TIME:   0.006 TIME LEFT:  2.00D  GRAD.:     0.345 HEAT:-28.58898
 CYCLE:    68 TIME:   0.006 TIME LEFT:  2.00D  GRAD.:     0.274 HEAT:-28.58915
 CYCLE:    69 TIME:   0.006 TIME LEFT:  2.00D  GRAD.:     0.239 HEAT:-28.58928
 CYCLE:    70 TIME:   0.006 TIME LEFT:  2.00D  GRAD.:     0.246 HEAT:-28.58943
 CYCLE:    71 TIME:   0.006 TIME LEFT:  2.00D  GRAD.:     0.275 HEAT:-28.58957
 CYCLE:    72 TIME:   0.006 TIME LEFT:  2.00D  GRAD.:     0.427 HEAT:-28.58981
 CYCLE:    73 TIME:   0.006 TIME LEFT:  2.00D  GRAD.:     0.451 HEAT:-28.59006
 CYCLE:    74 TIME:   0.006 TIME LEFT:  2.00D  GRAD.:     0.457 HEAT:-28.59035
 CYCLE:    75 TIME:   0.006 TIME LEFT:  2.00D  GRAD.:     0.395 HEAT:-28.59059
 CYCLE:    76 TIME:   0.007 TIME LEFT:  2.00D  GRAD.:     0.789 HEAT:-28.59172
 CYCLE:    77 TIME:   0.006 TIME LEFT:  2.00D  GRAD.:     0.724 HEAT:-28.59216
 CYCLE:    78 TIME:   0.007 TIME LEFT:  2.00D  GRAD.:     0.580 HEAT:-28.59306
 CYCLE:    79 TIME:   0.006 TIME LEFT:  2.00D  GRAD.:     0.537 HEAT:-28.59346
 CYCLE:    80 TIME:   0.007 TIME LEFT:  2.00D  GRAD.:     0.518 HEAT:-28.59478
 CYCLE:    81 TIME:   0.006 TIME LEFT:  2.00D  GRAD.:     0.298 HEAT:-28.59507
 CYCLE:    82 TIME:   0.006 TIME LEFT:  2.00D  GRAD.:     0.226 HEAT:-28.59527
 CYCLE:    83 TIME:   0.006 TIME LEFT:  2.00D  GRAD.:     0.251 HEAT:-28.59553
 CYCLE:    84 TIME:   0.006 TIME LEFT:  2.00D  GRAD.:     0.260 HEAT:-28.59565
 CYCLE:    85 TIME:   0.006 TIME LEFT:  2.00D  GRAD.:     0.269 HEAT:-28.59587
 CYCLE:    86 TIME:   0.008 TIME LEFT:  2.00D  GRAD.:     0.224 HEAT:-28.59599
 CYCLE:    87 TIME:   0.009 TIME LEFT:  2.00D  GRAD.:     0.240 HEAT:-28.59621
 CYCLE:    88 TIME:   0.008 TIME LEFT:  2.00D  GRAD.:     0.277 HEAT:-28.59634
 CYCLE:    89 TIME:   0.007 TIME LEFT:  2.00D  GRAD.:     0.263 HEAT:-28.59649
 CYCLE:    90 TIME:   0.006 TIME LEFT:  2.00D  GRAD.:     0.252 HEAT:-28.59659
 CYCLE:    91 TIME:   0.006 TIME LEFT:  2.00D  GRAD.:     0.373 HEAT:-28.59686
 CYCLE:    92 TIME:   0.006 TIME LEFT:  2.00D  GRAD.:     0.373 HEAT:-28.59705
 CYCLE:    93 TIME:   0.006 TIME LEFT:  2.00D  GRAD.:     0.481 HEAT:-28.59831
 CYCLE:    94 TIME:   0.006 TIME LEFT:  2.00D  GRAD.:     0.437 HEAT:-28.59890
 CYCLE:    95 TIME:   0.006 TIME LEFT:  2.00D  GRAD.:     0.506 HEAT:-28.59962
 CYCLE:    96 TIME:   0.006 TIME LEFT:  2.00D  GRAD.:     0.335 HEAT:-28.59998
 CYCLE:    97 TIME:   0.006 TIME LEFT:  2.00D  GRAD.:     0.212 HEAT:-28.60035
 CYCLE:    98 TIME:   0.006 TIME LEFT:  2.00D  GRAD.:     0.158 HEAT:-28.60042
 CYCLE:    99 TIME:   0.006 TIME LEFT:  2.00D  GRAD.:     0.112 HEAT:-28.60048
 CYCLE:   100 TIME:   0.006 TIME LEFT:  2.00D  GRAD.:     0.077 HEAT:-28.60049
 CYCLE:   101 TIME:   0.006 TIME LEFT:  2.00D  GRAD.:     0.068 HEAT:-28.60050
 CYCLE:   102 TIME:   0.006 TIME LEFT:  2.00D  GRAD.:     0.037 HEAT:-28.60051

     RMS GRADIENT =  0.03696  IS LESS THAN CUTOFF =  0.05000



 -------------------------------------------------------------------------------
pm3  precise nosym
 InChI=1S/C8H12O/c1-2-3-4-7-5-8(9)6-7/h3-4,7H,2,5-6H2,1H3



     GEOMETRY OPTIMISED USING EIGENVECTOR FOLLOWING (EF).     
     SCF FIELD WAS ACHIEVED                                   


                              PM3 CALCULATION
                                                       MOPAC2012 (Version: 13.159M)
                                                       Mon Jun  2 14:11:08 2014
                                                       No. of days left =   6




          FINAL HEAT OF FORMATION =        -28.60051 KCAL/MOL =    -119.66455 KJ/MOL


          TOTAL ENERGY            =      -1426.28064 EV
          ELECTRONIC ENERGY       =      -6796.38288 EV  POINT GROUP:     C1  
          CORE-CORE REPULSION     =       5370.10224 EV
          COSMO AREA              =        180.58 SQUARE ANGSTROMS
          COSMO VOLUME            =        174.98 CUBIC ANGSTROMS

          GRADIENT NORM           =          0.03696
          IONIZATION POTENTIAL    =         10.019224 EV
          HOMO LUMO ENERGIES (EV) =        -10.019  0.798
          NO. OF FILLED LEVELS    =         25
          MOLECULAR WEIGHT        =        124.182

          MOLECULAR DIMENSIONS (Angstroms)

            Atom       Atom       Distance
            H    16    H    12     7.86624
            H    10    O    19     4.63449
            H    14    H    13     3.69542


          SCF CALCULATIONS        =        110
          COMPUTATION TIME        =          0.694 SECONDS




   ATOM   CHEMICAL          X               Y               Z
  NUMBER   SYMBOL      (ANGSTROMS)     (ANGSTROMS)     (ANGSTROMS)
 
     1       C         -1.37990900  *  -0.59429211  *   0.56206549  *
     2       C         -2.68937036  *  -0.55885248  *  -0.27547415  *
     3       C         -1.72967148  *   0.79966437  *   1.16113018  *
     4       C          2.34564873  *  -0.55711061  *  -0.43372722  *
     5       C          3.25131771  *   0.61026659  *  -0.10482822  *
     6       C         -3.01481100  *   0.79903335  *   0.33971729  *
     7       C         -0.12442438  *  -0.64114497  *  -0.22644196  *
     8       C          1.07523303  *  -0.48934466  *   0.33719178  *
     9       H         -1.37437828  *  -1.40494930  *   1.32071140  *
    10       H          2.84959239  *  -1.51387178  *  -0.18851523  *
    11       H          2.15161489  *  -0.59154029  *  -1.52460047  *
    12       H         -3.40964150  *  -1.35803422  *  -0.04487555  *
    13       H         -2.55020682  *  -0.54940058  *  -1.36812410  *
    14       H         -1.87368092  *   0.81524393  *   2.25164210  *
    15       H         -1.01913906  *   1.60275631  *   0.91117272  *
    16       H          4.19902320  *   0.54322832  *  -0.65410730  *
    17       H          3.49353855  *   0.64834670  *   0.96559113  *
    18       H          2.78580734  *   1.56886760  *  -0.36803056  *
    19       O         -3.93064751  *   1.56867458  *   0.22348596  *
    20       H          1.17421378  *  -0.30886221  *   1.41516144  *
    21       H         -0.22709670  *  -0.81765235  *  -1.30503367  *

           Empirical Formula: C8 H12 O  =    21 atoms



      MOLECULAR POINT GROUP   :   C1  


                  EIGENVALUES  
 -40.83947 -37.27493 -35.26346 -29.66525 -26.31196 -24.06519 -21.15292 -19.79515
 -18.47576 -17.36896 -17.12577 -16.32977 -15.62464 -15.35650 -14.64899 -13.80761
 -13.75732 -13.55009 -13.36099 -12.59321 -12.48248 -12.11013 -12.02110 -10.53446
 -10.01922   0.79813   0.84918   2.38977   2.88491   3.07468   3.32428   3.49361
   3.66456   3.68058   3.79219   3.85165   3.98083   4.02612   4.07580   4.15227
   4.34669   4.56199   4.64132   4.69012   4.74701   5.48329   5.68692   7.10734


              NET ATOMIC CHARGES AND DIPOLE CONTRIBUTIONS

  ATOM NO.   TYPE          CHARGE      No. of ELECS.   s-Pop       p-Pop       
    1          C          -0.041188        4.0412     1.17523     2.86596
    2          C          -0.174359        4.1744     1.19023     2.98413
    3          C          -0.172677        4.1727     1.18964     2.98304
    4          C          -0.062453        4.0625     1.14579     2.91666
    5          C          -0.106221        4.1062     1.13758     2.96864
    6          C           0.287000        3.7130     1.22251     2.49049
    7          C          -0.152398        4.1524     1.19493     2.95747
    8          C          -0.139283        4.1393     1.19662     2.94267
    9          H           0.079999        0.9200     0.92000
   10          H           0.055040        0.9450     0.94496
   11          H           0.052617        0.9474     0.94738
   12          H           0.080332        0.9197     0.91967
   13          H           0.084342        0.9157     0.91566
   14          H           0.079742        0.9203     0.92026
   15          H           0.087242        0.9128     0.91276
   16          H           0.038762        0.9612     0.96124
   17          H           0.038481        0.9615     0.96152
   18          H           0.040412        0.9596     0.95959
   19          O          -0.285278        6.2853     1.85672     4.42855
   20          H           0.101960        0.8980     0.89804
   21          H           0.107930        0.8921     0.89207
 DIPOLE           X         Y         Z       TOTAL
 POINT-CHG.     1.900    -1.375     0.189     2.353
 HYBRID         0.262    -0.225     0.059     0.351
 SUM            2.163    -1.600     0.248     2.702


          ATOMIC ORBITAL ELECTRON POPULATIONS

    Atom      s        px        py        pz   
    1  C   1.17523   0.92772   0.96697   0.97126
    2  C   1.19023   0.97851   0.99223   1.01340
    3  C   1.18964   0.99150   0.97905   1.01249
    4  C   1.14579   0.94626   0.98143   0.98897
    5  C   1.13758   0.98485   0.97641   1.00737
    6  C   1.22251   0.84189   0.85275   0.79586
    7  C   1.19493   0.94241   1.02404   0.99102
    8  C   1.19662   0.94879   0.99900   0.99488
    9  H   0.92000
   10  H   0.94496
   11  H   0.94738
   12  H   0.91967
   13  H   0.91566
   14  H   0.92026
   15  H   0.91276
   16  H   0.96124
   17  H   0.96152
   18  H   0.95959
   19  O   1.85672   1.36810   1.49258   1.56787
   20  H   0.89804
   21  H   0.89207
 *******************************************************************************
 ** Site#: 14399           For non-commercial use only        Version 13.159M **
 *******************************************************************************
 ** Cite this work as: MOPAC2012, James J. P. Stewart, Stewart Computational  **
 ** Chemistry, Version 13.159M web: HTTP://OpenMOPAC.net  Days remaining:   6 **
 *******************************************************************************
 **                                                                           **
 **                                MOPAC2012                                  **
 **                                                                           **
 *******************************************************************************

                            PM3 CALCULATION RESULTS


 *******************************************************************************
 *  CALCULATION DONE:                                Mon Jun  2 14:11:08 2014  *
 *  PM3      - The PM3 Hamiltonian to be used
 *  OLDGEO   - PREVIOUS GEOMETRY TO BE USED
 *  PRECISE  - CRITERIA TO BE INCREASED BY 100 TIMES
 *  NOSYM    - POINT-GROUP SYMMETRY SET TO C1
 *  T=       - A TIME OF 172800.0 SECONDS REQUESTED
 *  DUMP=N   - RESTART FILE WRITTEN EVERY  7200.000 SECONDS
 *  THERMO   - THERMODYNAMIC QUANTITIES TO BE CALCULATED
 *******************************************************************************
oldgeo thermo nosym precise  pm3

   ATOM   CHEMICAL          X               Y               Z
  NUMBER   SYMBOL      (ANGSTROMS)     (ANGSTROMS)     (ANGSTROMS)
 
     1       C         -1.37990900  *  -0.59429211  *   0.56206549  *
     2       C         -2.68937036  *  -0.55885248  *  -0.27547415  *
     3       C         -1.72967148  *   0.79966437  *   1.16113018  *
     4       C          2.34564873  *  -0.55711061  *  -0.43372722  *
     5       C          3.25131771  *   0.61026659  *  -0.10482822  *
     6       C         -3.01481100  *   0.79903335  *   0.33971729  *
     7       C         -0.12442438  *  -0.64114497  *  -0.22644196  *
     8       C          1.07523303  *  -0.48934466  *   0.33719178  *
     9       H         -1.37437828  *  -1.40494930  *   1.32071140  *
    10       H          2.84959239  *  -1.51387178  *  -0.18851523  *
    11       H          2.15161489  *  -0.59154029  *  -1.52460047  *
    12       H         -3.40964150  *  -1.35803422  *  -0.04487555  *
    13       H         -2.55020682  *  -0.54940058  *  -1.36812410  *
    14       H         -1.87368092  *   0.81524393  *   2.25164210  *
    15       H         -1.01913906  *   1.60275631  *   0.91117272  *
    16       H          4.19902320  *   0.54322832  *  -0.65410730  *
    17       H          3.49353855  *   0.64834670  *   0.96559113  *
    18       H          2.78580734  *   1.56886760  *  -0.36803056  *
    19       O         -3.93064751  *   1.56867458  *   0.22348596  *
    20       H          1.17421378  *  -0.30886221  *   1.41516144  *
    21       H         -0.22709670  *  -0.81765235  *  -1.30503367  *
 


          CARTESIAN COORDINATES 

    NO.       ATOM         X         Y         Z

     1         C       -1.3799   -0.5943    0.5621
     2         C       -2.6894   -0.5589   -0.2755
     3         C       -1.7297    0.7997    1.1611
     4         C        2.3456   -0.5571   -0.4337
     5         C        3.2513    0.6103   -0.1048
     6         C       -3.0148    0.7990    0.3397
     7         C       -0.1244   -0.6411   -0.2264
     8         C        1.0752   -0.4893    0.3372
     9         H       -1.3744   -1.4049    1.3207
    10         H        2.8496   -1.5139   -0.1885
    11         H        2.1516   -0.5915   -1.5246
    12         H       -3.4096   -1.3580   -0.0449
    13         H       -2.5502   -0.5494   -1.3681
    14         H       -1.8737    0.8152    2.2516
    15         H       -1.0191    1.6028    0.9112
    16         H        4.1990    0.5432   -0.6541
    17         H        3.4935    0.6483    0.9656
    18         H        2.7858    1.5689   -0.3680
    19         O       -3.9306    1.5687    0.2235
    20         H        1.1742   -0.3089    1.4152
    21         H       -0.2271   -0.8177   -1.3050

  H: (PM3): J. J. P. STEWART, J. COMP. CHEM. 10, 209 (1989).
  C: (PM3): J. J. P. STEWART, J. COMP. CHEM. 10, 209 (1989).
  O: (PM3): J. J. P. STEWART, J. COMP. CHEM. 10, 209 (1989).

           Empirical Formula: C8 H12 O  =    21 atoms



      MOLECULAR POINT GROUP   :   C1  


      RHF CALCULATION, NO. OF DOUBLY OCCUPIED LEVELS =   25



          HEAT OF FORMATION =     -28.600513 KCALS/MOLE


          INTERNAL COORDINATE DERIVATIVES

   NUMBER  ATOM       BOND         ANGLE      DIHEDRAL

     1       C      0.002657    -0.000692     0.001588
     2       C      0.006313    -0.001613    -0.002946
     3       C      0.002315     0.001668    -0.000721
     4       C      0.001346    -0.001969    -0.001718
     5       C     -0.002763    -0.005190    -0.009432
     6       C      0.001256     0.002606     0.000899
     7       C      0.007064     0.001750    -0.001788
     8       C      0.005359    -0.000345    -0.005023
     9       H     -0.006107     0.003790     0.004306
    10       H     -0.001504    -0.002071    -0.002722
    11       H     -0.003472     0.006901     0.004403
    12       H      0.012876    -0.001523    -0.003791
    13       H     -0.000827    -0.006583    -0.002597
    14       H     -0.004453     0.000694     0.005241
    15       H      0.002835     0.012301    -0.002961
    16       H      0.000781     0.004576     0.000529
    17       H     -0.002299    -0.002380     0.001282
    18       H      0.002043    -0.001984     0.005294
    19       O     -0.005971    -0.006641    -0.002105
    20       H     -0.010462    -0.006875     0.007926
    21       H     -0.006987     0.003583     0.004335


          GRADIENT NORM =   0.03726


          TIME FOR SCF CALCULATION =    0.01

          TIME FOR DERIVATIVES     =    0.00

          MOLECULAR WEIGHT =  124.18



          ROTATIONAL CONSTANTS IN CM(-1)

          A =    0.14852020   B =    0.02159864   C =    0.02035097



           PRINCIPAL MOMENTS OF INERTIA IN UNITS OF 10**(-40)*GRAM-CM**2

          A =      188.4779   B =     1296.0431   C =     1375.5010


          ORIENTATION OF MOLECULE IN FORCE CALCULATION

    NO.       ATOM         X         Y         Z

     1          C       0.3667   -0.3408   -0.9606
     2          C       1.9215   -0.3408   -0.9606
     3          C       0.3703    1.2163   -0.9606
     4          C      -2.2337   -1.5214    1.6310
     5          C      -3.1470   -0.5511    2.3490
     6          C       1.8951    1.1848   -0.9768
     7          C      -0.2670   -0.9666    0.2255
     8          C      -1.5775   -0.8803    0.4601
     9          H      -0.0651   -0.7749   -1.8868
    10          H      -2.8120   -2.3955    1.2691
    11          H      -1.4835   -1.9301    2.3374
    12          H       2.3857   -0.8068   -1.8426
    13          H       2.3931   -0.7851   -0.0698
    14          H      -0.0955    1.6832   -1.8410
    15          H      -0.0751    1.6805   -0.0671
    16          H      -3.6508   -1.0341    3.1959
    17          H      -3.9268   -0.1577    1.6833
    18          H      -2.5914    0.3092    2.7441
    19          O       2.7466    2.0328   -0.9969
    20          H      -2.2374   -0.3246   -0.2183
    21          H       0.3965   -1.5181    0.9043


    FIRST DERIVATIVES WILL BE USED IN THE CALCULATION OF SECOND DERIVATIVES

          ESTIMATED TIME TO COMPLETE CALCULATION =        2.35 SECONDS

    FOR POINT-GROUP C1   THERE ARE   1 UNIQUE SYMMETRY FUNCTIONS.

 STEP:   1 TIME =     0.03 SECS, INTEGRAL =      0.03 TIME LEFT: 172799.96
 STEP:   2 TIME =     0.03 SECS, INTEGRAL =      0.05 TIME LEFT: 172799.94
 STEP:   3 TIME =     0.03 SECS, INTEGRAL =      0.08 TIME LEFT: 172799.91
 STEP:   4 TIME =     0.03 SECS, INTEGRAL =      0.11 TIME LEFT: 172799.88
 STEP:   5 TIME =     0.03 SECS, INTEGRAL =      0.14 TIME LEFT: 172799.85
 STEP:   6 TIME =     0.03 SECS, INTEGRAL =      0.16 TIME LEFT: 172799.83
 STEP:   7 TIME =     0.03 SECS, INTEGRAL =      0.19 TIME LEFT: 172799.80
 STEP:   8 TIME =     0.03 SECS, INTEGRAL =      0.22 TIME LEFT: 172799.77
 STEP:   9 TIME =     0.03 SECS, INTEGRAL =      0.25 TIME LEFT: 172799.74
 STEP:  10 TIME =     0.03 SECS, INTEGRAL =      0.27 TIME LEFT: 172799.72
 STEP:  11 TIME =     0.03 SECS, INTEGRAL =      0.30 TIME LEFT: 172799.69
 STEP:  12 TIME =     0.03 SECS, INTEGRAL =      0.33 TIME LEFT: 172799.66
 STEP:  13 TIME =     0.03 SECS, INTEGRAL =      0.36 TIME LEFT: 172799.63
 STEP:  14 TIME =     0.03 SECS, INTEGRAL =      0.39 TIME LEFT: 172799.60
 STEP:  15 TIME =     0.03 SECS, INTEGRAL =      0.41 TIME LEFT: 172799.58
 STEP:  16 TIME =     0.03 SECS, INTEGRAL =      0.44 TIME LEFT: 172799.55
 STEP:  17 TIME =     0.03 SECS, INTEGRAL =      0.47 TIME LEFT: 172799.52
 STEP:  18 TIME =     0.03 SECS, INTEGRAL =      0.50 TIME LEFT: 172799.49
 STEP:  19 TIME =     0.03 SECS, INTEGRAL =      0.53 TIME LEFT: 172799.46
 STEP:  20 TIME =     0.03 SECS, INTEGRAL =      0.56 TIME LEFT: 172799.44
 STEP:  21 TIME =     0.03 SECS, INTEGRAL =      0.58 TIME LEFT: 172799.41
 STEP:  22 TIME =     0.03 SECS, INTEGRAL =      0.61 TIME LEFT: 172799.38
 STEP:  23 TIME =     0.03 SECS, INTEGRAL =      0.64 TIME LEFT: 172799.35
 STEP:  24 TIME =     0.03 SECS, INTEGRAL =      0.67 TIME LEFT: 172799.33
 STEP:  25 TIME =     0.03 SECS, INTEGRAL =      0.69 TIME LEFT: 172799.30
 STEP:  26 TIME =     0.03 SECS, INTEGRAL =      0.72 TIME LEFT: 172799.27
 STEP:  27 TIME =     0.03 SECS, INTEGRAL =      0.75 TIME LEFT: 172799.24
 STEP:  28 TIME =     0.03 SECS, INTEGRAL =      0.78 TIME LEFT: 172799.21
 STEP:  29 TIME =     0.03 SECS, INTEGRAL =      0.81 TIME LEFT: 172799.18
 STEP:  30 TIME =     0.03 SECS, INTEGRAL =      0.84 TIME LEFT: 172799.15
 STEP:  31 TIME =     0.03 SECS, INTEGRAL =      0.86 TIME LEFT: 172799.13
 STEP:  32 TIME =     0.03 SECS, INTEGRAL =      0.89 TIME LEFT: 172799.10
 STEP:  33 TIME =     0.03 SECS, INTEGRAL =      0.92 TIME LEFT: 172799.07
 STEP:  34 TIME =     0.03 SECS, INTEGRAL =      0.95 TIME LEFT: 172799.04
 STEP:  35 TIME =     0.03 SECS, INTEGRAL =      0.98 TIME LEFT: 172799.02
 STEP:  36 TIME =     0.03 SECS, INTEGRAL =      1.00 TIME LEFT: 172798.99
 STEP:  37 TIME =     0.03 SECS, INTEGRAL =      1.03 TIME LEFT: 172798.96
 STEP:  38 TIME =     0.03 SECS, INTEGRAL =      1.06 TIME LEFT: 172798.93
 STEP:  39 TIME =     0.03 SECS, INTEGRAL =      1.09 TIME LEFT: 172798.90
 STEP:  40 TIME =     0.03 SECS, INTEGRAL =      1.11 TIME LEFT: 172798.88
 STEP:  41 TIME =     0.03 SECS, INTEGRAL =      1.14 TIME LEFT: 172798.85
 STEP:  42 TIME =     0.03 SECS, INTEGRAL =      1.17 TIME LEFT: 172798.82
 STEP:  43 TIME =     0.03 SECS, INTEGRAL =      1.20 TIME LEFT: 172798.79
 STEP:  44 TIME =     0.03 SECS, INTEGRAL =      1.23 TIME LEFT: 172798.76
 STEP:  45 TIME =     0.03 SECS, INTEGRAL =      1.25 TIME LEFT: 172798.74
 STEP:  46 TIME =     0.03 SECS, INTEGRAL =      1.28 TIME LEFT: 172798.71
 STEP:  47 TIME =     0.03 SECS, INTEGRAL =      1.31 TIME LEFT: 172798.68
 STEP:  48 TIME =     0.03 SECS, INTEGRAL =      1.34 TIME LEFT: 172798.65
 STEP:  49 TIME =     0.03 SECS, INTEGRAL =      1.36 TIME LEFT: 172798.63
 STEP:  50 TIME =     0.03 SECS, INTEGRAL =      1.39 TIME LEFT: 172798.60
 STEP:  51 TIME =     0.03 SECS, INTEGRAL =      1.42 TIME LEFT: 172798.57
 STEP:  52 TIME =     0.03 SECS, INTEGRAL =      1.45 TIME LEFT: 172798.54
 STEP:  53 TIME =     0.03 SECS, INTEGRAL =      1.47 TIME LEFT: 172798.52
 STEP:  54 TIME =     0.03 SECS, INTEGRAL =      1.50 TIME LEFT: 172798.49
 STEP:  55 TIME =     0.03 SECS, INTEGRAL =      1.53 TIME LEFT: 172798.46
 STEP:  56 TIME =     0.03 SECS, INTEGRAL =      1.56 TIME LEFT: 172798.43
 STEP:  57 TIME =     0.03 SECS, INTEGRAL =      1.59 TIME LEFT: 172798.40
 STEP:  58 TIME =     0.03 SECS, INTEGRAL =      1.62 TIME LEFT: 172798.37
 STEP:  59 TIME =     0.03 SECS, INTEGRAL =      1.65 TIME LEFT: 172798.34
 STEP:  60 TIME =     0.03 SECS, INTEGRAL =      1.68 TIME LEFT: 172798.31
 STEP:  61 TIME =     0.03 SECS, INTEGRAL =      1.70 TIME LEFT: 172798.29
 STEP:  62 TIME =     0.03 SECS, INTEGRAL =      1.73 TIME LEFT: 172798.26
 STEP:  63 TIME =     0.03 SECS, INTEGRAL =      1.77 TIME LEFT: 172798.23

(To convert to Hartree/Bohr^2, multiply by (10^(-21) x N x a0^2)/(4.184 x 627.51) = 0.0642)


           FORCE MATRIX IN MILLIDYNES/ANGSTROM


                  C  1       C  2       C  3       C  4       C  5       C  6
 ------------------------------------------------------------------------------
     C    1  14.773792
     C    2   3.259251  14.100298
     C    3   3.157344   1.855662  14.054096
     C    4   0.136875   0.005884   0.012647  14.695173
     C    5   0.017723   0.002397   0.001664   4.408536  14.351974
     C    6   2.065874   3.509144   3.524865   0.005536   0.003231  21.587996
     C    7   5.077239   0.563764   0.566976   0.822700   0.040609   0.054116
     C    8   0.838548   0.050195   0.038488   4.972902   0.718046   0.008325
     H    9   4.425257   0.425636   0.430376   0.012496   0.001640   0.043548
     H   10   0.017794   0.000368   0.001304   4.421579   0.445148   0.003006
     H   11   0.002944   0.000471   0.000615   4.442816   0.434290   0.001135
     H   12   0.433652   4.712670   0.050518   0.001029   0.000296   0.438990
     H   13   0.446192   4.670349   0.049886   0.001101   0.000406   0.439796
     H   14   0.433694   0.051973   4.716538   0.001410   0.000431   0.439877
     H   15   0.445671   0.049313   4.691915   0.001468   0.000641   0.440682
     H   16   0.002780   0.001052   0.000673   0.449278   4.753640   0.000891
     H   17   0.000517   0.000603   0.000991   0.464247   4.726481   0.001139
     H   18   0.000763   0.000984   0.000804   0.460513   4.746040   0.000917
     O   19   0.039869   0.904512   0.906271   0.003134   0.003097  15.131586
     H   20   0.082765   0.002559   0.010679   0.430758   0.026471   0.005046
     H   21   0.436419   0.036759   0.025112   0.083685   0.008329   0.009356


                  C  7       C  8       H  9       H 10       H 11       H 12
 ------------------------------------------------------------------------------
     C    7  18.264032
     C    8  10.666223  18.199536
     H    9   0.404328   0.028696   4.905096
     H   10   0.033564   0.406575   0.001829   5.018574
     H   11   0.049758   0.458846   0.000611   0.564847   5.053111
     H   12   0.032455   0.005377   0.027145   0.000195   0.000125   5.326763
     H   13   0.029336   0.003196   0.029549   0.000357   0.000350   0.549168
     H   14   0.030353   0.002341   0.025808   0.000208   0.000300   0.009685
     H   15   0.019701   0.008073   0.029868   0.000389   0.000387   0.002816
     H   16   0.006895   0.052198   0.000294   0.028622   0.030326   0.000151
     H   17   0.001944   0.027725   0.000146   0.024023   0.047310   0.000130
     H   18   0.002326   0.016329   0.000156   0.048361   0.024651   0.000101
     O   19   0.014210   0.003193   0.008083   0.002182   0.000932   0.048514
     H   20   0.471328   4.776743   0.010103   0.017233   0.038757   0.000456
     H   21   4.762114   0.469548   0.020855   0.009807   0.030055   0.001855


                  H 13       H 14       H 15       H 16       H 17       H 18
 ------------------------------------------------------------------------------
     H   13   5.290472
     H   14   0.002716   5.329997
     H   15   0.009133   0.547069   5.306579
     H   16   0.000114   0.000132   0.000262   5.489934
     H   17   0.000107   0.000179   0.000224   0.572430   5.470864
     H   18   0.000135   0.000138   0.000376   0.573035   0.576996   5.484116
     O   19   0.047568   0.048775   0.047614   0.001004   0.000912   0.000970
     H   20   0.000796   0.001588   0.002352   0.002026   0.020073   0.002614
     H   21   0.027519   0.002818   0.003505   0.001681   0.000636   0.000529


                  O 19       H 20       H 21
 ------------------------------------------
     O   19  16.620834
     H   20   0.003489   5.152610
     H   21   0.003749   0.102917   5.134499


          HEAT OF FORMATION =     -28.600513 KCALS/MOLE

          ZERO POINT ENERGY     113.220 KCAL/MOL


           NORMAL COORDINATE ANALYSIS (Total motion = 1 Angstrom)


   Root No.       1         2         3         4         5         6         7         8

                 1 A       2 A       3 A       4 A       5 A       6 A       7 A       8 A   

                  40.0      80.8     104.1     130.9     179.9     226.4     319.0     355.8
  
           1    0.0083   -0.0045    0.0109    0.0099    0.0005    0.0061   -0.0190   -0.0168
           2   -0.0219   -0.0110   -0.0063   -0.0119   -0.0038   -0.0070    0.0218    0.0007
           3   -0.0127   -0.0277   -0.0026    0.0082    0.0069    0.0158    0.0057   -0.0025
           4    0.0083   -0.0044    0.0112    0.0091   -0.0002    0.0053   -0.0226   -0.0268
           5    0.0020   -0.0064    0.0006    0.0034   -0.0018   -0.0027    0.0132   -0.0155
           6    0.0151   -0.0345    0.0240   -0.0141   -0.0267   -0.0305    0.0150    0.0264
           7   -0.0156   -0.0091    0.0038   -0.0057   -0.0027   -0.0003   -0.0090   -0.0277
           8   -0.0218   -0.0109   -0.0070   -0.0115   -0.0040   -0.0079    0.0256   -0.0018
           9   -0.0209   -0.0191   -0.0214    0.0655   -0.0096   -0.0054   -0.0262    0.0184
          10   -0.0100    0.0359   -0.0055   -0.0067   -0.0092   -0.0273   -0.0070    0.0396
          11    0.0057    0.0263    0.0082    0.0118   -0.0018   -0.0059   -0.0319    0.0047
          12   -0.0183    0.0302   -0.0111   -0.0036   -0.0026   -0.0223    0.0094   -0.0318
          13    0.0511   -0.0225   -0.0221   -0.0113   -0.0074   -0.0047    0.0090    0.0327
          14    0.0363    0.0027   -0.0358    0.0244    0.0009   -0.0028    0.0121   -0.0097
          15    0.0183   -0.0123    0.0258   -0.0252   -0.0036    0.0018   -0.0271   -0.0337
          16   -0.0149   -0.0089    0.0043   -0.0067   -0.0028   -0.0007   -0.0059   -0.0290
          17    0.0016   -0.0061    0.0000    0.0040   -0.0013   -0.0018    0.0104   -0.0180
          18    0.0133    0.0060   -0.0049    0.0062   -0.0105   -0.0128   -0.0059    0.0238
          19   -0.0024    0.0096   -0.0056    0.0144    0.0177    0.0191    0.0107    0.0214
          20   -0.0241   -0.0112   -0.0093   -0.0507    0.0118    0.0103   -0.0248    0.0355
          21   -0.0196   -0.0199   -0.0133   -0.0099    0.0258    0.0336   -0.0006    0.0215
          22    0.0000    0.0180    0.0044    0.0216    0.0144    0.0153    0.0207    0.0220
          23    0.0001    0.0185    0.0556    0.0063   -0.0003    0.0154   -0.0118    0.0453
          24   -0.0158    0.0160    0.0200    0.0107    0.0125    0.0146    0.0375   -0.0077
          25    0.0307   -0.0111    0.0299    0.0046   -0.0181   -0.0158   -0.0211   -0.0262
          26   -0.0347   -0.0111   -0.0183    0.0182   -0.0153   -0.0217    0.0207   -0.0058
          27   -0.0170   -0.0242   -0.0062   -0.0038    0.0209    0.0325    0.0066    0.0061
          28   -0.0591    0.0841    0.0050   -0.0092   -0.0177   -0.0529   -0.0255    0.0575
          29    0.0415   -0.0149    0.0199    0.0180    0.0134    0.0296   -0.0102    0.0026
          30   -0.0259    0.0523   -0.0568   -0.0145   -0.0265   -0.0677   -0.0123   -0.0550
          31   -0.0172    0.0485   -0.0099   -0.0246   -0.0274   -0.0526   -0.0352    0.0437
          32   -0.0455    0.0876   -0.0183    0.0049   -0.0251   -0.0617   -0.0592    0.0015
          33   -0.0403    0.0523   -0.0216    0.0110    0.0028   -0.0280    0.0219   -0.0373
          34    0.0310   -0.0083    0.0292    0.0022   -0.0211   -0.0238   -0.0174   -0.0059
          35    0.0084    0.0200   -0.0148    0.0192    0.0105    0.0126   -0.0069   -0.0219
          36    0.0237   -0.0506    0.0417   -0.0261   -0.0444   -0.0542    0.0285    0.0413
          37   -0.0007    0.0022   -0.0029    0.0246    0.0217    0.0365   -0.0334   -0.0500
          38    0.0100   -0.0303    0.0205   -0.0030   -0.0129   -0.0151    0.0255   -0.0144
          39    0.0239   -0.0501    0.0414   -0.0257   -0.0442   -0.0538    0.0276    0.0405
          40   -0.0025    0.0056    0.0113   -0.0480   -0.0028   -0.0054    0.0126   -0.0248
          41   -0.0338   -0.0085   -0.0194    0.0196   -0.0157   -0.0236    0.0038    0.0146
          42   -0.0342   -0.0257   -0.0320    0.1046   -0.0158   -0.0111   -0.0498    0.0259
          43   -0.0435   -0.0270   -0.0084    0.0268   -0.0044    0.0007   -0.0220   -0.0314
          44   -0.0239   -0.0162    0.0012   -0.0522    0.0061    0.0042    0.0542   -0.0182
          45   -0.0337   -0.0252   -0.0317    0.1034   -0.0158   -0.0112   -0.0487    0.0258
          46    0.0459   -0.0100   -0.0268   -0.0350   -0.1427    0.0873   -0.0115    0.0319
          47    0.0451    0.0033   -0.0828    0.0327   -0.0449    0.0240    0.0592   -0.0148
          48    0.0203   -0.0044   -0.0036   -0.0347   -0.1101    0.0718   -0.0133   -0.0378
          49    0.0559   -0.0333   -0.0188    0.0072    0.0995   -0.0768    0.0251    0.0342
          50    0.0851   -0.0566   -0.0104    0.0317    0.1367   -0.0710    0.0085   -0.0134
          51    0.0416   -0.0348    0.0369   -0.0427   -0.0489    0.0463   -0.0489   -0.0380
          52    0.1002   -0.0711   -0.0351   -0.0098    0.0209   -0.0046    0.0297    0.0265
          53    0.0029    0.0426   -0.0500    0.0192   -0.0872    0.0410    0.0127   -0.0070
          54    0.0219   -0.0308    0.0748   -0.0158    0.1484   -0.0938   -0.0569   -0.0306
          55   -0.0274   -0.0110    0.0008   -0.0178   -0.0048   -0.0062    0.0204   -0.0182
          56    0.0146   -0.0029    0.0032    0.0142    0.0011    0.0043   -0.0156   -0.0325
          57    0.0340    0.0553   -0.0158   -0.0309    0.0123    0.0118    0.0022   -0.0086
          58    0.0098    0.0132    0.0214    0.0461    0.0213    0.0350    0.0320    0.0285
          59    0.0209    0.0378    0.1324    0.0649   -0.0122    0.0295    0.0498    0.0455
          60   -0.0083    0.0364    0.0665    0.0341   -0.0049    0.0065    0.0751   -0.0134
          61   -0.0118    0.0141   -0.0246    0.0033    0.0242    0.0170    0.0193    0.0215
          62   -0.0452   -0.0330   -0.0821   -0.1093    0.0338    0.0137   -0.0843    0.0560
          63   -0.0276   -0.0421   -0.0537   -0.0478    0.0365    0.0371   -0.0577    0.0378


   Root No.       9        10        11        12        13        14        15        16

                 9 A      10 A      11 A      12 A      13 A      14 A      15 A      16 A   

                 453.0     480.6     501.3     534.7     716.4     815.4     833.0     894.1
  
           1   -0.0019   -0.0076    0.0096    0.0147    0.0467   -0.0004    0.0012    0.0161
           2    0.0029    0.0047   -0.0088   -0.0199    0.0450    0.0012   -0.0019    0.0314
           3    0.0148   -0.0414    0.0319   -0.0355    0.0227   -0.0096   -0.0020    0.0112
           4    0.0070   -0.0017    0.0077    0.0222    0.0634    0.0020    0.0107   -0.0059
           5   -0.0303   -0.0181    0.0191    0.0221   -0.0088    0.0007    0.0024   -0.0315
           6   -0.0050    0.0010   -0.0139   -0.0057    0.0024   -0.0027   -0.0438    0.0064
           7    0.0334    0.0178   -0.0137   -0.0178   -0.0120    0.0004    0.0003   -0.0360
           8   -0.0061    0.0018   -0.0069   -0.0221    0.0476    0.0000   -0.0045   -0.0295
           9    0.0001   -0.0055   -0.0040    0.0081    0.0023   -0.0052    0.0427    0.0131
          10    0.0114   -0.0163    0.0101   -0.0095   -0.0061   -0.0302   -0.0022    0.0002
          11   -0.0352   -0.0074   -0.0040   -0.0281   -0.0071   -0.0148   -0.0027   -0.0025
          12    0.0106    0.0089   -0.0015    0.0172    0.0075   -0.0174    0.0009   -0.0009
          13    0.0230   -0.0120    0.0112    0.0008   -0.0078   -0.0096   -0.0006   -0.0041
          14    0.0003    0.0042   -0.0026    0.0018    0.0042   -0.0013   -0.0011    0.0064
          15   -0.0304    0.0073   -0.0093   -0.0073    0.0066    0.0002    0.0000    0.0032
          16    0.0265    0.0142   -0.0080   -0.0124   -0.0406   -0.0003   -0.0029    0.0159
          17   -0.0226   -0.0139    0.0172    0.0167   -0.0405   -0.0012    0.0002    0.0108
          18   -0.0130    0.0782    0.0412   -0.0025   -0.0060    0.0036   -0.0003   -0.0047
          19   -0.0352    0.0149   -0.0211   -0.0147    0.0030    0.0124   -0.0019    0.0092
          20    0.0197    0.0185   -0.0098    0.0377    0.0232    0.0101   -0.0025    0.0432
          21    0.0026   -0.0137    0.0112   -0.0127   -0.0278    0.0129   -0.0001   -0.0148
          22   -0.0304    0.0194   -0.0244   -0.0101    0.0032    0.0038   -0.0033    0.0087
          23    0.0251   -0.0121    0.0126    0.0120   -0.0119   -0.0047    0.0058   -0.0179
          24    0.0189    0.0221   -0.0110    0.0292   -0.0025   -0.0039    0.0011   -0.0076
          25   -0.0113   -0.0131    0.0118    0.0480    0.0911   -0.0077   -0.0425    0.0187
          26    0.0068    0.0163   -0.0316   -0.0410    0.0700   -0.0120    0.0529    0.0214
          27    0.0167   -0.0424    0.0400   -0.0393   -0.0102    0.0008   -0.0071    0.0111
          28    0.0229   -0.0400    0.0291   -0.0222   -0.0181    0.0820    0.0061   -0.0225
          29   -0.0452    0.0206   -0.0272   -0.0097   -0.0035   -0.1322   -0.0088    0.0029
          30    0.0191   -0.0226    0.0262   -0.0070    0.0183    0.1006    0.0031    0.0222
          31    0.0217   -0.0454    0.0343   -0.0269   -0.0114    0.0292    0.0010   -0.0014
          32   -0.0207   -0.0472    0.0293   -0.0559   -0.0085    0.1668    0.0049   -0.0033
          33    0.0078    0.0150   -0.0067    0.0176    0.0114    0.0315    0.0021   -0.0006
          34   -0.0231    0.0147   -0.0352    0.0638    0.0398    0.0244    0.0893   -0.0916
          35   -0.0471    0.0551    0.1047    0.0383    0.0197    0.0030   -0.1377   -0.1014
          36   -0.0117   -0.0302   -0.0848    0.0078   -0.0281    0.0084    0.0785   -0.0027
          37    0.0102   -0.0343    0.0674    0.0157    0.1323   -0.0174   -0.0508   -0.0052
          38   -0.0369   -0.1090   -0.0486    0.0418   -0.0054    0.0011    0.1640   -0.0665
          39   -0.0108   -0.0283   -0.0827    0.0077   -0.0335    0.0084    0.0761   -0.0113
          40    0.0327    0.1169    0.0391   -0.0623   -0.0024   -0.0031    0.1473   -0.0827
          41   -0.0025    0.0307   -0.0589    0.0139    0.0296    0.0280   -0.0736   -0.1147
          42    0.0021   -0.0446   -0.0615    0.0529   -0.0147    0.0124   -0.0788   -0.0097
          43    0.0577   -0.0640   -0.0886   -0.0065   -0.0003    0.0060   -0.1558   -0.1111
          44    0.0162   -0.0080    0.0226   -0.0917    0.1024   -0.0261    0.0596   -0.0432
          45    0.0011   -0.0427   -0.0591    0.0523   -0.0203    0.0123   -0.0752   -0.0170
          46   -0.0140   -0.0109    0.0021   -0.0224   -0.0129    0.0250   -0.0035    0.0016
          47    0.0525    0.0136    0.0047    0.0455    0.0133    0.0253    0.0099   -0.0120
          48   -0.0244    0.0134   -0.0110    0.0028    0.0090    0.0360    0.0042   -0.0028
          49    0.0530   -0.0136    0.0190    0.0188   -0.0054   -0.0271    0.0026   -0.0124
          50    0.0040    0.0019    0.0003    0.0020    0.0050    0.0889    0.0042    0.0011
          51   -0.0647    0.0076   -0.0170   -0.0294    0.0041    0.0791   -0.0005    0.0097
          52    0.0466   -0.0075    0.0152    0.0207   -0.0054    0.1039    0.0104   -0.0226
          53   -0.0034    0.0054   -0.0046    0.0007    0.0041   -0.0606   -0.0047    0.0113
          54   -0.0538   -0.0020   -0.0098   -0.0321    0.0033   -0.0217   -0.0068    0.0173
          55   -0.0317   -0.0188    0.0200    0.0212   -0.0498   -0.0010   -0.0007    0.0171
          56    0.0367    0.0166   -0.0113   -0.0162   -0.0518   -0.0011   -0.0027    0.0159
          57    0.0050   -0.0317   -0.0177    0.0014    0.0023   -0.0007    0.0000    0.0004
          58   -0.0467    0.0103   -0.0226   -0.0394   -0.0122    0.0445   -0.0065   -0.0023
          59    0.0661   -0.0298    0.0345    0.0025    0.0034    0.0783    0.0008    0.0086
          60    0.0687    0.0148    0.0064    0.0490    0.0247    0.0251    0.0001    0.0242
          61   -0.0527    0.0443   -0.0482   -0.0043    0.0010    0.0170   -0.0038    0.0099
          62   -0.0227    0.0532   -0.0448    0.0703   -0.0219   -0.0241    0.0232   -0.0817
          63   -0.0140   -0.0138    0.0091    0.0044   -0.0621   -0.0192    0.0223   -0.1170


   Root No.      17        18        19        20        21        22        23        24

                17 A      18 A      19 A      20 A      21 A      22 A      23 A      24 A   

                 912.7     922.2     963.3     980.5     994.8    1016.7    1031.5    1056.9
  
           1    0.0073    0.0004    0.0197    0.0160   -0.0273   -0.0310    0.0016    0.0011
           2    0.0019    0.0007   -0.0031   -0.0121    0.0019    0.0415   -0.0059    0.0015
           3    0.0056   -0.0011   -0.0015    0.0019   -0.0038    0.0082   -0.0091    0.0053
           4   -0.0067   -0.0003   -0.0079   -0.0155   -0.0072    0.0470   -0.0001   -0.0025
           5   -0.0109   -0.0003   -0.0163   -0.0074    0.0320   -0.0001   -0.0055    0.0024
           6    0.0153   -0.0019   -0.0057    0.0021    0.0251   -0.0005    0.0092   -0.0257
           7   -0.0094   -0.0007   -0.0087    0.0017    0.0211   -0.0279   -0.0020    0.0009
           8    0.0011    0.0003    0.0185    0.0216   -0.0336   -0.0194    0.0058   -0.0014
           9    0.0110   -0.0018   -0.0056   -0.0058    0.0153   -0.0298    0.0084   -0.0236
          10   -0.0029    0.0028   -0.0049    0.0016   -0.0017   -0.0026   -0.0270   -0.0062
          11   -0.0006   -0.0022   -0.0118    0.0014   -0.0028    0.0064   -0.0104   -0.0031
          12   -0.0009    0.0002    0.0059    0.0010   -0.0042   -0.0013   -0.0086   -0.0029
          13   -0.0061    0.0064   -0.0111    0.0011   -0.0070    0.0052    0.0228    0.0033
          14   -0.0044    0.0094   -0.0133    0.0022   -0.0040   -0.0054    0.0034    0.0009
          15   -0.0035    0.0051    0.0327   -0.0063    0.0162   -0.0005   -0.0075   -0.0006
          16    0.0030    0.0006   -0.0018   -0.0044    0.0021    0.0215   -0.0016    0.0012
          17    0.0048   -0.0004    0.0077    0.0055   -0.0130   -0.0163    0.0033   -0.0007
          18   -0.0102    0.0013    0.0028    0.0000   -0.0114    0.0077   -0.0115    0.0558
          19   -0.0057    0.0019    0.0116   -0.0024    0.0066   -0.0071    0.0006   -0.0006
          20   -0.0271   -0.0020   -0.0101   -0.0012    0.0146   -0.0283   -0.0089   -0.0030
          21   -0.0320    0.0013    0.0044   -0.0014   -0.0101    0.0099    0.0009   -0.0123
          22    0.0071   -0.0072    0.0015   -0.0001    0.0071   -0.0071    0.0029    0.0029
          23    0.0118   -0.0362    0.0201   -0.0028    0.0000    0.0090    0.0249    0.0072
          24    0.0128   -0.0270   -0.0220    0.0037   -0.0087    0.0070    0.0222    0.0061
          25    0.0434   -0.0008    0.0278    0.0849   -0.0243   -0.1102    0.0370    0.0016
          26    0.0513   -0.0084   -0.0071   -0.0902    0.0086    0.1265    0.0336   -0.0336
          27   -0.0369    0.0043   -0.0033    0.0068   -0.0101    0.0065   -0.0450    0.0204
          28    0.0540   -0.0760   -0.0145    0.0063   -0.0043    0.0071   -0.0962   -0.0204
          29   -0.0188    0.0167   -0.0165    0.0038   -0.0080    0.0033   -0.0417   -0.0109
          30   -0.0448    0.0777    0.0348   -0.0126    0.0144   -0.0093    0.1741    0.0381
          31   -0.0199    0.0309    0.0411   -0.0144    0.0318    0.0126    0.0477    0.0137
          32    0.0222   -0.0223   -0.0183   -0.0004    0.0028    0.0094    0.0453    0.0102
          33    0.0312   -0.0419   -0.0480    0.0171   -0.0377   -0.0155   -0.0530   -0.0161
          34   -0.0741    0.0060   -0.0004   -0.1454   -0.1132    0.0262   -0.0138   -0.0682
          35   -0.0127   -0.0044   -0.0393   -0.1147    0.0427   -0.0330    0.0120   -0.1435
          36   -0.0218    0.0038    0.0099   -0.0112   -0.0369    0.0070   -0.0088    0.0196
          37    0.0361   -0.0067   -0.0419    0.0944    0.1289    0.0711    0.0154    0.0573
          38   -0.0450    0.0020   -0.0372    0.0711    0.0905    0.0262   -0.0314    0.1470
          39   -0.0260    0.0031    0.0034   -0.0174   -0.0220    0.0000   -0.0128    0.0173
          40   -0.0286    0.0006   -0.0216    0.1047    0.0837   -0.0291    0.0170   -0.1370
          41   -0.0710    0.0116    0.0336    0.1629   -0.0431    0.0997   -0.0061   -0.0633
          42   -0.0191    0.0038    0.0097    0.0165   -0.0234    0.0340   -0.0094    0.0195
          43   -0.0204   -0.0033   -0.0233   -0.0911    0.0162   -0.0822   -0.0260    0.1472
          44    0.0524   -0.0112   -0.0129   -0.1135    0.0008   -0.1599    0.0197    0.0641
          45   -0.0230    0.0033    0.0043    0.0193   -0.0074    0.0206   -0.0119    0.0176
          46    0.0074   -0.0080   -0.1274    0.0235   -0.0575   -0.0050    0.0325    0.0033
          47    0.0235   -0.0356    0.1620   -0.0273    0.0729    0.0056   -0.0807   -0.0110
          48    0.0196   -0.0274    0.0593   -0.0090    0.0281   -0.0013   -0.0476   -0.0070
          49   -0.0101    0.0053    0.0789   -0.0159    0.0317    0.0166    0.0106    0.0021
          50    0.0424   -0.0505   -0.0469    0.0123   -0.0172   -0.0147   -0.0563   -0.0094
          51    0.0311   -0.0322   -0.0977    0.0207   -0.0392   -0.0199   -0.0300   -0.0057
          52    0.0623   -0.0895    0.0154    0.0021    0.0040    0.0052   -0.0754   -0.0132
          53   -0.0357    0.0507    0.0118   -0.0051    0.0070   -0.0013    0.0390    0.0072
          54   -0.0266    0.0434   -0.0572    0.0082   -0.0224   -0.0096    0.0455    0.0075
          55    0.0050    0.0001    0.0033   -0.0001   -0.0075    0.0043    0.0018   -0.0011
          56    0.0053    0.0001    0.0041    0.0015   -0.0077    0.0035    0.0018   -0.0008
          57    0.0015   -0.0003   -0.0006   -0.0001    0.0020   -0.0013    0.0015   -0.0069
          58   -0.0041    0.0643    0.0448   -0.0119    0.0335    0.0138    0.0282    0.0004
          59    0.0032    0.2793    0.0109   -0.0068    0.0163   -0.0144   -0.0585   -0.0193
          60    0.0164    0.1616   -0.0707    0.0120   -0.0214   -0.0329   -0.0697   -0.0131
          61    0.0364    0.0277   -0.0128   -0.0114    0.0629    0.0296    0.0276    0.0281
          62    0.1839    0.1365   -0.0060   -0.0011    0.0087    0.0472    0.0178    0.0308
          63    0.0986    0.0890    0.0323    0.0077   -0.0709    0.0340   -0.0030   -0.0131


   Root No.      25        26        27        28        29        30        31        32

                25 A      26 A      27 A      28 A      29 A      30 A      31 A      32 A   

                1089.7    1116.1    1120.3    1127.0    1136.7    1158.4    1182.3    1196.1
  
           1    0.0254   -0.0007   -0.0324    0.0101    0.0047   -0.0072   -0.0164    0.0131
           2   -0.0255   -0.0018   -0.0323    0.0100    0.0103    0.0126    0.0158   -0.0108
           3   -0.0061    0.0037   -0.0324   -0.0001    0.0167    0.0118   -0.0019    0.0081
           4   -0.0002    0.0031    0.0300   -0.0163    0.0087    0.0048    0.0203   -0.0211
           5   -0.0323   -0.0040   -0.0300    0.0166   -0.0103   -0.0058    0.0014   -0.0132
           6    0.0142    0.0000    0.0129   -0.0072   -0.0002   -0.0124   -0.0010   -0.0017
           7    0.0412    0.0001   -0.0272    0.0064    0.0155    0.0110   -0.0049    0.0181
           8   -0.0109    0.0023    0.0271   -0.0121   -0.0055   -0.0182   -0.0198    0.0230
           9   -0.0165   -0.0003    0.0136   -0.0059    0.0020   -0.0051    0.0029   -0.0027
          10    0.0039   -0.0039   -0.0082   -0.0209   -0.0262    0.0013    0.0116    0.0009
          11   -0.0057   -0.0476    0.0182    0.0112    0.0235    0.0172   -0.0239   -0.0024
          12    0.0037   -0.0362   -0.0008    0.0025   -0.0048   -0.0059    0.0210    0.0149
          13   -0.0031    0.0032    0.0127    0.0263    0.0248   -0.0047   -0.0052   -0.0020
          14    0.0033    0.0544   -0.0101   -0.0105   -0.0199   -0.0021    0.0108    0.0044
          15   -0.0012    0.0353    0.0026    0.0054    0.0033   -0.0023   -0.0043   -0.0053
          16   -0.0599   -0.0030    0.0026    0.0065   -0.0236   -0.0219   -0.0147    0.0057
          17    0.0588    0.0036    0.0085   -0.0103    0.0221    0.0214    0.0151   -0.0064
          18    0.0054   -0.0010   -0.0009    0.0044   -0.0038    0.0027   -0.0004    0.0005
          19    0.0059   -0.0014   -0.0067   -0.0023   -0.0079   -0.0138   -0.0053   -0.0168
          20    0.0092   -0.0045    0.0078    0.0045    0.0026   -0.0042   -0.0018    0.0057
          21    0.0071   -0.0051    0.0241    0.0112   -0.0301    0.0173   -0.0021   -0.0047
          22    0.0002    0.0018   -0.0105   -0.0025    0.0036   -0.0127   -0.0040   -0.0115
          23   -0.0007    0.0011   -0.0179   -0.0073   -0.0067   -0.0171    0.0142   -0.0063
          24   -0.0082    0.0092    0.0024   -0.0020    0.0116    0.0222   -0.0165    0.0087
          25   -0.1898   -0.0258   -0.0072    0.1155   -0.1138    0.1554    0.0297   -0.0271
          26    0.2840   -0.0197   -0.0173    0.0953   -0.1280    0.0299   -0.0512    0.0149
          27   -0.0530    0.0247   -0.0516   -0.0922    0.1406   -0.0734    0.0079    0.0155
          28   -0.0056    0.2149    0.0444    0.0493    0.0051    0.0272    0.0095    0.0324
          29   -0.0014   -0.1402    0.0141   -0.0095    0.0099    0.0224   -0.0192    0.0008
          30    0.0078   -0.1593   -0.0724   -0.0577   -0.0194   -0.0566    0.0097   -0.0428
          31   -0.0157    0.0324   -0.0226   -0.1041   -0.0569    0.1077   -0.0641    0.0252
          32   -0.0159    0.0272    0.0391    0.0641    0.0869    0.0090   -0.0655   -0.0259
          33    0.0190   -0.0311    0.0255    0.1211    0.0621   -0.1248    0.0808   -0.0232
          34   -0.0530    0.0126    0.0075   -0.0279    0.0247    0.0179   -0.0227    0.0577
          35   -0.0465    0.0003   -0.0349    0.0044   -0.0124   -0.0421   -0.0603    0.0741
          36   -0.0043    0.0029    0.0006   -0.0068    0.0110    0.0137    0.0090   -0.0058
          37    0.0704   -0.0020    0.1395   -0.0363   -0.0371   -0.0544   -0.0250    0.0363
          38   -0.0012   -0.0090    0.0033    0.0228   -0.0483   -0.0482   -0.0599    0.0685
          39   -0.0099    0.0006   -0.0287    0.0055    0.0061   -0.0018   -0.0078    0.0089
          40    0.0213    0.0058   -0.0239   -0.0114    0.0408    0.0482    0.0650   -0.0797
          41   -0.0040    0.0113    0.0114   -0.0245    0.0095    0.0171    0.0286   -0.0537
          42   -0.0041    0.0015    0.0005   -0.0026   -0.0025   -0.0060   -0.0085    0.0086
          43    0.0485   -0.0020    0.0078    0.0043    0.0125    0.0480    0.0640   -0.0808
          44   -0.0476   -0.0023    0.1376   -0.0328   -0.0273   -0.0107    0.0408   -0.0703
          45    0.0069    0.0013   -0.0264    0.0030    0.0131    0.0097    0.0060   -0.0029
          46    0.0055   -0.0333   -0.0074   -0.0020   -0.0104   -0.0013    0.0245    0.0235
          47   -0.0055    0.0010    0.0042   -0.0170   -0.0030    0.0087   -0.0233   -0.0234
          48   -0.0003   -0.0157   -0.0029   -0.0156   -0.0097    0.0030   -0.0033   -0.0066
          49   -0.0131   -0.0036    0.0369    0.0527    0.0635    0.0058   -0.0343   -0.0106
          50    0.0115   -0.0380   -0.0371   -0.0716   -0.0723    0.0086    0.0274    0.0117
          51    0.0158   -0.0151   -0.0420   -0.0619   -0.0739   -0.0083    0.0422    0.0114
          52   -0.0027   -0.1791    0.0075   -0.0223    0.0057    0.0261   -0.0172    0.0067
          53   -0.0004    0.1396    0.0009    0.0207    0.0017   -0.0132    0.0050   -0.0052
          54    0.0066    0.1034   -0.0147    0.0036   -0.0193   -0.0215    0.0264    0.0030
          55    0.0030    0.0011    0.0145   -0.0059   -0.0001    0.0008    0.0026   -0.0025
          56   -0.0061    0.0006    0.0139   -0.0046   -0.0039   -0.0031   -0.0014    0.0006
          57   -0.0006    0.0001   -0.0001   -0.0005    0.0005   -0.0004    0.0000    0.0000
          58   -0.0179   -0.0406    0.0426    0.0472    0.0123    0.0168    0.1559    0.1544
          59    0.0121   -0.0378    0.0390    0.0277   -0.0070   -0.0002    0.0498    0.0425
          60    0.0199    0.0185   -0.0033   -0.0219    0.0011    0.0077   -0.1414   -0.1113
          61   -0.0550    0.0135    0.0181   -0.0579    0.0611    0.1032   -0.0065    0.0628
          62   -0.0407    0.0167   -0.0390   -0.0318    0.0586    0.0233    0.0079    0.0280
          63    0.0261   -0.0017   -0.0393    0.0351   -0.0532   -0.0720    0.0041   -0.0656


   Root No.      33        34        35        36        37        38        39        40

                33 A      34 A      35 A      36 A      37 A      38 A      39 A      40 A   

                1230.6    1248.9    1257.9    1338.7    1385.9    1387.5    1404.4    1407.0
  
           1   -0.0104   -0.0245    0.0333    0.0131   -0.0117    0.0180   -0.0018    0.0015
           2    0.0037    0.0068   -0.0393    0.0229   -0.0055    0.0221    0.0010    0.0019
           3    0.0154   -0.0245    0.0049   -0.0198    0.0103   -0.0241    0.0046   -0.0008
           4   -0.0168    0.0294    0.0068   -0.0078    0.0157    0.0069   -0.0212   -0.0061
           5   -0.0287    0.0206    0.0403   -0.0085   -0.0099   -0.0174    0.0191    0.0046
           6   -0.0049    0.0045    0.0010    0.0048   -0.0021    0.0042   -0.0005    0.0002
           7    0.0000    0.0485   -0.0224   -0.0046    0.0233    0.0001    0.0180    0.0042
           8   -0.0044    0.0313    0.0062   -0.0071   -0.0191   -0.0097   -0.0188   -0.0052
           9   -0.0038    0.0061   -0.0030    0.0038   -0.0015    0.0038   -0.0007    0.0001
          10    0.0076    0.0036   -0.0038   -0.0360    0.0018   -0.0047   -0.0076   -0.0060
          11   -0.0112   -0.0034   -0.0018    0.0078    0.0094   -0.0181   -0.0186    0.0032
          12   -0.0013    0.0013    0.0110    0.0442   -0.0078    0.0171    0.0182    0.0045
          13    0.0018    0.0005    0.0026   -0.0032   -0.0056    0.0109    0.0008   -0.0194
          14   -0.0002    0.0005    0.0007    0.0138    0.0064   -0.0120    0.0025   -0.0108
          15    0.0022   -0.0003   -0.0028   -0.0011    0.0055   -0.0109    0.0028   -0.0266
          16   -0.0042   -0.0119    0.0169   -0.0008   -0.0058   -0.0023   -0.0003    0.0000
          17    0.0075    0.0051   -0.0185    0.0016    0.0053    0.0035   -0.0004   -0.0001
          18    0.0011   -0.0013   -0.0002   -0.0011    0.0004   -0.0010    0.0001   -0.0001
          19    0.0091    0.0054   -0.0024    0.0205   -0.0015    0.0041    0.0079    0.0020
          20   -0.0099   -0.0158    0.0000   -0.0107    0.0042   -0.0124    0.0014   -0.0004
          21    0.0116    0.0243    0.0097    0.0096   -0.0061    0.0152   -0.0052   -0.0001
          22   -0.0052   -0.0094   -0.0176   -0.0066    0.0062   -0.0124    0.0031   -0.0001
          23    0.0220    0.0096    0.0066    0.0121   -0.0018    0.0051    0.0058    0.0006
          24   -0.0288   -0.0133   -0.0104   -0.0240    0.0009   -0.0040   -0.0097   -0.0019
          25    0.0733    0.0245   -0.0896   -0.0166    0.0233   -0.0171    0.0015   -0.0019
          26    0.0103   -0.0635    0.0893   -0.0332   -0.0020   -0.0309   -0.0009   -0.0020
          27   -0.0270   -0.0132    0.0030    0.0206   -0.0079    0.0176    0.0036    0.0026
          28   -0.0278   -0.0016    0.0129    0.1008    0.0349   -0.0638   -0.0483    0.0125
          29   -0.0061   -0.0023    0.0000   -0.0600   -0.0429    0.0806    0.0559   -0.0074
          30    0.0399    0.0054   -0.0211   -0.0281    0.0485   -0.0944   -0.0712   -0.0039
          31   -0.0973   -0.0288   -0.0180    0.0344   -0.0331    0.0641    0.0553    0.0005
          32   -0.0127   -0.0123   -0.0104   -0.0912   -0.0633    0.1180    0.0891   -0.0117
          33    0.1080    0.0306    0.0200   -0.0787   -0.0043    0.0068    0.0014   -0.0106
          34    0.0963   -0.0713   -0.0949   -0.0058   -0.0654   -0.0795    0.0903    0.0220
          35    0.0625   -0.0883   -0.0620    0.0212    0.0517    0.0680   -0.0714   -0.0173
          36    0.0063    0.0081    0.0014   -0.0094   -0.0683   -0.0779    0.0954    0.0239
          37    0.0550   -0.0305   -0.1069    0.0243   -0.0797   -0.0515    0.0872    0.0234
          38    0.0546   -0.0810   -0.0719    0.0251    0.0510    0.0737   -0.0740   -0.0177
          39   -0.0005   -0.0146    0.0081    0.0035    0.0703    0.0717   -0.0939   -0.0239
          40    0.0111   -0.1145    0.0137    0.0220   -0.0977   -0.0078   -0.0614   -0.0144
          41    0.0180   -0.1482    0.0652   -0.0200    0.1142    0.0103    0.0737    0.0175
          42    0.0021   -0.0035    0.0094   -0.0161    0.1194    0.0155    0.0816    0.0198
          43    0.0066   -0.1045    0.0127    0.0261   -0.1041   -0.0040   -0.0653   -0.0150
          44   -0.0104   -0.0961    0.0498    0.0063    0.1034    0.0382    0.0689    0.0183
          45    0.0033   -0.0037   -0.0093    0.0107   -0.1148   -0.0208   -0.0790   -0.0196
          46   -0.0123   -0.0029    0.0105    0.0629    0.0058   -0.0095   -0.0046    0.2408
          47    0.0138    0.0030   -0.0155   -0.1142   -0.0207    0.0380   -0.0419    0.1160
          48    0.0045    0.0000   -0.0074   -0.0426   -0.0056    0.0100   -0.0289    0.2053
          49   -0.0082   -0.0050   -0.0010    0.0225    0.0067   -0.0133   -0.0003    0.1181
          50    0.0013    0.0023   -0.0039   -0.0591   -0.0296    0.0550    0.0106    0.0458
          51    0.0133    0.0066   -0.0006   -0.0639   -0.0258    0.0488    0.0060   -0.1238
          52   -0.0187   -0.0057    0.0025    0.0814    0.0348   -0.0652    0.0062   -0.0825
          53    0.0088    0.0027   -0.0016   -0.0383   -0.0178    0.0326    0.0149   -0.0564
          54    0.0132    0.0045    0.0015   -0.0275   -0.0076    0.0156   -0.0372    0.2149
          55    0.0051   -0.0096   -0.0031   -0.0005    0.0007   -0.0006   -0.0018   -0.0006
          56    0.0052   -0.0103   -0.0015   -0.0006   -0.0007   -0.0013   -0.0018   -0.0006
          57   -0.0003    0.0004    0.0001    0.0001    0.0000    0.0001    0.0000    0.0000
          58   -0.1023   -0.0586   -0.0209   -0.0579    0.0018   -0.0106   -0.0091   -0.0101
          59   -0.0073   -0.0014    0.0154    0.0063   -0.0028    0.0042    0.0016   -0.0002
          60    0.0376    0.0234   -0.0031    0.0184    0.0048   -0.0076   -0.0017    0.0063
          61    0.1571    0.0537    0.1685    0.0156   -0.0064    0.0202   -0.0099   -0.0005
          62    0.0375   -0.0046    0.0372   -0.0127    0.0030   -0.0049   -0.0032   -0.0014
          63   -0.0926   -0.0119   -0.1242    0.0153   -0.0028    0.0081    0.0084    0.0017


   Root No.      41        42        43        44        45        46        47        48

                41 A      42 A      43 A      44 A      45 A      46 A      47 A      48 A   

                1411.3    1416.9    1441.5    1888.0    2074.5    2945.2    2949.2    3024.4
  
           1   -0.0022   -0.0149    0.0498    0.0256   -0.0300    0.0001   -0.0254    0.0000
           2   -0.0023   -0.0129    0.0400    0.0136   -0.0290    0.0000   -0.0253    0.0000
           3    0.0020    0.0132   -0.0491   -0.0277    0.0080    0.0002   -0.0532   -0.0001
           4    0.0030    0.0131   -0.0228    0.0004   -0.0005    0.0000   -0.0008    0.0000
           5   -0.0017   -0.0057    0.0036    0.0016   -0.0324    0.0000   -0.0002    0.0000
           6   -0.0004   -0.0021    0.0067   -0.0013    0.0003    0.0000    0.0043   -0.0003
           7   -0.0013   -0.0045    0.0006   -0.0022   -0.0326    0.0000   -0.0002    0.0000
           8    0.0025    0.0109   -0.0181    0.0005   -0.0004    0.0000   -0.0009    0.0000
           9   -0.0003   -0.0019    0.0065    0.0017    0.0002    0.0000    0.0040    0.0000
          10    0.0025    0.0131    0.0413   -0.0236    0.0001   -0.0421   -0.0001   -0.0059
          11    0.0022   -0.0289    0.0030   -0.0113    0.0000   -0.0162   -0.0001    0.0334
          12   -0.0044   -0.0042   -0.0489    0.0267    0.0000   -0.0338   -0.0002   -0.0104
          13   -0.0172   -0.0290   -0.0226   -0.0013    0.0001    0.0021    0.0000   -0.0010
          14   -0.0231    0.0285    0.0183   -0.0002    0.0001    0.0007    0.0000   -0.0020
          15    0.0248    0.0180    0.0199    0.0018   -0.0001    0.0016    0.0000    0.0026
          16   -0.0001   -0.0006    0.0022    0.0049    0.3192    0.0000    0.0010    0.0000
          17    0.0001    0.0001    0.0003    0.0036    0.3176    0.0000    0.0010    0.0000
          18    0.0001    0.0005   -0.0017   -0.0004   -0.0072    0.0000   -0.0002    0.0000
          19   -0.0004    0.0012   -0.0221   -0.2313    0.0078   -0.0001    0.0014   -0.0032
          20    0.0009    0.0048   -0.0221   -0.0109    0.0030    0.0003   -0.0008    0.0022
          21   -0.0009   -0.0072    0.0351    0.0813   -0.0056   -0.0008    0.0008   -0.0024
          22    0.0009    0.0066   -0.0281    0.2314   -0.0040    0.0010   -0.0002    0.0037
          23   -0.0004    0.0038   -0.0098    0.0087    0.0001   -0.0012   -0.0001   -0.0022
          24    0.0000   -0.0044    0.0288   -0.0809    0.0007    0.0015    0.0000    0.0024
          25    0.0027    0.0172   -0.0537   -0.0245   -0.0078   -0.0007    0.3070    0.0004
          26    0.0025    0.0136   -0.0388   -0.0022   -0.0091   -0.0007    0.3091    0.0005
          27   -0.0025   -0.0144    0.0371    0.0060   -0.0259   -0.0014    0.6431    0.0012
          28    0.0106   -0.0871   -0.0264    0.0000    0.0004    0.2302    0.0008   -0.2109
          29   -0.0195    0.0699    0.0017   -0.0105    0.0001    0.3561    0.0013   -0.2814
          30    0.0259   -0.0518    0.0559    0.0076   -0.0009    0.1447    0.0007   -0.1388
          31   -0.0210    0.0332   -0.0635    0.0385   -0.0006    0.2752    0.0011    0.2830
          32   -0.0293    0.1131   -0.0107    0.0072   -0.0001   -0.1582   -0.0006   -0.1252
          33    0.0064    0.0411    0.0571   -0.0266    0.0003    0.2611    0.0010    0.2623
          34   -0.0082   -0.0272    0.0112   -0.0016    0.0254    0.0001    0.0093   -0.0006
          35    0.0063    0.0209   -0.0120   -0.0017    0.0138    0.0000   -0.0148    0.0007
          36   -0.0094   -0.0331    0.0279   -0.0030   -0.0005   -0.0001   -0.0260    0.0011
          37   -0.0108   -0.0420    0.0605    0.0039    0.0224    0.0000   -0.0107    0.0013
          38    0.0061    0.0194   -0.0047    0.0029    0.0132    0.0000    0.0134   -0.0011
          39    0.0098    0.0358   -0.0380   -0.0043    0.0009    0.0000   -0.0260    0.0021
          40    0.0045    0.0162   -0.0063    0.0000    0.0139    0.0001   -0.0143    0.0002
          41   -0.0059   -0.0210    0.0067   -0.0061    0.0259   -0.0001    0.0091   -0.0002
          42   -0.0070   -0.0264    0.0195   -0.0039   -0.0007    0.0002   -0.0251    0.0004
          43    0.0045    0.0151    0.0010    0.0025    0.0129   -0.0001    0.0126   -0.0001
          44   -0.0081   -0.0350    0.0555    0.0066    0.0214    0.0001   -0.0096    0.0002
          45    0.0073    0.0288   -0.0295    0.0002    0.0010    0.0002   -0.0245    0.0002
          46    0.1064    0.0794    0.0148    0.0005    0.0003    0.0000    0.0000    0.0127
          47   -0.1370   -0.0935   -0.0357   -0.0061   -0.0002   -0.0002    0.0000    0.0169
          48    0.0009    0.0024    0.0036    0.0021   -0.0001    0.0008   -0.0001   -0.0232
          49    0.1909    0.0472    0.0268   -0.0005   -0.0002   -0.0131   -0.0001   -0.0114
          50    0.2726   -0.0708   -0.0440    0.0011   -0.0003    0.0054    0.0000    0.0043
          51   -0.0576   -0.1091   -0.0639    0.0026    0.0001   -0.0157   -0.0001   -0.0096
          52   -0.1072    0.1016    0.0695   -0.0020    0.0000   -0.0140    0.0000    0.0063
          53    0.1660   -0.0546   -0.0292    0.0001   -0.0001   -0.0152    0.0000    0.0083
          54   -0.2249   -0.0087   -0.0230    0.0001    0.0003   -0.0059    0.0000    0.0050
          55    0.0004    0.0019   -0.0047   -0.0038   -0.1993    0.0000   -0.0002    0.0000
          56    0.0003    0.0018   -0.0045   -0.0036   -0.1985    0.0000   -0.0002    0.0000
          57    0.0000   -0.0001    0.0003    0.0001    0.0047    0.0000    0.0000    0.0000
          58   -0.0019    0.0013    0.0255    0.0146   -0.0008   -0.0176   -0.0007   -0.0331
          59    0.0002   -0.0004   -0.0017   -0.0799    0.0023    0.0112    0.0014    0.0276
          60    0.0028   -0.0027   -0.0162    0.1233   -0.0019   -0.0146   -0.0016   -0.0329
          61    0.0009   -0.0060    0.0368   -0.0172   -0.0014    0.0052   -0.0134    0.0296
          62    0.0012    0.0036    0.0022    0.0799   -0.0022   -0.0031    0.0074   -0.0244
          63   -0.0020   -0.0014   -0.0015   -0.1191   -0.0006    0.0039   -0.0113    0.0293


   Root No.      49        50        51        52        53        54        55        56

                49 A      50 A      51 A      52 A      53 A      54 A      55 A      56 A   

                3033.9    3037.1    3040.4    3042.0    3081.4    3086.2    3104.0    3108.0
  
           1   -0.0011   -0.0005   -0.0003   -0.0010    0.0000    0.0000    0.0006    0.0000
           2   -0.0006   -0.0004    0.0000   -0.0011    0.0000    0.0000   -0.0005    0.0004
           3   -0.0015   -0.0012    0.0004   -0.0024    0.0000    0.0000   -0.0001   -0.0002
           4   -0.0010   -0.0018    0.0001   -0.0005    0.0000    0.0000    0.0201    0.0108
           5    0.0010    0.0011   -0.0001    0.0003    0.0000    0.0000   -0.0197   -0.0106
           6   -0.0144   -0.0400    0.0015   -0.0107    0.0000    0.0000   -0.0033   -0.0017
           7   -0.0001   -0.0001    0.0000    0.0007    0.0000    0.0000    0.0097   -0.0203
           8   -0.0002    0.0003    0.0001   -0.0012    0.0000    0.0000   -0.0098    0.0205
           9    0.0007    0.0100    0.0027   -0.0450    0.0000   -0.0001    0.0010   -0.0019
          10    0.0004   -0.0001   -0.0029   -0.0001   -0.0020    0.0002    0.0000    0.0000
          11   -0.0025    0.0005    0.0038    0.0002    0.0002    0.0026    0.0000    0.0000
          12    0.0011   -0.0003   -0.0030   -0.0001   -0.0017   -0.0004    0.0000    0.0000
          13    0.0000    0.0000   -0.0005    0.0000   -0.0338    0.0228    0.0000    0.0000
          14    0.0003    0.0000   -0.0005   -0.0001   -0.0024    0.0388    0.0000    0.0000
          15   -0.0004    0.0001    0.0002    0.0000   -0.0383   -0.0225    0.0000    0.0000
          16    0.0001    0.0000    0.0000    0.0001    0.0000    0.0000    0.0004   -0.0008
          17    0.0001    0.0001    0.0000    0.0001    0.0000    0.0000   -0.0008   -0.0004
          18   -0.0001   -0.0001    0.0000   -0.0002    0.0000    0.0000    0.0000    0.0000
          19   -0.0303    0.0069    0.0092    0.0018    0.0001    0.0002   -0.0005   -0.0003
          20    0.0228   -0.0053   -0.0033   -0.0016   -0.0001   -0.0001    0.0003    0.0002
          21   -0.0273    0.0065    0.0027    0.0016    0.0001    0.0001   -0.0004   -0.0002
          22   -0.0002   -0.0003   -0.0381   -0.0014    0.0001   -0.0006    0.0000    0.0000
          23    0.0030   -0.0004    0.0282    0.0008   -0.0002    0.0003    0.0000    0.0000
          24   -0.0045    0.0007   -0.0331   -0.0010    0.0003    0.0001    0.0000    0.0000
          25    0.0080    0.0093   -0.0014    0.0130    0.0000    0.0000    0.0013    0.0013
          26    0.0083    0.0053   -0.0012    0.0156    0.0000    0.0000    0.0001    0.0016
          27    0.0185    0.0121   -0.0022    0.0253    0.0000    0.0000    0.0013    0.0027
          28    0.0148   -0.0026   -0.0176   -0.0010    0.0025   -0.0146    0.0000    0.0001
          29    0.0195   -0.0034   -0.0199   -0.0012    0.0098   -0.0240    0.0000    0.0002
          30    0.0097   -0.0017   -0.0135   -0.0007    0.0033   -0.0128    0.0000    0.0001
          31   -0.0246    0.0050    0.0482    0.0023    0.0203    0.0163   -0.0001   -0.0002
          32    0.0100   -0.0020   -0.0250   -0.0011   -0.0120   -0.0062    0.0000    0.0001
          33   -0.0203    0.0040    0.0494    0.0021    0.0151    0.0131   -0.0001   -0.0001
          34   -0.0400   -0.1230    0.0040   -0.0322    0.0000    0.0000   -0.1338   -0.0674
          35    0.0404    0.1241   -0.0041    0.0322    0.0000    0.0000    0.1353    0.0681
          36    0.0707    0.2204   -0.0071    0.0574    0.0000    0.0000    0.2810    0.1417
          37    0.0563    0.1455   -0.0058    0.0383    0.0000    0.0000   -0.1135   -0.0574
          38   -0.0511   -0.1373    0.0052   -0.0358    0.0000    0.0000    0.1059    0.0535
          39    0.0998    0.2651   -0.0101    0.0694    0.0000    0.0000   -0.2406   -0.1219
          40   -0.0025   -0.0324   -0.0086    0.1423   -0.0002    0.0005   -0.0667    0.1312
          41    0.0022    0.0321    0.0087   -0.1421    0.0002   -0.0005    0.0664   -0.1309
          42   -0.0044   -0.0575   -0.0154    0.2538   -0.0003    0.0009   -0.1386    0.2730
          43    0.0020    0.0346    0.0089   -0.1503    0.0000    0.0000   -0.0562    0.1103
          44   -0.0020   -0.0358   -0.0096    0.1572    0.0000   -0.0001    0.0591   -0.1161
          45   -0.0036   -0.0664   -0.0174    0.2897    0.0001   -0.0002    0.1268   -0.2496
          46   -0.0017    0.0003    0.0040    0.0003   -0.0747   -0.1935   -0.0002    0.0003
          47   -0.0021    0.0004    0.0044    0.0004   -0.0603   -0.1919   -0.0002    0.0003
          48    0.0030   -0.0006   -0.0074   -0.0006    0.0781    0.3400    0.0003   -0.0005
          49    0.0028   -0.0006    0.0014   -0.0001    0.3224    0.0951   -0.0001    0.0001
          50   -0.0012    0.0003   -0.0008    0.0000   -0.1678   -0.0208    0.0000   -0.0001
          51    0.0022   -0.0005   -0.0004   -0.0001    0.2826    0.0627   -0.0001    0.0001
          52   -0.0004    0.0000    0.0022    0.0003    0.1579   -0.1736   -0.0001    0.0002
          53   -0.0005    0.0000    0.0037    0.0005    0.2562   -0.2513   -0.0002    0.0003
          54   -0.0004    0.0000    0.0018    0.0003    0.0966   -0.1344   -0.0001    0.0002
          55    0.0000    0.0000    0.0000    0.0000    0.0000    0.0000    0.0001    0.0003
          56    0.0000    0.0000    0.0000    0.0000    0.0000    0.0000    0.0001    0.0003
          57    0.0000   -0.0001    0.0000   -0.0001    0.0000    0.0000    0.0000    0.0000
          58    0.0458   -0.0068    0.3946    0.0121   -0.0034    0.0023    0.0001    0.0003
          59   -0.0363    0.0052   -0.3347   -0.0105    0.0021   -0.0020   -0.0001   -0.0001
          60    0.0438   -0.0062    0.4110    0.0129   -0.0019    0.0032    0.0001    0.0002
          61    0.3237   -0.0772   -0.0421   -0.0185   -0.0010   -0.0013    0.0055    0.0034
          62   -0.2710    0.0633    0.0383    0.0150    0.0010    0.0012   -0.0039   -0.0025
          63    0.3334   -0.0779   -0.0483   -0.0184   -0.0012   -0.0014    0.0047    0.0030


   Root No.      57

                57 A   

                3183.2
  
           1    0.0000
           2    0.0000
           3    0.0000
           4    0.0000
           5    0.0000
           6    0.0000
           7    0.0000
           8    0.0000
           9    0.0000
          10    0.0003
          11   -0.0001
          12   -0.0004
          13    0.0144
          14   -0.0154
          15   -0.0129
          16    0.0000
          17    0.0000
          18    0.0000
          19    0.0000
          20    0.0000
          21    0.0000
          22   -0.0002
          23    0.0001
          24    0.0000
          25    0.0000
          26    0.0000
          27    0.0000
          28   -0.0007
          29   -0.0020
          30   -0.0012
          31    0.0025
          32   -0.0015
          33    0.0013
          34    0.0000
          35    0.0000
          36    0.0000
          37    0.0000
          38    0.0000
          39    0.0000
          40    0.0000
          41    0.0000
          42    0.0001
          43    0.0001
          44   -0.0001
          45   -0.0002
          46   -0.1424
          47   -0.1607
          48    0.2493
          49   -0.2142
          50    0.1010
          51   -0.2019
          52    0.1805
          53    0.2481
          54    0.1099
          55    0.0000
          56    0.0000
          57    0.0000
          58    0.0017
          59   -0.0012
[...]
 FREQ.      1338.72        C  4 --  H 11          +15.2% ( 54.3%)     0.0%
 T-DIPOLE    0.0888        C  4 --  H 10          +14.7% ( 53.3%)     0.1%
 TRAVEL      0.0907        C  4 --  C  8          +14.5% ( 53.0%)    84.8%
 RED. MASS   1.0407        C  4 --  C  5           +8.9% ( 41.4%)    44.3%
 EFF. MASS   6.1177

 VIBRATION   37   37A       ATOM PAIR        ENERGY CONTRIBUTION    RADIAL
 FREQ.      1385.87        C  3 --  H 14          +21.3% ( 50.1%)     3.4%
 T-DIPOLE    0.3018        C  3 --  H 15          +20.2% ( 48.7%)     4.4%
 TRAVEL      0.1354        C  2 --  H 13           +8.4% ( 31.3%)     2.7%
 RED. MASS   0.2627        C  2 --  H 12           +6.9% ( 28.5%)     5.6%
 EFF. MASS   2.6554

 VIBRATION   38   38A       ATOM PAIR        ENERGY CONTRIBUTION    RADIAL
 FREQ.      1387.50        C  1 --  C  7          +10.3% ( 40.1%)    92.1%
 T-DIPOLE    0.2287        C  4 --  H 10           +9.8% ( 38.9%)     3.1%
 TRAVEL      0.1051        C  4 --  H 11           +9.1% ( 37.7%)     5.0%
 RED. MASS   0.3788        C  2 --  H 12           +7.7% ( 34.7%)     1.6%
 EFF. MASS   4.3968

 VIBRATION   39   39A       ATOM PAIR        ENERGY CONTRIBUTION    RADIAL
 FREQ.      1404.45        C  2 --  H 12          +13.3% ( 41.4%)     4.4%
 T-DIPOLE    0.0263        C  2 --  H 13          +13.1% ( 41.1%)     4.8%
 TRAVEL      0.1205        C  3 --  H 14           +9.9% ( 35.7%)     4.7%
 RED. MASS   0.2669        C  3 --  H 15           +9.6% ( 35.2%)     5.2%
 EFF. MASS   3.3088

 VIBRATION   40   40A       ATOM PAIR        ENERGY CONTRIBUTION    RADIAL
 FREQ.      1406.99        C  5 --  H 16          +49.2% ( 61.8%)     0.2%
 T-DIPOLE    0.0476        C  5 --  H 18          +24.9% ( 43.9%)     8.1%
 TRAVEL      0.1699        C  5 --  H 17          +14.6% ( 33.6%)    16.0%
 RED. MASS   0.3955        C  4 --  C  5           +5.3% ( 20.4%)    18.2%
 EFF. MASS   1.6598

 VIBRATION   41   41A       ATOM PAIR        ENERGY CONTRIBUTION    RADIAL
 FREQ.      1411.29        C  5 --  H 17          +44.4% ( 58.3%)     0.6%
 T-DIPOLE    0.0600        C  5 --  H 18          +35.3% ( 52.0%)     2.0%
 TRAVEL      0.1713        C  5 --  H 16          +12.4% ( 30.8%)    35.7%
 RED. MASS   0.3950        C  4 --  C  5           +5.6% ( 20.7%)     4.7%
 EFF. MASS   1.6290

 VIBRATION   42   42A       ATOM PAIR        ENERGY CONTRIBUTION    RADIAL
 FREQ.      1416.88        C  5 --  H 17          +14.3% ( 46.9%)     4.8%
 T-DIPOLE    0.0692        C  4 --  C  5          +14.1% ( 46.5%)    95.1%
 TRAVEL      0.1013        C  5 --  H 16          +13.0% ( 44.7%)     2.7%
 RED. MASS   0.5537        C  5 --  H 18          +12.4% ( 43.7%)     2.7%
 EFF. MASS   4.6385

 VIBRATION   43   43A       ATOM PAIR        ENERGY CONTRIBUTION    RADIAL
 FREQ.      1441.50        C  1 --  C  7          +15.4% ( 64.7%)    95.8%
 T-DIPOLE    0.3465        C  4 --  C  8           +9.8% ( 51.7%)    86.0%
 TRAVEL      0.0689        C  1 --  C  2           +9.5% ( 50.7%)    54.2%
 RED. MASS   1.9726        C  1 --  H  9           +9.3% ( 50.5%)     0.2%
 EFF. MASS   9.8427

 VIBRATION   44   44A       ATOM PAIR        ENERGY CONTRIBUTION    RADIAL
 FREQ.      1887.98        C  7 --  C  8          +43.6% ( 97.6%)    96.4%
 T-DIPOLE    0.3450        C  1 --  C  7          +14.3% ( 55.9%)    54.7%
 TRAVEL      0.0550        C  4 --  C  8          +14.1% ( 55.6%)    55.0%
 RED. MASS   5.3720        C  8 --  H 20          +13.2% ( 53.7%)     3.5%
 EFF. MASS  11.8184        C  7 --  H 21          +13.2% ( 53.7%)     3.7%

 VIBRATION   45   45A       ATOM PAIR        ENERGY CONTRIBUTION    RADIAL
 FREQ.      2074.54        C  6 --  O 19          +41.9% ( 98.8%)   100.0%
 T-DIPOLE    5.0525        C  1 --  C  6          +19.2% ( 66.9%)    99.9%
 TRAVEL      0.0495        C  3 --  C  6          +19.1% ( 66.7%)    53.0%
 RED. MASS   6.8763        C  2 --  C  6          +19.1% ( 66.7%)    52.8%
 EFF. MASS  13.2857

 VIBRATION   46   46A       ATOM PAIR        ENERGY CONTRIBUTION    RADIAL
 FREQ.      2945.17        C  4 --  H 10          +52.4% ( 75.2%)    96.9%
 T-DIPOLE    0.0281        C  4 --  H 11          +44.8% ( 69.5%)    96.1%
 TRAVEL      0.1218        C  4 --  C  5           +1.2% ( 11.2%)     0.0%
 RED. MASS   0.5170        C  4 --  C  8           +1.2% ( 11.1%)     0.2%
 EFF. MASS   1.5438

 VIBRATION   47   47A       ATOM PAIR        ENERGY CONTRIBUTION    RADIAL
 FREQ.      2949.22        C  1 --  H  9          +95.1% ( 99.7%)   100.0%
 T-DIPOLE    0.1140        C  1 --  C  2           +1.0% ( 10.5%)    13.4%
 TRAVEL      0.1256        C  1 --  C  3           +1.0% ( 10.5%)    13.3%
 RED. MASS   0.9170        C  1 --  C  6           +1.0% ( 10.4%)    32.4%
 EFF. MASS   1.4484

 VIBRATION   48   48A       ATOM PAIR        ENERGY CONTRIBUTION    RADIAL
 FREQ.      3024.39        C  4 --  H 11          +51.8% ( 71.0%)    98.1%
 T-DIPOLE    0.0513        C  4 --  H 10          +44.5% ( 65.8%)    97.2%
 TRAVEL      0.1318        C  8 --  H 20           +1.0% (  9.9%)    99.6%
 RED. MASS   0.4652        C  7 --  H 21           +0.8% (  8.9%)    99.8%
 EFF. MASS   1.2841

 VIBRATION   49   49A       ATOM PAIR        ENERGY CONTRIBUTION    RADIAL
 FREQ.      3033.90        C  7 --  H 21          +87.4% ( 94.9%)   100.0%
 T-DIPOLE    0.3346        C  2 --  H 13           +5.0% ( 22.6%)    98.3%
 TRAVEL      0.1217        C  2 --  H 12           +2.7% ( 16.8%)    94.6%
 RED. MASS   0.7585        C  8 --  H 20           +1.5% ( 12.6%)    99.1%
 EFF. MASS   1.5001

 VIBRATION   50   50A       ATOM PAIR        ENERGY CONTRIBUTION    RADIAL
 FREQ.      3037.15        C  2 --  H 13          +48.7% ( 72.5%)    97.6%
 T-DIPOLE    0.1305        C  2 --  H 12          +35.9% ( 62.2%)    95.9%
 TRAVEL      0.1207        C  7 --  H 21           +6.7% ( 26.9%)   100.0%
 RED. MASS   0.4057        C  3 --  H 15           +3.0% ( 18.1%)    97.5%
 EFF. MASS   1.5242

 VIBRATION   51   51A       ATOM PAIR        ENERGY CONTRIBUTION    RADIAL
 FREQ.      3040.45        C  8 --  H 20          +94.2% ( 98.4%)   100.0%
 T-DIPOLE    0.2103        C  7 --  C  8           +1.6% ( 13.0%)    39.4%
 TRAVEL      0.1206        C  4 --  C  8           +1.3% ( 11.6%)    12.8%
 RED. MASS   0.8755        C  7 --  H 21           +1.3% ( 11.5%)    98.6%
 EFF. MASS   1.5258

 VIBRATION   52   52A       ATOM PAIR        ENERGY CONTRIBUTION    RADIAL
 FREQ.      3041.95        C  3 --  H 15          +50.1% ( 73.7%)    97.4%
 T-DIPOLE    0.2657        C  3 --  H 14          +40.8% ( 66.5%)    96.2%
 TRAVEL      0.1200        C  2 --  H 13           +2.9% ( 17.7%)    97.6%
 RED. MASS   0.4627        C  2 --  H 12           +2.1% ( 15.1%)    95.7%
 EFF. MASS   1.5388

 VIBRATION   53   53A       ATOM PAIR        ENERGY CONTRIBUTION    RADIAL
 FREQ.      3081.39        C  5 --  H 17          +63.1% ( 81.9%)    98.6%
 T-DIPOLE    0.0072        C  5 --  H 18          +30.4% ( 56.8%)    92.9%
 TRAVEL      0.1207        C  5 --  H 16           +5.3% ( 23.8%)    56.5%
 RED. MASS   0.5207        C  4 --  C  5           +1.0% ( 10.2%)     0.0%
 EFF. MASS   1.5013

 VIBRATION   54   54A       ATOM PAIR        ENERGY CONTRIBUTION    RADIAL
 FREQ.      3086.23        C  5 --  H 16          +59.0% ( 79.2%)    98.4%
 T-DIPOLE    0.0114        C  5 --  H 18          +34.8% ( 60.8%)    94.1%
 TRAVEL      0.1205        C  5 --  H 17           +4.8% ( 22.7%)    52.8%
 RED. MASS   0.4997        C  4 --  C  5           +1.0% ( 10.3%)     0.0%
 EFF. MASS   1.5044

 VIBRATION   55   55A       ATOM PAIR        ENERGY CONTRIBUTION    RADIAL
 FREQ.      3103.95        C  2 --  H 12          +45.9% ( 67.2%)    98.2%
 T-DIPOLE    0.3221        C  2 --  H 13          +32.1% ( 56.2%)    95.9%
 TRAVEL      0.1310        C  3 --  H 14          +11.1% ( 33.1%)    98.0%
 RED. MASS   0.3349        C  3 --  H 15           +8.9% ( 29.6%)    96.7%
 EFF. MASS   1.2662

 VIBRATION   56   56A       ATOM PAIR        ENERGY CONTRIBUTION    RADIAL
 FREQ.      3107.95        C  3 --  H 14          +43.3% ( 65.3%)    97.7%
 T-DIPOLE    0.1064        C  3 --  H 15          +34.5% ( 58.3%)    96.2%
 TRAVEL      0.1292        C  2 --  H 12          +11.7% ( 33.9%)    97.9%
 RED. MASS   0.3307        C  2 --  H 13           +8.2% ( 28.5%)    95.4%
 EFF. MASS   1.2995

 VIBRATION   57   57A       ATOM PAIR        ENERGY CONTRIBUTION    RADIAL
 FREQ.      3183.15        C  5 --  H 16          +34.8% ( 56.8%)    97.4%
 T-DIPOLE    0.0273        C  5 --  H 18          +34.1% ( 56.2%)    97.3%
 TRAVEL      0.1365        C  5 --  H 17          +30.8% ( 53.4%)    96.7%
 RED. MASS   0.3278        C  4 --  C  5           +0.3% (  5.1%)    99.7%
 EFF. MASS   1.1361

 SYMMETRY NUMBER FOR POINT-GROUP C1  =  1


          SYSTEM IS A GROUND STATE


    NULL



          MOLECULE IS NOT LINEAR

          THERE ARE 57 GENUINE VIBRATIONS IN THIS SYSTEM
          THIS THERMODYNAMICS CALCULATION IS LIMITED TO
          MOLECULES WHICH HAVE NO INTERNAL ROTATIONS




                    CALCULATED THERMODYNAMIC PROPERTIES
                                          *
   TEMP. (K)   PARTITION FUNCTION   H.O.F.    ENTHALPY  HEAT CAPACITY ENTROPY
                                   KCAL/MOL   CAL/MOLE    CAL/K/MOL  CAL/K/MOL


 298.00  VIB.     0.6971D+03                  4210.8472    28.8340    27.1405
         ROT.     0.6539D+06                   888.2813     2.9808    29.5909
         INT.     0.4558D+09                  5099.1285    31.8148    56.7314
         TRA.     0.1338D+28                  1480.4688     4.9680    40.3614
         TOT.                      -28.601    6579.5973    36.7828    97.0927

 200.00  VIB.     0.6731D+02                  1910.3031    18.4732    17.9163
         ROT.     0.3595D+06                   596.1620     2.9808    28.4022
         INT.     0.2420D+08                  2506.4651    21.4540    46.3185
         TRA.     0.7356D+27                   993.6033     4.9680    38.3802
         TOT.                      -31.680    3500.0683    26.4220    84.6988

 210.00  VIB.     0.8556D+02                  2099.7410    19.4193    18.8404
         ROT.     0.3868D+06                   625.9700     2.9808    28.5477
         INT.     0.3310D+08                  2725.7110    22.4002    47.3881
         TRA.     0.7914D+27                  1043.2834     4.9680    38.6226
         TOT.                      -31.411    3768.9944    27.3682    86.0107

 220.00  VIB.     0.1087D+03                  2298.7887    20.3951    19.7662
         ROT.     0.4148D+06                   655.7781     2.9808    28.6863
         INT.     0.4509D+08                  2954.5669    23.3759    48.4525
         TRA.     0.8486D+27                  1092.9636     4.9680    38.8537
         TOT.                      -31.133    4047.5305    28.3440    87.3062

 230.00  VIB.     0.1380D+03                  2507.7406    21.4000    20.6948
         ROT.     0.4434D+06                   685.5862     2.9808    28.8188
         INT.     0.6119D+08                  3193.3268    24.3808    49.5137
         TRA.     0.9072D+27                  1142.6437     4.9680    39.0746
         TOT.                      -30.844    4335.9705    29.3488    88.5882

 240.00  VIB.     0.1752D+03                  2726.8807    22.4325    21.6273
         ROT.     0.4726D+06                   715.3943     2.9808    28.9457
         INT.     0.8278D+08                  3442.2751    25.4133    50.5730
         TRA.     0.9670D+27                  1192.3239     4.9680    39.2860
         TOT.                      -30.546    4634.5990    30.3813    89.8590

 250.00  VIB.     0.2223D+03                  2956.4759    23.4906    22.5644
         ROT.     0.5025D+06                   745.2024     2.9808    29.0674
         INT.     0.1117D+09                  3701.6784    26.4714    51.6318
         TRA.     0.1028D+28                  1242.0041     4.9680    39.4888
         TOT.                      -30.236    4943.6824    31.4394    91.1206

 260.00  VIB.     0.2820D+03                  3196.7692    24.5716    23.5068
         ROT.     0.5329D+06                   775.0105     2.9808    29.1843
         INT.     0.1503D+09                  3971.7798    27.5525    52.6910
         TRA.     0.1090D+28                  1291.6842     4.9680    39.6837
         TOT.                      -29.917    5263.4640    32.5205    92.3747

 270.00  VIB.     0.3577D+03                  3447.9755    25.6727    24.4547
         ROT.     0.5639D+06                   804.8186     2.9808    29.2968
         INT.     0.2017D+09                  4252.7941    28.6535    53.7515
         TRA.     0.1154D+28                  1341.3644     4.9680    39.8712
         TOT.                      -29.586    5594.1585    33.6215    93.6226

 280.00  VIB.     0.4539D+03                  3710.2783    26.7904    25.4085
         ROT.     0.5956D+06                   834.6267     2.9808    29.4052
         INT.     0.2703D+09                  4544.9050    29.7712    54.8137
         TRA.     0.1219D+28                  1391.0445     4.9680    40.0518
         TOT.                      -29.244    5935.9496    34.7392    94.8655

 290.00  VIB.     0.5760D+03                  3983.8287    27.9216    26.3683
         ROT.     0.6277D+06                   864.4348     2.9808    29.5098
         INT.     0.3616D+09                  4848.2635    30.9024    55.8781
         TRA.     0.1284D+28                  1440.7247     4.9680    40.2262
         TOT.                      -28.891    6288.9882    35.8704    96.1043

 300.00  VIB.     0.7312D+03                  4268.7440    29.0629    27.3341
         ROT.     0.6605D+06                   894.2429     2.9808    29.6109
         INT.     0.4829D+09                  5162.9869    32.0437    56.9449
         TRA.     0.1351D+28                  1490.4049     4.9680    40.3946
         TOT.                      -28.527    6653.3918    37.0117    97.3395

 310.00  VIB.     0.9285D+03                  4565.1087    30.2110    28.3058
         ROT.     0.6938D+06                   924.0510     2.9808    29.7086
         INT.     0.6442D+09                  5489.1597    33.1918    58.0144
         TRA.     0.1419D+28                  1540.0850     4.9680    40.5575
         TOT.                      -28.151    7029.2448    38.1598    98.5718

 320.00  VIB.     0.1179D+04                  4872.9753    31.3627    29.2831
         ROT.     0.7276D+06                   953.8591     2.9808    29.8032
         INT.     0.8582D+09                  5826.8344    34.3435    59.0863
         TRA.     0.1489D+28                  1589.7652     4.9680    40.7152
         TOT.                      -27.764    7416.5996    39.3116    99.8016

 330.00  VIB.     0.1499D+04                  5192.3659    32.5153    30.2658
         ROT.     0.7620D+06                   983.6672     2.9808    29.8950
         INT.     0.1142D+10                  6176.0331    35.4961    60.1608
         TRA.     0.1559D+28                  1639.4454     4.9680    40.8681
         TOT.                      -27.365    7815.4785    40.4641   101.0289

 340.00  VIB.     0.1906D+04                  5523.2743    33.6659    31.2536
         ROT.     0.7969D+06                  1013.4753     2.9808    29.9839
         INT.     0.1519D+10                  6536.7496    36.6467    61.2375
         TRA.     0.1630D+28                  1689.1255     4.9680    41.0164
         TOT.                      -26.954    8225.8751    41.6147   102.2540

 350.00  VIB.     0.2424D+04                  5865.6681    34.8120    32.2460
         ROT.     0.8323D+06                  1043.2834     2.9808    30.0703
         INT.     0.2018D+10                  6908.9515    37.7928    62.3164
         TRA.     0.1703D+28                  1738.8057     4.9680    41.1604
         TOT.                      -26.532    8647.7572    42.7608   103.4768

 360.00  VIB.     0.3086D+04                  6219.4913    35.9514    33.2427
         ROT.     0.8682D+06                  1073.0915     2.9808    30.1543
         INT.     0.2679D+10                  7292.5828    38.9322    63.3970
         TRA.     0.1776D+28                  1788.4859     4.9680    41.3004
         TOT.                      -26.099    9081.0686    43.9002   104.6974

 370.00  VIB.     0.3930D+04                  6584.6666    37.0821    34.2432
         ROT.     0.9047D+06                  1102.8996     2.9808    30.2360
         INT.     0.3555D+10                  7687.5662    40.0629    64.4792
         TRA.     0.1851D+28                  1838.1660     4.9680    41.4365
         TOT.                      -25.654    9525.7322    45.0309   105.9157

 380.00  VIB.     0.5007D+04                  6961.0980    38.2023    35.2470
         ROT.     0.9416D+06                  1132.7077     2.9808    30.3155
         INT.     0.4715D+10                  8093.8057    41.1831    65.5625
         TRA.     0.1926D+28                  1887.8462     4.9680    41.5690
         TOT.                      -25.198    9981.6519    46.1511   107.1315

 390.00  VIB.     0.6384D+04                  7348.6730    39.3106    36.2537
         ROT.     0.9790D+06                  1162.5158     2.9808    30.3929
         INT.     0.6250D+10                  8511.1888    42.2914    66.6466
         TRA.     0.2003D+28                  1937.5263     4.9680    41.6980
         TOT.                      -24.731   10448.7152    47.2594   108.3446

 400.00  VIB.     0.8143D+04                  7747.2651    40.4055    37.2628
         ROT.     0.1017D+07                  1192.3239     2.9808    30.4684
         INT.     0.8281D+10                  8939.5890    43.3863    67.7312
         TRA.     0.2081D+28                  1987.2065     4.9680    41.8238
         TOT.                      -24.253   10926.7955    48.3544   109.5550

   *: NOTE: HEATS OF FORMATION ARE RELATIVE TO THE
            ELEMENTS IN THEIR STANDARD STATE AT 298K
              (=  Standard Enthalpy of Formation).

            Hvib:  Zero-point energy is not included.
                   frequencies of less than zero cm-1 are not included.
            Hrot = (3/2)RT
            Htra = (3/2)RT + pV = (5/2)RT

            Heat capacity is Cp, not Cv

           For more information, see: HTTP://OpenMOPAC.net/Manual/thermochemistry.html


           FORCE CONSTANT IN CARTESIAN COORDINATES (Millidynes/A)

    ATOM   CHEMICAL       X               Y               Z
   NUMBER   SYMBOL  FORCE CONSTANT  FORCE CONSTANT  FORCE CONSTANT

      1       C        8.260808        7.701498        9.071095
      2       C        7.745954        7.992208        8.225690
      3       C        8.008766        7.652866        8.215535
      4       C        8.453182        8.280770        8.690294
      5       C        8.264001        8.221702        8.370300
      6       C       13.290667       13.214084        2.948378
      7       C       15.005056        4.651039        7.702978
      8       C       14.964512        4.575679        7.702837
      9       H        1.338261        1.322149        3.515531
     10       H        1.893334        3.222597        1.161017
     11       H        2.720264        1.198170        2.481097
     12       H        1.468439        1.429944        3.670272
     13       H        1.506467        1.345310        3.690670
     14       H        1.429447        1.477266        3.659409
     15       H        1.348178        1.469139        3.722095
     16       H        1.635669        1.704507        3.454972
     17       H        3.011273        1.251409        2.522953
     18       H        2.005564        3.519799        1.259327
     19       O        8.786281        8.723842        0.356317
     20       H        2.297744        1.590234        2.324535
     21       H        2.332652        1.568579        2.305034



 TOTAL CPU TIME:             2.49 SECONDS

 == MOPAC DONE ==
