 *******************************************************************************
 ** Site#: 14399           For non-commercial use only        Version 13.159M **
 *******************************************************************************
 ** Cite this work as: MOPAC2012, James J. P. Stewart, Stewart Computational  **
 ** Chemistry, Version 13.159M web: HTTP://OpenMOPAC.net  Days remaining:   6 **
 *******************************************************************************
 **                                                                           **
 **                                MOPAC2012                                  **
 **                                                                           **
 *******************************************************************************

                            PM3 CALCULATION RESULTS


 *******************************************************************************
 *  CALCULATION DONE:                                Mon Jun  2 11:14:01 2014  *
 *  PM3      - The PM3 Hamiltonian to be used
 *  PRECISE  - CRITERIA TO BE INCREASED BY 100 TIMES
 *  NOSYM    - POINT-GROUP SYMMETRY SET TO C1
 *  T=       - A TIME OF 172800.0 SECONDS REQUESTED
 *  DUMP=N   - RESTART FILE WRITTEN EVERY  7200.000 SECONDS
 *******************************************************************************
pm3  precise nosym
 InChI=1S/C10H12/c1-2-6-9(5-1)10-7-3-4-8-10/h1-3,5-7,9-10H,4,8H2

   ATOM   CHEMICAL          X               Y               Z
  NUMBER   SYMBOL      (ANGSTROMS)     (ANGSTROMS)     (ANGSTROMS)
 
     1       C          0.43230000  *  -0.09010000  *  -0.29450000  *
     2       C         -0.91600000  *  -0.07560000  *   0.45010000  *
     3       C          1.32340000  *   1.12740000  *   0.00740000  *
     4       C          2.72320000  *   0.59610000  *   0.31440000  *
     5       C          1.29710000  *  -1.24110000  *   0.10320000  *
     6       C         -1.80170000  *  -1.23160000  *   0.08670000  *
     7       C         -1.79380000  *   1.06250000  *   0.01930000  *
     8       C          2.52500000  *  -0.87100000  *   0.42690000  *
     9       C         -2.93620000  *  -0.81970000  *  -0.45260000  *
    10       C         -2.93110000  *   0.62770000  *  -0.49540000  *
    11       H          0.26180000  *  -0.16870000  *  -1.39530000  *
    12       H         -0.76970000  *  -0.04500000  *   1.55520000  *
    13       H          0.96100000  *   1.69980000  *   0.89420000  *
    14       H          1.33890000  *   1.84000000  *  -0.84980000  *
    15       H          3.43650000  *   0.80950000  *  -0.51460000  *
    16       H          3.12390000  *   1.00740000  *   1.26940000  *
    17       H         -1.56120000  *  -2.27720000  *   0.24990000  *
    18       H         -1.54340000  *   2.11400000  *   0.11840000  *
    19       H          0.98650000  *  -2.28380000  *   0.07400000  *
    20       H          3.31110000  *  -1.57310000  *   0.69810000  *
    21       H         -3.73900000  *  -1.46560000  *  -0.79250000  *
    22       H         -3.72880000  *   1.25810000  *  -0.87410000  *
 


          CARTESIAN COORDINATES 

    NO.       ATOM         X         Y         Z

     1         C        0.4323   -0.0901   -0.2945
     2         C       -0.9160   -0.0756    0.4501
     3         C        1.3234    1.1274    0.0074
     4         C        2.7232    0.5961    0.3144
     5         C        1.2971   -1.2411    0.1032
     6         C       -1.8017   -1.2316    0.0867
     7         C       -1.7938    1.0625    0.0193
     8         C        2.5250   -0.8710    0.4269
     9         C       -2.9362   -0.8197   -0.4526
    10         C       -2.9311    0.6277   -0.4954
    11         H        0.2618   -0.1687   -1.3953
    12         H       -0.7697   -0.0450    1.5552
    13         H        0.9610    1.6998    0.8942
    14         H        1.3389    1.8400   -0.8498
    15         H        3.4365    0.8095   -0.5146
    16         H        3.1239    1.0074    1.2694
    17         H       -1.5612   -2.2772    0.2499
    18         H       -1.5434    2.1140    0.1184
    19         H        0.9865   -2.2838    0.0740
    20         H        3.3111   -1.5731    0.6981
    21         H       -3.7390   -1.4656   -0.7925
    22         H       -3.7288    1.2581   -0.8741

  H: (PM3): J. J. P. STEWART, J. COMP. CHEM. 10, 209 (1989).
  C: (PM3): J. J. P. STEWART, J. COMP. CHEM. 10, 209 (1989).

           Empirical Formula: C10 H12  =    22 atoms



      MOLECULAR POINT GROUP   :   C1  


      RHF CALCULATION, NO. OF DOUBLY OCCUPIED LEVELS =   26

      Geometry optimization using EF

          DIAGONAL MATRIX USED AS START HESSIAN

 CYCLE:     1 TIME:   0.010 TIME LEFT:  2.00D  GRAD.:   116.787 HEAT: 48.71155
 CYCLE:     2 TIME:   0.020 TIME LEFT:  2.00D  GRAD.:    67.636 HEAT: 46.88363
 CYCLE:     3 TIME:   0.007 TIME LEFT:  2.00D  GRAD.:    33.150 HEAT: 45.61267
 CYCLE:     4 TIME:   0.013 TIME LEFT:  2.00D  GRAD.:    29.042 HEAT: 45.12527
 CYCLE:     5 TIME:   0.007 TIME LEFT:  2.00D  GRAD.:    38.444 HEAT: 44.82858
 CYCLE:     6 TIME:   0.007 TIME LEFT:  2.00D  GRAD.:    29.444 HEAT: 44.45746
 CYCLE:     7 TIME:   0.013 TIME LEFT:  2.00D  GRAD.:    28.288 HEAT: 44.28616
 CYCLE:     8 TIME:   0.007 TIME LEFT:  2.00D  GRAD.:    26.291 HEAT: 44.19628
 CYCLE:     9 TIME:   0.007 TIME LEFT:  2.00D  GRAD.:    19.635 HEAT: 44.06941
 CYCLE:    10 TIME:   0.013 TIME LEFT:  2.00D  GRAD.:    16.414 HEAT: 44.00659
 CYCLE:    11 TIME:   0.007 TIME LEFT:  2.00D  GRAD.:    15.909 HEAT: 43.97856
 CYCLE:    12 TIME:   0.007 TIME LEFT:  2.00D  GRAD.:    13.897 HEAT: 43.94937
 CYCLE:    13 TIME:   0.007 TIME LEFT:  2.00D  GRAD.:    10.955 HEAT: 43.91174
 CYCLE:    14 TIME:   0.013 TIME LEFT:  2.00D  GRAD.:     6.240 HEAT: 43.88273
 CYCLE:    15 TIME:   0.012 TIME LEFT:  2.00D  GRAD.:     4.431 HEAT: 43.87034
 CYCLE:    16 TIME:   0.007 TIME LEFT:  2.00D  GRAD.:     4.941 HEAT: 43.85903
 CYCLE:    17 TIME:   0.007 TIME LEFT:  2.00D  GRAD.:     5.686 HEAT: 43.84419
 CYCLE:    18 TIME:   0.007 TIME LEFT:  2.00D  GRAD.:     6.108 HEAT: 43.82909
 CYCLE:    19 TIME:   0.013 TIME LEFT:  2.00D  GRAD.:     6.782 HEAT: 43.82204
 CYCLE:    20 TIME:   0.007 TIME LEFT:  2.00D  GRAD.:     5.020 HEAT: 43.80927
 CYCLE:    21 TIME:   0.007 TIME LEFT:  2.00D  GRAD.:     5.673 HEAT: 43.80494
 CYCLE:    22 TIME:   0.007 TIME LEFT:  2.00D  GRAD.:     5.437 HEAT: 43.80185
 CYCLE:    23 TIME:   0.007 TIME LEFT:  2.00D  GRAD.:     6.026 HEAT: 43.80062
 CYCLE:    24 TIME:   0.007 TIME LEFT:  2.00D  GRAD.:     4.768 HEAT: 43.79580
 CYCLE:    25 TIME:   0.007 TIME LEFT:  2.00D  GRAD.:     1.994 HEAT: 43.78930
 CYCLE:    26 TIME:   0.007 TIME LEFT:  2.00D  GRAD.:     2.364 HEAT: 43.78818
 CYCLE:    27 TIME:   0.007 TIME LEFT:  2.00D  GRAD.:     1.554 HEAT: 43.78542
 CYCLE:    28 TIME:   0.007 TIME LEFT:  2.00D  GRAD.:     1.772 HEAT: 43.78225
 CYCLE:    29 TIME:   0.007 TIME LEFT:  2.00D  GRAD.:     2.618 HEAT: 43.77628
 CYCLE:    30 TIME:   0.007 TIME LEFT:  2.00D  GRAD.:     2.172 HEAT: 43.76945
 CYCLE:    31 TIME:   0.007 TIME LEFT:  2.00D  GRAD.:     2.084 HEAT: 43.76407
 CYCLE:    32 TIME:   0.007 TIME LEFT:  2.00D  GRAD.:     5.148 HEAT: 43.76297
 CYCLE:    33 TIME:   0.007 TIME LEFT:  2.00D  GRAD.:     2.285 HEAT: 43.75350
 CYCLE:    34 TIME:   0.007 TIME LEFT:  2.00D  GRAD.:     1.931 HEAT: 43.74775
 CYCLE:    35 TIME:   0.007 TIME LEFT:  2.00D  GRAD.:     2.551 HEAT: 43.73900
 CYCLE:    36 TIME:   0.007 TIME LEFT:  2.00D  GRAD.:     2.246 HEAT: 43.73310
 CYCLE:    37 TIME:   0.010 TIME LEFT:  2.00D  GRAD.:     1.657 HEAT: 43.72853
 CYCLE:    38 TIME:   0.008 TIME LEFT:  2.00D  GRAD.:     1.437 HEAT: 43.72461
 CYCLE:    39 TIME:   0.007 TIME LEFT:  2.00D  GRAD.:     1.674 HEAT: 43.72056
 CYCLE:    40 TIME:   0.007 TIME LEFT:  2.00D  GRAD.:     1.497 HEAT: 43.71698
 CYCLE:    41 TIME:   0.007 TIME LEFT:  2.00D  GRAD.:     1.235 HEAT: 43.71391
 CYCLE:    42 TIME:   0.007 TIME LEFT:  2.00D  GRAD.:     1.250 HEAT: 43.71099
 CYCLE:    43 TIME:   0.007 TIME LEFT:  2.00D  GRAD.:     1.620 HEAT: 43.70749
 CYCLE:    44 TIME:   0.007 TIME LEFT:  2.00D  GRAD.:     1.699 HEAT: 43.70373
 CYCLE:    45 TIME:   0.007 TIME LEFT:  2.00D  GRAD.:     1.259 HEAT: 43.70043
 CYCLE:    46 TIME:   0.011 TIME LEFT:  2.00D  GRAD.:     1.012 HEAT: 43.69807
 CYCLE:    47 TIME:   0.008 TIME LEFT:  2.00D  GRAD.:     1.090 HEAT: 43.69625
 CYCLE:    48 TIME:   0.007 TIME LEFT:  2.00D  GRAD.:     1.166 HEAT: 43.69407
 CYCLE:    49 TIME:   0.007 TIME LEFT:  2.00D  GRAD.:     0.990 HEAT: 43.69166
 CYCLE:    50 TIME:   0.007 TIME LEFT:  2.00D  GRAD.:     0.967 HEAT: 43.68951
 CYCLE:    51 TIME:   0.007 TIME LEFT:  2.00D  GRAD.:     1.054 HEAT: 43.68754
 CYCLE:    52 TIME:   0.007 TIME LEFT:  2.00D  GRAD.:     0.967 HEAT: 43.68568
 CYCLE:    53 TIME:   0.007 TIME LEFT:  2.00D  GRAD.:     0.761 HEAT: 43.68431
 CYCLE:    54 TIME:   0.010 TIME LEFT:  2.00D  GRAD.:     0.520 HEAT: 43.68343
 CYCLE:    55 TIME:   0.011 TIME LEFT:  2.00D  GRAD.:     0.494 HEAT: 43.68282
 CYCLE:    56 TIME:   0.010 TIME LEFT:  2.00D  GRAD.:     0.489 HEAT: 43.68223
 CYCLE:    57 TIME:   0.009 TIME LEFT:  2.00D  GRAD.:     0.418 HEAT: 43.68170
 CYCLE:    58 TIME:   0.007 TIME LEFT:  2.00D  GRAD.:     0.311 HEAT: 43.68136
 CYCLE:    59 TIME:   0.007 TIME LEFT:  2.00D  GRAD.:     0.221 HEAT: 43.68119
 CYCLE:    60 TIME:   0.007 TIME LEFT:  2.00D  GRAD.:     0.209 HEAT: 43.68108
 CYCLE:    61 TIME:   0.007 TIME LEFT:  2.00D  GRAD.:     0.235 HEAT: 43.68096
 CYCLE:    62 TIME:   0.007 TIME LEFT:  2.00D  GRAD.:     0.238 HEAT: 43.68080
 CYCLE:    63 TIME:   0.007 TIME LEFT:  2.00D  GRAD.:     0.234 HEAT: 43.68064
 CYCLE:    64 TIME:   0.007 TIME LEFT:  2.00D  GRAD.:     0.210 HEAT: 43.68051
 CYCLE:    65 TIME:   0.007 TIME LEFT:  2.00D  GRAD.:     0.234 HEAT: 43.68035
 CYCLE:    66 TIME:   0.007 TIME LEFT:  2.00D  GRAD.:     0.247 HEAT: 43.68022
 CYCLE:    67 TIME:   0.007 TIME LEFT:  2.00D  GRAD.:     0.314 HEAT: 43.68001
 CYCLE:    68 TIME:   0.008 TIME LEFT:  2.00D  GRAD.:     0.246 HEAT: 43.67990
 CYCLE:    69 TIME:   0.007 TIME LEFT:  2.00D  GRAD.:     0.304 HEAT: 43.67960
 CYCLE:    70 TIME:   0.007 TIME LEFT:  2.00D  GRAD.:     0.316 HEAT: 43.67941
 CYCLE:    71 TIME:   0.007 TIME LEFT:  2.00D  GRAD.:     0.458 HEAT: 43.67873
 CYCLE:    72 TIME:   0.007 TIME LEFT:  2.00D  GRAD.:     0.262 HEAT: 43.67828
 CYCLE:    73 TIME:   0.007 TIME LEFT:  2.00D  GRAD.:     0.193 HEAT: 43.67811
 CYCLE:    74 TIME:   0.007 TIME LEFT:  2.00D  GRAD.:     0.133 HEAT: 43.67797
 CYCLE:    75 TIME:   0.007 TIME LEFT:  2.00D  GRAD.:     0.109 HEAT: 43.67791
 CYCLE:    76 TIME:   0.007 TIME LEFT:  2.00D  GRAD.:     0.082 HEAT: 43.67788
 CYCLE:    77 TIME:   0.007 TIME LEFT:  2.00D  GRAD.:     0.094 HEAT: 43.67787
 CYCLE:    78 TIME:   0.006 TIME LEFT:  2.00D  GRAD.:     0.070 HEAT: 43.67786
 CYCLE:    79 TIME:   0.007 TIME LEFT:  2.00D  GRAD.:     0.059 HEAT: 43.67785
 CYCLE:    80 TIME:   0.007 TIME LEFT:  2.00D  GRAD.:     0.058 HEAT: 43.67784
 CYCLE:    81 TIME:   0.007 TIME LEFT:  2.00D  GRAD.:     0.064 HEAT: 43.67782
 CYCLE:    82 TIME:   0.006 TIME LEFT:  2.00D  GRAD.:     0.067 HEAT: 43.67781
 CYCLE:    83 TIME:   0.007 TIME LEFT:  2.00D  GRAD.:     0.077 HEAT: 43.67780
 CYCLE:    84 TIME:   0.006 TIME LEFT:  2.00D  GRAD.:     0.052 HEAT: 43.67779
 CYCLE:    85 TIME:   0.007 TIME LEFT:  2.00D  GRAD.:     0.074 HEAT: 43.67777
 CYCLE:    86 TIME:   0.007 TIME LEFT:  2.00D  GRAD.:     0.040 HEAT: 43.67777

     RMS GRADIENT =  0.03951  IS LESS THAN CUTOFF =  0.05000



 -------------------------------------------------------------------------------
pm3  precise nosym
 InChI=1S/C10H12/c1-2-6-9(5-1)10-7-3-4-8-10/h1-3,5-7,9-10H,4,8H2



     GEOMETRY OPTIMISED USING EIGENVECTOR FOLLOWING (EF).     
     SCF FIELD WAS ACHIEVED                                   


                              PM3 CALCULATION
                                                       MOPAC2012 (Version: 13.159M)
                                                       Mon Jun  2 11:14:02 2014
                                                       No. of days left =   6




          FINAL HEAT OF FORMATION =         43.67777 KCAL/MOL =     182.74779 KJ/MOL


          TOTAL ENERGY            =      -1368.50225 EV
          ELECTRONIC ENERGY       =      -7462.32981 EV  POINT GROUP:     C1  
          CORE-CORE REPULSION     =       6093.82756 EV
          COSMO AREA              =        178.82 SQUARE ANGSTROMS
          COSMO VOLUME            =        183.36 CUBIC ANGSTROMS

          GRADIENT NORM           =          0.03951
          IONIZATION POTENTIAL    =          9.251493 EV
          HOMO LUMO ENERGIES (EV) =         -9.251  0.289
          NO. OF FILLED LEVELS    =         26
          MOLECULAR WEIGHT        =        132.205

          MOLECULAR DIMENSIONS (Angstroms)

            Atom       Atom       Distance
            H    20    H    22     7.80070
            H    17    H    14     5.02482
            H    12    H    11     2.88883


          SCF CALCULATIONS        =         95
          COMPUTATION TIME        =          0.672 SECONDS




   ATOM   CHEMICAL          X               Y               Z
  NUMBER   SYMBOL      (ANGSTROMS)     (ANGSTROMS)     (ANGSTROMS)
 
     1       C          0.44259448  *  -0.09328167  *  -0.36038223  *
     2       C         -0.88382877  *  -0.07020168  *   0.39642219  *
     3       C          1.32569853  *   1.13832412  *  -0.05428120  *
     4       C          2.68203588  *   0.59315376  *   0.41462024  *
     5       C          1.29633227  *  -1.26636966  *   0.03542287  *
     6       C         -1.76579275  *  -1.25725190  *   0.08154348  *
     7       C         -1.76379070  *   1.09354824  *  -0.00174946  *
     8       C          2.51165184  *  -0.89084833  *   0.44700916  *
     9       C         -2.95824171  *  -0.82901458  *  -0.38572583  *
    10       C         -2.95681031  *   0.63543861  *  -0.43800104  *
    11       H          0.22867339  *  -0.15584742  *  -1.45337865  *
    12       H         -0.69908107  *  -0.03299188  *   1.49665274  *
    13       H          0.86775672  *   1.78152983  *   0.72028249  *
    14       H          1.43443780  *   1.77806241  *  -0.94787232  *
    15       H          3.50282322  *   0.87644639  *  -0.26994271  *
    16       H          2.96620880  *   0.97999441  *   1.41035228  *
    17       H         -1.43784491  *  -2.28348767  *   0.23482108  *
    18       H         -1.43262055  *   2.12724866  *   0.07604328  *
    19       H          0.91878430  *  -2.28675132  *  -0.03476225  *
    20       H          3.31866553  *  -1.54663690  *   0.77260912  *
    21       H         -3.80979286  *  -1.43668301  *  -0.68520408  *
    22       H         -3.80681451  *   1.22188684  *  -0.78099203  *

           Empirical Formula: C10 H12  =    22 atoms



      MOLECULAR POINT GROUP   :   C1  


                  EIGENVALUES  
 -41.76419 -37.56579 -29.42479 -28.52586 -26.89382 -24.44171 -20.35527 -19.37652
 -18.67047 -18.11530 -17.77364 -17.49970 -15.74600 -14.56304 -13.96751 -13.85105
 -13.61332 -13.40453 -13.07744 -12.78808 -12.24544 -12.08244 -11.98639 -11.08233
  -9.68335  -9.25149   0.28890   1.06250   2.00813   3.24922   3.25749   3.40597
   3.47367   3.60008   3.74293   3.76847   3.95859   3.98596   4.10276   4.18503
   4.25297   4.37120   4.46567   4.51777   4.70061   5.00775   5.17778   5.50590
   5.77586   5.81117   5.92592   6.14447


              NET ATOMIC CHARGES AND DIPOLE CONTRIBUTIONS

  ATOM NO.   TYPE          CHARGE      No. of ELECS.   s-Pop       p-Pop       
    1          C          -0.019267        4.0193     1.16831     2.85095
    2          C          -0.027870        4.0279     1.16630     2.86157
    3          C          -0.104216        4.1042     1.16990     2.93431
    4          C          -0.066260        4.0663     1.15382     2.91244
    5          C          -0.159075        4.1591     1.20506     2.95401
    6          C          -0.157407        4.1574     1.20965     2.94776
    7          C          -0.160661        4.1607     1.21016     2.95050
    8          C          -0.148313        4.1483     1.20201     2.94630
    9          C          -0.119873        4.1199     1.19249     2.92738
   10          C          -0.118512        4.1185     1.19234     2.92617
   11          H           0.076501        0.9235     0.92350
   12          H           0.095080        0.9049     0.90492
   13          H           0.055689        0.9443     0.94431
   14          H           0.052771        0.9472     0.94723
   15          H           0.056764        0.9432     0.94324
   16          H           0.055770        0.9442     0.94423
   17          H           0.117656        0.8823     0.88234
   18          H           0.117845        0.8822     0.88216
   19          H           0.114725        0.8853     0.88528
   20          H           0.111062        0.8889     0.88894
   21          H           0.113838        0.8862     0.88616
   22          H           0.113754        0.8862     0.88625
 DIPOLE           X         Y         Z       TOTAL
 POINT-CHG.     0.463     0.151     0.115     0.500
 HYBRID        -0.032    -0.008     0.059     0.067
 SUM            0.431     0.142     0.173     0.486


          ATOMIC ORBITAL ELECTRON POPULATIONS

    Atom      s        px        py        pz   
    1  C   1.16831   0.92177   0.93367   0.99552
    2  C   1.16630   0.94079   0.92489   0.99588
    3  C   1.16990   0.95527   0.96704   1.01200
    4  C   1.15382   0.96665   0.93980   1.00599
    5  C   1.20506   0.96313   0.98207   1.00881
    6  C   1.20965   0.96553   0.97808   1.00415
    7  C   1.21016   0.96635   0.97916   1.00499
    8  C   1.20201   0.97456   0.96810   1.00364
    9  C   1.19249   0.97395   0.94978   1.00365
   10  C   1.19234   0.97365   0.94903   1.00349
   11  H   0.92350
   12  H   0.90492
   13  H   0.94431
   14  H   0.94723
   15  H   0.94324
   16  H   0.94423
   17  H   0.88234
   18  H   0.88216
   19  H   0.88528
   20  H   0.88894
   21  H   0.88616
   22  H   0.88625
 *******************************************************************************
 ** Site#: 14399           For non-commercial use only        Version 13.159M **
 *******************************************************************************
 ** Cite this work as: MOPAC2012, James J. P. Stewart, Stewart Computational  **
 ** Chemistry, Version 13.159M web: HTTP://OpenMOPAC.net  Days remaining:   6 **
 *******************************************************************************
 **                                                                           **
 **                                MOPAC2012                                  **
 **                                                                           **
 *******************************************************************************

                            PM3 CALCULATION RESULTS


 *******************************************************************************
 *  CALCULATION DONE:                                Mon Jun  2 11:14:02 2014  *
 *  PM3      - The PM3 Hamiltonian to be used
 *  OLDGEO   - PREVIOUS GEOMETRY TO BE USED
 *  PRECISE  - CRITERIA TO BE INCREASED BY 100 TIMES
 *  NOSYM    - POINT-GROUP SYMMETRY SET TO C1
 *  T=       - A TIME OF 172800.0 SECONDS REQUESTED
 *  DUMP=N   - RESTART FILE WRITTEN EVERY  7200.000 SECONDS
 *  THERMO   - THERMODYNAMIC QUANTITIES TO BE CALCULATED
 *******************************************************************************
oldgeo thermo nosym precise  pm3

   ATOM   CHEMICAL          X               Y               Z
  NUMBER   SYMBOL      (ANGSTROMS)     (ANGSTROMS)     (ANGSTROMS)
 
     1       C          0.44259448  *  -0.09328167  *  -0.36038223  *
     2       C         -0.88382877  *  -0.07020168  *   0.39642219  *
     3       C          1.32569853  *   1.13832412  *  -0.05428120  *
     4       C          2.68203588  *   0.59315376  *   0.41462024  *
     5       C          1.29633227  *  -1.26636966  *   0.03542287  *
     6       C         -1.76579275  *  -1.25725190  *   0.08154348  *
     7       C         -1.76379070  *   1.09354824  *  -0.00174946  *
     8       C          2.51165184  *  -0.89084833  *   0.44700916  *
     9       C         -2.95824171  *  -0.82901458  *  -0.38572583  *
    10       C         -2.95681031  *   0.63543861  *  -0.43800104  *
    11       H          0.22867339  *  -0.15584742  *  -1.45337865  *
    12       H         -0.69908107  *  -0.03299188  *   1.49665274  *
    13       H          0.86775672  *   1.78152983  *   0.72028249  *
    14       H          1.43443780  *   1.77806241  *  -0.94787232  *
    15       H          3.50282322  *   0.87644639  *  -0.26994271  *
    16       H          2.96620880  *   0.97999441  *   1.41035228  *
    17       H         -1.43784491  *  -2.28348767  *   0.23482108  *
    18       H         -1.43262055  *   2.12724866  *   0.07604328  *
    19       H          0.91878430  *  -2.28675132  *  -0.03476225  *
    20       H          3.31866553  *  -1.54663690  *   0.77260912  *
    21       H         -3.80979286  *  -1.43668301  *  -0.68520408  *
    22       H         -3.80681451  *   1.22188684  *  -0.78099203  *
 


          CARTESIAN COORDINATES 

    NO.       ATOM         X         Y         Z

     1         C        0.4426   -0.0933   -0.3604
     2         C       -0.8838   -0.0702    0.3964
     3         C        1.3257    1.1383   -0.0543
     4         C        2.6820    0.5932    0.4146
     5         C        1.2963   -1.2664    0.0354
     6         C       -1.7658   -1.2573    0.0815
     7         C       -1.7638    1.0935   -0.0017
     8         C        2.5117   -0.8908    0.4470
     9         C       -2.9582   -0.8290   -0.3857
    10         C       -2.9568    0.6354   -0.4380
    11         H        0.2287   -0.1558   -1.4534
    12         H       -0.6991   -0.0330    1.4967
    13         H        0.8678    1.7815    0.7203
    14         H        1.4344    1.7781   -0.9479
    15         H        3.5028    0.8764   -0.2699
    16         H        2.9662    0.9800    1.4104
    17         H       -1.4378   -2.2835    0.2348
    18         H       -1.4326    2.1272    0.0760
    19         H        0.9188   -2.2868   -0.0348
    20         H        3.3187   -1.5466    0.7726
    21         H       -3.8098   -1.4367   -0.6852
    22         H       -3.8068    1.2219   -0.7810

  H: (PM3): J. J. P. STEWART, J. COMP. CHEM. 10, 209 (1989).
  C: (PM3): J. J. P. STEWART, J. COMP. CHEM. 10, 209 (1989).

           Empirical Formula: C10 H12  =    22 atoms



      MOLECULAR POINT GROUP   :   C1  


      RHF CALCULATION, NO. OF DOUBLY OCCUPIED LEVELS =   26



          HEAT OF FORMATION =      43.677770 KCALS/MOLE


          INTERNAL COORDINATE DERIVATIVES

   NUMBER  ATOM       BOND         ANGLE      DIHEDRAL

     1       C      0.002375     0.002545    -0.001566
     2       C      0.005921     0.002695     0.002949
     3       C     -0.004546    -0.003387    -0.001985
     4       C     -0.004619    -0.001071    -0.003146
     5       C      0.002669     0.001132    -0.002767
     6       C      0.008848     0.001102    -0.005474
     7       C      0.006861     0.002490     0.000313
     8       C     -0.001253     0.001661    -0.004058
     9       C      0.011605     0.009956     0.009315
    10       C     -0.002627    -0.007214    -0.003193
    11       H      0.002977    -0.002081    -0.000384
    12       H      0.001308     0.002341    -0.002383
    13       H     -0.003374    -0.003012    -0.005346
    14       H     -0.005350     0.004635     0.002046
    15       H      0.005380     0.000910     0.008375
    16       H      0.006112     0.003049     0.005042
    17       H     -0.011028    -0.002825    -0.001589
    18       H     -0.006001    -0.001220    -0.003328
    19       H     -0.014210     0.002632    -0.001125
    20       H     -0.000809    -0.006627    -0.001023
    21       H      0.006147     0.004240     0.009832
    22       H     -0.006387    -0.011953    -0.000504


          GRADIENT NORM =   0.04240


          TIME FOR SCF CALCULATION =    0.01

          TIME FOR DERIVATIVES     =    0.00

          MOLECULAR WEIGHT =  132.20



          ROTATIONAL CONSTANTS IN CM(-1)

          A =    0.12092435   B =    0.02868260   C =    0.02422361



           PRINCIPAL MOMENTS OF INERTIA IN UNITS OF 10**(-40)*GRAM-CM**2

          A =      231.4900   B =      975.9498   C =     1155.5987


          ORIENTATION OF MOLECULE IN FORCE CALCULATION

    NO.       ATOM         X         Y         Z

     1          C      -0.7210   -0.0147    0.0174
     2          C       0.8063   -0.0147    0.0174
     3          C      -1.3177    1.4116    0.0174
     4          C      -2.2715    1.4823   -1.1834
     5          C      -1.2841   -0.6497   -1.2241
     6          C       1.3983   -1.4057    0.0456
     7          C       1.3908    0.6044    1.2673
     8          C      -2.1299    0.1616   -1.8675
     9          C       2.2088   -1.5354    1.1179
    10          C       2.2038   -0.2833    1.8792
    11          H      -1.0778   -0.5850    0.9073
    12          H       1.1916    0.5291   -0.8780
    13          H      -0.5265    2.1807   -0.0590
    14          H      -1.8453    1.6189    0.9652
    15          H      -3.3193    1.6499   -0.8724
    16          H      -2.0191    2.3115   -1.8693
    17          H       1.1739   -2.1497   -0.7161
    18          H       1.1573    1.6211    1.5775
    19          H      -1.0064   -1.6634   -1.5137
    20          H      -2.6794   -0.0650   -2.7808
    21          H       2.7908   -2.4082    1.4072
    22          H       2.7809   -0.1354    2.7898


    FIRST DERIVATIVES WILL BE USED IN THE CALCULATION OF SECOND DERIVATIVES

          ESTIMATED TIME TO COMPLETE CALCULATION =        2.74 SECONDS

    FOR POINT-GROUP C1   THERE ARE   1 UNIQUE SYMMETRY FUNCTIONS.

 STEP:   1 TIME =     0.03 SECS, INTEGRAL =      0.03 TIME LEFT: 172799.96
 STEP:   2 TIME =     0.03 SECS, INTEGRAL =      0.06 TIME LEFT: 172799.93
 STEP:   3 TIME =     0.03 SECS, INTEGRAL =      0.10 TIME LEFT: 172799.89
 STEP:   4 TIME =     0.03 SECS, INTEGRAL =      0.13 TIME LEFT: 172799.86
 STEP:   5 TIME =     0.03 SECS, INTEGRAL =      0.16 TIME LEFT: 172799.83
 STEP:   6 TIME =     0.03 SECS, INTEGRAL =      0.19 TIME LEFT: 172799.80
 STEP:   7 TIME =     0.03 SECS, INTEGRAL =      0.22 TIME LEFT: 172799.77
 STEP:   8 TIME =     0.03 SECS, INTEGRAL =      0.26 TIME LEFT: 172799.73
 STEP:   9 TIME =     0.03 SECS, INTEGRAL =      0.29 TIME LEFT: 172799.70
 STEP:  10 TIME =     0.03 SECS, INTEGRAL =      0.32 TIME LEFT: 172799.67
 STEP:  11 TIME =     0.03 SECS, INTEGRAL =      0.35 TIME LEFT: 172799.64
 STEP:  12 TIME =     0.03 SECS, INTEGRAL =      0.38 TIME LEFT: 172799.61
 STEP:  13 TIME =     0.03 SECS, INTEGRAL =      0.42 TIME LEFT: 172799.57
 STEP:  14 TIME =     0.03 SECS, INTEGRAL =      0.45 TIME LEFT: 172799.54
 STEP:  15 TIME =     0.03 SECS, INTEGRAL =      0.48 TIME LEFT: 172799.51
 STEP:  16 TIME =     0.03 SECS, INTEGRAL =      0.51 TIME LEFT: 172799.48
 STEP:  17 TIME =     0.03 SECS, INTEGRAL =      0.55 TIME LEFT: 172799.44
 STEP:  18 TIME =     0.03 SECS, INTEGRAL =      0.58 TIME LEFT: 172799.41
 STEP:  19 TIME =     0.03 SECS, INTEGRAL =      0.61 TIME LEFT: 172799.38
 STEP:  20 TIME =     0.03 SECS, INTEGRAL =      0.64 TIME LEFT: 172799.35
 STEP:  21 TIME =     0.03 SECS, INTEGRAL =      0.68 TIME LEFT: 172799.31
 STEP:  22 TIME =     0.03 SECS, INTEGRAL =      0.71 TIME LEFT: 172799.28
 STEP:  23 TIME =     0.03 SECS, INTEGRAL =      0.74 TIME LEFT: 172799.25
 STEP:  24 TIME =     0.03 SECS, INTEGRAL =      0.77 TIME LEFT: 172799.22
 STEP:  25 TIME =     0.04 SECS, INTEGRAL =      0.81 TIME LEFT: 172799.18
 STEP:  26 TIME =     0.04 SECS, INTEGRAL =      0.85 TIME LEFT: 172799.14
 STEP:  27 TIME =     0.03 SECS, INTEGRAL =      0.89 TIME LEFT: 172799.10
 STEP:  28 TIME =     0.04 SECS, INTEGRAL =      0.93 TIME LEFT: 172799.06
 STEP:  29 TIME =     0.03 SECS, INTEGRAL =      0.96 TIME LEFT: 172799.03
 STEP:  30 TIME =     0.03 SECS, INTEGRAL =      0.99 TIME LEFT: 172799.00
 STEP:  31 TIME =     0.03 SECS, INTEGRAL =      1.02 TIME LEFT: 172798.97
 STEP:  32 TIME =     0.03 SECS, INTEGRAL =      1.06 TIME LEFT: 172798.93
 STEP:  33 TIME =     0.03 SECS, INTEGRAL =      1.09 TIME LEFT: 172798.90
 STEP:  34 TIME =     0.03 SECS, INTEGRAL =      1.12 TIME LEFT: 172798.87
 STEP:  35 TIME =     0.03 SECS, INTEGRAL =      1.16 TIME LEFT: 172798.83
 STEP:  36 TIME =     0.04 SECS, INTEGRAL =      1.19 TIME LEFT: 172798.80
 STEP:  37 TIME =     0.03 SECS, INTEGRAL =      1.23 TIME LEFT: 172798.76
 STEP:  38 TIME =     0.03 SECS, INTEGRAL =      1.26 TIME LEFT: 172798.73
 STEP:  39 TIME =     0.03 SECS, INTEGRAL =      1.29 TIME LEFT: 172798.70
 STEP:  40 TIME =     0.04 SECS, INTEGRAL =      1.33 TIME LEFT: 172798.66
 STEP:  41 TIME =     0.03 SECS, INTEGRAL =      1.36 TIME LEFT: 172798.63
 STEP:  42 TIME =     0.03 SECS, INTEGRAL =      1.39 TIME LEFT: 172798.60
 STEP:  43 TIME =     0.03 SECS, INTEGRAL =      1.42 TIME LEFT: 172798.57
 STEP:  44 TIME =     0.03 SECS, INTEGRAL =      1.46 TIME LEFT: 172798.53
 STEP:  45 TIME =     0.03 SECS, INTEGRAL =      1.49 TIME LEFT: 172798.50
 STEP:  46 TIME =     0.03 SECS, INTEGRAL =      1.52 TIME LEFT: 172798.47
 STEP:  47 TIME =     0.03 SECS, INTEGRAL =      1.56 TIME LEFT: 172798.43
 STEP:  48 TIME =     0.03 SECS, INTEGRAL =      1.59 TIME LEFT: 172798.40
 STEP:  49 TIME =     0.03 SECS, INTEGRAL =      1.62 TIME LEFT: 172798.37
 STEP:  50 TIME =     0.03 SECS, INTEGRAL =      1.65 TIME LEFT: 172798.34
 STEP:  51 TIME =     0.03 SECS, INTEGRAL =      1.69 TIME LEFT: 172798.30
 STEP:  52 TIME =     0.03 SECS, INTEGRAL =      1.72 TIME LEFT: 172798.27
 STEP:  53 TIME =     0.03 SECS, INTEGRAL =      1.75 TIME LEFT: 172798.24
 STEP:  54 TIME =     0.03 SECS, INTEGRAL =      1.79 TIME LEFT: 172798.20
 STEP:  55 TIME =     0.03 SECS, INTEGRAL =      1.82 TIME LEFT: 172798.17
 STEP:  56 TIME =     0.03 SECS, INTEGRAL =      1.85 TIME LEFT: 172798.14
 STEP:  57 TIME =     0.03 SECS, INTEGRAL =      1.88 TIME LEFT: 172798.10
 STEP:  58 TIME =     0.03 SECS, INTEGRAL =      1.92 TIME LEFT: 172798.07
 STEP:  59 TIME =     0.03 SECS, INTEGRAL =      1.95 TIME LEFT: 172798.04
 STEP:  60 TIME =     0.04 SECS, INTEGRAL =      1.99 TIME LEFT: 172798.00
 STEP:  61 TIME =     0.03 SECS, INTEGRAL =      2.02 TIME LEFT: 172797.97
 STEP:  62 TIME =     0.03 SECS, INTEGRAL =      2.05 TIME LEFT: 172797.94
 STEP:  63 TIME =     0.03 SECS, INTEGRAL =      2.08 TIME LEFT: 172797.90
 STEP:  64 TIME =     0.04 SECS, INTEGRAL =      2.12 TIME LEFT: 172797.87
 STEP:  65 TIME =     0.03 SECS, INTEGRAL =      2.15 TIME LEFT: 172797.84
 STEP:  66 TIME =     0.03 SECS, INTEGRAL =      2.19 TIME LEFT: 172797.80

(To convert to Hartree/Bohr^2, multiply by (10^(-21) x N x a0^2)/(4.184 x 627.51) = 0.0642)


           FORCE MATRIX IN MILLIDYNES/ANGSTROM


                  C  1       C  2       C  3       C  4       C  5       C  6
 ------------------------------------------------------------------------------
     C    1  14.549062
     C    2   3.826844  14.802681
     C    3   3.447379   0.557718  14.179984
     C    4   0.716983   0.036179   3.783531  14.693120
     C    5   4.429691   0.629198   0.866771   1.186939  18.358851
     C    6   0.579954   4.097395   0.046186   0.006108   0.059813  17.887022
     C    7   0.587443   4.084421   0.055040   0.004019   0.046635   1.099609
     C    8   1.136869   0.042734   0.893323   4.763324  10.612057   0.004952
     C    9   0.049410   1.199948   0.009342   0.002153   0.009545   9.791968
     C   10   0.049150   1.199654   0.007755   0.002472   0.009453   1.578423
     H   11   4.274212   0.433286   0.420626   0.023929   0.402402   0.017996
     H   12   0.448234   4.231040   0.020598   0.001642   0.015444   0.385685
     H   13   0.451267   0.060481   4.521943   0.439005   0.023114   0.002267
     H   14   0.438485   0.025771   4.583824   0.439104   0.031587   0.004573
     H   15   0.025457   0.004831   0.435896   4.517374   0.037789   0.000743
     H   16   0.032092   0.001801   0.435454   4.526969   0.039361   0.000635
     H   17   0.010611   0.403492   0.002117   0.001032   0.012837   5.059182
     H   18   0.010565   0.402787   0.011583   0.001111   0.002269   0.042457
     H   19   0.415633   0.010653   0.041331   0.114030   4.995376   0.013044
     H   20   0.113268   0.016514   0.043001   0.413059   0.448897   0.002026
     H   21   0.015453   0.112884   0.002495   0.000529   0.001347   0.446403
     H   22   0.015583   0.111882   0.000745   0.000437   0.001979   0.049634


                  C  7       C  8       C  9       C 10       H 11       H 12
 ------------------------------------------------------------------------------
     C    7  17.893147
     C    8   0.008847  18.397539
     C    9   1.577334   0.001304  18.336547
     C   10   9.797871   0.002996   5.171028  18.336112
     H   11   0.016204   0.036780   0.005708   0.005651   4.730005
     H   12   0.387974   0.003196   0.050642   0.051095   0.041719   4.711204
     H   13   0.017815   0.025709   0.001467   0.001334   0.027748   0.024009
     H   14   0.002319   0.030417   0.001333   0.000858   0.029359   0.001483
     H   15   0.000740   0.429191   0.000543   0.000263   0.001291   0.000603
     H   16   0.000775   0.431008   0.000377   0.000372   0.003636   0.000465
     H   17   0.042408   0.002003   0.442260   0.100316   0.002311   0.011193
     H   18   5.059513   0.001449   0.099616   0.442710   0.002273   0.011008
     H   19   0.002939   0.448073   0.001967   0.001167   0.013812   0.002534
     H   20   0.002713   5.019313   0.001270   0.000810   0.014466   0.000781
     H   21   0.049077   0.000677   5.070698   0.419423   0.000595   0.014308
     H   22   0.446919   0.000904   0.419364   5.070932   0.000611   0.013964


                  H 13       H 14       H 15       H 16       H 17       H 18
 ------------------------------------------------------------------------------
     H   13   5.144640
     H   14   0.582533   5.188429
     H   15   0.028300   0.030060   5.123122
     H   16   0.029449   0.025212   0.573288   5.133021
     H   17   0.000552   0.000298   0.000399   0.000401   5.459620
     H   18   0.025073   0.001723   0.000413   0.000434   0.010356   5.460849
     H   19   0.002455   0.003374   0.015913   0.015185   0.023286   0.000875
     H   20   0.002737   0.003345   0.014086   0.014952   0.000698   0.000418
     H   21   0.000255   0.000282   0.000114   0.000080   0.041651   0.005294
     H   22   0.000327   0.000192   0.000127   0.000183   0.005389   0.041217


                  H 19       H 20       H 21       H 22
 ------------------------------------------------------
     H   19   5.393935
     H   20   0.046992   5.414090
     H   21   0.000664   0.000316   5.461029
     H   22   0.000512   0.000284   0.009489   5.461479


          HEAT OF FORMATION =      43.677770 KCALS/MOLE

          ZERO POINT ENERGY     119.102 KCAL/MOL


           NORMAL COORDINATE ANALYSIS (Total motion = 1 Angstrom)


   Root No.       1         2         3         4         5         6         7         8

                 1 A       2 A       3 A       4 A       5 A       6 A       7 A       8 A   

                  72.8      84.9     161.1     184.0     281.2     381.7     420.3     503.4
  
           1   -0.0097   -0.0157   -0.0230   -0.0011   -0.0137   -0.0005    0.0121    0.0318
           2    0.0107   -0.0227    0.0022    0.0187   -0.0089   -0.0268    0.0238    0.0160
           3    0.0228    0.0100    0.0009    0.0151    0.0280   -0.0095    0.0052   -0.0255
           4   -0.0093   -0.0152   -0.0243   -0.0006   -0.0160   -0.0113   -0.0026    0.0280
           5    0.0175   -0.0143   -0.0214    0.0201   -0.0097    0.0248   -0.0131    0.0108
           6    0.0132   -0.0020    0.0357    0.0100   -0.0108    0.0149   -0.0130   -0.0220
           7   -0.0116   -0.0243    0.0023   -0.0319    0.0258    0.0404   -0.0006   -0.0028
           8    0.0102   -0.0263    0.0140    0.0044    0.0078   -0.0195    0.0183   -0.0003
           9   -0.0053    0.0360   -0.0224    0.0072    0.0014   -0.0001    0.0139    0.0032
          10    0.0277    0.0339   -0.0172   -0.0229    0.0043    0.0290    0.0109   -0.0025
          11    0.0033    0.0173    0.0033   -0.0205   -0.0096   -0.0089   -0.0042   -0.0016
          12   -0.0370   -0.0075   -0.0080   -0.0032    0.0200    0.0160    0.0039    0.0037
          13   -0.0127   -0.0105   -0.0036    0.0334   -0.0016    0.0099    0.0555   -0.0209
          14   -0.0168   -0.0035    0.0100    0.0076   -0.0128   -0.0173    0.0155   -0.0109
          15    0.0385   -0.0025   -0.0128    0.0039    0.0266   -0.0228   -0.0017    0.0154
          16    0.0012   -0.0101   -0.0126   -0.0370   -0.0012   -0.0377   -0.0268   -0.0117
          17    0.0214   -0.0119   -0.0162    0.0035   -0.0017    0.0229   -0.0255   -0.0071
          18   -0.0252    0.0140    0.0270    0.0051   -0.0155   -0.0027    0.0051    0.0072
          19   -0.0069    0.0002   -0.0130    0.0375   -0.0224   -0.0118   -0.0372   -0.0293
          20   -0.0093    0.0094   -0.0184    0.0092    0.0035    0.0152   -0.0069   -0.0114
          21    0.0254   -0.0212    0.0285   -0.0037   -0.0176    0.0229   -0.0103    0.0173
          22    0.0084    0.0190    0.0017    0.0336    0.0517   -0.0062    0.0013    0.0125
          23   -0.0208    0.0187    0.0110   -0.0082    0.0112   -0.0102   -0.0201    0.0057
          24    0.0059   -0.0130   -0.0189   -0.0148   -0.0119    0.0078    0.0297   -0.0079
          25    0.0084    0.0070    0.0446   -0.0302   -0.0049   -0.0313    0.0095   -0.0042
          26    0.0005    0.0103    0.0067   -0.0182    0.0092    0.0084    0.0078   -0.0007
          27   -0.0332    0.0038   -0.0129   -0.0035   -0.0116   -0.0115   -0.0190    0.0023
          28    0.0028    0.0142    0.0438    0.0242   -0.0254    0.0130   -0.0227    0.0140
          29   -0.0188    0.0239    0.0055   -0.0113    0.0081    0.0118    0.0059    0.0085
          30   -0.0014   -0.0188   -0.0114   -0.0144   -0.0089   -0.0151   -0.0145   -0.0126
          31   -0.0022   -0.0072   -0.0564    0.0011   -0.0117   -0.0126    0.0029    0.0690
          32    0.0288   -0.0399    0.0119    0.0143    0.0119   -0.0422    0.0199    0.0208
          33    0.0372    0.0020   -0.0067    0.0130    0.0408   -0.0242   -0.0002   -0.0056
          34   -0.0175   -0.0276   -0.0077   -0.0045   -0.0371   -0.0072    0.0150    0.0706
          35    0.0412   -0.0271   -0.0238    0.0137   -0.0118    0.0447   -0.0351    0.0145
          36    0.0240   -0.0152    0.0394    0.0046   -0.0214    0.0281   -0.0187    0.0004
          37   -0.0110   -0.0269    0.0168   -0.0462    0.0462    0.0590   -0.0132   -0.0308
          38    0.0120   -0.0167   -0.0042    0.0195   -0.0172   -0.0391    0.0320    0.0307
          39    0.0207    0.1081   -0.0585    0.0152   -0.0524   -0.0257    0.0282    0.0400
          40   -0.0455   -0.0744    0.0254   -0.0472    0.0609    0.0708   -0.0155   -0.0222
          41    0.0120   -0.0702    0.0503   -0.0055    0.0618    0.0067    0.0020   -0.0555
          42   -0.0244    0.0178   -0.0177    0.0008    0.0087    0.0108    0.0094    0.0054
          43    0.0235    0.0258   -0.0168   -0.0332   -0.0008    0.0379    0.0125   -0.0076
          44    0.0469    0.0548   -0.0260   -0.0690   -0.0866    0.0162    0.0362   -0.0459
          45   -0.0751   -0.0556    0.0098   -0.0110    0.0468    0.0311   -0.0155    0.0134
          46    0.0760    0.0973   -0.0485   -0.0514   -0.0616    0.0393    0.0432   -0.0356
          47   -0.0260    0.0127    0.0163   -0.0013    0.0289   -0.0171   -0.0369    0.0228
          48   -0.0550    0.0099   -0.0035    0.0099    0.0436    0.0094   -0.0249    0.0224
          49    0.0035   -0.0204   -0.0372   -0.0680    0.0140   -0.0731   -0.0511   -0.0571
          50    0.0389   -0.0264   -0.0266    0.0063   -0.0016    0.0274   -0.0454   -0.0264
          51   -0.0429    0.0312    0.0445    0.0113   -0.0199    0.0031    0.0317    0.0395
          52   -0.0133    0.0026   -0.0396    0.0747   -0.0319   -0.0131   -0.0819   -0.1015
          53   -0.0188    0.0137   -0.0303    0.0188    0.0030    0.0087   -0.0208   -0.0421
          54    0.0517   -0.0336    0.0475   -0.0077   -0.0230    0.0427    0.0022    0.0640
          55   -0.0296   -0.0262    0.0043    0.0596   -0.0139    0.0128    0.1187   -0.0842
          56   -0.0309   -0.0073    0.0133    0.0138   -0.0206   -0.0107    0.0386   -0.0410
          57    0.0715   -0.0042   -0.0171    0.0066    0.0425   -0.0424   -0.0229    0.0603
          58    0.0132    0.0320    0.0162    0.0653    0.1060   -0.0350   -0.0272    0.0199
          59   -0.0386    0.0367    0.0157   -0.0148    0.0358    0.0024   -0.0478    0.0104
          60    0.0074   -0.0253   -0.0288   -0.0323   -0.0505    0.0221    0.0541   -0.0135
          61    0.0168    0.0145    0.0809   -0.0579    0.0076   -0.0576    0.0472   -0.0334
          62   -0.0024    0.0175    0.0220   -0.0369    0.0180   -0.0090    0.0295   -0.0125
          63   -0.0589    0.0106   -0.0399   -0.0043   -0.0103   -0.0124   -0.0295    0.0257
          64    0.0068    0.0280    0.0786    0.0484   -0.0381    0.0548   -0.0414    0.0334
          65   -0.0377    0.0428    0.0201   -0.0221    0.0114    0.0062    0.0103    0.0185
          66   -0.0008   -0.0306   -0.0358   -0.0280   -0.0016   -0.0408   -0.0036   -0.0265


   Root No.       9        10        11        12        13        14        15        16

                 9 A      10 A      11 A      12 A      13 A      14 A      15 A      16 A   

                 514.0     686.6     738.1     774.9     777.9     811.6     820.0     826.5
  
           1   -0.0098   -0.0087    0.0191    0.0186    0.0018   -0.0010    0.0000   -0.0019
           2    0.0015    0.0308   -0.0143    0.0097   -0.0046   -0.0002   -0.0026   -0.0003
           3    0.0132   -0.0293   -0.0051    0.0129    0.0296   -0.0031    0.0018    0.0032
           4   -0.0091   -0.0200    0.0016    0.0150    0.0027   -0.0009   -0.0033   -0.0001
           5   -0.0154   -0.0099   -0.0138   -0.0082   -0.0044   -0.0018   -0.0211   -0.0064
           6    0.0002    0.0145    0.0240    0.0104    0.0076   -0.0053   -0.0010   -0.0314
           7   -0.0060    0.0099   -0.0037    0.0116    0.0117   -0.0036    0.0158   -0.0111
           8    0.0108    0.0333   -0.0160   -0.0155   -0.0153   -0.0032    0.0043   -0.0047
           9    0.0003    0.0236   -0.0256    0.0089    0.0034   -0.0015   -0.0141    0.0106
          10   -0.0037    0.0275   -0.0130   -0.0011    0.0163   -0.0023    0.0081   -0.0046
          11    0.0043   -0.0197    0.0288   -0.0246   -0.0092    0.0038    0.0056   -0.0023
          12   -0.0037    0.0146   -0.0125    0.0003   -0.0180    0.0014   -0.0073    0.0010
          13    0.0159   -0.0039    0.0176   -0.0196    0.0060    0.0027   -0.0103    0.0117
          14    0.0105   -0.0153   -0.0050    0.0333    0.0439   -0.0062   -0.0055    0.0102
          15    0.0029   -0.0174    0.0074    0.0141    0.0020   -0.0034    0.0074   -0.0032
          16    0.0407    0.0023   -0.0080   -0.0103    0.0042   -0.0304   -0.0065   -0.0134
          17    0.0006   -0.0011   -0.0165   -0.0195   -0.0045   -0.0047   -0.0074    0.0077
          18   -0.0235   -0.0009   -0.0091   -0.0070   -0.0070    0.0147   -0.0245   -0.0118
          19   -0.0288   -0.0005   -0.0089   -0.0071    0.0041    0.0296    0.0130    0.0005
          20   -0.0159   -0.0006    0.0164    0.0133    0.0089    0.0044   -0.0118   -0.0448
          21    0.0032   -0.0012    0.0109    0.0137   -0.0020   -0.0135    0.0061    0.0010
          22   -0.0007    0.0002    0.0189   -0.0253   -0.0107    0.0047   -0.0112    0.0103
          23   -0.0021   -0.0154    0.0153   -0.0068    0.0011    0.0022   -0.0041    0.0037
          24    0.0099   -0.0162    0.0270   -0.0297   -0.0305    0.0038    0.0095   -0.0076
          25   -0.0308   -0.0039   -0.0133   -0.0151    0.0014   -0.0253   -0.0161   -0.0185
          26   -0.0183   -0.0024    0.0003    0.0018    0.0015    0.0025    0.0342    0.0349
          27    0.0296    0.0043   -0.0064   -0.0036   -0.0051    0.0114   -0.0112    0.0006
          28    0.0276   -0.0041   -0.0150   -0.0103    0.0015    0.0256    0.0186    0.0169
          29    0.0163   -0.0014    0.0044    0.0050    0.0047    0.0086    0.0116    0.0023
          30   -0.0271    0.0023   -0.0037   -0.0002   -0.0069    0.0004    0.0278    0.0473
          31   -0.0226   -0.0523    0.0113    0.0509   -0.0054   -0.0002   -0.0111    0.0190
          32    0.0064    0.0339   -0.0109    0.0038   -0.0275   -0.0032    0.0281   -0.0198
          33    0.0105   -0.0437   -0.0046    0.0232    0.0125   -0.0048    0.0174   -0.0014
          34   -0.0233    0.0009    0.0319    0.0583   -0.0267   -0.0020   -0.0132   -0.0057
          35    0.0177   -0.0133   -0.0144   -0.0200   -0.0065   -0.0546   -0.0084    0.0101
          36    0.0136    0.0199    0.0358    0.0222   -0.0059   -0.0377    0.0025   -0.0239
          37   -0.0017   -0.0170   -0.0121    0.0025    0.0161    0.0015   -0.0096    0.0110
          38    0.0054    0.0664   -0.0062   -0.0080   -0.0181   -0.0094    0.0373   -0.0323
          39   -0.0092    0.0887    0.0131   -0.0178    0.0294   -0.0140    0.0973   -0.0648
          40   -0.0058   -0.0267   -0.0272    0.0239   -0.0281    0.0076   -0.0667    0.0409
          41    0.0255   -0.0218   -0.0640   -0.0042   -0.0075    0.0034   -0.0792    0.0581
          42   -0.0031    0.0182   -0.0282    0.0128   -0.0200    0.0030   -0.0387    0.0236
          43   -0.0035    0.0245   -0.0159    0.0076    0.0152   -0.0042    0.0201   -0.0149
          44    0.0220   -0.0778   -0.0156    0.0316   -0.0987    0.0082   -0.0358    0.0086
          45   -0.0139    0.0391    0.0088   -0.0081    0.0328   -0.0075    0.0627   -0.0435
          46    0.0103   -0.0221   -0.0652    0.0554   -0.0608    0.0057   -0.0709    0.0366
          47   -0.0098   -0.0024    0.0538   -0.0427    0.0445    0.0046    0.0150    0.0003
          48   -0.0164    0.0205   -0.0005   -0.0016    0.0234    0.0047   -0.0220    0.0180
          49    0.1162    0.0725    0.0440    0.0554   -0.0277    0.1763   -0.0107    0.0029
          50    0.0221    0.0277    0.0190    0.0129   -0.0127    0.0778   -0.0415   -0.0281
          51   -0.0665   -0.0496   -0.0592   -0.0583    0.0103   -0.1269    0.0093    0.0180
          52   -0.0689    0.0620    0.0628    0.0302   -0.0506   -0.1709   -0.0139    0.0383
          53   -0.0294    0.0267    0.0520    0.0343   -0.0143   -0.0821   -0.0123   -0.0144
          54    0.0177   -0.0441   -0.0515   -0.0264    0.0335    0.1191   -0.0136   -0.0730
          55    0.0544   -0.0419   -0.0552    0.0402   -0.0574   -0.0113    0.0873   -0.0534
          56    0.0258   -0.0451   -0.0296    0.0543    0.0090   -0.0133    0.0427   -0.0237
          57   -0.0141    0.0516    0.0236   -0.0013    0.0646    0.0083   -0.0683    0.0531
          58    0.0017   -0.0617   -0.0351    0.0627   -0.1438   -0.0092    0.0564   -0.0657
          59   -0.0125   -0.0082   -0.0331    0.0155   -0.0915    0.0010    0.0277   -0.0432
          60    0.0111    0.0194    0.0717   -0.0884    0.0724    0.0125   -0.0390    0.0499
          61   -0.1111    0.0386    0.0576    0.0677   -0.0433    0.0865   -0.0602    0.0103
          62   -0.0485    0.0167    0.0368    0.0435   -0.0147    0.0451    0.0123    0.0354
          63    0.1005   -0.0235   -0.0396   -0.0441    0.0356   -0.0856    0.0092   -0.0582
          64    0.1108    0.0386    0.0583    0.0645   -0.0516   -0.0700   -0.0045    0.1017
          65    0.0670    0.0195    0.0182    0.0166   -0.0233   -0.0431   -0.0233    0.0451
          66   -0.0882   -0.0281   -0.0526   -0.0494    0.0311    0.0697    0.0487   -0.0127


   Root No.      17        18        19        20        21        22        23        24

                17 A      18 A      19 A      20 A      21 A      22 A      23 A      24 A   

                 831.7     924.0     957.3     980.1     991.2     999.7    1002.9    1024.4
  
           1   -0.0033   -0.0078   -0.0024    0.0014   -0.0013    0.0107   -0.0083   -0.0071
           2   -0.0063   -0.0085   -0.0071   -0.0069    0.0178   -0.0071    0.0028    0.0131
           3    0.0116    0.0059    0.0076    0.0010   -0.0092    0.0237    0.0070    0.0004
           4   -0.0058    0.0198    0.0032    0.0014   -0.0101    0.0061   -0.0049    0.0002
           5    0.0244    0.0054   -0.0005    0.0046   -0.0050   -0.0051    0.0153    0.0090
           6   -0.0262   -0.0085    0.0005    0.0033    0.0104    0.0085   -0.0251    0.0052
           7    0.0135   -0.0212    0.0065    0.0010    0.0036   -0.0047    0.0026   -0.0148
           8   -0.0088    0.0175    0.0095    0.0071   -0.0194    0.0065   -0.0055   -0.0196
           9   -0.0114    0.0153   -0.0030    0.0050   -0.0157   -0.0171   -0.0144   -0.0130
          10    0.0119    0.0180   -0.0059    0.0009   -0.0057    0.0056   -0.0042    0.0178
          11    0.0052    0.0045   -0.0047   -0.0003   -0.0001   -0.0258   -0.0046    0.0036
          12   -0.0111   -0.0087    0.0027   -0.0042    0.0141    0.0147    0.0124    0.0059
          13   -0.0045   -0.0177    0.0113    0.0008   -0.0152    0.0007    0.0061    0.0114
          14    0.0074   -0.0226    0.0055    0.0045   -0.0099   -0.0041   -0.0016    0.0003
          15    0.0088   -0.0046   -0.0105    0.0014    0.0141   -0.0166   -0.0083   -0.0076
          16   -0.0062    0.0059    0.0192    0.0109    0.0129   -0.0039   -0.0032   -0.0093
          17    0.0275   -0.0190   -0.0015   -0.0070    0.0062    0.0049   -0.0207   -0.0169
          18    0.0307   -0.0091   -0.0155   -0.0123   -0.0093    0.0023    0.0029   -0.0002
          19   -0.0127    0.0060    0.0186   -0.0145    0.0085   -0.0045   -0.0083    0.0136
          20   -0.0225    0.0171    0.0141   -0.0189    0.0024   -0.0063    0.0048   -0.0063
          21   -0.0127    0.0125   -0.0054   -0.0027   -0.0085   -0.0042    0.0231   -0.0188
          22   -0.0085    0.0023   -0.0049   -0.0030    0.0184    0.0065    0.0054   -0.0149
          23   -0.0010    0.0018   -0.0013   -0.0011    0.0060    0.0169    0.0034   -0.0078
          24    0.0019    0.0000    0.0038    0.0024   -0.0177   -0.0001   -0.0066    0.0079
          25    0.0067   -0.0084   -0.0163   -0.0282   -0.0090    0.0026   -0.0013    0.0104
          26   -0.0186   -0.0010   -0.0059   -0.0131   -0.0054   -0.0046    0.0102    0.0050
          27    0.0185    0.0014    0.0099    0.0226    0.0068   -0.0018    0.0021   -0.0065
          28   -0.0064   -0.0075   -0.0153    0.0307   -0.0025    0.0029    0.0052   -0.0122
          29   -0.0146   -0.0005   -0.0056    0.0158   -0.0009    0.0044   -0.0037   -0.0045
          30   -0.0009    0.0007    0.0095   -0.0222    0.0012    0.0030   -0.0134    0.0081
          31    0.0306    0.0337   -0.0416    0.0011   -0.0223    0.0555    0.0143   -0.0096
          32   -0.0003   -0.0093   -0.0111   -0.0348    0.0958    0.0841    0.0544    0.0410
          33    0.0290    0.0195   -0.0113   -0.0171    0.0339    0.0993    0.0485    0.0173
          34   -0.0354    0.0411   -0.0618    0.0107   -0.0155    0.0050   -0.0788    0.0356
          35    0.0243    0.0039    0.0104    0.1794    0.0195   -0.0022    0.0292    0.1289
          36   -0.0389    0.0016   -0.0203    0.1130    0.0221    0.0099   -0.0466    0.0926
          37    0.0106    0.0210   -0.0083   -0.0018   -0.0318   -0.0456   -0.0039    0.0084
          38   -0.0010   -0.0279    0.0264    0.0099    0.0166    0.0471    0.0037   -0.0433
          39    0.0569   -0.0256    0.0301    0.0010   -0.0258   -0.0133    0.0145   -0.0295
          40   -0.0431   -0.0197   -0.0224    0.0003    0.0431   -0.0648   -0.0205   -0.0307
          41   -0.0432    0.1152   -0.0146    0.0159   -0.0836    0.0135   -0.0230    0.0337
          42   -0.0339   -0.0063   -0.0128    0.0024    0.0211   -0.0511   -0.0222   -0.0333
          43    0.0205   -0.0048    0.0056    0.0004   -0.0080    0.0052    0.0126    0.0253
          44   -0.0513   -0.0885    0.0299   -0.0106    0.0384    0.0023    0.0526   -0.0094
          45    0.0551   -0.0295    0.0223   -0.0005   -0.0183   -0.0020    0.0376    0.0428
          46   -0.0671   -0.0316   -0.0071   -0.0136    0.0647    0.0283    0.0185    0.0063
          47    0.0323    0.0434   -0.0417   -0.0080    0.0319   -0.0732   -0.0245    0.0535
          48   -0.0041    0.0218   -0.0429   -0.0184    0.0766   -0.0360   -0.0046    0.0622
          49    0.0262   -0.0055   -0.0829   -0.0449   -0.0490   -0.0285    0.0987    0.0296
          50    0.0462   -0.0428   -0.0501   -0.0360   -0.0246    0.0505   -0.0773   -0.0112
          51    0.0037    0.0171    0.0619    0.0328    0.0391   -0.0353    0.0290   -0.0169
          52    0.0271   -0.0069   -0.0787    0.0454   -0.0429   -0.0265    0.1102   -0.0398
          53   -0.0149    0.0049   -0.0323    0.0160   -0.0151    0.0049    0.0172   -0.0271
          54   -0.0086    0.0436    0.0741   -0.0713    0.0107   -0.0567    0.0696    0.0102
          55    0.0679    0.0710   -0.0780   -0.0173    0.1095   -0.0805   -0.0066    0.0057
          56    0.0416    0.0311   -0.0305    0.0000    0.0325   -0.0055   -0.0166   -0.0235
          57   -0.0415   -0.1080    0.0303   -0.0001   -0.0151   -0.0839    0.0327    0.0703
          58   -0.0008   -0.0697    0.0365    0.0190   -0.0878   -0.0793   -0.0356    0.0215
          59   -0.0097    0.0142    0.0223   -0.0048   -0.0373    0.1067    0.0241    0.0696
          60   -0.0005    0.0394   -0.0272   -0.0100    0.0574    0.0279    0.0128   -0.0327
          61    0.0855    0.0515    0.0870    0.1342    0.0371   -0.0141    0.0236   -0.0137
          62    0.0043    0.0373    0.0456    0.0675    0.0132   -0.0209    0.0471    0.0110
          63   -0.0703   -0.0019   -0.0417   -0.0598   -0.0295   -0.0183    0.0662    0.0612
          64    0.0613    0.0474    0.0842   -0.1500    0.0052   -0.0186   -0.0011    0.0188
          65    0.0601   -0.0182    0.0159   -0.0116    0.0118    0.0336   -0.0907    0.0633
          66   -0.0562   -0.0307   -0.0568    0.0962   -0.0059    0.0116    0.0055   -0.0229


   Root No.      25        26        27        28        29        30        31        32

                25 A      26 A      27 A      28 A      29 A      30 A      31 A      32 A   

                1027.2    1057.5    1079.5    1087.6    1091.9    1100.1    1104.7    1120.1
  
           1    0.0057   -0.0196   -0.0010   -0.0032   -0.0017    0.0085   -0.0075   -0.0068
           2   -0.0142   -0.0036    0.0023    0.0067    0.0034    0.0102    0.0057   -0.0081
           3    0.0015    0.0045   -0.0063   -0.0059   -0.0017   -0.0056   -0.0039    0.0105
           4   -0.0012    0.0124    0.0007   -0.0008    0.0028   -0.0168   -0.0216    0.0082
           5    0.0075    0.0007    0.0004    0.0045    0.0023   -0.0029   -0.0056   -0.0002
           6    0.0007   -0.0021   -0.0023   -0.0004   -0.0011    0.0111    0.0042   -0.0009
           7    0.0150   -0.0030   -0.0106    0.0018   -0.0084   -0.0193    0.0101    0.0215
           8    0.0175    0.0027   -0.0072   -0.0073   -0.0047   -0.0106   -0.0093    0.0083
           9    0.0087    0.0065   -0.0113   -0.0084   -0.0013    0.0159    0.0088    0.0091
          10   -0.0152   -0.0157    0.0131    0.0005    0.0086    0.0171   -0.0043   -0.0237
          11   -0.0043    0.0116   -0.0138   -0.0136    0.0003    0.0099   -0.0056    0.0124
          12   -0.0042    0.0078    0.0058    0.0051    0.0004   -0.0177   -0.0079   -0.0115
          13   -0.0128   -0.0022   -0.0073   -0.0052   -0.0019    0.0013    0.0038    0.0046
          14   -0.0008   -0.0122    0.0087    0.0070    0.0011   -0.0031    0.0072   -0.0126
          15    0.0086   -0.0045    0.0180    0.0133    0.0052   -0.0038   -0.0023   -0.0124
          16   -0.0159    0.0008    0.0018   -0.0003   -0.0015    0.0034    0.0044   -0.0017
          17   -0.0175    0.0014    0.0057   -0.0034    0.0060   -0.0020    0.0213   -0.0018
          18    0.0072   -0.0022    0.0055   -0.0114    0.0016   -0.0068    0.0029    0.0001
          19    0.0115    0.0009   -0.0011    0.0019   -0.0019    0.0034    0.0040   -0.0008
          20   -0.0024    0.0004    0.0066   -0.0129   -0.0109   -0.0024   -0.0053    0.0008
          21   -0.0122   -0.0024   -0.0001   -0.0024   -0.0042   -0.0004   -0.0184    0.0025
          22    0.0154    0.0158    0.0099    0.0081    0.0028   -0.0011    0.0009   -0.0064
          23    0.0088   -0.0036    0.0140    0.0112    0.0004    0.0000    0.0083   -0.0057
          24   -0.0089   -0.0256    0.0061    0.0083   -0.0005    0.0001    0.0113   -0.0076
          25    0.0139    0.0001   -0.0002   -0.0038    0.0012   -0.0024   -0.0045    0.0016
          26    0.0068   -0.0026    0.0004    0.0038    0.0044   -0.0005    0.0154   -0.0044
          27   -0.0085   -0.0010   -0.0003    0.0008    0.0051    0.0002    0.0057   -0.0010
          28   -0.0125    0.0000   -0.0010    0.0011    0.0032    0.0003   -0.0067    0.0014
          29   -0.0054    0.0026   -0.0016   -0.0006   -0.0060   -0.0005   -0.0117    0.0026
          30    0.0071    0.0019   -0.0016   -0.0014   -0.0013    0.0006   -0.0117    0.0030
          31    0.0058    0.0101   -0.0553   -0.0603   -0.0235    0.1142    0.0443    0.0451
          32   -0.0585    0.0087   -0.0956   -0.0379   -0.0160    0.0105    0.0579   -0.0092
          33   -0.0267    0.0237   -0.0905   -0.0573   -0.0227    0.0380    0.0517    0.0313
          34   -0.0404    0.1312    0.0265    0.0434   -0.0060   -0.0566    0.1445   -0.0072
          35    0.1376   -0.0213    0.0077   -0.0598   -0.0160   -0.0230   -0.0121    0.0077
          36    0.0630    0.0360    0.0129   -0.0208   -0.0168   -0.0180    0.0707   -0.0022
          37   -0.0232    0.0581   -0.0299    0.0243   -0.0258   -0.0489    0.0456    0.0476
          38    0.0566   -0.0550    0.0074   -0.0294    0.0096    0.0096   -0.0438   -0.0126
          39    0.0178    0.0620   -0.0470    0.0121   -0.0347   -0.0883    0.0323    0.0697
          40    0.0338   -0.0430   -0.0231   -0.0302    0.0106    0.1054    0.0210    0.0307
          41   -0.0389    0.0474    0.0017    0.0022   -0.0051   -0.0365   -0.0207   -0.0396
          42    0.0314   -0.0233   -0.0214   -0.0290    0.0094    0.0904    0.0171    0.0245
          43   -0.0172    0.0490    0.0219   -0.0120    0.0261    0.0469   -0.0258   -0.0586
          44    0.0167    0.1467   -0.0130   -0.0289    0.0144   -0.0013   -0.0532   -0.0203
          45   -0.0267    0.1565    0.0348   -0.0309    0.0521    0.0894   -0.0583   -0.1093
          46   -0.0072   -0.0464   -0.0135    0.0146   -0.0142   -0.0859   -0.0133   -0.0230
          47   -0.0564   -0.0484   -0.0657   -0.0448   -0.0060   -0.0310   -0.0438   -0.0002
          48   -0.0647   -0.0764   -0.0663   -0.0265   -0.0155   -0.1048   -0.0554   -0.0282
          49    0.0510   -0.0189    0.0553   -0.0583   -0.1002   -0.0144    0.0417   -0.0349
          50    0.0001    0.0156   -0.0543    0.0424    0.1138   -0.0074   -0.0469    0.0348
          51   -0.0292   -0.0108    0.0494   -0.0402   -0.0748    0.0033    0.0612   -0.0267
          52   -0.0222   -0.0069   -0.0382    0.0970   -0.0615    0.0269    0.0044   -0.0216
          53   -0.0199   -0.0003    0.0126   -0.0289    0.0040   -0.0116   -0.0232    0.0071
          54    0.0201   -0.0050   -0.0460    0.1168   -0.0995    0.0461    0.0363   -0.0323
          55    0.0004    0.0394    0.0619    0.0166    0.0079    0.0151   -0.0448    0.1153
          56    0.0228   -0.0142    0.0168    0.0176    0.0073   -0.0041    0.0038   -0.0330
          57   -0.0617    0.0371    0.0580    0.0005   -0.0073    0.0128   -0.0322    0.1575
          58   -0.0279   -0.0323   -0.0522   -0.0237    0.0006   -0.0148    0.0100   -0.0834
          59   -0.0582   -0.0703    0.0979    0.0438   -0.0076    0.0485    0.0021    0.1661
          60    0.0333    0.0197    0.0234    0.0199    0.0032   -0.0043    0.0073   -0.0065
          61   -0.0244   -0.0053   -0.0271    0.0354    0.0841    0.0044    0.0027    0.0110
          62    0.0060   -0.0117   -0.0379    0.0552    0.1200    0.0068    0.0271    0.0078
          63    0.0672   -0.0181   -0.0618    0.0762    0.1894    0.0084    0.0237    0.0177
          64    0.0265   -0.0097    0.0235   -0.0490    0.0639   -0.0251    0.0259    0.0048
          65    0.0396    0.0328   -0.0632    0.1222   -0.1731    0.0615   -0.0898   -0.0057
          66   -0.0250    0.0030   -0.0072    0.0102   -0.0119    0.0065   -0.0206    0.0024


   Root No.      33        34        35        36        37        38        39        40

                33 A      34 A      35 A      36 A      37 A      38 A      39 A      40 A   

                1127.0    1148.6    1204.3    1210.9    1233.0    1284.0    1308.1    1343.1
  
           1    0.0189   -0.0127   -0.0070    0.0483   -0.0136   -0.0084    0.0025    0.0120
           2   -0.0084   -0.0244   -0.0168   -0.0026    0.0345    0.0372    0.0148   -0.0466
           3   -0.0076    0.0320   -0.0114    0.0072    0.0142    0.0178    0.0232   -0.0326
           4   -0.0309    0.0103   -0.0024    0.0137   -0.0072   -0.0135    0.0315   -0.0318
           5   -0.0110    0.0061   -0.0284   -0.0203    0.0038    0.0158    0.0349    0.0691
           6    0.0198   -0.0068   -0.0219    0.0159   -0.0063   -0.0027    0.0436    0.0220
           7   -0.0002   -0.0015   -0.0090   -0.0005    0.0018    0.0469   -0.0146    0.0018
           8    0.0218    0.0203    0.0065   -0.0048   -0.0005   -0.0433    0.0055    0.0069
           9   -0.0153   -0.0103   -0.0051    0.0217   -0.0080    0.0311   -0.0205    0.0094
          10   -0.0033    0.0066    0.0099   -0.0133   -0.0098   -0.0098    0.0119   -0.0089
          11   -0.0019    0.0065   -0.0011    0.0048   -0.0070    0.0038    0.0178   -0.0178
          12    0.0151   -0.0017    0.0084   -0.0178   -0.0144   -0.0121    0.0292   -0.0233
          13   -0.0017    0.0064    0.0011   -0.0015    0.0097   -0.0080   -0.0118    0.0052
          14   -0.0012   -0.0039    0.0111   -0.0116   -0.0050   -0.0214   -0.0142    0.0175
          15    0.0026   -0.0070    0.0017    0.0058    0.0117   -0.0242   -0.0211    0.0205
          16    0.0032   -0.0022    0.0076   -0.0045    0.0085    0.0090    0.0081    0.0131
          17    0.0142    0.0081   -0.0097    0.0195   -0.0164   -0.0184   -0.0217   -0.0403
          18   -0.0019   -0.0001    0.0101    0.0096   -0.0003   -0.0034   -0.0005   -0.0099
          19    0.0042   -0.0015   -0.0050   -0.0091   -0.0042   -0.0038   -0.0167   -0.0076
          20   -0.0068   -0.0066    0.0100   -0.0146    0.0014   -0.0018   -0.0279   -0.0142
          21   -0.0131   -0.0044   -0.0077   -0.0202   -0.0050   -0.0058   -0.0330   -0.0234
          22    0.0000   -0.0084   -0.0021    0.0001    0.0077    0.0002   -0.0074    0.0024
          23   -0.0052   -0.0123    0.0051   -0.0121   -0.0173    0.0153    0.0050    0.0032
          24   -0.0092   -0.0076    0.0032   -0.0132   -0.0013    0.0100   -0.0077    0.0050
          25   -0.0048   -0.0036    0.0068   -0.0057    0.0041    0.0035   -0.0043    0.0035
          26    0.0098    0.0084    0.0068    0.0233   -0.0006   -0.0018    0.0248   -0.0061
          27    0.0031    0.0002    0.0118    0.0055    0.0060    0.0050    0.0096    0.0022
          28   -0.0037   -0.0015   -0.0046   -0.0090    0.0003    0.0012   -0.0055    0.0049
          29   -0.0077   -0.0057    0.0169   -0.0061    0.0112    0.0101    0.0037    0.0186
          30   -0.0063   -0.0070    0.0063   -0.0163    0.0070    0.0074   -0.0074    0.0187
          31    0.2281   -0.0569    0.0141   -0.1238    0.0397    0.0113    0.0024   -0.0252
          32   -0.1508   -0.0472    0.0299    0.0499   -0.0920   -0.0384   -0.0358    0.0845
          33   -0.0150    0.0015    0.0269   -0.0282   -0.0454   -0.0219   -0.0102    0.0373
          34   -0.0195    0.1557    0.0100   -0.0605    0.0121    0.0319   -0.0455    0.0430
          35   -0.0279   -0.0514    0.0741    0.0241    0.0155   -0.0119   -0.0379   -0.0732
          36    0.0143    0.0220    0.0458    0.0092    0.0092    0.0002   -0.0329   -0.0332
          37   -0.0083   -0.1223   -0.0226   -0.0013    0.0517   -0.1160    0.0423   -0.0194
          38    0.0328    0.1370    0.0179   -0.0050   -0.0452    0.1093   -0.0502    0.0375
          39    0.0027   -0.0616   -0.0207    0.0005    0.0413   -0.1013    0.0103    0.0517
          40   -0.0846    0.0598    0.0035   -0.0222    0.0458   -0.1053    0.0242    0.0241
          41    0.0619   -0.0891   -0.0039    0.0845   -0.0563    0.0679   -0.0609    0.0738
          42   -0.0728    0.0483    0.0039   -0.0086    0.0286   -0.0789    0.0147    0.0109
          43    0.0018    0.0144    0.0034    0.0084    0.0125   -0.0177   -0.0187    0.0185
          44    0.0439    0.0219   -0.0272    0.0684    0.0440    0.0297   -0.0618    0.0224
          45    0.0111    0.0181   -0.0020    0.0302    0.0351   -0.0436   -0.0374    0.0458
          46    0.0445    0.0095    0.0083   -0.0351    0.0126   -0.0527    0.0073    0.0243
          47    0.0387    0.0597   -0.0177    0.0436    0.0415    0.0143   -0.0517    0.0249
          48    0.0798    0.0606   -0.0113    0.0175    0.0517   -0.0196   -0.0538    0.0415
          49   -0.0031    0.0218   -0.0945    0.0130   -0.0308   -0.0264   -0.0027   -0.0124
          50   -0.0138   -0.0169    0.1051    0.0095    0.0235    0.0108   -0.0069   -0.0223
          51    0.0285    0.0181   -0.0739    0.0171   -0.0288   -0.0228   -0.0100   -0.0220
          52    0.0141    0.0400    0.0816    0.0608    0.0135    0.0148    0.0283   -0.0032
          53   -0.0228   -0.0117   -0.0098   -0.0279   -0.0014   -0.0042   -0.0318   -0.0160
          54    0.0426    0.0396    0.1200    0.0671    0.0195    0.0172    0.0083   -0.0095
          55    0.0417   -0.0065    0.0337    0.0003   -0.0837    0.0207    0.0233    0.0090
          56   -0.0024   -0.0144    0.0048   -0.0023    0.0061   -0.0240   -0.0165    0.0184
          57    0.0437    0.0134    0.0548   -0.0293   -0.1128    0.0102    0.0176    0.0225
          58   -0.0059   -0.0124    0.0162   -0.0462   -0.0445    0.0262    0.0299   -0.0166
          59   -0.0081    0.0231   -0.0300    0.0834    0.0939   -0.0438   -0.0776    0.0462
          60   -0.0047   -0.0149    0.0018   -0.0114    0.0020    0.0090   -0.0104    0.0062
          61    0.0065    0.0027   -0.0374   -0.0190   -0.0178   -0.0108   -0.0348   -0.0109
          62    0.0270    0.0176   -0.0548    0.0086   -0.0327   -0.0237   -0.0172   -0.0288
          63    0.0299    0.0130   -0.0858   -0.0207   -0.0447   -0.0292   -0.0630   -0.0308
          64   -0.0004   -0.0101    0.0397    0.0049    0.0226    0.0170    0.0181    0.0315
          65   -0.0189    0.0144   -0.0938   -0.0462   -0.0475   -0.0326   -0.0605   -0.0530
          66   -0.0073   -0.0055   -0.0027   -0.0210    0.0034    0.0054   -0.0141    0.0159


   Root No.      41        42        43        44        45        46        47        48

                41 A      42 A      43 A      44 A      45 A      46 A      47 A      48 A   

                1360.9    1396.4    1410.7    1420.6    1426.3    1732.6    1789.9    1831.6
  
           1    0.0167    0.0454   -0.0128   -0.0038   -0.0461   -0.0027   -0.0002   -0.0123
           2   -0.0091    0.0087   -0.0014    0.0090   -0.0027    0.0006   -0.0038    0.0030
           3   -0.0049    0.0306   -0.0115    0.0050   -0.0273   -0.0014   -0.0024   -0.0145
           4   -0.0283   -0.0345   -0.0018    0.0060    0.0511   -0.0112    0.0001   -0.0021
           5    0.0117   -0.0025    0.0029   -0.0071   -0.0118    0.0061    0.0007   -0.0027
           6   -0.0091   -0.0157   -0.0036    0.0007    0.0274   -0.0101    0.0004   -0.0032
           7   -0.0018   -0.0102    0.0078   -0.0124    0.0133    0.0001   -0.0002    0.0014
           8    0.0002   -0.0054   -0.0234   -0.0275   -0.0108   -0.0003    0.0005    0.0059
           9    0.0003   -0.0118   -0.0049   -0.0327    0.0071   -0.0002   -0.0001    0.0053
          10    0.0223   -0.0107   -0.0116    0.0193   -0.0056    0.0001   -0.0001    0.0087
          11    0.0323    0.0288    0.0424   -0.0182    0.0164   -0.0001    0.0001   -0.0176
          12    0.0504    0.0048    0.0125    0.0131    0.0030    0.0000    0.0000    0.0005
          13    0.0103   -0.0057    0.0115   -0.0033    0.0112    0.0003   -0.0012    0.1537
          14    0.0097   -0.0151    0.0053    0.0012    0.0108    0.0003    0.0018   -0.1253
          15    0.0223   -0.0139    0.0184   -0.0039    0.0197    0.0004   -0.0004    0.1300
          16    0.0021   -0.0057    0.0080   -0.0026   -0.0157    0.0872   -0.0779   -0.0015
          17   -0.0064    0.0099   -0.0122    0.0060    0.0247   -0.0174    0.0252    0.0007
          18   -0.0036   -0.0058    0.0038   -0.0004   -0.0034    0.1117   -0.0947   -0.0017
          19    0.0012   -0.0043    0.0081   -0.0018   -0.0157    0.0869    0.0787    0.0015
          20    0.0035    0.0050    0.0023    0.0001   -0.0097   -0.0902   -0.0727   -0.0003
          21    0.0004   -0.0051    0.0125   -0.0019   -0.0259    0.0666    0.0667    0.0019
          22   -0.0018   -0.0054    0.0023   -0.0009    0.0050    0.0000    0.0015   -0.1452
          23   -0.0417   -0.0012   -0.0271    0.0090   -0.0180    0.0001   -0.0018    0.1617
          24   -0.0305   -0.0097   -0.0145    0.0048   -0.0037    0.0001    0.0009   -0.0952
          25    0.0033    0.0050   -0.0015   -0.0001   -0.0022   -0.0763    0.0792    0.0013
          26   -0.0132   -0.0399    0.0297   -0.0060   -0.0347   -0.0008   -0.0094   -0.0003
          27   -0.0030   -0.0166    0.0160   -0.0039   -0.0253   -0.1090    0.1067    0.0018
          28    0.0035    0.0041   -0.0010   -0.0002   -0.0020   -0.0760   -0.0800   -0.0010
          29    0.0095    0.0322   -0.0283    0.0054    0.0384    0.0960    0.0905    0.0010
          30    0.0113    0.0260   -0.0186    0.0028    0.0201   -0.0493   -0.0581   -0.0007
          31   -0.0285   -0.0516    0.0138    0.0127    0.0556    0.0021    0.0003   -0.0001
          32    0.0181   -0.0196    0.0002   -0.0227    0.0055    0.0002    0.0011   -0.0223
          33   -0.0045   -0.0249    0.0007   -0.0087    0.0179   -0.0002    0.0009   -0.0198
          34    0.0323    0.0442   -0.0009   -0.0030   -0.0504    0.0052    0.0001    0.0001
          35   -0.0084    0.0012   -0.0018    0.0005   -0.0017   -0.0009   -0.0288    0.0009
          36    0.0032    0.0180   -0.0050    0.0024   -0.0086    0.0009   -0.0174   -0.0008
          37    0.0117   -0.0015   -0.0704   -0.0731   -0.0465   -0.0010   -0.0015    0.0052
          38   -0.0281   -0.0003    0.0741    0.0874    0.0476    0.0009    0.0015    0.0028
          39   -0.0756    0.0566    0.0591    0.2195   -0.0217    0.0002   -0.0001   -0.0017
          40   -0.0639    0.0415    0.0283    0.1641   -0.0228    0.0003   -0.0001   -0.0031
          41   -0.0366    0.0439    0.1024    0.1742    0.0228    0.0000    0.0006   -0.0002
          42   -0.0320    0.0114   -0.0119    0.0436   -0.0194   -0.0001   -0.0001    0.0053
          43   -0.0435   -0.0057   -0.0173   -0.0072   -0.0061    0.0001    0.0001   -0.0038
          44    0.0710   -0.1189   -0.1133    0.0941   -0.0372    0.0000    0.0004   -0.0253
          45   -0.1567    0.0663    0.0425   -0.0995    0.0163   -0.0001    0.0004   -0.0218
          46   -0.1684    0.1189    0.0990   -0.1341    0.0358   -0.0001    0.0002   -0.0021
          47    0.0065   -0.0567   -0.0533    0.0302   -0.0143   -0.0001    0.0004   -0.0277
          48   -0.0670   -0.0349   -0.0471   -0.0017   -0.0129    0.0000    0.0005   -0.0227
          49   -0.0009    0.0178   -0.0259    0.0069    0.0540   -0.0012    0.0010   -0.0012
          50   -0.0079   -0.0235    0.0254   -0.0045   -0.0426    0.0989   -0.0796   -0.0007
          51   -0.0027    0.0177   -0.0223    0.0071    0.0427    0.0594   -0.0470   -0.0013
          52   -0.0034    0.0191   -0.0267    0.0062    0.0536   -0.0009   -0.0006   -0.0002
          53    0.0029    0.0003    0.0078   -0.0011   -0.0203   -0.0980   -0.0791   -0.0003
          54    0.0024    0.0334   -0.0334    0.0084    0.0581   -0.0601   -0.0492   -0.0003
          55   -0.0467    0.0154   -0.0315    0.0035   -0.0341   -0.0009    0.0006    0.0102
          56    0.0166   -0.0163    0.0091    0.0012    0.0137    0.0003    0.0020   -0.1512
          57   -0.0571    0.0039   -0.0369    0.0063   -0.0306    0.0000    0.0016   -0.0857
          58   -0.0334    0.0021   -0.0273    0.0134   -0.0189   -0.0001    0.0005   -0.0588
          59    0.0285   -0.0179    0.0362   -0.0207    0.0335    0.0000    0.0015   -0.0844
          60   -0.0309   -0.0122   -0.0136    0.0049   -0.0016    0.0003    0.0013   -0.1390
          61    0.0082    0.0317   -0.0242    0.0056    0.0300   -0.0518    0.0280    0.0006
          62   -0.0078   -0.0057   -0.0001    0.0018    0.0090    0.0742   -0.1137   -0.0019
          63    0.0095    0.0452   -0.0347    0.0091    0.0449   -0.0281   -0.0283    0.0000
          64    0.0105    0.0283   -0.0243    0.0038    0.0311   -0.0512   -0.0277   -0.0005
          65   -0.0094   -0.0307    0.0315   -0.0047   -0.0451   -0.0087   -0.0774   -0.0005
          66    0.0119    0.0247   -0.0156    0.0021    0.0138   -0.0783   -0.0885   -0.0010


   Root No.      49        50        51        52        53        54        55        56

                49 A      50 A      51 A      52 A      53 A      54 A      55 A      56 A   

                2888.6    2897.6    2971.7    2987.4    3055.2    3066.3    3110.9    3129.7
  
           1   -0.0087    0.0132    0.0004   -0.0006    0.0003    0.0003   -0.0001   -0.0001
           2   -0.0152    0.0212    0.0008   -0.0010   -0.0003   -0.0005   -0.0002    0.0001
           3    0.0240   -0.0334   -0.0011    0.0014    0.0002   -0.0005   -0.0001   -0.0001
           4    0.0132    0.0102   -0.0001    0.0002    0.0000    0.0001    0.0000    0.0000
           5    0.0204    0.0145    0.0002   -0.0002    0.0000    0.0000   -0.0001    0.0002
           6   -0.0336   -0.0239    0.0000    0.0000    0.0000   -0.0001   -0.0001    0.0001
           7    0.0018   -0.0023    0.0182   -0.0274   -0.0008   -0.0031    0.0000   -0.0001
           8    0.0003   -0.0003    0.0088   -0.0134   -0.0042   -0.0242    0.0003   -0.0004
           9   -0.0012    0.0018   -0.0129    0.0191   -0.0053   -0.0261    0.0002   -0.0003
          10   -0.0001    0.0002   -0.0270   -0.0177   -0.0207    0.0036   -0.0001    0.0002
          11    0.0000   -0.0001   -0.0133   -0.0086    0.0274   -0.0047    0.0002   -0.0003
          12    0.0000    0.0000    0.0204    0.0132   -0.0107    0.0012    0.0001    0.0001
          13    0.0003   -0.0001   -0.0001   -0.0001    0.0000    0.0002    0.0116   -0.0019
          14    0.0002   -0.0003   -0.0001    0.0000    0.0003   -0.0005   -0.0405    0.0049
          15    0.0004   -0.0005    0.0001    0.0001    0.0002   -0.0001   -0.0109    0.0007
          16   -0.0003    0.0000    0.0000    0.0000    0.0000    0.0000   -0.0006    0.0038
          17    0.0006    0.0004    0.0000    0.0000    0.0000    0.0000   -0.0015    0.0124
          18   -0.0001   -0.0001    0.0000    0.0000    0.0000    0.0000   -0.0017    0.0128
          19   -0.0003    0.0000    0.0000    0.0001    0.0000    0.0002    0.0000   -0.0029
          20   -0.0001   -0.0001    0.0001   -0.0002   -0.0001   -0.0006    0.0000    0.0126
          21   -0.0006   -0.0004    0.0000   -0.0001    0.0000   -0.0001    0.0000    0.0038
          22   -0.0002    0.0003    0.0000   -0.0001    0.0006   -0.0003    0.0148    0.0046
          23    0.0001   -0.0001    0.0000    0.0000    0.0008   -0.0001    0.0072    0.0010
          24   -0.0001    0.0001    0.0000    0.0000    0.0014   -0.0006    0.0254    0.0071
          25    0.0003    0.0002    0.0000    0.0000    0.0000    0.0000   -0.0003    0.0098
          26    0.0000    0.0000    0.0000    0.0000    0.0000    0.0000    0.0005   -0.0149
          27    0.0002    0.0002    0.0000    0.0000    0.0000    0.0000   -0.0001    0.0048
          28    0.0003    0.0002    0.0000    0.0000    0.0000    0.0000    0.0000   -0.0077
          29   -0.0002   -0.0001    0.0000    0.0000    0.0000    0.0000    0.0000   -0.0021
          30    0.0001    0.0001    0.0000    0.0000    0.0000    0.0001    0.0000   -0.0123
          31    0.1142   -0.1624   -0.0044    0.0056   -0.0001   -0.0016    0.0005   -0.0002
          32    0.1873   -0.2564   -0.0099    0.0132   -0.0005   -0.0039   -0.0002   -0.0003
          33   -0.2923    0.4002    0.0129   -0.0172    0.0002    0.0041   -0.0023    0.0007
          34   -0.1733   -0.1269   -0.0004    0.0005   -0.0001   -0.0004    0.0000    0.0000
          35   -0.2480   -0.1752    0.0003   -0.0005   -0.0002   -0.0011   -0.0002    0.0008
          36    0.4103    0.2897    0.0001    0.0000    0.0003    0.0013    0.0001    0.0003
          37   -0.0109    0.0155   -0.1401    0.2164    0.0447    0.2559   -0.0015    0.0029
          38   -0.0108    0.0111   -0.1402    0.2127    0.0417    0.2327   -0.0011    0.0025
          39    0.0007   -0.0017    0.0150   -0.0180   -0.0091   -0.0473    0.0002   -0.0004
          40   -0.0064    0.0102   -0.0781    0.1109   -0.0407   -0.2191    0.0011   -0.0015
          41    0.0008   -0.0016    0.0340   -0.0504    0.0115    0.0599   -0.0002    0.0004
          42    0.0135   -0.0212    0.1401   -0.2105    0.0653    0.3614   -0.0021    0.0024
          43    0.0001   -0.0004    0.2672    0.1768    0.3634   -0.0674   -0.0009   -0.0027
          44   -0.0002    0.0003   -0.0462   -0.0305   -0.0368    0.0066    0.0009    0.0004
          45   -0.0003    0.0004   -0.0784   -0.0483   -0.1225    0.0213    0.0013    0.0011
          46    0.0004   -0.0005    0.0590    0.0355   -0.1149    0.0196    0.0008    0.0009
          47    0.0011   -0.0015    0.2065    0.1337   -0.2904    0.0490    0.0021    0.0025
          48   -0.0008    0.0011   -0.1675   -0.1109    0.2511   -0.0435   -0.0002   -0.0018
          49   -0.0006   -0.0003    0.0000    0.0000    0.0000    0.0001    0.0050   -0.0431
          50   -0.0013   -0.0007    0.0000    0.0000   -0.0001    0.0002    0.0182   -0.1476
          51   -0.0026   -0.0018    0.0000    0.0000   -0.0001    0.0002    0.0183   -0.1494
          52   -0.0006   -0.0003    0.0003   -0.0005   -0.0002   -0.0011    0.0001    0.0331
          53    0.0027    0.0020   -0.0016    0.0026    0.0010    0.0064   -0.0002   -0.1483
          54   -0.0002   -0.0001   -0.0006    0.0009    0.0003    0.0021   -0.0001   -0.0463
          55    0.0007   -0.0007   -0.0003   -0.0002    0.0027   -0.0028   -0.1266    0.0131
          56   -0.0026    0.0034    0.0000   -0.0002   -0.0093    0.0110    0.4725   -0.0486
          57    0.0002   -0.0004    0.0001    0.0002   -0.0024    0.0034    0.1378   -0.0139
          58   -0.0013    0.0017   -0.0003   -0.0003   -0.0091    0.0061   -0.1842   -0.0463
          59   -0.0004    0.0005   -0.0002   -0.0002   -0.0020    0.0026   -0.0793   -0.0193
          60   -0.0014    0.0019    0.0007    0.0005   -0.0140    0.0101   -0.3088   -0.0771
          61    0.0019    0.0013    0.0000    0.0000    0.0000   -0.0001    0.0041   -0.1158
          62   -0.0019   -0.0014    0.0000    0.0001    0.0000    0.0002   -0.0062    0.1742
          63    0.0006    0.0004    0.0000    0.0000    0.0000   -0.0001    0.0020   -0.0574
[...]
 TRAVEL      0.0751        C  2 --  H 12           +9.1% ( 47.9%)     0.3%
 RED. MASS   1.3536        C  1 --  C  2           +8.1% ( 45.1%)    50.5%
 EFF. MASS   9.1503

 VIBRATION   40   40A       ATOM PAIR        ENERGY CONTRIBUTION    RADIAL
 FREQ.      1343.11        C  2 --  C  6          +15.7% ( 62.8%)    92.2%
 T-DIPOLE    0.1478        C  1 --  C  2          +14.7% ( 60.8%)    10.5%
 TRAVEL      0.0717        C  2 --  C  7          +11.2% ( 53.0%)    40.4%
 RED. MASS   1.9499        C  2 --  H 12          +10.8% ( 51.9%)     0.1%
 EFF. MASS   9.7615

 VIBRATION   41   41A       ATOM PAIR        ENERGY CONTRIBUTION    RADIAL
 FREQ.      1360.88        C  4 --  C  8          +20.0% ( 60.5%)    79.6%
 T-DIPOLE    0.0974        C  4 --  H 16          +15.7% ( 53.7%)     0.2%
 TRAVEL      0.0844        C  4 --  H 15          +15.3% ( 53.0%)     0.2%
 RED. MASS   1.1403        C  5 --  C  8           +8.4% ( 39.2%)     0.1%
 EFF. MASS   6.9634

 VIBRATION   42   42A       ATOM PAIR        ENERGY CONTRIBUTION    RADIAL
 FREQ.      1396.43        C  9 --  C 10          +11.6% ( 51.3%)   100.0%
 T-DIPOLE    0.4106        C  1 --  C  2          +11.2% ( 50.5%)    73.8%
 TRAVEL      0.0755        C  1 --  C  5           +8.4% ( 43.7%)    84.2%
 RED. MASS   1.0356        C  1 --  H 11           +7.2% ( 40.6%)     0.2%
 EFF. MASS   8.4730

 VIBRATION   43   43A       ATOM PAIR        ENERGY CONTRIBUTION    RADIAL
 FREQ.      1410.73        C  4 --  C  8          +11.7% ( 47.5%)    98.1%
 T-DIPOLE    0.1867        C  9 --  C 10           +9.8% ( 43.5%)   100.0%
 TRAVEL      0.0824        C  4 --  H 15           +9.3% ( 42.5%)     5.5%
 RED. MASS   0.6648        C  4 --  H 16           +9.3% ( 42.4%)     5.7%
 EFF. MASS   7.0330

 VIBRATION   44   44A       ATOM PAIR        ENERGY CONTRIBUTION    RADIAL
 FREQ.      1420.57        C  3 --  H 13          +26.7% ( 54.2%)     4.7%
 T-DIPOLE    0.0568        C  3 --  H 14          +25.6% ( 53.1%)     5.3%
 TRAVEL      0.1263        C  3 --  C  4          +11.4% ( 35.4%)    95.2%
 RED. MASS   0.4035        C  4 --  H 16           +9.1% ( 31.7%)     5.5%
 EFF. MASS   2.9776

 VIBRATION   45   45A       ATOM PAIR        ENERGY CONTRIBUTION    RADIAL
 FREQ.      1426.28        C  1 --  C  2          +12.6% ( 56.5%)    75.4%
 T-DIPOLE    0.0343        C  9 --  C 10           +9.0% ( 47.7%)   100.0%
 TRAVEL      0.0700        C  2 --  C  7           +8.4% ( 46.2%)    65.1%
 RED. MASS   1.2673        C  2 --  C  6           +7.9% ( 44.8%)    53.9%
 EFF. MASS   9.6504

 VIBRATION   46   46A       ATOM PAIR        ENERGY CONTRIBUTION    RADIAL
 FREQ.      1732.64        C  6 --  C  9          +18.3% ( 72.9%)    99.9%
 T-DIPOLE    0.4234        C  7 --  C 10          +18.1% ( 72.4%)    99.9%
 TRAVEL      0.0569        C  7 --  C  9          +10.7% ( 55.7%)    25.9%
 RED. MASS   2.7232        C  6 --  C 10          +10.7% ( 55.7%)    26.0%
 EFF. MASS  12.0253

 VIBRATION   47   47A       ATOM PAIR        ENERGY CONTRIBUTION    RADIAL
 FREQ.      1789.91        C  7 --  C 10          +18.0% ( 70.4%)    99.8%
 T-DIPOLE    0.3048        C  6 --  C  9          +17.8% ( 69.9%)    99.8%
 TRAVEL      0.0565        C  9 --  C 10          +12.1% ( 57.7%)     0.0%
 RED. MASS   2.6851        C  7 --  C  9          +10.9% ( 54.7%)    67.2%
 EFF. MASS  11.7986        C  6 --  C 10          +10.9% ( 54.7%)    65.1%

 VIBRATION   48   48A       ATOM PAIR        ENERGY CONTRIBUTION    RADIAL
 FREQ.      1831.60        C  5 --  C  8          +45.8% (100.2%)   100.0%
 T-DIPOLE    0.1793        C  1 --  C  5          +13.9% ( 55.2%)    25.0%
 TRAVEL      0.0557        C  4 --  C  8          +13.9% ( 55.1%)    25.7%
 RED. MASS   5.3958        C  5 --  H 19          +13.0% ( 53.3%)    10.0%
 EFF. MASS  11.8861        C  8 --  H 20          +12.9% ( 53.2%)     9.6%

 VIBRATION   49   49A       ATOM PAIR        ENERGY CONTRIBUTION    RADIAL
 FREQ.      2888.62        C  2 --  H 12          +63.8% ( 81.3%)   100.0%
 T-DIPOLE    0.1135        C  1 --  H 11          +32.9% ( 58.3%)   100.0%
 TRAVEL      0.1272        C  1 --  C  2           +1.1% ( 10.9%)     9.5%
 RED. MASS   0.5116        C  2 --  C  6           +0.7% (  8.2%)    10.8%
 EFF. MASS   1.4417

 VIBRATION   50   50A       ATOM PAIR        ENERGY CONTRIBUTION    RADIAL
 FREQ.      2897.61        C  1 --  H 11          +63.8% ( 81.0%)   100.0%
 T-DIPOLE    0.2025        C  2 --  H 12          +33.0% ( 58.2%)   100.0%
 TRAVEL      0.1273        C  1 --  C  2           +0.9% (  9.5%)     6.4%
 RED. MASS   0.5093        C  1 --  C  3           +0.7% (  8.5%)    10.0%
 EFF. MASS   1.4368

 VIBRATION   51   51A       ATOM PAIR        ENERGY CONTRIBUTION    RADIAL
 FREQ.      2971.69        C  4 --  H 15          +35.1% ( 61.7%)    96.7%
 T-DIPOLE    0.0079        C  4 --  H 16          +32.9% ( 59.7%)    96.3%
 TRAVEL      0.1209        C  3 --  H 13          +17.3% ( 43.3%)    97.2%
 RED. MASS   0.3011        C  3 --  H 14          +12.2% ( 36.3%)    95.1%
 EFF. MASS   1.5527

 VIBRATION   52   52A       ATOM PAIR        ENERGY CONTRIBUTION    RADIAL
 FREQ.      2987.43        C  3 --  H 13          +41.0% ( 66.2%)    97.6%
 T-DIPOLE    0.0666        C  3 --  H 14          +27.2% ( 54.0%)    95.2%
 TRAVEL      0.1215        C  4 --  H 15          +15.4% ( 40.6%)    97.1%
 RED. MASS   0.3074        C  4 --  H 16          +14.1% ( 38.9%)    96.6%
 EFF. MASS   1.5278

 VIBRATION   53   53A       ATOM PAIR        ENERGY CONTRIBUTION    RADIAL
 FREQ.      3055.22        C  4 --  H 16          +49.7% ( 69.5%)    97.8%
 T-DIPOLE    0.0865        C  4 --  H 15          +45.7% ( 66.7%)    97.3%
 TRAVEL      0.1311        C  3 --  H 14           +1.9% ( 13.6%)    98.6%
 RED. MASS   0.4547        C  3 --  H 13           +1.2% ( 10.7%)    95.4%
 EFF. MASS   1.2841

 VIBRATION   54   54A       ATOM PAIR        ENERGY CONTRIBUTION    RADIAL
 FREQ.      3066.31        C  3 --  H 14          +57.8% ( 74.9%)    98.6%
 T-DIPOLE    0.0867        C  3 --  H 13          +37.7% ( 60.5%)    96.1%
 TRAVEL      0.1310        C  4 --  H 15           +1.6% ( 12.3%)    97.9%
 RED. MASS   0.4711        C  4 --  H 16           +1.5% ( 11.9%)    97.7%
 EFF. MASS   1.2816

 VIBRATION   55   55A       ATOM PAIR        ENERGY CONTRIBUTION    RADIAL
 FREQ.      3110.91        C  5 --  H 19          +63.8% ( 81.1%)   100.0%
 T-DIPOLE    0.3722        C  8 --  H 20          +33.4% ( 58.7%)   100.0%
 TRAVEL      0.1216        C  5 --  C  8           +1.1% ( 10.9%)     2.5%
 RED. MASS   0.5090        C  1 --  C  5           +1.0% ( 10.1%)    24.8%
 EFF. MASS   1.4670

 VIBRATION   56   56A       ATOM PAIR        ENERGY CONTRIBUTION    RADIAL
 FREQ.      3129.70        C  9 --  H 21          +28.4% ( 54.6%)   100.0%
 T-DIPOLE    0.3001        C  6 --  H 17          +27.7% ( 53.9%)   100.0%
 TRAVEL      0.1203        C 10 --  H 22          +17.7% ( 43.1%)   100.0%
 RED. MASS   0.2171        C  7 --  H 18          +15.2% ( 39.9%)   100.0%
 EFF. MASS   1.4891

 VIBRATION   57   57A       ATOM PAIR        ENERGY CONTRIBUTION    RADIAL
 FREQ.      3130.78        C  8 --  H 20          +27.8% ( 53.9%)    99.9%
 T-DIPOLE    0.4797        C  7 --  H 18          +24.3% ( 50.4%)   100.0%
 TRAVEL      0.1180        C 10 --  H 22          +21.5% ( 47.3%)   100.0%
 RED. MASS   0.2079        C  5 --  H 19          +13.2% ( 37.1%)    99.9%
 EFF. MASS   1.5474

 VIBRATION   58   58A       ATOM PAIR        ENERGY CONTRIBUTION    RADIAL
 FREQ.      3131.63        C  8 --  H 20          +29.6% ( 55.6%)    99.9%
 T-DIPOLE    0.3125        C  5 --  H 19          +17.6% ( 42.8%)    99.9%
 TRAVEL      0.1175        C  6 --  H 17          +16.3% ( 41.2%)   100.0%
 RED. MASS   0.1865        C  9 --  H 21          +14.8% ( 39.3%)   100.0%
 EFF. MASS   1.5594        C  7 --  H 18          +10.6% ( 33.3%)   100.0%

 VIBRATION   59   59A       ATOM PAIR        ENERGY CONTRIBUTION    RADIAL
 FREQ.      3142.68        C  6 --  H 17          +25.0% ( 51.4%)    99.9%
 T-DIPOLE    0.5110        C  7 --  H 18          +24.7% ( 51.1%)    99.9%
 TRAVEL      0.1157        C  9 --  H 21          +22.5% ( 48.8%)    99.9%
 RED. MASS   0.2334        C 10 --  H 22          +22.0% ( 48.2%)    99.9%
 EFF. MASS   1.6032

 VIBRATION   60   60A       ATOM PAIR        ENERGY CONTRIBUTION    RADIAL
 FREQ.      3153.30        C 10 --  H 22          +27.0% ( 53.5%)   100.0%
 T-DIPOLE    0.2619        C  9 --  H 21          +26.5% ( 53.0%)   100.0%
 TRAVEL      0.1121        C  7 --  H 18          +20.2% ( 46.2%)    99.9%
 RED. MASS   0.2395        C  6 --  H 17          +19.7% ( 45.7%)    99.9%
 EFF. MASS   1.7015

 SYMMETRY NUMBER FOR POINT-GROUP C1  =  1


          SYSTEM IS A GROUND STATE


    NULL



          MOLECULE IS NOT LINEAR

          THERE ARE 60 GENUINE VIBRATIONS IN THIS SYSTEM
          THIS THERMODYNAMICS CALCULATION IS LIMITED TO
          MOLECULES WHICH HAVE NO INTERNAL ROTATIONS




                    CALCULATED THERMODYNAMIC PROPERTIES
                                          *
   TEMP. (K)   PARTITION FUNCTION   H.O.F.    ENTHALPY  HEAT CAPACITY ENTROPY
                                   KCAL/MOL   CAL/MOLE    CAL/K/MOL  CAL/K/MOL


 298.00  VIB.     0.9601D+02                  3504.5280    27.4806    20.8308
         ROT.     0.5764D+06                   888.2813     2.9808    29.3402
         INT.     0.5534D+08                  4392.8093    30.4615    50.1710
         TRA.     0.1470D+28                  1480.4688     4.9680    40.5480
         TOT.                       43.678    5873.2781    35.4295    90.7189

 200.00  VIB.     0.1515D+02                  1427.4530    15.4064    12.5389
         ROT.     0.3169D+06                   596.1620     2.9808    28.1515
         INT.     0.4802D+07                  2023.6150    18.3872    40.6904
         TRA.     0.8080D+27                   993.6033     4.9680    38.5668
         TOT.                       40.822    3017.2182    23.3552    79.2573

 210.00  VIB.     0.1815D+02                  1586.8180    16.4749    13.3162
         ROT.     0.3410D+06                   625.9700     2.9808    28.2970
         INT.     0.6188D+07                  2212.7881    19.4557    41.6132
         TRA.     0.8694D+27                  1043.2834     4.9680    38.8092
         TOT.                       41.061    3256.0715    24.4237    80.4224

 220.00  VIB.     0.2177D+02                  1757.1124    17.5918    14.1082
         ROT.     0.3656D+06                   655.7781     2.9808    28.4356
         INT.     0.7958D+07                  2412.8905    20.5726    42.5439
         TRA.     0.9322D+27                  1092.9636     4.9680    39.0403
         TOT.                       41.310    3505.8541    25.5406    81.5842

 230.00  VIB.     0.2615D+02                  1938.8037    18.7536    14.9157
         ROT.     0.3908D+06                   685.5862     2.9808    28.5682
         INT.     0.1022D+08                  2624.3899    21.7344    43.4838
         TRA.     0.9965D+27                  1142.6437     4.9680    39.2612
         TOT.                       41.572    3767.0336    26.7025    82.7450

 240.00  VIB.     0.3148D+02                  2132.3206    19.9562    15.7391
         ROT.     0.4166D+06                   715.3943     2.9808    28.6950
         INT.     0.1311D+08                  2847.7150    22.9370    44.4341
         TRA.     0.1062D+28                  1192.3239     4.9680    39.4726
         TOT.                       41.845    4040.0389    27.9050    83.9067

 250.00  VIB.     0.3796D+02                  2338.0472    21.1947    16.5788
         ROT.     0.4429D+06                   745.2024     2.9808    28.8167
         INT.     0.1681D+08                  3083.2496    24.1755    45.3955
         TRA.     0.1129D+28                  1242.0041     4.9680    39.6754
         TOT.                       42.130    4325.2537    29.1435    85.0709

 260.00  VIB.     0.4587D+02                  2556.3183    22.4642    17.4347
         ROT.     0.4697D+06                   775.0105     2.9808    28.9336
         INT.     0.2155D+08                  3331.3288    25.4450    46.3683
         TRA.     0.1198D+28                  1291.6842     4.9680    39.8703
         TOT.                       42.428    4623.0130    30.4130    86.2385

 270.00  VIB.     0.5554D+02                  2787.4177    23.7595    18.3067
         ROT.     0.4971D+06                   804.8186     2.9808    29.0461
         INT.     0.2761D+08                  3592.2363    26.7403    47.3528
         TRA.     0.1267D+28                  1341.3644     4.9680    40.0578
         TOT.                       42.738    4933.6007    31.7084    87.4106

 280.00  VIB.     0.6740D+02                  3031.5778    25.0755    19.1945
         ROT.     0.5250D+06                   834.6267     2.9808    29.1545
         INT.     0.3538D+08                  3866.2046    28.0563    48.3490
         TRA.     0.1338D+28                  1391.0445     4.9680    40.2384
         TOT.                       43.062    5257.2491    33.0244    88.5874

 290.00  VIB.     0.8197D+02                  3288.9804    26.4072    20.0976
         ROT.     0.5533D+06                   864.4348     2.9808    29.2591
         INT.     0.4536D+08                  4153.4153    29.3880    49.3567
         TRA.     0.1411D+28                  1440.7247     4.9680    40.4128
         TOT.                       43.399    5594.1400    34.3560    89.7695

 300.00  VIB.     0.9991D+02                  3559.7584    27.7498    21.0155
         ROT.     0.5822D+06                   894.2429     2.9808    29.3602
         INT.     0.5817D+08                  4454.0013    30.7306    50.3756
         TRA.     0.1484D+28                  1490.4049     4.9680    40.5812
         TOT.                       43.749    5944.4062    35.6986    90.9568

 310.00  VIB.     0.1220D+03                  3843.9984    29.0989    21.9474
         ROT.     0.6116D+06                   924.0510     2.9808    29.4579
         INT.     0.7464D+08                  4768.0494    32.0797    51.4053
         TRA.     0.1559D+28                  1540.0850     4.9680    40.7441
         TOT.                       44.113    6308.1344    37.0477    92.1494

 320.00  VIB.     0.1494D+03                  4141.7439    30.4503    22.8926
         ROT.     0.6414D+06                   953.8591     2.9808    29.5525
         INT.     0.9584D+08                  5095.6030    33.4311    52.4451
         TRA.     0.1635D+28                  1589.7652     4.9680    40.9018
         TOT.                       44.490    6685.3682    38.3991    93.3469

 330.00  VIB.     0.1834D+03                  4452.9989    31.8002    23.8502
         ROT.     0.6717D+06                   983.6672     2.9808    29.6443
         INT.     0.1232D+09                  5436.6661    34.7810    53.4945
         TRA.     0.1713D+28                  1639.4454     4.9680    41.0547
         TOT.                       44.881    7076.1115    39.7490    94.5492

 340.00  VIB.     0.2255D+03                  4777.7312    33.1452    24.8196
         ROT.     0.7025D+06                  1013.4753     2.9808    29.7332
         INT.     0.1584D+09                  5791.2065    36.1260    54.5528
         TRA.     0.1791D+28                  1689.1255     4.9680    41.2030
         TOT.                       45.285    7480.3321    41.0940    95.7558

 350.00  VIB.     0.2779D+03                  5115.8764    34.4823    25.7997
         ROT.     0.7337D+06                  1043.2834     2.9808    29.8197
         INT.     0.2039D+09                  6159.1598    37.4631    55.6193
         TRA.     0.1871D+28                  1738.8057     4.9680    41.3470
         TOT.                       45.702    7897.9655    42.4311    96.9663

 360.00  VIB.     0.3433D+03                  5467.3414    35.8087    26.7897
         ROT.     0.7653D+06                  1073.0915     2.9808    29.9036
         INT.     0.2628D+09                  6540.4329    38.7895    56.6933
         TRA.     0.1951D+28                  1788.4859     4.9680    41.4870
         TOT.                       46.133    8328.9187    43.7576    98.1803

 370.00  VIB.     0.4250D+03                  5832.0078    37.1222    27.7888
         ROT.     0.7974D+06                  1102.8996     2.9808    29.9853
         INT.     0.3389D+09                  6934.9074    40.1030    57.7741
         TRA.     0.2033D+28                  1838.1660     4.9680    41.6231
         TOT.                       46.578    8773.0735    45.0710    99.3971

 380.00  VIB.     0.5271D+03                  6209.7357    38.4207    28.7960
         ROT.     0.8300D+06                  1132.7077     2.9808    30.0648
         INT.     0.4375D+09                  7342.4434    41.4015    58.8608
         TRA.     0.2116D+28                  1887.8462     4.9680    41.7556
         TOT.                       47.035    9230.2896    46.3695   100.6164

 390.00  VIB.     0.6551D+03                  6600.3665    39.7025    29.8106
         ROT.     0.8630D+06                  1162.5158     2.9808    30.1422
         INT.     0.5653D+09                  7762.8823    42.6833    59.9528
         TRA.     0.2200D+28                  1937.5263     4.9680    41.8846
         TOT.                       47.505    9700.4086    47.6513   101.8375

 400.00  VIB.     0.8158D+03                  7003.7257    40.9662    30.8318
         ROT.     0.8964D+06                  1192.3239     2.9808    30.2177
         INT.     0.7312D+09                  8196.0496    43.9470    61.0495
         TRA.     0.2285D+28                  1987.2065     4.9680    42.0104
         TOT.                       47.988   10183.2561    48.9150   103.0599

   *: NOTE: HEATS OF FORMATION ARE RELATIVE TO THE
            ELEMENTS IN THEIR STANDARD STATE AT 298K
              (=  Standard Enthalpy of Formation).

            Hvib:  Zero-point energy is not included.
                   frequencies of less than zero cm-1 are not included.
            Hrot = (3/2)RT
            Htra = (3/2)RT + pV = (5/2)RT

            Heat capacity is Cp, not Cv

           For more information, see: HTTP://OpenMOPAC.net/Manual/thermochemistry.html


           FORCE CONSTANT IN CARTESIAN COORDINATES (Millidynes/A)

    ATOM   CHEMICAL       X               Y               Z
   NUMBER   SYMBOL  FORCE CONSTANT  FORCE CONSTANT  FORCE CONSTANT

      1       C        8.494725        7.692510        8.892376
      2       C        8.648807        8.163078        8.659602
      3       C        7.928340        8.016826        8.466579
      4       C        8.301164        9.268561        7.734225
      5       C        7.574703       11.988952        7.864503
      6       C        6.724859        8.663991       11.351286
      7       C        6.750900       12.708044        7.289033
      8       C        7.956509        9.731757        9.824237
      9       C        7.452635       10.303922        9.728089
     10       C        7.450639        9.793429       10.237378
     11       H        1.098771        1.715283        3.179202
     12       H        1.135586        1.554310        3.200114
     13       H        2.979039        2.795753        0.744068
     14       H        1.769126        0.830703        3.905362
     15       H        4.584290        0.719999        1.079237
     16       H        0.967387        3.062317        2.368319
     17       H        0.683854        2.878515        2.885962
     18       H        0.695990        4.761829        0.993901
     19       H        0.801977        4.661907        0.944327
     20       H        1.680724        0.873266        3.870884
     21       H        1.836498        3.696929        0.926823
     22       H        1.815742        0.750537        3.896328



 TOTAL CPU TIME:             2.89 SECONDS

 == MOPAC DONE ==
