 *******************************************************************************
 ** Site#: 14399           For non-commercial use only        Version 13.159M **
 *******************************************************************************
 ** Cite this work as: MOPAC2012, James J. P. Stewart, Stewart Computational  **
 ** Chemistry, Version 13.159M web: HTTP://OpenMOPAC.net  Days remaining:   6 **
 *******************************************************************************
 **                                                                           **
 **                                MOPAC2012                                  **
 **                                                                           **
 *******************************************************************************

                            PM3 CALCULATION RESULTS


 *******************************************************************************
 *  CALCULATION DONE:                                Mon Jun  2 11:07:15 2014  *
 *  PM3      - The PM3 Hamiltonian to be used
 *  PRECISE  - CRITERIA TO BE INCREASED BY 100 TIMES
 *  NOSYM    - POINT-GROUP SYMMETRY SET TO C1
 *  T=       - A TIME OF 172800.0 SECONDS REQUESTED
 *  DUMP=N   - RESTART FILE WRITTEN EVERY  7200.000 SECONDS
 *******************************************************************************
pm3  precise nosym
 InChI=1S/C11H18/c1-4-6-7-10-8-9(3)11(10)5-2/h5-7,9-11H,2,4,8H2,1,3H3

   ATOM   CHEMICAL          X               Y               Z
  NUMBER   SYMBOL      (ANGSTROMS)     (ANGSTROMS)     (ANGSTROMS)
 
     1       C         -2.22510000  *  -0.50650000  *  -0.26760000  *
     2       C         -1.07150000  *   0.41250000  *   0.25600000  *
     3       C         -0.37420000  *   0.20310000  *  -1.09260000  *
     4       C         -1.32940000  *  -0.89230000  *  -1.44170000  *
     5       C          3.45870000  *   0.30300000  *  -0.46740000  *
     6       C         -2.60880000  *  -1.65100000  *   0.66810000  *
     7       C          3.72700000  *  -0.71670000  *   0.63420000  *
     8       C          1.07440000  *  -0.19750000  *  -0.99060000  *
     9       C         -1.48450000  *   1.82850000  *   0.55470000  *
    10       C          2.00600000  *   0.67030000  *  -0.57290000  *
    11       C         -2.25140000  *   2.12230000  *   1.60650000  *
    12       H         -3.12310000  *   0.06190000  *  -0.61190000  *
    13       H         -0.50820000  *  -0.03470000  *   1.11180000  *
    14       H         -0.49550000  *   1.05780000  *  -1.80240000  *
    15       H         -1.82680000  *  -0.74760000  *  -2.42920000  *
    16       H         -0.90870000  *  -1.92290000  *  -1.35430000  *
    17       H          4.04450000  *   1.22340000  *  -0.24040000  *
    18       H          3.82490000  *  -0.08490000  *  -1.44600000  *
    19       H          4.82000000  *  -0.91890000  *   0.70140000  *
    20       H          3.21410000  *  -1.68250000  *   0.42380000  *
    21       H          3.38350000  *  -0.33140000  *   1.62160000  *
    22       H         -1.72030000  *  -2.23110000  *   1.00790000  *
    23       H         -3.12640000  *  -1.24290000  *   1.56520000  *
    24       H         -3.30570000  *  -2.34540000  *   0.14680000  *
    25       H         -1.13930000  *   2.64180000  *  -0.08240000  *
    26       H          1.71540000  *   1.68790000  *  -0.31110000  *
    27       H          1.37270000  *  -1.20660000  *  -1.27460000  *
    28       H         -2.61250000  *   1.34540000  *   2.27860000  *
    29       H         -2.52980000  *   3.15480000  *   1.80860000  *
 


          CARTESIAN COORDINATES 

    NO.       ATOM         X         Y         Z

     1         C       -2.2251   -0.5065   -0.2676
     2         C       -1.0715    0.4125    0.2560
     3         C       -0.3742    0.2031   -1.0926
     4         C       -1.3294   -0.8923   -1.4417
     5         C        3.4587    0.3030   -0.4674
     6         C       -2.6088   -1.6510    0.6681
     7         C        3.7270   -0.7167    0.6342
     8         C        1.0744   -0.1975   -0.9906
     9         C       -1.4845    1.8285    0.5547
    10         C        2.0060    0.6703   -0.5729
    11         C       -2.2514    2.1223    1.6065
    12         H       -3.1231    0.0619   -0.6119
    13         H       -0.5082   -0.0347    1.1118
    14         H       -0.4955    1.0578   -1.8024
    15         H       -1.8268   -0.7476   -2.4292
    16         H       -0.9087   -1.9229   -1.3543
    17         H        4.0445    1.2234   -0.2404
    18         H        3.8249   -0.0849   -1.4460
    19         H        4.8200   -0.9189    0.7014
    20         H        3.2141   -1.6825    0.4238
    21         H        3.3835   -0.3314    1.6216
    22         H       -1.7203   -2.2311    1.0079
    23         H       -3.1264   -1.2429    1.5652
    24         H       -3.3057   -2.3454    0.1468
    25         H       -1.1393    2.6418   -0.0824
    26         H        1.7154    1.6879   -0.3111
    27         H        1.3727   -1.2066   -1.2746
    28         H       -2.6125    1.3454    2.2786
    29         H       -2.5298    3.1548    1.8086

  H: (PM3): J. J. P. STEWART, J. COMP. CHEM. 10, 209 (1989).
  C: (PM3): J. J. P. STEWART, J. COMP. CHEM. 10, 209 (1989).

           Empirical Formula: C11 H18  =    29 atoms



      MOLECULAR POINT GROUP   :   C1  


      RHF CALCULATION, NO. OF DOUBLY OCCUPIED LEVELS =   31

      Geometry optimization using EF

          DIAGONAL MATRIX USED AS START HESSIAN

 CYCLE:     1 TIME:   0.014 TIME LEFT:  2.00D  GRAD.:   108.473 HEAT: 18.90287
 CYCLE:     2 TIME:   0.021 TIME LEFT:  2.00D  GRAD.:   118.753 HEAT: 18.17994
 CYCLE:     3 TIME:   0.012 TIME LEFT:  2.00D  GRAD.:   140.182 HEAT: 18.06706
 CYCLE:     4 TIME:   0.021 TIME LEFT:  2.00D  GRAD.:    51.653 HEAT: 15.11241
 CYCLE:     5 TIME:   0.021 TIME LEFT:  2.00D  GRAD.:    33.158 HEAT: 14.48749
 CYCLE:     6 TIME:   0.012 TIME LEFT:  2.00D  GRAD.:    47.530 HEAT: 14.44577
 CYCLE:     7 TIME:   0.013 TIME LEFT:  2.00D  GRAD.:    30.527 HEAT: 14.15027
 CYCLE:     8 TIME:   0.012 TIME LEFT:  2.00D  GRAD.:    34.640 HEAT: 14.11218
 CYCLE:     9 TIME:   0.011 TIME LEFT:  2.00D  GRAD.:    35.123 HEAT: 14.07525
 CYCLE:    10 TIME:   0.020 TIME LEFT:  2.00D  GRAD.:    13.034 HEAT: 13.78203
 CYCLE:    11 TIME:   0.020 TIME LEFT:  2.00D  GRAD.:    10.334 HEAT: 13.74671
 CYCLE:    12 TIME:   0.011 TIME LEFT:  2.00D  GRAD.:    11.634 HEAT: 13.72865
 CYCLE:    13 TIME:   0.011 TIME LEFT:  2.00D  GRAD.:     8.312 HEAT: 13.69476
 CYCLE:    14 TIME:   0.020 TIME LEFT:  2.00D  GRAD.:     7.747 HEAT: 13.67916
 CYCLE:    15 TIME:   0.011 TIME LEFT:  2.00D  GRAD.:     6.119 HEAT: 13.66228
 CYCLE:    16 TIME:   0.011 TIME LEFT:  2.00D  GRAD.:     7.807 HEAT: 13.65119
 CYCLE:    17 TIME:   0.011 TIME LEFT:  2.00D  GRAD.:     7.947 HEAT: 13.64268
 CYCLE:    18 TIME:   0.020 TIME LEFT:  2.00D  GRAD.:     4.363 HEAT: 13.62704
 CYCLE:    19 TIME:   0.011 TIME LEFT:  2.00D  GRAD.:     3.369 HEAT: 13.61847
 CYCLE:    20 TIME:   0.011 TIME LEFT:  2.00D  GRAD.:     5.244 HEAT: 13.61300
 CYCLE:    21 TIME:   0.019 TIME LEFT:  2.00D  GRAD.:     4.240 HEAT: 13.60719
 CYCLE:    22 TIME:   0.011 TIME LEFT:  2.00D  GRAD.:     4.264 HEAT: 13.60043
 CYCLE:    23 TIME:   0.011 TIME LEFT:  2.00D  GRAD.:     2.899 HEAT: 13.59106
 CYCLE:    24 TIME:   0.011 TIME LEFT:  2.00D  GRAD.:     4.352 HEAT: 13.58305
 CYCLE:    25 TIME:   0.011 TIME LEFT:  2.00D  GRAD.:     4.733 HEAT: 13.57374
 CYCLE:    26 TIME:   0.011 TIME LEFT:  2.00D  GRAD.:     5.038 HEAT: 13.56804
 CYCLE:    27 TIME:   0.011 TIME LEFT:  2.00D  GRAD.:     5.904 HEAT: 13.56202
 CYCLE:    28 TIME:   0.011 TIME LEFT:  2.00D  GRAD.:     6.073 HEAT: 13.55592
 CYCLE:    29 TIME:   0.011 TIME LEFT:  2.00D  GRAD.:     4.110 HEAT: 13.54358
 CYCLE:    30 TIME:   0.011 TIME LEFT:  2.00D  GRAD.:     3.196 HEAT: 13.53364
 CYCLE:    31 TIME:   0.011 TIME LEFT:  2.00D  GRAD.:     4.439 HEAT: 13.51966
 CYCLE:    32 TIME:   0.011 TIME LEFT:  2.00D  GRAD.:     5.287 HEAT: 13.49658
 CYCLE:    33 TIME:   0.011 TIME LEFT:  2.00D  GRAD.:     5.929 HEAT: 13.47442
 CYCLE:    34 TIME:   0.011 TIME LEFT:  2.00D  GRAD.:     6.053 HEAT: 13.44797
 CYCLE:    35 TIME:   0.011 TIME LEFT:  2.00D  GRAD.:     6.130 HEAT: 13.41062
 CYCLE:    36 TIME:   0.011 TIME LEFT:  2.00D  GRAD.:     8.051 HEAT: 13.35805
 CYCLE:    37 TIME:   0.011 TIME LEFT:  2.00D  GRAD.:     7.421 HEAT: 13.31641
 CYCLE:    38 TIME:   0.012 TIME LEFT:  2.00D  GRAD.:     6.204 HEAT: 13.26076
 CYCLE:    39 TIME:   0.012 TIME LEFT:  2.00D  GRAD.:     5.840 HEAT: 13.19934
 CYCLE:    40 TIME:   0.014 TIME LEFT:  2.00D  GRAD.:     4.948 HEAT: 13.15093
 CYCLE:    41 TIME:   0.011 TIME LEFT:  2.00D  GRAD.:     5.314 HEAT: 13.12123
 CYCLE:    42 TIME:   0.011 TIME LEFT:  2.00D  GRAD.:     8.138 HEAT: 13.11365
 CYCLE:    43 TIME:   0.011 TIME LEFT:  2.00D  GRAD.:     4.168 HEAT: 13.06276
 CYCLE:    44 TIME:   0.011 TIME LEFT:  2.00D  GRAD.:     3.426 HEAT: 13.04877
 CYCLE:    45 TIME:   0.011 TIME LEFT:  2.00D  GRAD.:     3.028 HEAT: 13.03189
 CYCLE:    46 TIME:   0.011 TIME LEFT:  2.00D  GRAD.:     3.243 HEAT: 13.00926
 CYCLE:    47 TIME:   0.011 TIME LEFT:  2.00D  GRAD.:     3.262 HEAT: 12.99250
 CYCLE:    48 TIME:   0.011 TIME LEFT:  2.00D  GRAD.:     3.189 HEAT: 12.97182
 CYCLE:    49 TIME:   0.012 TIME LEFT:  2.00D  GRAD.:     3.351 HEAT: 12.94783
 CYCLE:    50 TIME:   0.011 TIME LEFT:  2.00D  GRAD.:     5.803 HEAT: 12.92479
 CYCLE:    51 TIME:   0.012 TIME LEFT:  2.00D  GRAD.:     6.779 HEAT: 12.89596
 CYCLE:    52 TIME:   0.011 TIME LEFT:  2.00D  GRAD.:     4.969 HEAT: 12.84754
 CYCLE:    53 TIME:   0.011 TIME LEFT:  2.00D  GRAD.:     4.800 HEAT: 12.76749
 CYCLE:    54 TIME:   0.011 TIME LEFT:  2.00D  GRAD.:     6.158 HEAT: 12.72472
 CYCLE:    55 TIME:   0.011 TIME LEFT:  2.00D  GRAD.:     4.496 HEAT: 12.67677
 CYCLE:    56 TIME:   0.011 TIME LEFT:  2.00D  GRAD.:     3.142 HEAT: 12.64381
 CYCLE:    57 TIME:   0.012 TIME LEFT:  2.00D  GRAD.:     3.969 HEAT: 12.62210
 CYCLE:    58 TIME:   0.011 TIME LEFT:  2.00D  GRAD.:     4.780 HEAT: 12.60612
 CYCLE:    59 TIME:   0.011 TIME LEFT:  2.00D  GRAD.:     4.384 HEAT: 12.57926
 CYCLE:    60 TIME:   0.011 TIME LEFT:  2.00D  GRAD.:     4.085 HEAT: 12.54518
 CYCLE:    61 TIME:   0.011 TIME LEFT:  2.00D  GRAD.:     3.661 HEAT: 12.51886
 CYCLE:    62 TIME:   0.011 TIME LEFT:  2.00D  GRAD.:     3.633 HEAT: 12.50022
 CYCLE:    63 TIME:   0.011 TIME LEFT:  2.00D  GRAD.:     2.971 HEAT: 12.47584
 CYCLE:    64 TIME:   0.011 TIME LEFT:  2.00D  GRAD.:     3.175 HEAT: 12.45557
 CYCLE:    65 TIME:   0.011 TIME LEFT:  2.00D  GRAD.:     2.955 HEAT: 12.44039
 CYCLE:    66 TIME:   0.011 TIME LEFT:  2.00D  GRAD.:     4.070 HEAT: 12.42263
 CYCLE:    67 TIME:   0.011 TIME LEFT:  2.00D  GRAD.:     3.853 HEAT: 12.39821
 CYCLE:    68 TIME:   0.011 TIME LEFT:  2.00D  GRAD.:     3.582 HEAT: 12.36183
 CYCLE:    69 TIME:   0.011 TIME LEFT:  2.00D  GRAD.:     3.367 HEAT: 12.32865
 CYCLE:    70 TIME:   0.011 TIME LEFT:  2.00D  GRAD.:     3.089 HEAT: 12.30918
 CYCLE:    71 TIME:   0.011 TIME LEFT:  2.00D  GRAD.:     2.446 HEAT: 12.29312
 CYCLE:    72 TIME:   0.011 TIME LEFT:  2.00D  GRAD.:     2.183 HEAT: 12.28045
 CYCLE:    73 TIME:   0.012 TIME LEFT:  2.00D  GRAD.:     2.155 HEAT: 12.27050
 CYCLE:    74 TIME:   0.011 TIME LEFT:  2.00D  GRAD.:     2.313 HEAT: 12.26197
 CYCLE:    75 TIME:   0.012 TIME LEFT:  2.00D  GRAD.:     2.479 HEAT: 12.25252
 CYCLE:    76 TIME:   0.011 TIME LEFT:  2.00D  GRAD.:     2.605 HEAT: 12.23982
 CYCLE:    77 TIME:   0.012 TIME LEFT:  2.00D  GRAD.:     2.397 HEAT: 12.22270
 CYCLE:    78 TIME:   0.011 TIME LEFT:  2.00D  GRAD.:     2.661 HEAT: 12.20547
 CYCLE:    79 TIME:   0.012 TIME LEFT:  2.00D  GRAD.:     2.332 HEAT: 12.19076
 CYCLE:    80 TIME:   0.011 TIME LEFT:  2.00D  GRAD.:     2.578 HEAT: 12.17775
 CYCLE:    81 TIME:   0.011 TIME LEFT:  2.00D  GRAD.:     2.234 HEAT: 12.16823
 CYCLE:    82 TIME:   0.011 TIME LEFT:  2.00D  GRAD.:     1.483 HEAT: 12.16195
 CYCLE:    83 TIME:   0.012 TIME LEFT:  2.00D  GRAD.:     1.204 HEAT: 12.15902
 CYCLE:    84 TIME:   0.011 TIME LEFT:  2.00D  GRAD.:     0.987 HEAT: 12.15739
 CYCLE:    85 TIME:   0.011 TIME LEFT:  2.00D  GRAD.:     0.923 HEAT: 12.15601
 CYCLE:    86 TIME:   0.011 TIME LEFT:  2.00D  GRAD.:     0.921 HEAT: 12.15449
 CYCLE:    87 TIME:   0.011 TIME LEFT:  2.00D  GRAD.:     1.097 HEAT: 12.15226
 CYCLE:    88 TIME:   0.012 TIME LEFT:  2.00D  GRAD.:     1.312 HEAT: 12.14916
 CYCLE:    89 TIME:   0.012 TIME LEFT:  2.00D  GRAD.:     1.549 HEAT: 12.14492
 CYCLE:    90 TIME:   0.012 TIME LEFT:  2.00D  GRAD.:     1.862 HEAT: 12.13795
 CYCLE:    91 TIME:   0.011 TIME LEFT:  2.00D  GRAD.:     1.640 HEAT: 12.13324
 CYCLE:    92 TIME:   0.012 TIME LEFT:  2.00D  GRAD.:     2.144 HEAT: 12.12258
 CYCLE:    93 TIME:   0.011 TIME LEFT:  2.00D  GRAD.:     1.821 HEAT: 12.11832
 CYCLE:    94 TIME:   0.012 TIME LEFT:  2.00D  GRAD.:     2.846 HEAT: 12.10601
 CYCLE:    95 TIME:   0.012 TIME LEFT:  2.00D  GRAD.:     2.038 HEAT: 12.09961
 CYCLE:    96 TIME:   0.012 TIME LEFT:  2.00D  GRAD.:     1.465 HEAT: 12.09211
 CYCLE:    97 TIME:   0.012 TIME LEFT:  2.00D  GRAD.:     1.381 HEAT: 12.08293
 CYCLE:    98 TIME:   0.012 TIME LEFT:  2.00D  GRAD.:     1.627 HEAT: 12.07717
 CYCLE:    99 TIME:   0.012 TIME LEFT:  2.00D  GRAD.:     1.429 HEAT: 12.07314
 CYCLE:   100 TIME:   0.011 TIME LEFT:  2.00D  GRAD.:     1.409 HEAT: 12.06847
 CYCLE:   101 TIME:   0.011 TIME LEFT:  2.00D  GRAD.:     1.461 HEAT: 12.06255
 CYCLE:   102 TIME:   0.011 TIME LEFT:  2.00D  GRAD.:     1.512 HEAT: 12.05721
 CYCLE:   103 TIME:   0.011 TIME LEFT:  2.00D  GRAD.:     1.601 HEAT: 12.05304
 CYCLE:   104 TIME:   0.011 TIME LEFT:  2.00D  GRAD.:     1.201 HEAT: 12.04961
 CYCLE:   105 TIME:   0.012 TIME LEFT:  2.00D  GRAD.:     1.229 HEAT: 12.04600
 CYCLE:   106 TIME:   0.012 TIME LEFT:  2.00D  GRAD.:     1.336 HEAT: 12.04279
 CYCLE:   107 TIME:   0.012 TIME LEFT:  2.00D  GRAD.:     1.175 HEAT: 12.03986
 CYCLE:   108 TIME:   0.012 TIME LEFT:  2.00D  GRAD.:     0.981 HEAT: 12.03714
 CYCLE:   109 TIME:   0.011 TIME LEFT:  2.00D  GRAD.:     0.908 HEAT: 12.03555
 CYCLE:   110 TIME:   0.011 TIME LEFT:  2.00D  GRAD.:     1.079 HEAT: 12.03246
 CYCLE:   111 TIME:   0.011 TIME LEFT:  2.00D  GRAD.:     0.979 HEAT: 12.03113
 CYCLE:   112 TIME:   0.011 TIME LEFT:  2.00D  GRAD.:     0.739 HEAT: 12.02942
 CYCLE:   113 TIME:   0.011 TIME LEFT:  2.00D  GRAD.:     0.973 HEAT: 12.02808
 CYCLE:   114 TIME:   0.012 TIME LEFT:  2.00D  GRAD.:     1.003 HEAT: 12.02663
 CYCLE:   115 TIME:   0.012 TIME LEFT:  2.00D  GRAD.:     1.043 HEAT: 12.02493
 CYCLE:   116 TIME:   0.012 TIME LEFT:  2.00D  GRAD.:     0.949 HEAT: 12.02311
 CYCLE:   117 TIME:   0.012 TIME LEFT:  2.00D  GRAD.:     0.990 HEAT: 12.02145
 CYCLE:   118 TIME:   0.011 TIME LEFT:  2.00D  GRAD.:     1.149 HEAT: 12.01971
 CYCLE:   119 TIME:   0.011 TIME LEFT:  2.00D  GRAD.:     1.154 HEAT: 12.01790
 CYCLE:   120 TIME:   0.011 TIME LEFT:  2.00D  GRAD.:     1.150 HEAT: 12.01571
 CYCLE:   121 TIME:   0.012 TIME LEFT:  2.00D  GRAD.:     1.426 HEAT: 12.01293
 CYCLE:   122 TIME:   0.011 TIME LEFT:  2.00D  GRAD.:     1.690 HEAT: 12.00919
 CYCLE:   123 TIME:   0.013 TIME LEFT:  2.00D  GRAD.:     1.926 HEAT: 12.00404
 CYCLE:   124 TIME:   0.019 TIME LEFT:  2.00D  GRAD.:     1.754 HEAT: 11.99826
 CYCLE:   125 TIME:   0.012 TIME LEFT:  2.00D  GRAD.:     1.477 HEAT: 11.99496
 CYCLE:   126 TIME:   0.013 TIME LEFT:  2.00D  GRAD.:     2.069 HEAT: 11.99043
 CYCLE:   127 TIME:   0.015 TIME LEFT:  2.00D  GRAD.:     1.996 HEAT: 11.98779
 CYCLE:   128 TIME:   0.012 TIME LEFT:  2.00D  GRAD.:     1.513 HEAT: 11.98339
 CYCLE:   129 TIME:   0.011 TIME LEFT:  2.00D  GRAD.:     1.320 HEAT: 11.97890
 CYCLE:   130 TIME:   0.012 TIME LEFT:  2.00D  GRAD.:     1.492 HEAT: 11.97536
 CYCLE:   131 TIME:   0.012 TIME LEFT:  2.00D  GRAD.:     1.458 HEAT: 11.97191
 CYCLE:   132 TIME:   0.011 TIME LEFT:  2.00D  GRAD.:     1.012 HEAT: 11.96947
 CYCLE:   133 TIME:   0.012 TIME LEFT:  2.00D  GRAD.:     1.723 HEAT: 11.96945
 CYCLE:   134 TIME:   0.011 TIME LEFT:  2.00D  GRAD.:     0.741 HEAT: 11.96772
 CYCLE:   135 TIME:   0.011 TIME LEFT:  2.00D  GRAD.:     0.507 HEAT: 11.96720
 CYCLE:   136 TIME:   0.011 TIME LEFT:  2.00D  GRAD.:     0.400 HEAT: 11.96656
 CYCLE:   137 TIME:   0.012 TIME LEFT:  2.00D  GRAD.:     0.454 HEAT: 11.96620
 CYCLE:   138 TIME:   0.012 TIME LEFT:  2.00D  GRAD.:     0.485 HEAT: 11.96586
 CYCLE:   139 TIME:   0.011 TIME LEFT:  2.00D  GRAD.:     0.454 HEAT: 11.96547
 CYCLE:   140 TIME:   0.012 TIME LEFT:  2.00D  GRAD.:     0.368 HEAT: 11.96505
 CYCLE:   141 TIME:   0.011 TIME LEFT:  2.00D  GRAD.:     0.278 HEAT: 11.96478
 CYCLE:   142 TIME:   0.011 TIME LEFT:  2.00D  GRAD.:     0.253 HEAT: 11.96462
 CYCLE:   143 TIME:   0.011 TIME LEFT:  2.00D  GRAD.:     0.230 HEAT: 11.96453
 CYCLE:   144 TIME:   0.011 TIME LEFT:  2.00D  GRAD.:     0.212 HEAT: 11.96445
 CYCLE:   145 TIME:   0.011 TIME LEFT:  2.00D  GRAD.:     0.241 HEAT: 11.96436
 CYCLE:   146 TIME:   0.011 TIME LEFT:  2.00D  GRAD.:     0.247 HEAT: 11.96425
 CYCLE:   147 TIME:   0.011 TIME LEFT:  2.00D  GRAD.:     0.400 HEAT: 11.96394
 CYCLE:   148 TIME:   0.011 TIME LEFT:  2.00D  GRAD.:     0.346 HEAT: 11.96375
 CYCLE:   149 TIME:   0.012 TIME LEFT:  2.00D  GRAD.:     0.530 HEAT: 11.96303
 CYCLE:   150 TIME:   0.012 TIME LEFT:  2.00D  GRAD.:     0.412 HEAT: 11.96265
 CYCLE:   151 TIME:   0.012 TIME LEFT:  2.00D  GRAD.:     0.440 HEAT: 11.96194
 CYCLE:   152 TIME:   0.012 TIME LEFT:  2.00D  GRAD.:     0.350 HEAT: 11.96170
 CYCLE:   153 TIME:   0.012 TIME LEFT:  2.00D  GRAD.:     0.464 HEAT: 11.96118
 CYCLE:   154 TIME:   0.011 TIME LEFT:  2.00D  GRAD.:     0.445 HEAT: 11.96087
 CYCLE:   155 TIME:   0.011 TIME LEFT:  2.00D  GRAD.:     0.352 HEAT: 11.96033
 CYCLE:   156 TIME:   0.011 TIME LEFT:  2.00D  GRAD.:     0.293 HEAT: 11.96009
 CYCLE:   157 TIME:   0.011 TIME LEFT:  2.00D  GRAD.:     0.248 HEAT: 11.95987
 CYCLE:   158 TIME:   0.011 TIME LEFT:  2.00D  GRAD.:     0.225 HEAT: 11.95970
 CYCLE:   159 TIME:   0.011 TIME LEFT:  2.00D  GRAD.:     0.175 HEAT: 11.95961
 CYCLE:   160 TIME:   0.011 TIME LEFT:  2.00D  GRAD.:     0.153 HEAT: 11.95954
 CYCLE:   161 TIME:   0.011 TIME LEFT:  2.00D  GRAD.:     0.121 HEAT: 11.95950
 CYCLE:   162 TIME:   0.011 TIME LEFT:  2.00D  GRAD.:     0.104 HEAT: 11.95948
 CYCLE:   163 TIME:   0.011 TIME LEFT:  2.00D  GRAD.:     0.219 HEAT: 11.95944
 CYCLE:   164 TIME:   0.011 TIME LEFT:  2.00D  GRAD.:     0.214 HEAT: 11.95940
 CYCLE:   165 TIME:   0.011 TIME LEFT:  2.00D  GRAD.:     0.174 HEAT: 11.95928
 CYCLE:   166 TIME:   0.011 TIME LEFT:  2.00D  GRAD.:     0.187 HEAT: 11.95919
 CYCLE:   167 TIME:   0.011 TIME LEFT:  2.00D  GRAD.:     0.267 HEAT: 11.95900
 CYCLE:   168 TIME:   0.011 TIME LEFT:  2.00D  GRAD.:     0.329 HEAT: 11.95884
 CYCLE:   169 TIME:   0.013 TIME LEFT:  2.00D  GRAD.:     0.547 HEAT: 11.95829
 CYCLE:   170 TIME:   0.016 TIME LEFT:  2.00D  GRAD.:     0.567 HEAT: 11.95779
 CYCLE:   171 TIME:   0.013 TIME LEFT:  2.00D  GRAD.:     0.869 HEAT: 11.95610
 CYCLE:   172 TIME:   0.011 TIME LEFT:  2.00D  GRAD.:     0.499 HEAT: 11.95521
 CYCLE:   173 TIME:   0.012 TIME LEFT:  2.00D  GRAD.:     0.367 HEAT: 11.95388
 CYCLE:   174 TIME:   0.013 TIME LEFT:  2.00D  GRAD.:     0.602 HEAT: 11.95304
 CYCLE:   175 TIME:   0.015 TIME LEFT:  2.00D  GRAD.:     0.350 HEAT: 11.95269
 CYCLE:   176 TIME:   0.012 TIME LEFT:  2.00D  GRAD.:     0.261 HEAT: 11.95240
 CYCLE:   177 TIME:   0.012 TIME LEFT:  2.00D  GRAD.:     0.184 HEAT: 11.95221
 CYCLE:   178 TIME:   0.011 TIME LEFT:  2.00D  GRAD.:     0.114 HEAT: 11.95216
 CYCLE:   179 TIME:   0.011 TIME LEFT:  2.00D  GRAD.:     0.083 HEAT: 11.95215
 CYCLE:   180 TIME:   0.011 TIME LEFT:  2.00D  GRAD.:     0.146 HEAT: 11.95213
 CYCLE:   181 TIME:   0.011 TIME LEFT:  2.00D  GRAD.:     0.034 HEAT: 11.95212

     RMS GRADIENT =  0.03350  IS LESS THAN CUTOFF =  0.05000



 -------------------------------------------------------------------------------
pm3  precise nosym
 InChI=1S/C11H18/c1-4-6-7-10-8-9(3)11(10)5-2/h5-7,9-11H,2,4,8H2,1,3H3



     GEOMETRY OPTIMISED USING EIGENVECTOR FOLLOWING (EF).     
     SCF FIELD WAS ACHIEVED                                   


                              PM3 CALCULATION
                                                       MOPAC2012 (Version: 13.159M)
                                                       Mon Jun  2 11:07:17 2014
                                                       No. of days left =   6




          FINAL HEAT OF FORMATION =         11.95212 KCAL/MOL =      50.00767 KJ/MOL


          TOTAL ENERGY            =      -1580.51450 EV
          ELECTRONIC ENERGY       =      -9467.02290 EV  POINT GROUP:     C1  
          CORE-CORE REPULSION     =       7886.50840 EV
          COSMO AREA              =        219.27 SQUARE ANGSTROMS
          COSMO VOLUME            =        230.64 CUBIC ANGSTROMS

          GRADIENT NORM           =          0.03350
          IONIZATION POTENTIAL    =          9.706013 EV
          HOMO LUMO ENERGIES (EV) =         -9.706  1.080
          NO. OF FILLED LEVELS    =         31
          MOLECULAR WEIGHT        =        150.263

          MOLECULAR DIMENSIONS (Angstroms)

            Atom       Atom       Distance
            H    19    H    24     8.15765
            H    29    H    27     6.13980
            H    14    H    20     4.28624


          SCF CALCULATIONS        =        190
          COMPUTATION TIME        =          2.164 SECONDS




   ATOM   CHEMICAL          X               Y               Z
  NUMBER   SYMBOL      (ANGSTROMS)     (ANGSTROMS)     (ANGSTROMS)
 
     1       C         -2.18259141  *  -0.49083329  *  -0.17050055  *
     2       C         -1.05258617  *   0.48419842  *   0.26758941  *
     3       C         -0.41541656  *   0.37053055  *  -1.14919185  *
     4       C         -1.49520502  *  -0.66472458  *  -1.54343038  *
     5       C          3.36451021  *  -0.11226975  *  -0.51820178  *
     6       C         -2.29622367  *  -1.74361175  *   0.65616674  *
     7       C          3.91402186  *  -0.47404692  *   0.84505321  *
     8       C          0.98282134  *  -0.11964530  *  -1.21026020  *
     9       C         -1.46171840  *   1.85306610  *   0.66487259  *
    10       C          1.95380373  *   0.35089343  *  -0.42622581  *
    11       C         -2.51164729  *   2.11219732  *   1.43552415  *
    12       H         -3.17365083  *   0.00719114  *  -0.24297586  *
    13       H         -0.40209069  *   0.06469572  *   1.06767018  *
    14       H         -0.48372570  *   1.31392941  *  -1.73418539  *
    15       H         -2.11184214  *  -0.37875235  *  -2.40803045  *
    16       H         -1.11143895  *  -1.67952627  *  -1.73637083  *
    17       H          3.96870180  *   0.69960642  *  -0.97117670  *
    18       H          3.45895061  *  -0.97590678  *  -1.20672392  *
    19       H          4.96334820  *  -0.78852648  *   0.77907623  *
    20       H          3.35134945  *  -1.29901136  *   1.30079449  *
    21       H          3.86799355  *   0.37478178  *   1.54022980  *
    22       H         -1.33211798  *  -2.26035133  *   0.75717800  *
    23       H         -2.65462842  *  -1.51378100  *   1.66812974  *
    24       H         -3.00220800  *  -2.45160075  *   0.20347793  *
    25       H         -0.81735779  *   2.66103001  *   0.29587981  *
    26       H          1.74569815  *   1.11823100  *   0.33095140  *
    27       H          1.18508283  *  -0.89131157  *  -1.96451126  *
    28       H         -3.16987652  *   1.33810311  *   1.82193756  *
    29       H         -2.78419678  *   3.11963292  *   1.73392315  *

           Empirical Formula: C11 H18  =    29 atoms



      MOLECULAR POINT GROUP   :   C1  


                  EIGENVALUES  
 -41.70871 -36.68553 -32.62898 -31.49192 -28.04982 -25.07934 -23.63450 -21.13623
 -20.11436 -19.23375 -18.51094 -17.00301 -16.52399 -16.09721 -15.48608 -15.10865
 -14.65345 -14.35684 -13.83889 -13.70008 -13.39218 -13.06778 -12.65176 -12.32130
 -12.10512 -11.90691 -11.77342 -11.59713 -11.39985 -10.05353  -9.70601   1.08001
   1.17322   3.19311   3.23485   3.33676   3.54591   3.70028   3.70528   3.72652
   3.89751   3.92671   3.96995   4.05415   4.09856   4.18880   4.23968   4.29191
   4.37027   4.50227   4.52381   4.71634   4.74301   4.77929   4.82385   4.86931
   5.23862   5.39887   5.71775   5.79744   5.88106   5.99226


              NET ATOMIC CHARGES AND DIPOLE CONTRIBUTIONS

  ATOM NO.   TYPE          CHARGE      No. of ELECS.   s-Pop       p-Pop       
    1          C          -0.086811        4.0868     1.18872     2.89809
    2          C          -0.065160        4.0652     1.18431     2.88085
    3          C          -0.055757        4.0558     1.17930     2.87646
    4          C          -0.107349        4.1073     1.17697     2.93038
    5          C          -0.059422        4.0594     1.14535     2.91408
    6          C          -0.103142        4.1031     1.13748     2.96566
    7          C          -0.106154        4.1062     1.13772     2.96843
    8          C          -0.140328        4.1403     1.19472     2.94561
    9          C          -0.126428        4.1264     1.19330     2.93313
   10          C          -0.155405        4.1554     1.19629     2.95911
   11          C          -0.170528        4.1705     1.18141     2.98912
   12          H           0.076368        0.9236     0.92363
   13          H           0.089417        0.9106     0.91058
   14          H           0.080586        0.9194     0.91941
   15          H           0.055466        0.9445     0.94453
   16          H           0.063336        0.9367     0.93666
   17          H           0.052613        0.9474     0.94739
   18          H           0.050723        0.9493     0.94928
   19          H           0.036708        0.9633     0.96329
   20          H           0.039795        0.9602     0.96020
   21          H           0.037993        0.9620     0.96201
   22          H           0.042776        0.9572     0.95722
   23          H           0.040046        0.9600     0.95995
   24          H           0.039842        0.9602     0.96016
   25          H           0.098424        0.9016     0.90158
   26          H           0.104327        0.8957     0.89567
   27          H           0.103673        0.8963     0.89633
   28          H           0.084178        0.9158     0.91582
   29          H           0.080213        0.9198     0.91979
 DIPOLE           X         Y         Z       TOTAL
 POINT-CHG.     0.135    -0.162    -0.059     0.219
 HYBRID         0.008     0.022     0.027     0.036
 SUM            0.143    -0.140    -0.032     0.203


          ATOMIC ORBITAL ELECTRON POPULATIONS

    Atom      s        px        py        pz   
    1  C   1.18872   0.97863   0.96253   0.95693
    2  C   1.18431   0.97522   0.94213   0.96351
    3  C   1.17930   0.92436   0.98730   0.96480
    4  C   1.17697   0.97544   0.99123   0.96371
    5  C   1.14535   0.94195   1.00251   0.96961
    6  C   1.13748   1.01122   0.96523   0.98922
    7  C   1.13772   0.99771   1.00748   0.96325
    8  C   1.19472   0.94838   0.99957   0.99765
    9  C   1.19330   0.97981   0.96827   0.98504
   10  C   1.19629   0.95423   1.00442   1.00045
   11  C   1.18141   0.98230   1.00953   0.99729
   12  H   0.92363
   13  H   0.91058
   14  H   0.91941
   15  H   0.94453
   16  H   0.93666
   17  H   0.94739
   18  H   0.94928
   19  H   0.96329
   20  H   0.96020
   21  H   0.96201
   22  H   0.95722
   23  H   0.95995
   24  H   0.96016
   25  H   0.90158
   26  H   0.89567
   27  H   0.89633
   28  H   0.91582
   29  H   0.91979
 *******************************************************************************
 ** Site#: 14399           For non-commercial use only        Version 13.159M **
 *******************************************************************************
 ** Cite this work as: MOPAC2012, James J. P. Stewart, Stewart Computational  **
 ** Chemistry, Version 13.159M web: HTTP://OpenMOPAC.net  Days remaining:   6 **
 *******************************************************************************
 **                                                                           **
 **                                MOPAC2012                                  **
 **                                                                           **
 *******************************************************************************

                            PM3 CALCULATION RESULTS


 *******************************************************************************
 *  CALCULATION DONE:                                Mon Jun  2 11:07:17 2014  *
 *  PM3      - The PM3 Hamiltonian to be used
 *  OLDGEO   - PREVIOUS GEOMETRY TO BE USED
 *  PRECISE  - CRITERIA TO BE INCREASED BY 100 TIMES
 *  NOSYM    - POINT-GROUP SYMMETRY SET TO C1
 *  T=       - A TIME OF 172800.0 SECONDS REQUESTED
 *  DUMP=N   - RESTART FILE WRITTEN EVERY  7200.000 SECONDS
 *  THERMO   - THERMODYNAMIC QUANTITIES TO BE CALCULATED
 *******************************************************************************
oldgeo thermo nosym precise  pm3

   ATOM   CHEMICAL          X               Y               Z
  NUMBER   SYMBOL      (ANGSTROMS)     (ANGSTROMS)     (ANGSTROMS)
 
     1       C         -2.18259141  *  -0.49083329  *  -0.17050055  *
     2       C         -1.05258617  *   0.48419842  *   0.26758941  *
     3       C         -0.41541656  *   0.37053055  *  -1.14919185  *
     4       C         -1.49520502  *  -0.66472458  *  -1.54343038  *
     5       C          3.36451021  *  -0.11226975  *  -0.51820178  *
     6       C         -2.29622367  *  -1.74361175  *   0.65616674  *
     7       C          3.91402186  *  -0.47404692  *   0.84505321  *
     8       C          0.98282134  *  -0.11964530  *  -1.21026020  *
     9       C         -1.46171840  *   1.85306610  *   0.66487259  *
    10       C          1.95380373  *   0.35089343  *  -0.42622581  *
    11       C         -2.51164729  *   2.11219732  *   1.43552415  *
    12       H         -3.17365083  *   0.00719114  *  -0.24297586  *
    13       H         -0.40209069  *   0.06469572  *   1.06767018  *
    14       H         -0.48372570  *   1.31392941  *  -1.73418539  *
    15       H         -2.11184214  *  -0.37875235  *  -2.40803045  *
    16       H         -1.11143895  *  -1.67952627  *  -1.73637083  *
    17       H          3.96870180  *   0.69960642  *  -0.97117670  *
    18       H          3.45895061  *  -0.97590678  *  -1.20672392  *
    19       H          4.96334820  *  -0.78852648  *   0.77907623  *
    20       H          3.35134945  *  -1.29901136  *   1.30079449  *
    21       H          3.86799355  *   0.37478178  *   1.54022980  *
    22       H         -1.33211798  *  -2.26035133  *   0.75717800  *
    23       H         -2.65462842  *  -1.51378100  *   1.66812974  *
    24       H         -3.00220800  *  -2.45160075  *   0.20347793  *
    25       H         -0.81735779  *   2.66103001  *   0.29587981  *
    26       H          1.74569815  *   1.11823100  *   0.33095140  *
    27       H          1.18508283  *  -0.89131157  *  -1.96451126  *
    28       H         -3.16987652  *   1.33810311  *   1.82193756  *
    29       H         -2.78419678  *   3.11963292  *   1.73392315  *
 


          CARTESIAN COORDINATES 

    NO.       ATOM         X         Y         Z

     1         C       -2.1826   -0.4908   -0.1705
     2         C       -1.0526    0.4842    0.2676
     3         C       -0.4154    0.3705   -1.1492
     4         C       -1.4952   -0.6647   -1.5434
     5         C        3.3645   -0.1123   -0.5182
     6         C       -2.2962   -1.7436    0.6562
     7         C        3.9140   -0.4740    0.8451
     8         C        0.9828   -0.1196   -1.2103
     9         C       -1.4617    1.8531    0.6649
    10         C        1.9538    0.3509   -0.4262
    11         C       -2.5116    2.1122    1.4355
    12         H       -3.1737    0.0072   -0.2430
    13         H       -0.4021    0.0647    1.0677
    14         H       -0.4837    1.3139   -1.7342
    15         H       -2.1118   -0.3788   -2.4080
    16         H       -1.1114   -1.6795   -1.7364
    17         H        3.9687    0.6996   -0.9712
    18         H        3.4590   -0.9759   -1.2067
    19         H        4.9633   -0.7885    0.7791
    20         H        3.3513   -1.2990    1.3008
    21         H        3.8680    0.3748    1.5402
    22         H       -1.3321   -2.2604    0.7572
    23         H       -2.6546   -1.5138    1.6681
    24         H       -3.0022   -2.4516    0.2035
    25         H       -0.8174    2.6610    0.2959
    26         H        1.7457    1.1182    0.3310
    27         H        1.1851   -0.8913   -1.9645
    28         H       -3.1699    1.3381    1.8219
    29         H       -2.7842    3.1196    1.7339

  H: (PM3): J. J. P. STEWART, J. COMP. CHEM. 10, 209 (1989).
  C: (PM3): J. J. P. STEWART, J. COMP. CHEM. 10, 209 (1989).

           Empirical Formula: C11 H18  =    29 atoms



      MOLECULAR POINT GROUP   :   C1  


      RHF CALCULATION, NO. OF DOUBLY OCCUPIED LEVELS =   31



          HEAT OF FORMATION =      11.952121 KCALS/MOLE


          INTERNAL COORDINATE DERIVATIVES

   NUMBER  ATOM       BOND         ANGLE      DIHEDRAL

     1       C     -0.001475    -0.001649     0.002262
     2       C     -0.000424    -0.000003    -0.000023
     3       C      0.000384     0.000916    -0.003379
     4       C     -0.000473    -0.002412    -0.001222
     5       C     -0.004278    -0.006818     0.004693
     6       C      0.001989     0.000683     0.002134
     7       C      0.003615    -0.000879     0.001010
     8       C      0.000727     0.001879    -0.003878
     9       C     -0.001559     0.016558     0.004160
    10       C     -0.003939    -0.003305     0.004368
    11       C      0.000915    -0.012752     0.002099
    12       H      0.000265     0.000045     0.000844
    13       H      0.000891    -0.000257    -0.001542
    14       H      0.000976    -0.001658     0.000108
    15       H      0.000341     0.001570     0.000254
    16       H      0.000014     0.000843    -0.001101
    17       H      0.011076     0.005293     0.004791
    18       H     -0.006781     0.005022    -0.003021
    19       H     -0.002175    -0.003830     0.001875
    20       H     -0.002493     0.001636    -0.007471
    21       H      0.002568    -0.000958    -0.001010
    22       H      0.002648    -0.000170    -0.002208
    23       H     -0.000599    -0.001838     0.000267
    24       H     -0.003324     0.001297    -0.000922
    25       H      0.001714    -0.000900    -0.002659
    26       H     -0.002316     0.004138    -0.003410
    27       H      0.002536    -0.003199     0.003978
    28       H      0.000681    -0.000408     0.000631
    29       H     -0.001505     0.001155    -0.001626


          GRADIENT NORM =   0.03382


          TIME FOR SCF CALCULATION =    0.01

          TIME FOR DERIVATIVES     =    0.01

          MOLECULAR WEIGHT =  150.26



          ROTATIONAL CONSTANTS IN CM(-1)

          A =    0.05180553   B =    0.01875999   C =    0.01685251



           PRINCIPAL MOMENTS OF INERTIA IN UNITS OF 10**(-40)*GRAM-CM**2

          A =      540.3433   B =     1492.1530   C =     1661.0446


          ORIENTATION OF MOLECULE IN FORCE CALCULATION

    NO.       ATOM         X         Y         Z

     1          C      -1.9273   -0.7435    0.7093
     2          C      -0.3718   -0.7435    0.7093
     3          C      -0.3792    0.8141    0.7093
     4          C      -1.9236    0.7992    0.6214
     5          C       2.2418    1.8341   -1.9381
     6          C      -2.5623   -1.4535   -0.4562
     7          C       2.7982    0.8479   -2.9427
     8          C       0.3121    1.4806   -0.4207
     9          C       0.3009   -1.3690    1.8735
    10          C       1.5332    1.1361   -0.8318
    11          C      -0.0824   -2.5202    2.4131
    12          H      -2.3555   -1.1214    1.6629
    13          H       0.0631   -1.1725   -0.2213
    14          H      -0.0023    1.2512    1.6599
    15          H      -2.4359    1.3100    1.4498
    16          H      -2.3353    1.2037   -0.3173
    17          H       3.0621    2.4379   -1.5000
    18          H       1.5752    2.5588   -2.4471
    19          H       3.3448    1.3627   -3.7430
    20          H       2.0007    0.2596   -3.4146
    21          H       3.4926    0.1381   -2.4738
    22          H      -2.1574   -1.1114   -1.4183
    23          H      -2.3936   -2.5366   -0.3940
    24          H      -3.6465   -1.2841   -0.4775
    25          H       1.1715   -0.8246    2.2605
    26          H       2.0763    0.3089   -0.3563
    27          H      -0.2371    2.3031   -0.8973
    28          H      -0.9370   -3.0885    2.0546
    29          H       0.4352   -2.9742    3.2524


    FIRST DERIVATIVES WILL BE USED IN THE CALCULATION OF SECOND DERIVATIVES

          ESTIMATED TIME TO COMPLETE CALCULATION =        5.43 SECONDS

    FOR POINT-GROUP C1   THERE ARE   1 UNIQUE SYMMETRY FUNCTIONS.

 STEP:   1 TIME =     0.05 SECS, INTEGRAL =      0.05 TIME LEFT: 172799.94
 STEP:   2 TIME =     0.05 SECS, INTEGRAL =      0.10 TIME LEFT: 172799.89
 STEP:   3 TIME =     0.05 SECS, INTEGRAL =      0.15 TIME LEFT: 172799.84
 STEP:   4 TIME =     0.05 SECS, INTEGRAL =      0.20 TIME LEFT: 172799.79
 STEP:   5 TIME =     0.05 SECS, INTEGRAL =      0.25 TIME LEFT: 172799.74
 STEP:   6 TIME =     0.05 SECS, INTEGRAL =      0.30 TIME LEFT: 172799.69
 STEP:   7 TIME =     0.05 SECS, INTEGRAL =      0.35 TIME LEFT: 172799.64
 STEP:   8 TIME =     0.05 SECS, INTEGRAL =      0.40 TIME LEFT: 172799.59
 STEP:   9 TIME =     0.05 SECS, INTEGRAL =      0.45 TIME LEFT: 172799.53
 STEP:  10 TIME =     0.05 SECS, INTEGRAL =      0.50 TIME LEFT: 172799.48
 STEP:  11 TIME =     0.05 SECS, INTEGRAL =      0.55 TIME LEFT: 172799.43
 STEP:  12 TIME =     0.05 SECS, INTEGRAL =      0.60 TIME LEFT: 172799.39
 STEP:  13 TIME =     0.05 SECS, INTEGRAL =      0.65 TIME LEFT: 172799.34
 STEP:  14 TIME =     0.05 SECS, INTEGRAL =      0.70 TIME LEFT: 172799.29
 STEP:  15 TIME =     0.05 SECS, INTEGRAL =      0.75 TIME LEFT: 172799.24
 STEP:  16 TIME =     0.05 SECS, INTEGRAL =      0.79 TIME LEFT: 172799.19
 STEP:  17 TIME =     0.05 SECS, INTEGRAL =      0.84 TIME LEFT: 172799.14
 STEP:  18 TIME =     0.05 SECS, INTEGRAL =      0.90 TIME LEFT: 172799.09
 STEP:  19 TIME =     0.05 SECS, INTEGRAL =      0.95 TIME LEFT: 172799.04
 STEP:  20 TIME =     0.05 SECS, INTEGRAL =      0.99 TIME LEFT: 172798.99
 STEP:  21 TIME =     0.05 SECS, INTEGRAL =      1.04 TIME LEFT: 172798.94
 STEP:  22 TIME =     0.05 SECS, INTEGRAL =      1.09 TIME LEFT: 172798.89
 STEP:  23 TIME =     0.05 SECS, INTEGRAL =      1.14 TIME LEFT: 172798.84
 STEP:  24 TIME =     0.05 SECS, INTEGRAL =      1.19 TIME LEFT: 172798.79
 STEP:  25 TIME =     0.05 SECS, INTEGRAL =      1.24 TIME LEFT: 172798.74
 STEP:  26 TIME =     0.05 SECS, INTEGRAL =      1.29 TIME LEFT: 172798.69
 STEP:  27 TIME =     0.05 SECS, INTEGRAL =      1.34 TIME LEFT: 172798.64
 STEP:  28 TIME =     0.05 SECS, INTEGRAL =      1.39 TIME LEFT: 172798.59
 STEP:  29 TIME =     0.05 SECS, INTEGRAL =      1.44 TIME LEFT: 172798.54
 STEP:  30 TIME =     0.05 SECS, INTEGRAL =      1.49 TIME LEFT: 172798.49
 STEP:  31 TIME =     0.05 SECS, INTEGRAL =      1.54 TIME LEFT: 172798.44
 STEP:  32 TIME =     0.05 SECS, INTEGRAL =      1.59 TIME LEFT: 172798.39
 STEP:  33 TIME =     0.05 SECS, INTEGRAL =      1.64 TIME LEFT: 172798.34
 STEP:  34 TIME =     0.05 SECS, INTEGRAL =      1.69 TIME LEFT: 172798.29
 STEP:  35 TIME =     0.05 SECS, INTEGRAL =      1.74 TIME LEFT: 172798.24
 STEP:  36 TIME =     0.05 SECS, INTEGRAL =      1.79 TIME LEFT: 172798.19
 STEP:  37 TIME =     0.05 SECS, INTEGRAL =      1.84 TIME LEFT: 172798.14
 STEP:  38 TIME =     0.05 SECS, INTEGRAL =      1.89 TIME LEFT: 172798.09
 STEP:  39 TIME =     0.05 SECS, INTEGRAL =      1.94 TIME LEFT: 172798.04
 STEP:  40 TIME =     0.05 SECS, INTEGRAL =      1.99 TIME LEFT: 172797.99
 STEP:  41 TIME =     0.05 SECS, INTEGRAL =      2.04 TIME LEFT: 172797.94
 STEP:  42 TIME =     0.05 SECS, INTEGRAL =      2.09 TIME LEFT: 172797.89
 STEP:  43 TIME =     0.05 SECS, INTEGRAL =      2.14 TIME LEFT: 172797.84
 STEP:  44 TIME =     0.05 SECS, INTEGRAL =      2.19 TIME LEFT: 172797.79
 STEP:  45 TIME =     0.05 SECS, INTEGRAL =      2.24 TIME LEFT: 172797.74
 STEP:  46 TIME =     0.05 SECS, INTEGRAL =      2.29 TIME LEFT: 172797.69
 STEP:  47 TIME =     0.05 SECS, INTEGRAL =      2.34 TIME LEFT: 172797.64
 STEP:  48 TIME =     0.05 SECS, INTEGRAL =      2.39 TIME LEFT: 172797.59
 STEP:  49 TIME =     0.05 SECS, INTEGRAL =      2.44 TIME LEFT: 172797.54
 STEP:  50 TIME =     0.05 SECS, INTEGRAL =      2.49 TIME LEFT: 172797.49
 STEP:  51 TIME =     0.05 SECS, INTEGRAL =      2.54 TIME LEFT: 172797.44
 STEP:  52 TIME =     0.05 SECS, INTEGRAL =      2.59 TIME LEFT: 172797.39
 STEP:  53 TIME =     0.05 SECS, INTEGRAL =      2.64 TIME LEFT: 172797.35
 STEP:  54 TIME =     0.05 SECS, INTEGRAL =      2.69 TIME LEFT: 172797.30
 STEP:  55 TIME =     0.05 SECS, INTEGRAL =      2.74 TIME LEFT: 172797.25
 STEP:  56 TIME =     0.05 SECS, INTEGRAL =      2.79 TIME LEFT: 172797.20
 STEP:  57 TIME =     0.05 SECS, INTEGRAL =      2.84 TIME LEFT: 172797.15
 STEP:  58 TIME =     0.05 SECS, INTEGRAL =      2.88 TIME LEFT: 172797.10
 STEP:  59 TIME =     0.05 SECS, INTEGRAL =      2.93 TIME LEFT: 172797.05
 STEP:  60 TIME =     0.05 SECS, INTEGRAL =      2.98 TIME LEFT: 172797.00
 STEP:  61 TIME =     0.05 SECS, INTEGRAL =      3.03 TIME LEFT: 172796.95
 STEP:  62 TIME =     0.05 SECS, INTEGRAL =      3.08 TIME LEFT: 172796.91
 STEP:  63 TIME =     0.05 SECS, INTEGRAL =      3.13 TIME LEFT: 172796.86
 STEP:  64 TIME =     0.05 SECS, INTEGRAL =      3.18 TIME LEFT: 172796.81
 STEP:  65 TIME =     0.05 SECS, INTEGRAL =      3.23 TIME LEFT: 172796.75
 STEP:  66 TIME =     0.05 SECS, INTEGRAL =      3.28 TIME LEFT: 172796.71
 STEP:  67 TIME =     0.05 SECS, INTEGRAL =      3.33 TIME LEFT: 172796.66
 STEP:  68 TIME =     0.05 SECS, INTEGRAL =      3.38 TIME LEFT: 172796.61
 STEP:  69 TIME =     0.05 SECS, INTEGRAL =      3.43 TIME LEFT: 172796.56
 STEP:  70 TIME =     0.05 SECS, INTEGRAL =      3.47 TIME LEFT: 172796.51
 STEP:  71 TIME =     0.05 SECS, INTEGRAL =      3.52 TIME LEFT: 172796.46
 STEP:  72 TIME =     0.05 SECS, INTEGRAL =      3.57 TIME LEFT: 172796.41
 STEP:  73 TIME =     0.05 SECS, INTEGRAL =      3.62 TIME LEFT: 172796.36
 STEP:  74 TIME =     0.05 SECS, INTEGRAL =      3.67 TIME LEFT: 172796.31
 STEP:  75 TIME =     0.05 SECS, INTEGRAL =      3.73 TIME LEFT: 172796.26
 STEP:  76 TIME =     0.05 SECS, INTEGRAL =      3.78 TIME LEFT: 172796.21
 STEP:  77 TIME =     0.05 SECS, INTEGRAL =      3.83 TIME LEFT: 172796.16
 STEP:  78 TIME =     0.05 SECS, INTEGRAL =      3.88 TIME LEFT: 172796.11
 STEP:  79 TIME =     0.05 SECS, INTEGRAL =      3.93 TIME LEFT: 172796.06
 STEP:  80 TIME =     0.05 SECS, INTEGRAL =      3.98 TIME LEFT: 172796.01
 STEP:  81 TIME =     0.05 SECS, INTEGRAL =      4.03 TIME LEFT: 172795.96
 STEP:  82 TIME =     0.05 SECS, INTEGRAL =      4.08 TIME LEFT: 172795.91
 STEP:  83 TIME =     0.05 SECS, INTEGRAL =      4.13 TIME LEFT: 172795.86
 STEP:  84 TIME =     0.05 SECS, INTEGRAL =      4.18 TIME LEFT: 172795.81
 STEP:  85 TIME =     0.05 SECS, INTEGRAL =      4.23 TIME LEFT: 172795.75
 STEP:  86 TIME =     0.05 SECS, INTEGRAL =      4.28 TIME LEFT: 172795.71
 STEP:  87 TIME =     0.06 SECS, INTEGRAL =      4.34 TIME LEFT: 172795.65

(To convert to Hartree/Bohr^2, multiply by (10^(-21) x N x a0^2)/(4.184 x 627.51) = 0.0642)


           FORCE MATRIX IN MILLIDYNES/ANGSTROM


                  C  1       C  2       C  3       C  4       C  5       C  6
 ------------------------------------------------------------------------------
     C    1  14.534644
     C    2   3.193499  14.665444
     C    3   1.793226   3.134710  14.788435
     C    4   3.537595   1.804726   3.490541  14.381031
     C    5   0.002012   0.008272   0.138936   0.010732  14.701406
     C    6   4.633046   0.548298   0.041175   0.553950   0.000427  14.521693
     C    7   0.000576   0.000816   0.017447   0.002446   4.408100   0.000339
     C    8   0.039691   0.542508   5.069504   0.573559   0.824578   0.005232
     C    9   0.540702   5.072378   0.562448   0.041378   0.002231   0.033941
     C   10   0.005971   0.051894   0.821311   0.048320   4.974836   0.001434
     C   11   0.051055   0.826793   0.047089   0.007193   0.001135   0.005385
     H   12   4.393623   0.436725   0.026924   0.428381   0.000231   0.421118
     H   13   0.441913   4.328835   0.440427   0.024316   0.001473   0.032711
     H   14   0.026279   0.442701   4.358556   0.432181   0.016478   0.002034
     H   15   0.440979   0.032659   0.439922   4.713880   0.001377   0.032400
     H   16   0.454734   0.027385   0.454316   4.642755   0.000957   0.026818
     H   17   0.000361   0.001234   0.018723   0.001039   4.420805   0.000229
     H   18   0.000123   0.000392   0.003176   0.000428   4.440404   0.000237
     H   19   0.000159   0.000211   0.002936   0.000565   0.448978   0.000312
     H   20   0.000228   0.000353   0.000674   0.000218   0.460695   0.000267
     H   21   0.000185   0.000274   0.000516   0.000217   0.464206   0.000127
     H   22   0.468818   0.020540   0.002114   0.019265   0.000241   4.716497
     H   23   0.452515   0.012574   0.003572   0.048268   0.000376   4.737363
     H   24   0.450961   0.047472   0.004162   0.011881   0.000212   4.747098
     H   25   0.035406   0.433957   0.029963   0.002289   0.001172   0.004658
     H   26   0.001609   0.016285   0.082694   0.003029   0.429505   0.000917
     H   27   0.002600   0.033553   0.433418   0.031069   0.083379   0.001281
     H   28   0.018192   0.098099   0.004707   0.001981   0.000363   0.004083
     H   29   0.006854   0.133616   0.010476   0.001423   0.000378   0.000645


                  C  7       C  8       C  9       C 10       C 11       H 12
 ------------------------------------------------------------------------------
     C    7  14.351354
     C    8   0.040282  18.281501
     C    9   0.000837   0.035897  18.277825
     C   10   0.717440  10.681773   0.004930  18.191522
     C   11   0.000557   0.006917  11.060560   0.001496  18.013826
     H   12   0.000235   0.001708   0.024780   0.000617   0.015777   4.896501
     H   13   0.000669   0.023701   0.390563   0.014474   0.025716   0.029639
     H   14   0.001820   0.391379   0.032133   0.024700   0.002969   0.002313
     H   15   0.000389   0.033271   0.003335   0.005365   0.001010   0.027512
     H   16   0.000359   0.027424   0.001495   0.003188   0.000812   0.031094
     H   17   0.445469   0.032371   0.000695   0.408203   0.000511   0.000059
     H   18   0.434630   0.050072   0.000303   0.459158   0.000199   0.000090
     H   19   4.750705   0.006638   0.000219   0.052256   0.000237   0.000126
     H   20   4.746116   0.002437   0.000419   0.015893   0.000216   0.000059
     H   21   4.726120   0.002084   0.000453   0.027288   0.000304   0.000097
     H   22   0.000183   0.001374   0.001522   0.000620   0.001078   0.044161
     H   23   0.000165   0.001034   0.001647   0.000616   0.002094   0.030822
     H   24   0.000227   0.001083   0.005733   0.000471   0.000912   0.029724
     H   25   0.000310   0.002545   4.772666   0.002447   0.455177   0.002849
     H   26   0.025912   0.470497   0.005170   4.758910   0.001563   0.000370
     H   27   0.008523   4.756106   0.004489   0.470380   0.001339   0.000592
     H   28   0.000444   0.001418   0.493198   0.000634   5.060825   0.025272
     H   29   0.000400   0.001635   0.463373   0.000260   5.112003   0.001163


                  H 13       H 14       H 15       H 16       H 17       H 18
 ------------------------------------------------------------------------------
     H   13   4.821478
     H   14   0.030793   4.845123
     H   15   0.000862   0.026855   5.331017
     H   16   0.002455   0.032140   0.548666   5.274675
     H   17   0.000295   0.002698   0.000120   0.000213   5.018622
     H   18   0.000409   0.000654   0.000070   0.000264   0.565538   5.051522
     H   19   0.000274   0.000226   0.000113   0.000101   0.028644   0.030152
     H   20   0.000390   0.000209   0.000084   0.000148   0.048483   0.024567
     H   21   0.000208   0.000175   0.000073   0.000101   0.023931   0.047389
     H   22   0.022383   0.000610   0.001460   0.018119   0.000123   0.000114
     H   23   0.005152   0.000510   0.005524   0.003139   0.000126   0.000081
     H   24   0.002976   0.000492   0.001817   0.005132   0.000111   0.000068
     H   25   0.014115   0.028306   0.000832   0.000590   0.000195   0.000265
     H   26   0.021922   0.009524   0.000751   0.000654   0.017739   0.038704
     H   27   0.003074   0.014266   0.001835   0.029276   0.009699   0.030064
     H   28   0.011759   0.000745   0.000487   0.000442   0.000109   0.000109
     H   29   0.015041   0.000690   0.000357   0.000210   0.000125   0.000119


                  H 19       H 20       H 21       H 22       H 23       H 24
 ------------------------------------------------------------------------------
     H   19   5.488667
     H   20   0.572753   5.484572
     H   21   0.572109   0.577302   5.471042
     H   22   0.000104   0.000124   0.000102   5.453495
     H   23   0.000078   0.000063   0.000073   0.569113   5.458691
     H   24   0.000134   0.000174   0.000086   0.571395   0.565334   5.472309
     H   25   0.000091   0.000149   0.000187   0.000511   0.000363   0.001102
     H   26   0.002053   0.002590   0.019736   0.000399   0.000316   0.000314
     H   27   0.001575   0.000464   0.000598   0.000414   0.000259   0.000376
     H   28   0.000227   0.000209   0.000077   0.000636   0.007887   0.000631
     H   29   0.000120   0.000084   0.000060   0.000336   0.000425   0.000284


                  H 25       H 26       H 27       H 28       H 29
 ------------------------------------------------------------------
     H   25   5.137828
     H   26   0.004656   5.137126
     H   27   0.000603   0.103096   5.130641
     H   28   0.117001   0.000468   0.000297   5.450199
     H   29   0.078657   0.000609   0.000278   0.416823   5.499193


          HEAT OF FORMATION =      11.952121 KCALS/MOLE

          ZERO POINT ENERGY     162.510 KCAL/MOL


           NORMAL COORDINATE ANALYSIS (Total motion = 1 Angstrom)


   Root No.       1         2         3         4         5         6         7         8

                 1 A       2 A       3 A       4 A       5 A       6 A       7 A       8 A   

                  44.1      67.8      77.9     111.9     144.4     151.0     175.9     192.4
  
           1   -0.0093   -0.0059   -0.0040   -0.0014    0.0063    0.0076    0.0020    0.0100
           2    0.0049    0.0028   -0.0017   -0.0109    0.0014    0.0010    0.0017   -0.0031
           3    0.0165    0.0046    0.0075   -0.0063    0.0036   -0.0053    0.0052    0.0042
           4   -0.0092   -0.0059   -0.0036   -0.0014    0.0064    0.0072    0.0014    0.0096
           5    0.0007    0.0035   -0.0167   -0.0128   -0.0042    0.0048    0.0038    0.0035
           6   -0.0096   -0.0071    0.0034   -0.0214    0.0005   -0.0098   -0.0019   -0.0010
           7   -0.0055   -0.0072    0.0112   -0.0002    0.0121    0.0030    0.0004    0.0028
           8    0.0007    0.0033   -0.0168   -0.0121   -0.0035    0.0053    0.0034    0.0041
           9   -0.0099   -0.0121   -0.0088   -0.0069   -0.0074    0.0130   -0.0027    0.0006
          10   -0.0062   -0.0063    0.0107   -0.0007    0.0112    0.0041   -0.0009    0.0025
          11    0.0043    0.0012   -0.0029   -0.0091    0.0003    0.0000    0.0021   -0.0033
          12    0.0044   -0.0271   -0.0064    0.0176   -0.0022   -0.0176    0.0110    0.0093
          13   -0.0036    0.0324    0.0053    0.0073   -0.0026   -0.0145    0.0062   -0.0023
          14    0.0017    0.0012    0.0178    0.0040    0.0208   -0.0012   -0.0013    0.0031
          15   -0.0062    0.0272   -0.0037    0.0104   -0.0148   -0.0080    0.0006   -0.0071
          16   -0.0326   -0.0176   -0.0165   -0.0159    0.0007    0.0038    0.0104    0.0102
          17   -0.0037   -0.0251   -0.0072    0.0153   -0.0082   -0.0214   -0.0073   -0.0075
          18    0.0346    0.0283    0.0180   -0.0148    0.0131    0.0111    0.0064    0.0073
          19    0.0504   -0.0244    0.0226   -0.0077   -0.0159   -0.0011    0.0048    0.0028
          20   -0.0015    0.0030    0.0528   -0.0055   -0.0094   -0.0079   -0.0007   -0.0063
          21    0.0269   -0.0060   -0.0278    0.0112    0.0069    0.0056   -0.0008    0.0044
          22   -0.0100    0.0082    0.0115   -0.0081    0.0013    0.0136   -0.0052   -0.0099
          23   -0.0020    0.0029   -0.0180   -0.0082   -0.0102    0.0265    0.0001    0.0081
          24   -0.0142   -0.0025   -0.0090   -0.0093   -0.0186    0.0327   -0.0089   -0.0061
          25    0.0085    0.0043   -0.0118    0.0218   -0.0110    0.0121   -0.0021    0.0033
          26   -0.0017    0.0058   -0.0113   -0.0064   -0.0116   -0.0139   -0.0017   -0.0064
          27   -0.0212   -0.0121    0.0116   -0.0316    0.0071   -0.0234   -0.0030   -0.0027
          28   -0.0059    0.0140    0.0085    0.0049    0.0279   -0.0050   -0.0034   -0.0089
          29    0.0035    0.0016   -0.0142    0.0112    0.0413    0.0012    0.0007    0.0125
          30   -0.0067    0.0157   -0.0210    0.0128    0.0183   -0.0005   -0.0044   -0.0060
          31    0.0199    0.0120   -0.0329    0.0027   -0.0296   -0.0264   -0.0165   -0.0203
          32   -0.0063    0.0033    0.0062    0.0306   -0.0123    0.0110    0.0023   -0.0004
          33   -0.0229   -0.0119    0.0342    0.0330   -0.0067    0.0024   -0.0042   -0.0057
          34    0.0069    0.0036   -0.0047    0.0054    0.0078    0.0126    0.0067    0.0134
          35    0.0141    0.0243    0.0123   -0.0262    0.0093    0.0139   -0.0028   -0.0047
          36    0.0275    0.0175    0.0129   -0.0094    0.0078    0.0025    0.0057    0.0053
          37   -0.0260   -0.0137   -0.0081   -0.0110    0.0082    0.0037   -0.0029    0.0112
          38    0.0004    0.0022   -0.0292   -0.0074   -0.0077    0.0203    0.0035    0.0077
          39   -0.0173   -0.0102    0.0074   -0.0282    0.0034   -0.0188   -0.0037   -0.0023
          40    0.0028   -0.0193    0.0160    0.0137    0.0185   -0.0157    0.0083    0.0081
          41   -0.0006    0.0048   -0.0155   -0.0216   -0.0002   -0.0094    0.0046    0.0047
          42   -0.0125   -0.0078   -0.0111   -0.0079   -0.0118    0.0269   -0.0065   -0.0020
          43    0.0023   -0.0157    0.0166    0.0138    0.0157   -0.0158    0.0072    0.0048
          44    0.0124    0.0188    0.0098   -0.0219    0.0051    0.0065   -0.0028   -0.0090
          45    0.0046   -0.0439   -0.0106    0.0345   -0.0023   -0.0340    0.0191    0.0143
          46   -0.0133    0.0042    0.0134   -0.0162    0.0082    0.0241   -0.0101   -0.0053
          47   -0.0025   -0.0192   -0.0077    0.0065   -0.0024   -0.0104    0.0077   -0.0025
          48    0.0046   -0.0405   -0.0097    0.0312   -0.0021   -0.0309    0.0176    0.0131
          49   -0.0323    0.0645   -0.0038    0.0152   -0.0002   -0.0230    0.0086   -0.0028
          50    0.0367   -0.0474    0.0165   -0.0035    0.0451    0.0169   -0.0100    0.0012
          51   -0.0005    0.0340    0.0156    0.0058   -0.0535   -0.0172    0.0081   -0.0031
          52   -0.0152    0.0589   -0.0006    0.0126   -0.0225   -0.0258    0.0147    0.0056
          53   -0.0299    0.0448    0.0233    0.0096   -0.0043   -0.0182    0.0063    0.0034
          54   -0.0360    0.0546    0.0115    0.0116   -0.0244   -0.0175    0.0005   -0.0165
          55    0.0529   -0.0126    0.0212   -0.0043   -0.0546   -0.0278    0.0445    0.1345
          56   -0.0009   -0.0001    0.0819   -0.0145   -0.0318   -0.0104   -0.0034   -0.0243
          57    0.0290    0.0000   -0.0101    0.0078   -0.0338   -0.0141    0.0246    0.0827
          58    0.0793   -0.0564    0.0323   -0.0164   -0.0198    0.0088    0.0002   -0.0072
          59   -0.0356    0.0501    0.0568    0.0026   -0.0466   -0.0416    0.0331    0.0936
          60    0.0205   -0.0105   -0.0492    0.0158    0.0598    0.0309   -0.0352   -0.1032
          61    0.0614   -0.0492    0.0282   -0.0146    0.0153    0.0263   -0.0314   -0.1142
          62    0.0293   -0.0394    0.0478   -0.0123    0.0254    0.0227   -0.0313   -0.0963
          63    0.0572   -0.0335   -0.0438    0.0111    0.0134    0.0113    0.0065    0.0421
          64   -0.0464   -0.0278   -0.0159   -0.0190   -0.0030   -0.0078   -0.1217    0.0529
          65   -0.0164   -0.0482   -0.0230    0.0288   -0.0178   -0.0329    0.1251   -0.0547
          66    0.0243    0.0159    0.0126   -0.0113    0.0082    0.0022   -0.0020    0.0085
          67   -0.0380   -0.0163   -0.0294   -0.0271    0.0006    0.0146    0.1839   -0.0419
          68   -0.0040   -0.0235   -0.0085    0.0125   -0.0077   -0.0189    0.0140   -0.0135
          69    0.0435    0.0531    0.0297   -0.0364    0.0234    0.0271   -0.0856    0.0441
          70   -0.0319   -0.0179   -0.0146   -0.0143    0.0007    0.0020   -0.0173    0.0186
          71    0.0027   -0.0262    0.0057    0.0271   -0.0080   -0.0322   -0.1747    0.0425
          72    0.0508    0.0356    0.0200   -0.0042    0.0160    0.0180    0.1087   -0.0279
          73    0.0105    0.0043   -0.0001    0.0626   -0.0141    0.0471    0.0031    0.0121
          74    0.0005    0.0091   -0.0216   -0.0274   -0.0191   -0.0475   -0.0106   -0.0215
          75   -0.0289   -0.0169   -0.0002   -0.0929    0.0239   -0.0551   -0.0028   -0.0021
          76   -0.0033    0.0049    0.0097    0.0134    0.0666   -0.0175   -0.0055   -0.0083
          77    0.0104   -0.0007   -0.0248    0.0288    0.0937   -0.0243    0.0022    0.0171
          78    0.0025    0.0222   -0.0415    0.0342    0.0645   -0.0304    0.0011    0.0024
          79   -0.0149    0.0157    0.0136   -0.0212   -0.0337    0.0306   -0.0075   -0.0177
          80   -0.0099    0.0037   -0.0089   -0.0277   -0.0605    0.0580   -0.0040    0.0018
          81   -0.0220   -0.0095    0.0034   -0.0274   -0.0656    0.0673   -0.0129   -0.0076
          82    0.0181    0.0119   -0.0445   -0.0345   -0.0279   -0.0607   -0.0218   -0.0300
          83   -0.0077    0.0013    0.0154    0.0463   -0.0033    0.0433    0.0116    0.0161
          84   -0.0166   -0.0086    0.0473    0.0975   -0.0255    0.0325   -0.0066   -0.0093
          85    0.0311    0.0182   -0.0394    0.0248   -0.0478   -0.0256   -0.0236   -0.0315
          86   -0.0084    0.0036    0.0122    0.0470   -0.0225   -0.0002   -0.0043   -0.0124
          87   -0.0310   -0.0156    0.0414    0.0284   -0.0010   -0.0041   -0.0034   -0.0053


   Root No.       9        10        11        12        13        14        15        16

                 9 A      10 A      11 A      12 A      13 A      14 A      15 A      16 A   

                 230.9     272.7     320.7     358.7     393.5     436.1     486.0     517.7
  
           1    0.0088    0.0131    0.0113   -0.0255   -0.0004   -0.0142    0.0043    0.0192
           2   -0.0031   -0.0176   -0.0122    0.0041    0.0190   -0.0147    0.0005   -0.0047
           3    0.0097   -0.0090   -0.0108   -0.0004   -0.0076    0.0353    0.0276    0.0026
           4    0.0078    0.0144    0.0117   -0.0277   -0.0009   -0.0117    0.0008    0.0105
           5    0.0102   -0.0109    0.0091   -0.0043   -0.0100   -0.0089   -0.0157    0.0185
           6   -0.0023   -0.0149   -0.0179   -0.0121   -0.0207    0.0080   -0.0252   -0.0080
           7   -0.0045    0.0085   -0.0020   -0.0022    0.0202   -0.0101   -0.0003   -0.0167
           8    0.0093   -0.0085    0.0038   -0.0049   -0.0138   -0.0166   -0.0108    0.0270
           9   -0.0059   -0.0085    0.0083   -0.0005   -0.0093   -0.0175   -0.0157   -0.0257
          10   -0.0061    0.0089   -0.0033   -0.0093    0.0243   -0.0140    0.0034   -0.0223
          11   -0.0023   -0.0174   -0.0100    0.0088    0.0204   -0.0176   -0.0041   -0.0052
          12    0.0248    0.0072    0.0161    0.0343    0.0012   -0.0028   -0.0101    0.0045
          13    0.0182    0.0149   -0.0176    0.0143   -0.0204    0.0035   -0.0079   -0.0061
          14   -0.0064    0.0106   -0.0181    0.0031    0.0143    0.0212   -0.0227    0.0087
          15    0.0146   -0.0029    0.0030   -0.0152    0.0162   -0.0070    0.0064    0.0020
          16    0.0202   -0.0271   -0.0150    0.0129    0.0125    0.0125    0.0227    0.0053
          17   -0.0078    0.0008   -0.0079   -0.0284   -0.0089    0.0166    0.0195    0.0071
          18    0.0070    0.0019    0.0013   -0.0034    0.0042    0.0023    0.0137    0.0078
          19    0.0037   -0.0012    0.0019    0.0092   -0.0218   -0.0068    0.0050   -0.0090
          20    0.0026   -0.0109    0.0089   -0.0048    0.0027   -0.0034    0.0020    0.0030
          21   -0.0020    0.0075   -0.0111   -0.0141    0.0336    0.0113   -0.0114    0.0111
          22   -0.0175    0.0002    0.0143    0.0179   -0.0005    0.0209   -0.0100    0.0224
          23    0.0014    0.0274   -0.0152    0.0108   -0.0152   -0.0091    0.0216    0.0066
          24   -0.0199    0.0059    0.0115    0.0157   -0.0109    0.0067    0.0025   -0.0135
          25    0.0050   -0.0121    0.0014   -0.0244   -0.0090    0.0166   -0.0124   -0.0219
          26    0.0017    0.0110    0.0309    0.0045    0.0088    0.0174   -0.0056   -0.0204
          27   -0.0062    0.0150   -0.0030   -0.0118   -0.0083    0.0023   -0.0144   -0.0074
          28   -0.0169   -0.0110    0.0192    0.0165   -0.0071    0.0163   -0.0072    0.0203
          29   -0.0091    0.0160   -0.0199    0.0164   -0.0267   -0.0043    0.0084   -0.0215
          30   -0.0108   -0.0169    0.0260   -0.0002   -0.0088   -0.0114    0.0221    0.0003
          31   -0.0231   -0.0029   -0.0124    0.0076    0.0025   -0.0087   -0.0021    0.0009
          32    0.0069    0.0026    0.0275    0.0021    0.0088    0.0168   -0.0003   -0.0196
          33   -0.0143    0.0040   -0.0224    0.0041   -0.0023   -0.0191    0.0046    0.0167
          34    0.0144    0.0288    0.0290   -0.0301   -0.0019   -0.0210    0.0168    0.0434
          35   -0.0135   -0.0273   -0.0263   -0.0044    0.0319   -0.0164    0.0057   -0.0236
          36    0.0083   -0.0050   -0.0074   -0.0057   -0.0031    0.0297    0.0340    0.0068
          37    0.0067    0.0227    0.0208   -0.0357   -0.0113   -0.0328   -0.0212    0.0245
          38    0.0127   -0.0171    0.0184   -0.0074   -0.0239   -0.0295   -0.0236    0.0328
          39   -0.0043   -0.0064   -0.0171   -0.0144   -0.0188    0.0073   -0.0310   -0.0083
          40    0.0109    0.0111   -0.0051    0.0111    0.0452   -0.0209    0.0002   -0.0281
          41    0.0164   -0.0180    0.0011   -0.0246   -0.0259   -0.0121   -0.0319    0.0483
          42   -0.0154   -0.0042    0.0110    0.0043   -0.0131   -0.0139   -0.0057   -0.0311
          43    0.0084    0.0153   -0.0019    0.0233    0.0428   -0.0047    0.0024   -0.0101
          44   -0.0173   -0.0291   -0.0332   -0.0130    0.0251    0.0094    0.0303   -0.0275
          45    0.0432    0.0184    0.0315    0.0688    0.0099   -0.0141   -0.0328    0.0267
          46   -0.0303   -0.0024   -0.0141   -0.0332    0.0257   -0.0223    0.0071   -0.0632
          47    0.0053   -0.0086    0.0048    0.0418    0.0367   -0.0462   -0.0378   -0.0086
          48    0.0392    0.0161    0.0277    0.0607    0.0078   -0.0118   -0.0276    0.0222
          49    0.0302    0.0263   -0.0318    0.0196   -0.0315    0.0015   -0.0101   -0.0192
          50   -0.0415   -0.0118    0.0152    0.0059    0.0226    0.0312   -0.0145    0.0375
          51    0.0409    0.0066   -0.0162   -0.0292    0.0245   -0.0185   -0.0002   -0.0147
          52    0.0462    0.0382   -0.0521    0.0122   -0.0287   -0.0055   -0.0156   -0.0341
          53    0.0258    0.0277   -0.0445   -0.0014    0.0087    0.0112   -0.0295   -0.0145
          54    0.0241   -0.0079    0.0088   -0.0184    0.0189   -0.0089    0.0054    0.0042
          55   -0.0622   -0.0079    0.0068    0.0109   -0.0103    0.0051   -0.0039   -0.0017
          56    0.0144   -0.0307    0.0356   -0.0098   -0.0180   -0.0344    0.0366   -0.0112
          57   -0.0393   -0.0094    0.0090   -0.0164    0.0291    0.0003    0.0039    0.0077
          58    0.0019   -0.0108    0.0143    0.0063   -0.0265   -0.0174    0.0180   -0.0144
          59   -0.0373   -0.0158    0.0132   -0.0024    0.0034   -0.0004    0.0006    0.0059
          60    0.0508    0.0296   -0.0373   -0.0121    0.0400    0.0248   -0.0310    0.0160
          61    0.0592    0.0002    0.0033    0.0066   -0.0339   -0.0217    0.0184   -0.0180
          62    0.0384   -0.0059    0.0043   -0.0068    0.0022   -0.0059    0.0031    0.0004
          63   -0.0302    0.0132   -0.0206   -0.0134    0.0518    0.0305   -0.0308    0.0212
          64    0.0490   -0.0537   -0.0296    0.0411    0.0177    0.0418    0.0455   -0.0025
          65   -0.0313    0.0069   -0.0158   -0.0517   -0.0306    0.0519    0.0402    0.0110
          66    0.0108   -0.0068   -0.0072    0.0003   -0.0011    0.0260    0.0295    0.0060
          67   -0.0017   -0.0408   -0.0285    0.0310    0.0285    0.0105    0.0241   -0.0096
          68   -0.0101   -0.0022   -0.0101   -0.0241   -0.0051    0.0147    0.0190    0.0044
          69    0.0290   -0.0166    0.0013    0.0365    0.0375   -0.0336   -0.0048   -0.0044
          70    0.0241   -0.0258   -0.0135    0.0111    0.0106    0.0138    0.0239    0.0073
          71    0.0128    0.0162    0.0060   -0.0500   -0.0261    0.0201    0.0210    0.0239
          72   -0.0207    0.0399    0.0228   -0.0477   -0.0113   -0.0253   -0.0083    0.0248
          73    0.0144   -0.0485   -0.0221   -0.0341   -0.0298    0.0202   -0.0431   -0.0214
          74   -0.0150    0.0394    0.0463    0.0237    0.0310    0.0142    0.0239   -0.0252
          75   -0.0052    0.0568    0.0273   -0.0152    0.0079   -0.0040    0.0140    0.0000
          76   -0.0329   -0.0335    0.0370    0.0166   -0.0139    0.0135   -0.0174    0.0126
          77   -0.0181   -0.0138    0.0009    0.0105   -0.0448   -0.0296    0.0170   -0.0397
          78   -0.0076   -0.0418    0.0399   -0.0104   -0.0330   -0.0523    0.0482   -0.0242
          79   -0.0151    0.0087    0.0159    0.0224    0.0081    0.0405   -0.0118    0.0603
          80    0.0014    0.0562   -0.0296    0.0230   -0.0017    0.0223    0.0196    0.0310
          81   -0.0215    0.0470   -0.0159    0.0317    0.0025    0.0377    0.0021   -0.0154
          82   -0.0340    0.0338    0.0096    0.0214    0.0255   -0.0190    0.0376    0.0086
          83    0.0280   -0.0278    0.0224   -0.0276   -0.0158    0.0481   -0.0475   -0.0560
          84   -0.0227   -0.0352   -0.0677    0.0194   -0.0175   -0.0461   -0.0143    0.0582
          85   -0.0380   -0.0305   -0.0499    0.0277   -0.0097   -0.0325   -0.0268    0.0349
          86   -0.0110    0.0248    0.0280    0.0311    0.0353   -0.0168    0.0544    0.0181
          87   -0.0150    0.0330    0.0003    0.0076    0.0195   -0.0237    0.0498    0.0177


   Root No.      17        18        19        20        21        22        23        24

                17 A      18 A      19 A      20 A      21 A      22 A      23 A      24 A   

                 571.8     651.5     719.6     820.3     889.5     907.4     916.8     926.5
  
           1    0.0073   -0.0116   -0.0249    0.0025    0.0112   -0.0058   -0.0126    0.0016
           2   -0.0013    0.0192   -0.0248    0.0020   -0.0065    0.0012   -0.0022   -0.0006
           3    0.0064   -0.0122    0.0204   -0.0027   -0.0044    0.0037    0.0066   -0.0006
           4    0.0017    0.0089   -0.0175    0.0007   -0.0148    0.0164    0.0173   -0.0033
           5    0.0098   -0.0082    0.0197   -0.0006    0.0094    0.0132    0.0105   -0.0018
           6   -0.0133    0.0134    0.0208   -0.0006    0.0277   -0.0022   -0.0005   -0.0023
           7   -0.0055   -0.0190    0.0263   -0.0014    0.0022   -0.0036   -0.0011   -0.0001
           8    0.0062    0.0000    0.0300   -0.0040   -0.0098   -0.0096   -0.0052   -0.0001
           9    0.0413   -0.0122    0.0101    0.0102   -0.0045   -0.0033   -0.0033   -0.0015
          10   -0.0097   -0.0214    0.0315   -0.0017    0.0103   -0.0038    0.0091   -0.0038
          11   -0.0029    0.0194   -0.0192    0.0016   -0.0011    0.0083   -0.0024    0.0023
          12   -0.0015   -0.0003    0.0077    0.0040   -0.0188    0.0162   -0.0180    0.0037
          13    0.0118    0.0019   -0.0025    0.0348   -0.0013   -0.0025    0.0007    0.0016
          14    0.0165    0.0014   -0.0031    0.0032   -0.0016    0.0007   -0.0015   -0.0011
          15   -0.0104   -0.0012    0.0043    0.0156    0.0020    0.0005    0.0016   -0.0021
          16    0.0072   -0.0076   -0.0156    0.0014    0.0141   -0.0108   -0.0123    0.0011
          17    0.0072   -0.0022   -0.0164    0.0013   -0.0023   -0.0029   -0.0048    0.0000
          18    0.0067   -0.0064   -0.0159    0.0003    0.0057   -0.0071    0.0038    0.0000
          19    0.0030    0.0004   -0.0039    0.0103   -0.0006   -0.0038    0.0028    0.0065
          20   -0.0029   -0.0004    0.0032   -0.0015   -0.0035   -0.0042   -0.0009    0.0065
          21   -0.0001   -0.0016    0.0051   -0.0013   -0.0006   -0.0036    0.0025    0.0029
          22   -0.0025    0.0018    0.0062   -0.0163   -0.0085   -0.0157    0.0003    0.0013
          23   -0.0348    0.0013    0.0226   -0.0073   -0.0176   -0.0265   -0.0056   -0.0006
          24    0.0133   -0.0004   -0.0213   -0.0086    0.0005   -0.0171    0.0103   -0.0040
          25   -0.0118    0.0571    0.0019   -0.0011   -0.0105    0.0045    0.0083   -0.0057
          26   -0.0055   -0.0298   -0.0070    0.0010    0.0056   -0.0020   -0.0048    0.0035
          27   -0.0231   -0.0024   -0.0156   -0.0005   -0.0082   -0.0011   -0.0065    0.0057
          28   -0.0032    0.0039    0.0037   -0.0039   -0.0012    0.0061   -0.0062   -0.0131
          29    0.0003    0.0012   -0.0090    0.0044    0.0119    0.0118    0.0001   -0.0246
          30   -0.0213    0.0029   -0.0015    0.0037    0.0059    0.0137   -0.0065   -0.0249
          31   -0.0014    0.0029   -0.0015   -0.0002   -0.0073   -0.0028   -0.0031    0.0010
          32    0.0036   -0.0079    0.0009    0.0012    0.0057   -0.0007   -0.0006    0.0001
          33    0.0015    0.0128   -0.0017   -0.0008   -0.0143   -0.0025   -0.0057    0.0042
          34    0.0259   -0.0258   -0.0491    0.0055   -0.0173    0.0192   -0.0107    0.0095
          35   -0.0085    0.0286   -0.0333   -0.0013    0.0099   -0.0212    0.0355   -0.0100
          36    0.0120   -0.0153    0.0044   -0.0025   -0.0096    0.0046    0.0212   -0.0005
          37    0.0028   -0.0135   -0.0449    0.0036   -0.0055    0.0384    0.0301    0.0099
          38    0.0527   -0.0016    0.0439    0.0032   -0.0034    0.0363    0.0427    0.0007
          39   -0.0329    0.0000   -0.0038   -0.0011    0.0364   -0.0028   -0.0095    0.0029
          40   -0.0235   -0.0307    0.0497    0.0116   -0.0025    0.0411   -0.0419    0.0084
          41    0.0047    0.0103    0.0576   -0.0038    0.0286    0.0162    0.0197   -0.0151
          42    0.0475   -0.0120   -0.0129    0.0045   -0.0195   -0.0331    0.0028    0.0019
          43   -0.0581    0.0045    0.0134   -0.0272    0.0596   -0.0265    0.0836   -0.0150
          44    0.0062   -0.0010    0.0132    0.0063   -0.0446    0.0693   -0.0168    0.0077
          45   -0.0385    0.0309   -0.0259   -0.0156    0.0405   -0.0383    0.0404   -0.0072
          46    0.0303   -0.0503    0.0647    0.0254   -0.0325    0.0462   -0.0484    0.0092
          47   -0.0270    0.0522   -0.0553   -0.0046    0.0518   -0.0366    0.0442   -0.0055
          48   -0.0308    0.0278   -0.0235   -0.0115    0.0259   -0.0276    0.0301   -0.0056
          49    0.0237    0.0005   -0.0134   -0.0524    0.0090    0.0334   -0.0173   -0.0433
          50   -0.0134    0.0096    0.0124    0.1665   -0.0060   -0.0166    0.0068    0.0110
          51    0.0096   -0.0105    0.0028   -0.0575   -0.0109   -0.0411    0.0230    0.0637
          52    0.0397   -0.0049   -0.0162   -0.0721   -0.0004   -0.0047    0.0054    0.0142
          53    0.0417   -0.0060   -0.0145   -0.1423   -0.0008    0.0135   -0.0104   -0.0093
          54   -0.0083   -0.0033    0.0043   -0.0609    0.0024    0.0231   -0.0175   -0.0307
          55    0.0080    0.0006   -0.0059   -0.0347   -0.0023    0.0091   -0.0107   -0.0087
          56   -0.0303   -0.0023    0.0063   -0.0113    0.0170    0.0170    0.0048   -0.0303
          57   -0.0136   -0.0027    0.0060   -0.0384    0.0106    0.0177   -0.0030   -0.0294
          58   -0.0063   -0.0014   -0.0067   -0.0841    0.0125    0.0370   -0.0176   -0.0498
          59   -0.0041    0.0011    0.0063    0.0805   -0.0078   -0.0317    0.0182    0.0413
          60    0.0170   -0.0005    0.0056    0.0488   -0.0164   -0.0353    0.0116    0.0509
          61   -0.0053   -0.0007   -0.0042   -0.0038    0.0081    0.0081    0.0027   -0.0131
          62   -0.0020   -0.0019    0.0009   -0.0762    0.0003    0.0202   -0.0179   -0.0241
          63    0.0146   -0.0023    0.0018   -0.1008   -0.0079    0.0177   -0.0251   -0.0170
          64    0.0103   -0.0120    0.0109   -0.0042   -0.0247    0.0083    0.0443   -0.0019
          65    0.0137   -0.0232    0.0143   -0.0053    0.0086   -0.0075    0.0409   -0.0021
          66    0.0099   -0.0151    0.0052   -0.0042   -0.0058   -0.0010    0.0420   -0.0019
          67    0.0027    0.0082   -0.0195    0.0020   -0.0350    0.0103    0.0045   -0.0008
          68    0.0063    0.0014   -0.0191    0.0017   -0.0106    0.0003   -0.0038   -0.0003
          69   -0.0020    0.0240   -0.0537    0.0074   -0.0279    0.0039   -0.0325    0.0009
          70    0.0083   -0.0104   -0.0155    0.0012    0.0202   -0.0141   -0.0132    0.0014
          71    0.0136   -0.0210   -0.0185    0.0010    0.0537   -0.0311   -0.0235    0.0023
          72    0.0074   -0.0129   -0.0486    0.0063    0.0742   -0.0422   -0.0644    0.0050
          73   -0.0391    0.0191   -0.0032   -0.0017    0.0411   -0.0135   -0.0471    0.0363
          74    0.0192   -0.0041   -0.0029    0.0020   -0.0354   -0.0051    0.0215   -0.0251
          75    0.0055    0.0450   -0.0096   -0.0004   -0.0660    0.0447    0.0820   -0.0487
          76    0.0270   -0.0016   -0.0095   -0.0581   -0.0083   -0.0012    0.0206    0.1154
          77    0.0146   -0.0078   -0.0080   -0.0522   -0.0031   -0.0067    0.0295    0.1795
          78   -0.0294   -0.0068    0.0143   -0.0335   -0.0116   -0.0098    0.0143    0.1827
          79   -0.0279    0.0163    0.0115   -0.0126    0.0045    0.0589   -0.0166    0.0673
          80   -0.0635    0.0158    0.0117    0.0177    0.0350    0.1059   -0.0125    0.0998
          81   -0.0080    0.0076   -0.0461    0.0300    0.0763    0.1259    0.0178    0.0939
          82    0.0441    0.0797    0.0344   -0.0006    0.0377   -0.0110   -0.0328    0.0251
          83   -0.0550   -0.0369   -0.0385    0.0004   -0.0656   -0.0102    0.0024   -0.0099
          84   -0.0120   -0.1273   -0.0234    0.0017   -0.0034    0.0342    0.0633   -0.0388
          85   -0.0261   -0.1835   -0.0407    0.0040    0.0110    0.0193    0.0274   -0.0109
          86    0.0765    0.0601    0.0596    0.0017    0.0892    0.0171    0.0269   -0.0153
          87    0.0567    0.1638    0.0544   -0.0031    0.0199   -0.0055   -0.0087    0.0028


   Root No.      25        26        27        28        29        30        31        32

                25 A      26 A      27 A      28 A      29 A      30 A      31 A      32 A   

                 934.9     939.1     958.7     968.2     992.6    1026.3    1030.4    1037.9
  
           1   -0.0130   -0.0029    0.0033    0.0009    0.0010   -0.0051    0.0018   -0.0095
           2    0.0181   -0.0050    0.0014   -0.0001   -0.0034    0.0028   -0.0025    0.0079
           3   -0.0071    0.0069    0.0029    0.0004    0.0064    0.0046   -0.0005   -0.0015
           4    0.0141    0.0155    0.0027   -0.0055   -0.0017    0.0048    0.0002    0.0004
           5    0.0051    0.0082    0.0031    0.0044    0.0088   -0.0021   -0.0114    0.0333
           6    0.0054   -0.0081    0.0132   -0.0047   -0.0035   -0.0009    0.0005    0.0018
           7    0.0111   -0.0053    0.0000    0.0050   -0.0052    0.0024   -0.0119    0.0285
           8   -0.0053   -0.0074   -0.0097    0.0028    0.0016    0.0005    0.0076   -0.0210
           9   -0.0006   -0.0071   -0.0100   -0.0019   -0.0053    0.0049   -0.0039   -0.0056
          10   -0.0010   -0.0040   -0.0095   -0.0035    0.0160   -0.0032    0.0107   -0.0273
          11   -0.0403    0.0200    0.0100   -0.0013   -0.0027   -0.0005    0.0018   -0.0092
          12   -0.0019    0.0035    0.0127    0.0011   -0.0020   -0.0031    0.0060   -0.0103
          13   -0.0008   -0.0006   -0.0027   -0.0078   -0.0008    0.0090   -0.0209   -0.0102
          14   -0.0021   -0.0004   -0.0026   -0.0095    0.0021    0.0001    0.0009   -0.0052
          15    0.0010    0.0004   -0.0007    0.0018    0.0010    0.0017   -0.0060    0.0007
          16   -0.0118   -0.0133    0.0052    0.0020    0.0035    0.0050   -0.0011    0.0054
          17    0.0326   -0.0138   -0.0015    0.0011    0.0065   -0.0022    0.0011   -0.0023
          18    0.0026   -0.0030   -0.0126   -0.0011   -0.0111   -0.0047    0.0008    0.0023
          19   -0.0012    0.0009    0.0013   -0.0105    0.0059   -0.0078    0.0157    0.0080
          20   -0.0007   -0.0010   -0.0001   -0.0158    0.0013    0.0000   -0.0015    0.0031
          21    0.0026    0.0012    0.0047    0.0302   -0.0080    0.0042   -0.0059   -0.0064
          22    0.0026    0.0036    0.0084    0.0099   -0.0046    0.0007   -0.0028    0.0030
          23    0.0022    0.0027    0.0084   -0.0094   -0.0099    0.0034   -0.0074    0.0012
          24    0.0005    0.0100    0.0095    0.0003    0.0106   -0.0033   -0.0013   -0.0001
          25   -0.0058   -0.0100    0.0108   -0.0042   -0.0072    0.0203    0.0069   -0.0007
          26    0.0065    0.0099   -0.0007   -0.0020   -0.0025   -0.0089   -0.0033   -0.0026
          27    0.0041    0.0159   -0.0032   -0.0010   -0.0035   -0.0066   -0.0035   -0.0026
          28    0.0007   -0.0008   -0.0016    0.0051   -0.0040   -0.0018    0.0065    0.0051
          29    0.0010    0.0020   -0.0016    0.0198    0.0016   -0.0055    0.0127    0.0063
          30   -0.0023   -0.0006   -0.0072   -0.0180    0.0065   -0.0084    0.0190    0.0071
          31   -0.0071   -0.0062   -0.0087    0.0070    0.0054   -0.0308   -0.0116    0.0046
          32    0.0034    0.0015    0.0007   -0.0017   -0.0001    0.0211    0.0070    0.0006
          33   -0.0078    0.0033   -0.0177    0.0108    0.0140    0.0226    0.0048    0.0110
          34   -0.0266    0.0494   -0.0084    0.0066   -0.0089   -0.0265   -0.0034   -0.0063
          35    0.0052   -0.0135   -0.0375   -0.0124   -0.0339    0.0101    0.0021    0.0046
          36   -0.0168    0.0252   -0.0184   -0.0018   -0.0109   -0.0026   -0.0009   -0.0011
          37    0.0323    0.0591   -0.0055   -0.0115   -0.0108   -0.0644   -0.0095   -0.0192
          38   -0.0100    0.0058   -0.0360    0.0261    0.0560    0.0117   -0.0263    0.0813
          39    0.0215    0.0141    0.0278   -0.0180   -0.0307   -0.0402    0.0032   -0.0315
          40   -0.0088   -0.0005    0.0117    0.0098   -0.0416   -0.0171   -0.0145    0.1467
          41    0.0155   -0.0409   -0.0324    0.0172    0.0426   -0.0115    0.0579   -0.0768
          42   -0.0026    0.0074   -0.0033   -0.0108   -0.0084    0.0182   -0.0269   -0.0275
[...]
 T-DIPOLE    0.1187        C  2 --  C  3           +9.8% ( 53.9%)    52.8%
 TRAVEL      0.0664        C  1 --  C  2           +8.5% ( 50.1%)    56.8%
 RED. MASS   1.5743        C  3 --  C  8           +8.1% ( 49.1%)    94.1%
 EFF. MASS  10.3312

 VIBRATION   62   62A       ATOM PAIR        ENERGY CONTRIBUTION    RADIAL
 FREQ.      1862.04        C  9 --  C 11          +44.8% ( 99.0%)    98.8%
 T-DIPOLE    0.2620        C  2 --  C  9          +17.1% ( 61.1%)    57.9%
 TRAVEL      0.0553        C  9 --  H 25          +15.5% ( 58.2%)     3.7%
 RED. MASS   5.2978        C 11 --  H 28          +10.7% ( 48.5%)    10.7%
 EFF. MASS  11.8227        C 11 --  H 29          +10.5% ( 48.0%)    13.0%

 VIBRATION   63   63A       ATOM PAIR        ENERGY CONTRIBUTION    RADIAL
 FREQ.      1890.18        C  8 --  C 10          +43.5% ( 97.5%)    96.3%
 T-DIPOLE    0.0632        C  3 --  C  8          +14.4% ( 56.2%)    56.9%
 TRAVEL      0.0549        C  5 --  C 10          +14.0% ( 55.4%)    55.0%
 RED. MASS   5.3662        C  8 --  H 27          +13.3% ( 53.8%)     3.4%
 EFF. MASS  11.8200        C 10 --  H 26          +13.1% ( 53.5%)     3.5%

 VIBRATION   64   64A       ATOM PAIR        ENERGY CONTRIBUTION    RADIAL
 FREQ.      2920.21        C  2 --  H 13          +83.0% ( 93.1%)   100.0%
 T-DIPOLE    0.0920        C  3 --  H 14          +11.1% ( 34.0%)   100.0%
 TRAVEL      0.1265        C  1 --  H 12           +1.7% ( 13.5%)    99.9%
 RED. MASS   0.7107        C  2 --  C  3           +1.1% ( 10.6%)    16.6%
 EFF. MASS   1.4439

 VIBRATION   65   65A       ATOM PAIR        ENERGY CONTRIBUTION    RADIAL
 FREQ.      2930.95        C  3 --  H 14          +83.7% ( 93.3%)   100.0%
 T-DIPOLE    0.1444        C  2 --  H 13           +9.7% ( 31.7%)    99.9%
 TRAVEL      0.1266        C  1 --  H 12           +2.4% ( 15.9%)   100.0%
 RED. MASS   0.7166        C  2 --  C  3           +0.9% (  9.7%)    10.4%
 EFF. MASS   1.4344

 VIBRATION   66   66A       ATOM PAIR        ENERGY CONTRIBUTION    RADIAL
 FREQ.      2943.00        C  1 --  H 12          +91.1% ( 97.5%)   100.0%
 T-DIPOLE    0.1288        C  2 --  H 13           +3.0% ( 17.8%)    99.8%
 TRAVEL      0.1258        C  1 --  C  3           +1.0% ( 10.4%)    37.4%
 RED. MASS   0.8429        C  1 --  C  4           +1.0% ( 10.3%)    13.0%
 EFF. MASS   1.4476

 VIBRATION   67   67A       ATOM PAIR        ENERGY CONTRIBUTION    RADIAL
 FREQ.      2944.79        C  5 --  H 17          +52.2% ( 75.0%)    96.8%
 T-DIPOLE    0.0198        C  5 --  H 18          +45.1% ( 69.7%)    96.1%
 TRAVEL      0.1218        C  5 --  C  7           +1.2% ( 11.2%)     0.0%
 RED. MASS   0.5162        C  5 --  C 10           +1.2% ( 11.1%)     0.2%
 EFF. MASS   1.5438

 VIBRATION   68   68A       ATOM PAIR        ENERGY CONTRIBUTION    RADIAL
 FREQ.      3023.99        C  5 --  H 18          +50.6% ( 70.2%)    98.1%
 T-DIPOLE    0.0382        C  5 --  H 17          +44.5% ( 65.8%)    97.3%
 TRAVEL      0.1316        C 10 --  H 26           +1.9% ( 13.6%)    99.8%
 RED. MASS   0.4544        C  8 --  H 27           +1.1% ( 10.2%)    99.8%
 EFF. MASS   1.2881

 VIBRATION   69   69A       ATOM PAIR        ENERGY CONTRIBUTION    RADIAL
 FREQ.      3032.26        C  8 --  H 27          +42.1% ( 66.6%)   100.0%
 T-DIPOLE    0.2563        C  4 --  H 16          +32.5% ( 58.5%)    98.2%
 TRAVEL      0.1214        C  4 --  H 15          +17.8% ( 43.4%)    94.6%
 RED. MASS   0.3282        C 10 --  H 26           +4.1% ( 20.9%)    99.9%
 EFF. MASS   1.5082

 VIBRATION   70   70A       ATOM PAIR        ENERGY CONTRIBUTION    RADIAL
 FREQ.      3033.37        C  8 --  H 27          +43.7% ( 67.8%)   100.0%
 T-DIPOLE    0.2160        C  4 --  H 16          +30.2% ( 56.4%)    98.0%
 TRAVEL      0.1218        C  4 --  H 15          +18.3% ( 43.9%)    95.1%
 RED. MASS   0.3286        C 10 --  H 26           +4.6% ( 22.0%)    99.9%
 EFF. MASS   1.4991

 VIBRATION   71   71A       ATOM PAIR        ENERGY CONTRIBUTION    RADIAL
 FREQ.      3035.11        C 10 --  H 26          +47.4% ( 69.9%)   100.0%
 T-DIPOLE    0.2013        C  9 --  H 25          +42.2% ( 65.9%)   100.0%
 TRAVEL      0.1205        C  8 --  H 27           +5.4% ( 23.6%)    99.7%
 RED. MASS   0.4010        C  5 --  H 18           +1.2% ( 11.2%)    99.4%
 EFF. MASS   1.5308

 VIBRATION   72   72A       ATOM PAIR        ENERGY CONTRIBUTION    RADIAL
 FREQ.      3036.11        C  9 --  H 25          +54.0% ( 74.6%)   100.0%
 T-DIPOLE    0.2080        C 10 --  H 26          +38.6% ( 63.1%)   100.0%
 TRAVEL      0.1208        C  8 --  H 27           +2.9% ( 17.1%)    99.6%
 RED. MASS   0.4364        C  5 --  H 18           +0.8% (  9.1%)    99.4%
 EFF. MASS   1.5223

 VIBRATION   73   73A       ATOM PAIR        ENERGY CONTRIBUTION    RADIAL
 FREQ.      3076.86        C  6 --  H 22          +65.2% ( 83.3%)    98.9%
 T-DIPOLE    0.0219        C  6 --  H 23          +23.7% ( 50.3%)    89.8%
 TRAVEL      0.1207        C  6 --  H 24           +9.8% ( 32.3%)    73.3%
 RED. MASS   0.5203        C  1 --  C  6           +1.0% ( 10.4%)     0.0%
 EFF. MASS   1.5053

 VIBRATION   74   74A       ATOM PAIR        ENERGY CONTRIBUTION    RADIAL
 FREQ.      3081.35        C  7 --  H 21          +63.2% ( 82.0%)    98.6%
 T-DIPOLE    0.0090        C  7 --  H 20          +30.1% ( 56.6%)    92.8%
 TRAVEL      0.1207        C  7 --  H 19           +5.5% ( 24.1%)    57.5%
 RED. MASS   0.5207        C  5 --  C  7           +1.0% ( 10.2%)     0.0%
 EFF. MASS   1.5013

 VIBRATION   75   75A       ATOM PAIR        ENERGY CONTRIBUTION    RADIAL
 FREQ.      3082.82        C  6 --  H 24          +53.8% ( 75.7%)    97.8%
 T-DIPOLE    0.0139        C  6 --  H 23          +42.8% ( 67.5%)    95.9%
 TRAVEL      0.1204        C  6 --  H 22           +2.3% ( 15.6%)    26.3%
 RED. MASS   0.5034        C  1 --  C  6           +1.0% ( 10.4%)     0.0%
 EFF. MASS   1.5079

 VIBRATION   76   76A       ATOM PAIR        ENERGY CONTRIBUTION    RADIAL
 FREQ.      3086.00        C  7 --  H 19          +59.1% ( 79.3%)    98.4%
 T-DIPOLE    0.0093        C  7 --  H 20          +34.9% ( 60.9%)    94.1%
 TRAVEL      0.1205        C  7 --  H 21           +4.6% ( 22.1%)    51.3%
 RED. MASS   0.5015        C  5 --  C  7           +1.0% ( 10.3%)     0.1%
 EFF. MASS   1.5042

 VIBRATION   77   77A       ATOM PAIR        ENERGY CONTRIBUTION    RADIAL
 FREQ.      3100.24        C  4 --  H 15          +63.1% ( 78.9%)    98.6%
 T-DIPOLE    0.0793        C  4 --  H 16          +34.7% ( 58.5%)    94.5%
 TRAVEL      0.1299        C  2 --  C  4           +0.7% (  8.4%)    97.5%
 RED. MASS   0.5182        C  1 --  C  4           +0.7% (  8.3%)    47.7%
 EFF. MASS   1.2883

 VIBRATION   78   78A       ATOM PAIR        ENERGY CONTRIBUTION    RADIAL
 FREQ.      3131.20        C 11 --  H 28          +96.1% ( 99.5%)   100.0%
 T-DIPOLE    0.2119        C 11 --  H 29           +2.5% ( 16.1%)    44.6%
 TRAVEL      0.1192        C  9 --  C 11           +1.4% ( 11.8%)    32.8%
 RED. MASS   0.9134
 EFF. MASS   1.5146

 VIBRATION   79   79A       ATOM PAIR        ENERGY CONTRIBUTION    RADIAL
 FREQ.      3147.79        C 11 --  H 29          +95.7% ( 98.8%)    99.9%
 T-DIPOLE    0.2514        C 11 --  H 28           +2.0% ( 14.3%)     3.0%
 TRAVEL      0.1200        C  9 --  C 11           +1.5% ( 12.5%)    60.4%
 RED. MASS   0.8912        C  9 --  H 25           +0.7% (  8.5%)    94.9%
 EFF. MASS   1.4888

 VIBRATION   80   80A       ATOM PAIR        ENERGY CONTRIBUTION    RADIAL
 FREQ.      3176.07        C  6 --  H 24          +35.9% ( 57.7%)    97.5%
 T-DIPOLE    0.0278        C  6 --  H 23          +32.5% ( 54.9%)    96.9%
 TRAVEL      0.1367        C  6 --  H 22          +31.3% ( 53.9%)    96.7%
 RED. MASS   0.3278        C  1 --  C  6           +0.3% (  5.2%)    99.7%
 EFF. MASS   1.1369

 VIBRATION   81   81A       ATOM PAIR        ENERGY CONTRIBUTION    RADIAL
 FREQ.      3183.02        C  7 --  H 19          +34.5% ( 56.5%)    97.3%
 T-DIPOLE    0.0188        C  7 --  H 20          +34.3% ( 56.3%)    97.3%
 TRAVEL      0.1366        C  7 --  H 21          +30.9% ( 53.5%)    96.7%
 RED. MASS   0.3277        C  5 --  C  7           +0.3% (  5.1%)    99.8%
 EFF. MASS   1.1360

 SYMMETRY NUMBER FOR POINT-GROUP C1  =  1


          SYSTEM IS A GROUND STATE


    NULL



          MOLECULE IS NOT LINEAR

          THERE ARE 81 GENUINE VIBRATIONS IN THIS SYSTEM
          THIS THERMODYNAMICS CALCULATION IS LIMITED TO
          MOLECULES WHICH HAVE NO INTERNAL ROTATIONS




                    CALCULATED THERMODYNAMIC PROPERTIES
                                          *
   TEMP. (K)   PARTITION FUNCTION   H.O.F.    ENTHALPY  HEAT CAPACITY ENTROPY
                                   KCAL/MOL   CAL/MOLE    CAL/K/MOL  CAL/K/MOL


 298.00  VIB.     0.1147D+05                  6137.5153    41.1989    39.1719
         ROT.     0.1305D+07                   888.2813     2.9808    30.9648
         INT.     0.1498D+11                  7025.7966    44.1797    70.1367
         TRA.     0.1781D+28                  1480.4688     4.9680    40.9296
         TOT.                       11.952    8506.2655    49.1477   111.0663

 200.00  VIB.     0.3721D+03                  2816.2688    27.0940    25.8437
         ROT.     0.7178D+06                   596.1620     2.9808    29.7761
         INT.     0.2671D+09                  3412.4307    30.0748    55.6199
         TRA.     0.9791D+27                   993.6033     4.9680    38.9485
         TOT.                        7.852    4406.0340    35.0428    94.5683

 210.00  VIB.     0.5299D+03                  3093.6010    28.3788    27.1966
         ROT.     0.7723D+06                   625.9700     2.9808    29.9216
         INT.     0.4092D+09                  3719.5710    31.3596    57.1181
         TRA.     0.1053D+28                  1043.2834     4.9680    39.1909
         TOT.                        8.209    4762.8545    36.3276    96.3090

 220.00  VIB.     0.7538D+03                  3383.9736    29.7023    28.5471
         ROT.     0.8281D+06                   655.7781     2.9808    30.0602
         INT.     0.6242D+09                  4039.7518    32.6831    58.6074
         TRA.     0.1130D+28                  1092.9636     4.9680    39.4220
         TOT.                        8.579    5132.7153    37.6511    98.0294

 230.00  VIB.     0.1071D+04                  3687.7786    31.0652    29.8974
         ROT.     0.8852D+06                   685.5862     2.9808    30.1928
         INT.     0.9481D+09                  4373.3648    34.0460    60.0901
         TRA.     0.1207D+28                  1142.6437     4.9680    39.6428
         TOT.                        8.962    5516.0086    39.0140    99.7329

 240.00  VIB.     0.1520D+04                  4005.4056    32.4665    31.2490
         ROT.     0.9436D+06                   715.3943     2.9808    30.3196
         INT.     0.1435D+10                  4720.7999    35.4473    61.5686
         TRA.     0.1287D+28                  1192.3239     4.9680    39.8543
         TOT.                        9.359    5913.1238    40.4153   101.4228

 250.00  VIB.     0.2157D+04                  4337.2290    33.9041    32.6033
         ROT.     0.1003D+07                   745.2024     2.9808    30.4413
         INT.     0.2163D+10                  5082.4315    36.8849    63.0446
         TRA.     0.1368D+28                  1242.0041     4.9680    40.0571
         TOT.                        9.770    6324.4355    41.8529   103.1017

 260.00  VIB.     0.3057D+04                  4683.5978    35.3750    33.9616
         ROT.     0.1064D+07                   775.0105     2.9808    30.5582
         INT.     0.3253D+10                  5458.6084    38.3558    64.5198
         TRA.     0.1451D+28                  1291.6842     4.9680    40.2519
         TOT.                       10.196    6750.2926    43.3238   104.7718

 270.00  VIB.     0.4331D+04                  5044.8273    36.8755    35.3247
         ROT.     0.1126D+07                   804.8186     2.9808    30.6707
         INT.     0.4877D+10                  5849.6460    39.8563    65.9955
         TRA.     0.1536D+28                  1341.3644     4.9680    40.4394
         TOT.                       10.637    7191.0104    44.8244   106.4349

 280.00  VIB.     0.6135D+04                  5421.1937    38.4016    36.6933
         ROT.     0.1189D+07                   834.6267     2.9808    30.7791
         INT.     0.7295D+10                  6255.8205    41.3824    67.4724
         TRA.     0.1622D+28                  1391.0445     4.9680    40.6201
         TOT.                       11.093    7646.8650    46.3505   108.0925

 290.00  VIB.     0.8687D+04                  5812.9306    39.9489    38.0678
         ROT.     0.1253D+07                   864.4348     2.9808    30.8837
         INT.     0.1089D+11                  6677.3654    42.9297    68.9515
         TRA.     0.1710D+28                  1440.7247     4.9680    40.7944
         TOT.                       11.564    8118.0901    47.8977   109.7460

 300.00  VIB.     0.1230D+05                  6220.2269    41.5128    39.4485
         ROT.     0.1319D+07                   894.2429     2.9808    30.9848
         INT.     0.1622D+11                  7114.4698    44.4936    70.4332
         TRA.     0.1799D+28                  1490.4049     4.9680    40.9628
         TOT.                       12.051    8604.8747    49.4616   111.3961

 310.00  VIB.     0.1742D+05                  6643.2268    43.0889    40.8353
         ROT.     0.1385D+07                   924.0510     2.9808    31.0825
         INT.     0.2413D+11                  7567.2779    46.0697    71.9179
         TRA.     0.1889D+28                  1540.0850     4.9680    41.1257
         TOT.                       12.553    9107.3629    51.0377   113.0436

 320.00  VIB.     0.2467D+05                  7082.0303    44.6728    42.2284
         ROT.     0.1453D+07                   953.8591     2.9808    31.1771
         INT.     0.3583D+11                  8035.8895    47.6536    73.4055
         TRA.     0.1982D+28                  1589.7652     4.9680    41.2835
         TOT.                       13.072    9625.6547    52.6216   114.6890

 330.00  VIB.     0.3494D+05                  7536.6950    46.2604    43.6273
         ROT.     0.1521D+07                   983.6672     2.9808    31.2689
         INT.     0.5315D+11                  8520.3622    49.2412    74.8962
         TRA.     0.2075D+28                  1639.4454     4.9680    41.4364
         TOT.                       13.606   10159.8075    54.2092   116.3325

 340.00  VIB.     0.4950D+05                  8007.2381    47.8479    45.0319
         ROT.     0.1591D+07                  1013.4753     2.9808    31.3579
         INT.     0.7876D+11                  9020.7134    50.8287    76.3898
         TRA.     0.2170D+28                  1689.1255     4.9680    41.5847
         TOT.                       14.156   10709.8389    55.7967   117.9744

 350.00  VIB.     0.7016D+05                  8493.6399    49.4316    46.4418
         ROT.     0.1662D+07                  1043.2834     2.9808    31.4443
         INT.     0.1166D+12                  9536.9233    52.4124    77.8860
         TRA.     0.2267D+28                  1738.8057     4.9680    41.7287
         TOT.                       14.722   11275.7290    57.3804   119.6147

 360.00  VIB.     0.9947D+05                  8995.8462    51.0083    47.8564
         ROT.     0.1733D+07                  1073.0915     2.9808    31.5282
         INT.     0.1724D+12                 10068.9377    53.9891    79.3846
         TRA.     0.2364D+28                  1788.4859     4.9680    41.8686
         TOT.                       15.303   11857.4236    58.9571   121.2533

 370.00  VIB.     0.1411D+06                  9513.7719    52.5750    49.2754
         ROT.     0.1806D+07                  1102.8996     2.9808    31.6099
         INT.     0.2548D+12                 10616.6716    55.5558    80.8853
         TRA.     0.2464D+28                  1838.1660     4.9680    42.0047
         TOT.                       15.901   12454.8376    60.5238   122.8900

 380.00  VIB.     0.2002D+06                 10047.3044    54.1292    50.6981
         ROT.     0.1880D+07                  1132.7077     2.9808    31.6894
         INT.     0.3763D+12                 11180.0121    57.1100    82.3875
         TRA.     0.2564D+28                  1887.8462     4.9680    42.1372
         TOT.                       16.514   13067.8583    62.0780   124.5247

 390.00  VIB.     0.2842D+06                 10596.3066    55.6686    52.1241
         ROT.     0.1955D+07                  1162.5158     2.9808    31.7668
         INT.     0.5554D+12                 11758.8224    58.6494    83.8909
         TRA.     0.2666D+28                  1937.5263     4.9680    42.2663
         TOT.                       17.142   13696.3487    63.6174   126.1572

 400.00  VIB.     0.4036D+06                 11160.6201    57.1912    53.5527
         ROT.     0.2030D+07                  1192.3239     2.9808    31.8423
         INT.     0.8194D+12                 12352.9440    60.1720    85.3950
         TRA.     0.2769D+28                  1987.2065     4.9680    42.3921
         TOT.                       17.786   14340.1505    65.1400   127.7871

   *: NOTE: HEATS OF FORMATION ARE RELATIVE TO THE
            ELEMENTS IN THEIR STANDARD STATE AT 298K
              (=  Standard Enthalpy of Formation).

            Hvib:  Zero-point energy is not included.
                   frequencies of less than zero cm-1 are not included.
            Hrot = (3/2)RT
            Htra = (3/2)RT + pV = (5/2)RT

            Heat capacity is Cp, not Cv

           For more information, see: HTTP://OpenMOPAC.net/Manual/thermochemistry.html


           FORCE CONSTANT IN CARTESIAN COORDINATES (Millidynes/A)

    ATOM   CHEMICAL       X               Y               Z
   NUMBER   SYMBOL  FORCE CONSTANT  FORCE CONSTANT  FORCE CONSTANT

      1       C        7.781884        8.144837        8.844191
      2       C        8.006735        7.988609        8.960000
      3       C        8.389202        7.894035        8.886262
      4       C        7.903202        7.926486        8.635603
      5       C        8.372216        8.458327        8.604291
      6       C        8.400654        8.394853        8.355174
      7       C        8.259967        8.223700        8.371186
      8       C       13.381663        6.841618        7.143227
      9       C        7.346803       12.363660        7.601956
     10       C       13.228034        6.820670        7.178742
     11       C        7.009092       12.113329        7.368601
     12       H        1.346982        1.197342        3.694046
     13       H        1.332518        1.316784        3.450248
     14       H        1.168021        1.346659        3.603136
     15       H        1.649646        1.643968        3.343596
     16       H        1.320713        1.292681        3.997209
     17       H        3.059589        1.848204        1.371622
     18       H        2.328214        2.408568        1.662153
     19       H        1.824265        1.837858        3.133848
     20       H        3.290715        1.986426        1.508431
     21       H        2.545598        2.589486        1.650788
     22       H        1.376836        1.185932        4.206866
     23       H        0.788901        5.222013        0.723611
     24       H        5.256931        0.793687        0.698950
     25       H        3.341750        1.715690        1.135416
     26       H        1.752828        3.041470        1.414040
     27       H        1.785393        3.013793        1.403664
     28       H        3.481248        1.897889        1.068685
     29       H        1.668609        1.420678        3.395261



 TOTAL CPU TIME:             6.55 SECONDS

 == MOPAC DONE ==
