 *******************************************************************************
 ** Site#: 14399           For non-commercial use only        Version 13.159M **
 *******************************************************************************
 ** Cite this work as: MOPAC2012, James J. P. Stewart, Stewart Computational  **
 ** Chemistry, Version 13.159M web: HTTP://OpenMOPAC.net  Days remaining:   6 **
 *******************************************************************************
 **                                                                           **
 **                                MOPAC2012                                  **
 **                                                                           **
 *******************************************************************************

                            PM3 CALCULATION RESULTS


 *******************************************************************************
 *  CALCULATION DONE:                                Mon Jun  2 11:07:45 2014  *
 *  PM3      - The PM3 Hamiltonian to be used
 *  PRECISE  - CRITERIA TO BE INCREASED BY 100 TIMES
 *  NOSYM    - POINT-GROUP SYMMETRY SET TO C1
 *  T=       - A TIME OF 172800.0 SECONDS REQUESTED
 *  DUMP=N   - RESTART FILE WRITTEN EVERY  7200.000 SECONDS
 *******************************************************************************
pm3  precise nosym
 InChI=1S/C10H16/c1-4-6-9-7-8(3)10(9)5-2/h4-6,8-10H,2,7H2,1,3H3

   ATOM   CHEMICAL          X               Y               Z
  NUMBER   SYMBOL      (ANGSTROMS)     (ANGSTROMS)     (ANGSTROMS)
 
     1       C         -1.81290000  *   1.02230000  *  -0.12410000  *
     2       C         -0.98460000  *  -0.24840000  *  -0.51380000  *
     3       C         -0.03080000  *   0.09550000  *   0.63420000  *
     4       C         -0.67630000  *   1.43090000  *   0.80950000  *
     5       C         -2.08910000  *   1.98680000  *  -1.27590000  *
     6       C          3.79910000  *  -0.48820000  *   0.43260000  *
     7       C          1.41790000  *   0.14940000  *   0.22210000  *
     8       C         -1.71350000  *  -1.55620000  *  -0.36040000  *
     9       C          2.36620000  *  -0.54680000  *   0.86090000  *
    10       C         -1.07970000  *  -2.72400000  *  -0.48750000  *
    11       H         -2.74330000  *   0.79730000  *   0.45140000  *
    12       H         -0.20660000  *  -0.53710000  *   1.54000000  *
    13       H         -0.52420000  *  -0.16430000  *  -1.52880000  *
    14       H         -1.02230000  *   1.61870000  *   1.85290000  *
    15       H         -0.07330000  *   2.29140000  *   0.43080000  *
    16       H         -2.81910000  *   1.52740000  *  -1.97970000  *
    17       H         -2.52840000  *   2.93010000  *  -0.88020000  *
    18       H         -1.16370000  *   2.23900000  *  -1.84310000  *
    19       H          4.18200000  *   0.55500000  *   0.50550000  *
    20       H          4.42110000  *  -1.13680000  *   1.08970000  *
    21       H          3.90400000  *  -0.84800000  *  -0.61610000  *
    22       H          1.69240000  *   0.77090000  *  -0.63120000  *
    23       H         -2.78370000  *  -1.56150000  *  -0.15820000  *
    24       H          2.10810000  *  -1.17740000  *   1.71130000  *
    25       H         -0.01170000  *  -2.76790000  *  -0.69630000  *
    26       H         -1.62770000  *  -3.65810000  *  -0.38030000  *
 


          CARTESIAN COORDINATES 

    NO.       ATOM         X         Y         Z

     1         C       -1.8129    1.0223   -0.1241
     2         C       -0.9846   -0.2484   -0.5138
     3         C       -0.0308    0.0955    0.6342
     4         C       -0.6763    1.4309    0.8095
     5         C       -2.0891    1.9868   -1.2759
     6         C        3.7991   -0.4882    0.4326
     7         C        1.4179    0.1494    0.2221
     8         C       -1.7135   -1.5562   -0.3604
     9         C        2.3662   -0.5468    0.8609
    10         C       -1.0797   -2.7240   -0.4875
    11         H       -2.7433    0.7973    0.4514
    12         H       -0.2066   -0.5371    1.5400
    13         H       -0.5242   -0.1643   -1.5288
    14         H       -1.0223    1.6187    1.8529
    15         H       -0.0733    2.2914    0.4308
    16         H       -2.8191    1.5274   -1.9797
    17         H       -2.5284    2.9301   -0.8802
    18         H       -1.1637    2.2390   -1.8431
    19         H        4.1820    0.5550    0.5055
    20         H        4.4211   -1.1368    1.0897
    21         H        3.9040   -0.8480   -0.6161
    22         H        1.6924    0.7709   -0.6312
    23         H       -2.7837   -1.5615   -0.1582
    24         H        2.1081   -1.1774    1.7113
    25         H       -0.0117   -2.7679   -0.6963
    26         H       -1.6277   -3.6581   -0.3803

  H: (PM3): J. J. P. STEWART, J. COMP. CHEM. 10, 209 (1989).
  C: (PM3): J. J. P. STEWART, J. COMP. CHEM. 10, 209 (1989).

           Empirical Formula: C10 H16  =    26 atoms



      MOLECULAR POINT GROUP   :   C1  


      RHF CALCULATION, NO. OF DOUBLY OCCUPIED LEVELS =   28

      Geometry optimization using EF

          DIAGONAL MATRIX USED AS START HESSIAN

 CYCLE:     1 TIME:   0.013 TIME LEFT:  2.00D  GRAD.:   110.817 HEAT: 23.25085
 CYCLE:     2 TIME:   0.024 TIME LEFT:  2.00D  GRAD.:   110.562 HEAT: 22.10830
 CYCLE:     3 TIME:   0.016 TIME LEFT:  2.00D  GRAD.:    56.346 HEAT: 19.68916
 CYCLE:     4 TIME:   0.016 TIME LEFT:  2.00D  GRAD.:    42.500 HEAT: 19.19458
 CYCLE:     5 TIME:   0.009 TIME LEFT:  2.00D  GRAD.:    36.188 HEAT: 18.90611
 CYCLE:     6 TIME:   0.009 TIME LEFT:  2.00D  GRAD.:    35.531 HEAT: 18.61364
 CYCLE:     7 TIME:   0.018 TIME LEFT:  2.00D  GRAD.:    23.600 HEAT: 18.38372
 CYCLE:     8 TIME:   0.017 TIME LEFT:  2.00D  GRAD.:    14.282 HEAT: 18.26903
 CYCLE:     9 TIME:   0.009 TIME LEFT:  2.00D  GRAD.:    10.931 HEAT: 18.16258
 CYCLE:    10 TIME:   0.009 TIME LEFT:  2.00D  GRAD.:    14.881 HEAT: 18.08426
 CYCLE:    11 TIME:   0.016 TIME LEFT:  2.00D  GRAD.:    10.048 HEAT: 18.03465
 CYCLE:    12 TIME:   0.009 TIME LEFT:  2.00D  GRAD.:    13.494 HEAT: 18.03225
 CYCLE:    13 TIME:   0.009 TIME LEFT:  2.00D  GRAD.:    14.369 HEAT: 18.02765
 CYCLE:    14 TIME:   0.016 TIME LEFT:  2.00D  GRAD.:     5.965 HEAT: 17.97871
 CYCLE:    15 TIME:   0.015 TIME LEFT:  2.00D  GRAD.:     3.839 HEAT: 17.96978
 CYCLE:    16 TIME:   0.009 TIME LEFT:  2.00D  GRAD.:     6.495 HEAT: 17.97019
 CYCLE:    17 TIME:   0.009 TIME LEFT:  2.00D  GRAD.:     7.079 HEAT: 17.96565
 CYCLE:    18 TIME:   0.008 TIME LEFT:  2.00D  GRAD.:     7.374 HEAT: 17.96376
 CYCLE:    19 TIME:   0.015 TIME LEFT:  2.00D  GRAD.:     5.092 HEAT: 17.95177
 CYCLE:    20 TIME:   0.016 TIME LEFT:  2.00D  GRAD.:     2.449 HEAT: 17.94446
 CYCLE:    21 TIME:   0.009 TIME LEFT:  2.00D  GRAD.:     2.259 HEAT: 17.93854
 CYCLE:    22 TIME:   0.009 TIME LEFT:  2.00D  GRAD.:     5.015 HEAT: 17.92859
 CYCLE:    23 TIME:   0.009 TIME LEFT:  2.00D  GRAD.:     6.258 HEAT: 17.92012
 CYCLE:    24 TIME:   0.009 TIME LEFT:  2.00D  GRAD.:     4.113 HEAT: 17.90709
 CYCLE:    25 TIME:   0.008 TIME LEFT:  2.00D  GRAD.:     5.793 HEAT: 17.90195
 CYCLE:    26 TIME:   0.009 TIME LEFT:  2.00D  GRAD.:     3.522 HEAT: 17.88969
 CYCLE:    27 TIME:   0.009 TIME LEFT:  2.00D  GRAD.:     4.922 HEAT: 17.88312
 CYCLE:    28 TIME:   0.009 TIME LEFT:  2.00D  GRAD.:     3.306 HEAT: 17.87219
 CYCLE:    29 TIME:   0.009 TIME LEFT:  2.00D  GRAD.:     3.455 HEAT: 17.86332
 CYCLE:    30 TIME:   0.009 TIME LEFT:  2.00D  GRAD.:     3.398 HEAT: 17.85616
 CYCLE:    31 TIME:   0.009 TIME LEFT:  2.00D  GRAD.:     2.632 HEAT: 17.84525
 CYCLE:    32 TIME:   0.009 TIME LEFT:  2.00D  GRAD.:     2.855 HEAT: 17.83315
 CYCLE:    33 TIME:   0.009 TIME LEFT:  2.00D  GRAD.:     3.613 HEAT: 17.81196
 CYCLE:    34 TIME:   0.009 TIME LEFT:  2.00D  GRAD.:     3.993 HEAT: 17.78930
 CYCLE:    35 TIME:   0.009 TIME LEFT:  2.00D  GRAD.:     4.635 HEAT: 17.75990
 CYCLE:    36 TIME:   0.009 TIME LEFT:  2.00D  GRAD.:     4.522 HEAT: 17.73433
 CYCLE:    37 TIME:   0.009 TIME LEFT:  2.00D  GRAD.:     4.365 HEAT: 17.71618
 CYCLE:    38 TIME:   0.008 TIME LEFT:  2.00D  GRAD.:     2.841 HEAT: 17.69840
 CYCLE:    39 TIME:   0.009 TIME LEFT:  2.00D  GRAD.:     3.418 HEAT: 17.67913
 CYCLE:    40 TIME:   0.009 TIME LEFT:  2.00D  GRAD.:     4.113 HEAT: 17.66017
 CYCLE:    41 TIME:   0.009 TIME LEFT:  2.00D  GRAD.:     3.174 HEAT: 17.64283
 CYCLE:    42 TIME:   0.009 TIME LEFT:  2.00D  GRAD.:     3.525 HEAT: 17.61528
 CYCLE:    43 TIME:   0.009 TIME LEFT:  2.00D  GRAD.:     4.235 HEAT: 17.59213
 CYCLE:    44 TIME:   0.009 TIME LEFT:  2.00D  GRAD.:     4.103 HEAT: 17.56512
 CYCLE:    45 TIME:   0.009 TIME LEFT:  2.00D  GRAD.:     3.227 HEAT: 17.54388
 CYCLE:    46 TIME:   0.009 TIME LEFT:  2.00D  GRAD.:     3.047 HEAT: 17.52302
 CYCLE:    47 TIME:   0.009 TIME LEFT:  2.00D  GRAD.:     2.915 HEAT: 17.50388
 CYCLE:    48 TIME:   0.009 TIME LEFT:  2.00D  GRAD.:     3.229 HEAT: 17.48876
 CYCLE:    49 TIME:   0.009 TIME LEFT:  2.00D  GRAD.:     4.646 HEAT: 17.48286
 CYCLE:    50 TIME:   0.009 TIME LEFT:  2.00D  GRAD.:     3.160 HEAT: 17.46352
 CYCLE:    51 TIME:   0.009 TIME LEFT:  2.00D  GRAD.:     1.870 HEAT: 17.45369
 CYCLE:    52 TIME:   0.009 TIME LEFT:  2.00D  GRAD.:     1.473 HEAT: 17.44482
 CYCLE:    53 TIME:   0.009 TIME LEFT:  2.00D  GRAD.:     1.472 HEAT: 17.43835
 CYCLE:    54 TIME:   0.009 TIME LEFT:  2.00D  GRAD.:     1.543 HEAT: 17.43304
 CYCLE:    55 TIME:   0.009 TIME LEFT:  2.00D  GRAD.:     1.516 HEAT: 17.42600
 CYCLE:    56 TIME:   0.009 TIME LEFT:  2.00D  GRAD.:     1.409 HEAT: 17.42020
 CYCLE:    57 TIME:   0.009 TIME LEFT:  2.00D  GRAD.:     1.388 HEAT: 17.41506
 CYCLE:    58 TIME:   0.009 TIME LEFT:  2.00D  GRAD.:     1.398 HEAT: 17.41039
 CYCLE:    59 TIME:   0.009 TIME LEFT:  2.00D  GRAD.:     1.537 HEAT: 17.40456
 CYCLE:    60 TIME:   0.009 TIME LEFT:  2.00D  GRAD.:     1.844 HEAT: 17.39727
 CYCLE:    61 TIME:   0.009 TIME LEFT:  2.00D  GRAD.:     1.799 HEAT: 17.38970
 CYCLE:    62 TIME:   0.010 TIME LEFT:  2.00D  GRAD.:     1.729 HEAT: 17.38271
 CYCLE:    63 TIME:   0.009 TIME LEFT:  2.00D  GRAD.:     1.934 HEAT: 17.37586
 CYCLE:    64 TIME:   0.009 TIME LEFT:  2.00D  GRAD.:     2.193 HEAT: 17.36688
 CYCLE:    65 TIME:   0.009 TIME LEFT:  2.00D  GRAD.:     2.873 HEAT: 17.35067
 CYCLE:    66 TIME:   0.010 TIME LEFT:  2.00D  GRAD.:     3.681 HEAT: 17.32655
 CYCLE:    67 TIME:   0.009 TIME LEFT:  2.00D  GRAD.:     4.985 HEAT: 17.30153
 CYCLE:    68 TIME:   0.009 TIME LEFT:  2.00D  GRAD.:     6.226 HEAT: 17.28245
 CYCLE:    69 TIME:   0.009 TIME LEFT:  2.00D  GRAD.:    10.369 HEAT: 17.26654
 CYCLE:    70 TIME:   0.009 TIME LEFT:  2.00D  GRAD.:     3.506 HEAT: 17.21766
 CYCLE:    71 TIME:   0.009 TIME LEFT:  2.00D  GRAD.:     2.478 HEAT: 17.18989
 CYCLE:    72 TIME:   0.009 TIME LEFT:  2.00D  GRAD.:     5.790 HEAT: 17.14357
 CYCLE:    73 TIME:   0.009 TIME LEFT:  2.00D  GRAD.:     4.170 HEAT: 17.11337
 CYCLE:    74 TIME:   0.009 TIME LEFT:  2.00D  GRAD.:     6.331 HEAT: 17.07303
 CYCLE:    75 TIME:   0.016 TIME LEFT:  2.00D  GRAD.:     6.787 HEAT: 17.06988
 CYCLE:    76 TIME:   0.009 TIME LEFT:  2.00D  GRAD.:     2.958 HEAT: 17.03016
 CYCLE:    77 TIME:   0.009 TIME LEFT:  2.00D  GRAD.:     4.270 HEAT: 17.00990
 CYCLE:    78 TIME:   0.009 TIME LEFT:  2.00D  GRAD.:     4.499 HEAT: 16.98834
 CYCLE:    79 TIME:   0.009 TIME LEFT:  2.00D  GRAD.:     3.432 HEAT: 16.95875
 CYCLE:    80 TIME:   0.009 TIME LEFT:  2.00D  GRAD.:     4.882 HEAT: 16.94455
 CYCLE:    81 TIME:   0.009 TIME LEFT:  2.00D  GRAD.:     2.531 HEAT: 16.92834
 CYCLE:    82 TIME:   0.009 TIME LEFT:  2.00D  GRAD.:     2.201 HEAT: 16.91790
 CYCLE:    83 TIME:   0.009 TIME LEFT:  2.00D  GRAD.:     1.681 HEAT: 16.91209
 CYCLE:    84 TIME:   0.009 TIME LEFT:  2.00D  GRAD.:     1.380 HEAT: 16.90781
 CYCLE:    85 TIME:   0.009 TIME LEFT:  2.00D  GRAD.:     1.479 HEAT: 16.90115
 CYCLE:    86 TIME:   0.009 TIME LEFT:  2.00D  GRAD.:     1.797 HEAT: 16.89596
 CYCLE:    87 TIME:   0.009 TIME LEFT:  2.00D  GRAD.:     1.432 HEAT: 16.89222
 CYCLE:    88 TIME:   0.009 TIME LEFT:  2.00D  GRAD.:     1.661 HEAT: 16.89040
 CYCLE:    89 TIME:   0.009 TIME LEFT:  2.00D  GRAD.:     0.887 HEAT: 16.88792
 CYCLE:    90 TIME:   0.009 TIME LEFT:  2.00D  GRAD.:     0.859 HEAT: 16.88660
 CYCLE:    91 TIME:   0.009 TIME LEFT:  2.00D  GRAD.:     0.937 HEAT: 16.88466
 CYCLE:    92 TIME:   0.009 TIME LEFT:  2.00D  GRAD.:     0.820 HEAT: 16.88316
 CYCLE:    93 TIME:   0.009 TIME LEFT:  2.00D  GRAD.:     0.605 HEAT: 16.88177
 CYCLE:    94 TIME:   0.009 TIME LEFT:  2.00D  GRAD.:     0.459 HEAT: 16.88130
 CYCLE:    95 TIME:   0.009 TIME LEFT:  2.00D  GRAD.:     0.387 HEAT: 16.88060
 CYCLE:    96 TIME:   0.009 TIME LEFT:  2.00D  GRAD.:     0.375 HEAT: 16.88033
 CYCLE:    97 TIME:   0.009 TIME LEFT:  2.00D  GRAD.:     0.454 HEAT: 16.87987
 CYCLE:    98 TIME:   0.008 TIME LEFT:  2.00D  GRAD.:     0.359 HEAT: 16.87967
 CYCLE:    99 TIME:   0.009 TIME LEFT:  2.00D  GRAD.:     0.619 HEAT: 16.87902
 CYCLE:   100 TIME:   0.009 TIME LEFT:  2.00D  GRAD.:     0.552 HEAT: 16.87864
 CYCLE:   101 TIME:   0.009 TIME LEFT:  2.00D  GRAD.:     0.790 HEAT: 16.87648
 CYCLE:   102 TIME:   0.009 TIME LEFT:  2.00D  GRAD.:     0.906 HEAT: 16.87507
 CYCLE:   103 TIME:   0.010 TIME LEFT:  2.00D  GRAD.:     1.561 HEAT: 16.87072
 CYCLE:   104 TIME:   0.009 TIME LEFT:  2.00D  GRAD.:     1.148 HEAT: 16.86833
 CYCLE:   105 TIME:   0.009 TIME LEFT:  2.00D  GRAD.:     1.043 HEAT: 16.86522
 CYCLE:   106 TIME:   0.009 TIME LEFT:  2.00D  GRAD.:     1.225 HEAT: 16.86032
 CYCLE:   107 TIME:   0.011 TIME LEFT:  2.00D  GRAD.:     1.246 HEAT: 16.85699
 CYCLE:   108 TIME:   0.009 TIME LEFT:  2.00D  GRAD.:     1.400 HEAT: 16.85221
 CYCLE:   109 TIME:   0.009 TIME LEFT:  2.00D  GRAD.:     1.436 HEAT: 16.85040
 CYCLE:   110 TIME:   0.009 TIME LEFT:  2.00D  GRAD.:     1.220 HEAT: 16.84692
 CYCLE:   111 TIME:   0.009 TIME LEFT:  2.00D  GRAD.:     1.145 HEAT: 16.84485
 CYCLE:   112 TIME:   0.009 TIME LEFT:  2.00D  GRAD.:     0.910 HEAT: 16.84309
 CYCLE:   113 TIME:   0.009 TIME LEFT:  2.00D  GRAD.:     0.915 HEAT: 16.84124
 CYCLE:   114 TIME:   0.009 TIME LEFT:  2.00D  GRAD.:     0.930 HEAT: 16.83932
 CYCLE:   115 TIME:   0.009 TIME LEFT:  2.00D  GRAD.:     1.519 HEAT: 16.83610
 CYCLE:   116 TIME:   0.009 TIME LEFT:  2.00D  GRAD.:     1.955 HEAT: 16.83220
 CYCLE:   117 TIME:   0.009 TIME LEFT:  2.00D  GRAD.:     1.814 HEAT: 16.82741
 CYCLE:   118 TIME:   0.009 TIME LEFT:  2.00D  GRAD.:     1.742 HEAT: 16.81794
 CYCLE:   119 TIME:   0.009 TIME LEFT:  2.00D  GRAD.:     2.725 HEAT: 16.80997
 CYCLE:   120 TIME:   0.009 TIME LEFT:  2.00D  GRAD.:     4.378 HEAT: 16.80896
 CYCLE:   121 TIME:   0.009 TIME LEFT:  2.00D  GRAD.:     2.291 HEAT: 16.79605
 CYCLE:   122 TIME:   0.009 TIME LEFT:  2.00D  GRAD.:     2.011 HEAT: 16.78987
 CYCLE:   123 TIME:   0.009 TIME LEFT:  2.00D  GRAD.:     2.569 HEAT: 16.78054
 CYCLE:   124 TIME:   0.009 TIME LEFT:  2.00D  GRAD.:     1.941 HEAT: 16.76753
 CYCLE:   125 TIME:   0.010 TIME LEFT:  2.00D  GRAD.:     4.721 HEAT: 16.75857
 CYCLE:   126 TIME:   0.009 TIME LEFT:  2.00D  GRAD.:     2.435 HEAT: 16.74911
 CYCLE:   127 TIME:   0.009 TIME LEFT:  2.00D  GRAD.:     3.053 HEAT: 16.74278
 CYCLE:   128 TIME:   0.009 TIME LEFT:  2.00D  GRAD.:     2.277 HEAT: 16.73463
 CYCLE:   129 TIME:   0.009 TIME LEFT:  2.00D  GRAD.:     2.054 HEAT: 16.72546
 CYCLE:   130 TIME:   0.009 TIME LEFT:  2.00D  GRAD.:     2.041 HEAT: 16.71958
 CYCLE:   131 TIME:   0.009 TIME LEFT:  2.00D  GRAD.:     2.595 HEAT: 16.71382
 CYCLE:   132 TIME:   0.009 TIME LEFT:  2.00D  GRAD.:     2.092 HEAT: 16.70813
 CYCLE:   133 TIME:   0.009 TIME LEFT:  2.00D  GRAD.:     2.438 HEAT: 16.70086
 CYCLE:   134 TIME:   0.009 TIME LEFT:  2.00D  GRAD.:     2.297 HEAT: 16.69476
 CYCLE:   135 TIME:   0.009 TIME LEFT:  2.00D  GRAD.:     2.036 HEAT: 16.68914
 CYCLE:   136 TIME:   0.009 TIME LEFT:  2.00D  GRAD.:     3.248 HEAT: 16.68580
 CYCLE:   137 TIME:   0.009 TIME LEFT:  2.00D  GRAD.:     1.853 HEAT: 16.67832
 CYCLE:   138 TIME:   0.009 TIME LEFT:  2.00D  GRAD.:     1.830 HEAT: 16.67052
 CYCLE:   139 TIME:   0.009 TIME LEFT:  2.00D  GRAD.:     2.590 HEAT: 16.65845
 CYCLE:   140 TIME:   0.009 TIME LEFT:  2.00D  GRAD.:     3.364 HEAT: 16.64423
 CYCLE:   141 TIME:   0.009 TIME LEFT:  2.00D  GRAD.:     3.461 HEAT: 16.62952
 CYCLE:   142 TIME:   0.009 TIME LEFT:  2.00D  GRAD.:     3.073 HEAT: 16.60931
 CYCLE:   143 TIME:   0.009 TIME LEFT:  2.00D  GRAD.:     2.259 HEAT: 16.59463
 CYCLE:   144 TIME:   0.009 TIME LEFT:  2.00D  GRAD.:     5.710 HEAT: 16.59155
 CYCLE:   145 TIME:   0.009 TIME LEFT:  2.00D  GRAD.:     4.086 HEAT: 16.58421
 CYCLE:   146 TIME:   0.009 TIME LEFT:  2.00D  GRAD.:     3.202 HEAT: 16.57981
 CYCLE:   147 TIME:   0.009 TIME LEFT:  2.00D  GRAD.:     1.604 HEAT: 16.57163
 CYCLE:   148 TIME:   0.009 TIME LEFT:  2.00D  GRAD.:     2.182 HEAT: 16.56753
 CYCLE:   149 TIME:   0.009 TIME LEFT:  2.00D  GRAD.:     1.939 HEAT: 16.56282
 CYCLE:   150 TIME:   0.009 TIME LEFT:  2.00D  GRAD.:     1.323 HEAT: 16.55996
 CYCLE:   151 TIME:   0.009 TIME LEFT:  2.00D  GRAD.:     1.308 HEAT: 16.55845
 CYCLE:   152 TIME:   0.009 TIME LEFT:  2.00D  GRAD.:     1.559 HEAT: 16.55612
 CYCLE:   153 TIME:   0.009 TIME LEFT:  2.00D  GRAD.:     1.792 HEAT: 16.55316
 CYCLE:   154 TIME:   0.009 TIME LEFT:  2.00D  GRAD.:     2.622 HEAT: 16.54776
 CYCLE:   155 TIME:   0.009 TIME LEFT:  2.00D  GRAD.:     2.186 HEAT: 16.54264
 CYCLE:   156 TIME:   0.009 TIME LEFT:  2.00D  GRAD.:     4.557 HEAT: 16.53583
 CYCLE:   157 TIME:   0.009 TIME LEFT:  2.00D  GRAD.:     1.683 HEAT: 16.53054
 CYCLE:   158 TIME:   0.009 TIME LEFT:  2.00D  GRAD.:     1.401 HEAT: 16.52608
 CYCLE:   159 TIME:   0.009 TIME LEFT:  2.00D  GRAD.:     2.872 HEAT: 16.51775
 CYCLE:   160 TIME:   0.009 TIME LEFT:  2.00D  GRAD.:     2.610 HEAT: 16.51326
 CYCLE:   161 TIME:   0.009 TIME LEFT:  2.00D  GRAD.:     2.331 HEAT: 16.50446
 CYCLE:   162 TIME:   0.009 TIME LEFT:  2.00D  GRAD.:     1.550 HEAT: 16.49744
 CYCLE:   163 TIME:   0.009 TIME LEFT:  2.00D  GRAD.:     3.857 HEAT: 16.49340
 CYCLE:   164 TIME:   0.009 TIME LEFT:  2.00D  GRAD.:     3.385 HEAT: 16.49091
 CYCLE:   165 TIME:   0.009 TIME LEFT:  2.00D  GRAD.:     0.776 HEAT: 16.48545
 CYCLE:   166 TIME:   0.009 TIME LEFT:  2.00D  GRAD.:     2.505 HEAT: 16.48414
 CYCLE:   167 TIME:   0.008 TIME LEFT:  2.00D  GRAD.:     0.988 HEAT: 16.48181
 CYCLE:   168 TIME:   0.009 TIME LEFT:  2.00D  GRAD.:     1.131 HEAT: 16.47954
 CYCLE:   169 TIME:   0.009 TIME LEFT:  2.00D  GRAD.:     0.757 HEAT: 16.47847
 CYCLE:   170 TIME:   0.009 TIME LEFT:  2.00D  GRAD.:     1.246 HEAT: 16.47813
 CYCLE:   171 TIME:   0.009 TIME LEFT:  2.00D  GRAD.:     1.067 HEAT: 16.47742
 CYCLE:   172 TIME:   0.009 TIME LEFT:  2.00D  GRAD.:     0.520 HEAT: 16.47694
 CYCLE:   173 TIME:   0.009 TIME LEFT:  2.00D  GRAD.:     0.498 HEAT: 16.47636
 CYCLE:   174 TIME:   0.009 TIME LEFT:  2.00D  GRAD.:     0.524 HEAT: 16.47580
 CYCLE:   175 TIME:   0.009 TIME LEFT:  2.00D  GRAD.:     0.634 HEAT: 16.47531
 CYCLE:   176 TIME:   0.009 TIME LEFT:  2.00D  GRAD.:     0.486 HEAT: 16.47494
 CYCLE:   177 TIME:   0.009 TIME LEFT:  2.00D  GRAD.:     0.825 HEAT: 16.47465
 CYCLE:   178 TIME:   0.009 TIME LEFT:  2.00D  GRAD.:     0.525 HEAT: 16.47439
 CYCLE:   179 TIME:   0.009 TIME LEFT:  2.00D  GRAD.:     0.343 HEAT: 16.47407
 CYCLE:   180 TIME:   0.009 TIME LEFT:  2.00D  GRAD.:     0.495 HEAT: 16.47374
 CYCLE:   181 TIME:   0.009 TIME LEFT:  2.00D  GRAD.:     0.689 HEAT: 16.47316
 CYCLE:   182 TIME:   0.009 TIME LEFT:  2.00D  GRAD.:     1.012 HEAT: 16.47183
 CYCLE:   183 TIME:   0.009 TIME LEFT:  2.00D  GRAD.:     1.178 HEAT: 16.47018
 CYCLE:   184 TIME:   0.009 TIME LEFT:  2.00D  GRAD.:     0.784 HEAT: 16.46917
 CYCLE:   185 TIME:   0.009 TIME LEFT:  2.00D  GRAD.:     0.599 HEAT: 16.46826
 CYCLE:   186 TIME:   0.009 TIME LEFT:  2.00D  GRAD.:     0.466 HEAT: 16.46793
 CYCLE:   187 TIME:   0.009 TIME LEFT:  2.00D  GRAD.:     0.324 HEAT: 16.46767
 CYCLE:   188 TIME:   0.009 TIME LEFT:  2.00D  GRAD.:     0.258 HEAT: 16.46754
 CYCLE:   189 TIME:   0.009 TIME LEFT:  2.00D  GRAD.:     0.344 HEAT: 16.46741
 CYCLE:   190 TIME:   0.008 TIME LEFT:  2.00D  GRAD.:     0.283 HEAT: 16.46734
 CYCLE:   191 TIME:   0.009 TIME LEFT:  2.00D  GRAD.:     0.294 HEAT: 16.46727
 CYCLE:   192 TIME:   0.009 TIME LEFT:  2.00D  GRAD.:     0.212 HEAT: 16.46719
 CYCLE:   193 TIME:   0.009 TIME LEFT:  2.00D  GRAD.:     0.184 HEAT: 16.46715
 CYCLE:   194 TIME:   0.009 TIME LEFT:  2.00D  GRAD.:     0.370 HEAT: 16.46710
 CYCLE:   195 TIME:   0.009 TIME LEFT:  2.00D  GRAD.:     0.227 HEAT: 16.46699
 CYCLE:   196 TIME:   0.009 TIME LEFT:  2.00D  GRAD.:     0.198 HEAT: 16.46693
 CYCLE:   197 TIME:   0.009 TIME LEFT:  2.00D  GRAD.:     0.291 HEAT: 16.46686
 CYCLE:   198 TIME:   0.009 TIME LEFT:  2.00D  GRAD.:     0.256 HEAT: 16.46677
 CYCLE:   199 TIME:   0.009 TIME LEFT:  2.00D  GRAD.:     0.324 HEAT: 16.46650
 CYCLE:   200 TIME:   0.009 TIME LEFT:  2.00D  GRAD.:     0.403 HEAT: 16.46624
 CYCLE:   201 TIME:   0.009 TIME LEFT:  2.00D  GRAD.:     0.608 HEAT: 16.46541
 CYCLE:   202 TIME:   0.009 TIME LEFT:  2.00D  GRAD.:     0.809 HEAT: 16.46438
 CYCLE:   203 TIME:   0.009 TIME LEFT:  2.00D  GRAD.:     1.849 HEAT: 16.46222
 CYCLE:   204 TIME:   0.009 TIME LEFT:  2.00D  GRAD.:     1.033 HEAT: 16.46054
 CYCLE:   205 TIME:   0.009 TIME LEFT:  2.00D  GRAD.:     0.686 HEAT: 16.45924
 CYCLE:   206 TIME:   0.009 TIME LEFT:  2.00D  GRAD.:     1.050 HEAT: 16.45873
 CYCLE:   207 TIME:   0.009 TIME LEFT:  2.00D  GRAD.:     0.249 HEAT: 16.45831
 CYCLE:   208 TIME:   0.009 TIME LEFT:  2.00D  GRAD.:     0.193 HEAT: 16.45818
 CYCLE:   209 TIME:   0.009 TIME LEFT:  2.00D  GRAD.:     0.223 HEAT: 16.45812
 CYCLE:   210 TIME:   0.008 TIME LEFT:  2.00D  GRAD.:     0.089 HEAT: 16.45809
 CYCLE:   211 TIME:   0.009 TIME LEFT:  2.00D  GRAD.:     0.133 HEAT: 16.45806
 CYCLE:   212 TIME:   0.009 TIME LEFT:  2.00D  GRAD.:     0.076 HEAT: 16.45803
 CYCLE:   213 TIME:   0.008 TIME LEFT:  2.00D  GRAD.:     0.075 HEAT: 16.45802
 CYCLE:   214 TIME:   0.009 TIME LEFT:  2.00D  GRAD.:     0.033 HEAT: 16.45801

     RMS GRADIENT =  0.03325  IS LESS THAN CUTOFF =  0.05000



 -------------------------------------------------------------------------------
pm3  precise nosym
 InChI=1S/C10H16/c1-4-6-9-7-8(3)10(9)5-2/h4-6,8-10H,2,7H2,1,3H3



     GEOMETRY OPTIMISED USING EIGENVECTOR FOLLOWING (EF).     
     SCF FIELD WAS ACHIEVED                                   


                              PM3 CALCULATION
                                                       MOPAC2012 (Version: 13.159M)
                                                       Mon Jun  2 11:07:47 2014
                                                       No. of days left =   6




          FINAL HEAT OF FORMATION =         16.45801 KCAL/MOL =      68.86032 KJ/MOL


          TOTAL ENERGY            =      -1431.01333 EV
          ELECTRONIC ENERGY       =      -8100.39365 EV  POINT GROUP:     C1  
          CORE-CORE REPULSION     =       6669.38032 EV
          COSMO AREA              =        205.98 SQUARE ANGSTROMS
          COSMO VOLUME            =        209.25 CUBIC ANGSTROMS

          GRADIENT NORM           =          0.03325
          IONIZATION POTENTIAL    =          9.639859 EV
          HOMO LUMO ENERGIES (EV) =         -9.640  0.950
          NO. OF FILLED LEVELS    =         28
          MOLECULAR WEIGHT        =        136.236

          MOLECULAR DIMENSIONS (Angstroms)

            Atom       Atom       Distance
            H    21    H    17     7.79338
            H    26    H    20     6.85461
            H    14    H    18     3.71614


          SCF CALCULATIONS        =        226
          COMPUTATION TIME        =          2.015 SECONDS




   ATOM   CHEMICAL          X               Y               Z
  NUMBER   SYMBOL      (ANGSTROMS)     (ANGSTROMS)     (ANGSTROMS)
 
     1       C         -1.74560602  *   0.92307934  *  -0.16778295  *
     2       C         -0.93466087  *  -0.38838521  *  -0.38700748  *
     3       C          0.04625996  *   0.03739588  *   0.74897624  *
     4       C         -0.73785560  *   1.36145861  *   0.92012843  *
     5       C         -1.81718319  *   1.82674409  *  -1.36961179  *
     6       C          3.87793614  *  -0.22168003  *   0.43667436  *
     7       C          1.44703084  *   0.21480908  *   0.29472943  *
     8       C         -1.69276153  *  -1.63024463  *  -0.09631685  *
     9       C          2.47820070  *  -0.39267767  *   0.88434606  *
    10       C         -1.74342916  *  -2.65750202  *  -0.93646265  *
    11       H         -2.76519811  *   0.73936381  *   0.23276072  *
    12       H         -0.01092936  *  -0.62217844  *   1.64161150  *
    13       H         -0.44864440  *  -0.43515584  *  -1.38624130  *
    14       H         -1.17302784  *   1.50861251  *   1.91930850  *
    15       H         -0.16577129  *   2.27034380  *   0.67481577  *
    16       H         -2.42299157  *   1.37727996  *  -2.16676759  *
    17       H         -2.26920057  *   2.79260079  *  -1.10994021  *
    18       H         -0.82190791  *   2.03177513  *  -1.78807634  *
    19       H          3.97356898  *   0.45311131  *  -0.42446710  *
    20       H          4.49436108  *   0.18754552  *   1.24846464  *
    21       H          4.31073063  *  -1.18938284  *   0.14907727  *
    22       H          1.59355447  *   0.88173884  *  -0.56553201  *
    23       H         -2.21907052  *  -1.65874646  *   0.86609943  *
    24       H          2.32675669  *  -1.05871733  *   1.74332594  *
    25       H         -1.23604816  *  -2.66846023  *  -1.89748541  *
    26       H         -2.29917182  *  -3.56428625  *  -0.71827556  *

           Empirical Formula: C10 H16  =    26 atoms



      MOLECULAR POINT GROUP   :   C1  


                  EIGENVALUES  
 -41.59141 -35.26284 -32.76382 -30.09848 -26.29608 -24.81257 -21.63404 -20.28780
 -19.33764 -18.66599 -16.89986 -16.48952 -15.20287 -15.05795 -14.96977 -14.39720
 -14.23223 -14.04225 -13.42340 -12.87177 -12.78632 -12.39151 -12.21934 -11.63363
 -11.47531 -11.42099 -10.22553  -9.63986   0.94991   1.19784   3.21341   3.38884
   3.48920   3.62172   3.63649   3.79137   3.91624   3.94219   4.02349   4.06539
   4.15202   4.22994   4.30069   4.33324   4.41005   4.51045   4.53093   4.60513
   4.75741   4.81497   5.21483   5.29460   5.68591   5.78678   5.98198   6.05811


              NET ATOMIC CHARGES AND DIPOLE CONTRIBUTIONS

  ATOM NO.   TYPE          CHARGE      No. of ELECS.   s-Pop       p-Pop       
    1          C          -0.087490        4.0875     1.18963     2.89786
    2          C          -0.064304        4.0643     1.18610     2.87821
    3          C          -0.053126        4.0531     1.17996     2.87316
    4          C          -0.108808        4.1088     1.17731     2.93150
    5          C          -0.101936        4.1019     1.13729     2.96464
    6          C          -0.075088        4.0751     1.12531     2.94978
    7          C          -0.146156        4.1462     1.19506     2.95110
    8          C          -0.127970        4.1280     1.19335     2.93462
    9          C          -0.140423        4.1404     1.19392     2.94650
   10          C          -0.158860        4.1589     1.18299     2.97587
   11          H           0.073452        0.9265     0.92655
   12          H           0.076997        0.9230     0.92300
   13          H           0.082978        0.9170     0.91702
   14          H           0.055602        0.9444     0.94440
   15          H           0.064023        0.9360     0.93598
   16          H           0.041248        0.9588     0.95875
   17          H           0.039831        0.9602     0.96017
   18          H           0.040281        0.9597     0.95972
   19          H           0.040891        0.9591     0.95911
   20          H           0.043952        0.9560     0.95605
   21          H           0.044290        0.9557     0.95571
   22          H           0.103888        0.8961     0.89611
   23          H           0.097970        0.9020     0.90203
   24          H           0.098818        0.9012     0.90118
   25          H           0.081764        0.9182     0.91824
   26          H           0.078175        0.9218     0.92182
 DIPOLE           X         Y         Z       TOTAL
 POINT-CHG.     0.128     0.145     0.021     0.194
 HYBRID         0.025    -0.028    -0.013     0.040
 SUM            0.153     0.117     0.008     0.192


          ATOMIC ORBITAL ELECTRON POPULATIONS

    Atom      s        px        py        pz   
    1  C   1.18963   0.98189   0.95346   0.96251
    2  C   1.18610   0.95890   0.92948   0.98983
    3  C   1.17996   0.92176   0.97264   0.97876
    4  C   1.17731   0.97638   0.96964   0.98548
    5  C   1.13729   1.01000   0.98526   0.96938
    6  C   1.12531   0.94409   1.00551   1.00018
    7  C   1.19506   0.94543   1.00505   1.00062
    8  C   1.19335   0.98949   0.95617   0.98897
    9  C   1.19392   0.95354   0.99662   0.99635
   10  C   1.18299   1.00914   0.97634   0.99040
   11  H   0.92655
   12  H   0.92300
   13  H   0.91702
   14  H   0.94440
   15  H   0.93598
   16  H   0.95875
   17  H   0.96017
   18  H   0.95972
   19  H   0.95911
   20  H   0.95605
   21  H   0.95571
   22  H   0.89611
   23  H   0.90203
   24  H   0.90118
   25  H   0.91824
   26  H   0.92182
 *******************************************************************************
 ** Site#: 14399           For non-commercial use only        Version 13.159M **
 *******************************************************************************
 ** Cite this work as: MOPAC2012, James J. P. Stewart, Stewart Computational  **
 ** Chemistry, Version 13.159M web: HTTP://OpenMOPAC.net  Days remaining:   6 **
 *******************************************************************************
 **                                                                           **
 **                                MOPAC2012                                  **
 **                                                                           **
 *******************************************************************************

                            PM3 CALCULATION RESULTS


 *******************************************************************************
 *  CALCULATION DONE:                                Mon Jun  2 11:07:47 2014  *
 *  PM3      - The PM3 Hamiltonian to be used
 *  OLDGEO   - PREVIOUS GEOMETRY TO BE USED
 *  PRECISE  - CRITERIA TO BE INCREASED BY 100 TIMES
 *  NOSYM    - POINT-GROUP SYMMETRY SET TO C1
 *  T=       - A TIME OF 172800.0 SECONDS REQUESTED
 *  DUMP=N   - RESTART FILE WRITTEN EVERY  7200.000 SECONDS
 *  THERMO   - THERMODYNAMIC QUANTITIES TO BE CALCULATED
 *******************************************************************************
oldgeo thermo nosym precise  pm3

   ATOM   CHEMICAL          X               Y               Z
  NUMBER   SYMBOL      (ANGSTROMS)     (ANGSTROMS)     (ANGSTROMS)
 
     1       C         -1.74560602  *   0.92307934  *  -0.16778295  *
     2       C         -0.93466087  *  -0.38838521  *  -0.38700748  *
     3       C          0.04625996  *   0.03739588  *   0.74897624  *
     4       C         -0.73785560  *   1.36145861  *   0.92012843  *
     5       C         -1.81718319  *   1.82674409  *  -1.36961179  *
     6       C          3.87793614  *  -0.22168003  *   0.43667436  *
     7       C          1.44703084  *   0.21480908  *   0.29472943  *
     8       C         -1.69276153  *  -1.63024463  *  -0.09631685  *
     9       C          2.47820070  *  -0.39267767  *   0.88434606  *
    10       C         -1.74342916  *  -2.65750202  *  -0.93646265  *
    11       H         -2.76519811  *   0.73936381  *   0.23276072  *
    12       H         -0.01092936  *  -0.62217844  *   1.64161150  *
    13       H         -0.44864440  *  -0.43515584  *  -1.38624130  *
    14       H         -1.17302784  *   1.50861251  *   1.91930850  *
    15       H         -0.16577129  *   2.27034380  *   0.67481577  *
    16       H         -2.42299157  *   1.37727996  *  -2.16676759  *
    17       H         -2.26920057  *   2.79260079  *  -1.10994021  *
    18       H         -0.82190791  *   2.03177513  *  -1.78807634  *
    19       H          3.97356898  *   0.45311131  *  -0.42446710  *
    20       H          4.49436108  *   0.18754552  *   1.24846464  *
    21       H          4.31073063  *  -1.18938284  *   0.14907727  *
    22       H          1.59355447  *   0.88173884  *  -0.56553201  *
    23       H         -2.21907052  *  -1.65874646  *   0.86609943  *
    24       H          2.32675669  *  -1.05871733  *   1.74332594  *
    25       H         -1.23604816  *  -2.66846023  *  -1.89748541  *
    26       H         -2.29917182  *  -3.56428625  *  -0.71827556  *
 


          CARTESIAN COORDINATES 

    NO.       ATOM         X         Y         Z

     1         C       -1.7456    0.9231   -0.1678
     2         C       -0.9347   -0.3884   -0.3870
     3         C        0.0463    0.0374    0.7490
     4         C       -0.7379    1.3615    0.9201
     5         C       -1.8172    1.8267   -1.3696
     6         C        3.8779   -0.2217    0.4367
     7         C        1.4470    0.2148    0.2947
     8         C       -1.6928   -1.6302   -0.0963
     9         C        2.4782   -0.3927    0.8843
    10         C       -1.7434   -2.6575   -0.9365
    11         H       -2.7652    0.7394    0.2328
    12         H       -0.0109   -0.6222    1.6416
    13         H       -0.4486   -0.4352   -1.3862
    14         H       -1.1730    1.5086    1.9193
    15         H       -0.1658    2.2703    0.6748
    16         H       -2.4230    1.3773   -2.1668
    17         H       -2.2692    2.7926   -1.1099
    18         H       -0.8219    2.0318   -1.7881
    19         H        3.9736    0.4531   -0.4245
    20         H        4.4944    0.1875    1.2485
    21         H        4.3107   -1.1894    0.1491
    22         H        1.5936    0.8817   -0.5655
    23         H       -2.2191   -1.6587    0.8661
    24         H        2.3268   -1.0587    1.7433
    25         H       -1.2360   -2.6685   -1.8975
    26         H       -2.2992   -3.5643   -0.7183

  H: (PM3): J. J. P. STEWART, J. COMP. CHEM. 10, 209 (1989).
  C: (PM3): J. J. P. STEWART, J. COMP. CHEM. 10, 209 (1989).

           Empirical Formula: C10 H16  =    26 atoms



      MOLECULAR POINT GROUP   :   C1  


      RHF CALCULATION, NO. OF DOUBLY OCCUPIED LEVELS =   28



          HEAT OF FORMATION =      16.458013 KCALS/MOLE


          INTERNAL COORDINATE DERIVATIVES

   NUMBER  ATOM       BOND         ANGLE      DIHEDRAL

     1       C     -0.000495    -0.000760     0.001826
     2       C      0.001277    -0.001762     0.000180
     3       C     -0.001284    -0.000175     0.000419
     4       C      0.000904    -0.000881    -0.000266
     5       C     -0.000877    -0.000999     0.001033
     6       C     -0.002497    -0.000245     0.006746
     7       C     -0.005528    -0.010481     0.003140
     8       C      0.010020     0.000194    -0.002697
     9       C      0.003118     0.008559    -0.004339
    10       C     -0.011023    -0.001670     0.003409
    11       H     -0.000667    -0.001721     0.002069
    12       H     -0.000261    -0.001069     0.001494
    13       H      0.000405     0.001358    -0.001625
    14       H      0.001586     0.003130     0.000471
    15       H     -0.000872     0.000842    -0.001162
    16       H      0.001317    -0.001698     0.000700
    17       H      0.000927     0.001572    -0.001823
    18       H     -0.001815     0.002225    -0.003571
    19       H     -0.003257    -0.005067    -0.005343
    20       H     -0.002553     0.008893    -0.003033
    21       H      0.013590    -0.001303    -0.002671
    22       H     -0.003764    -0.004370    -0.005052
    23       H     -0.002289     0.000305     0.004341
    24       H      0.000686     0.003584     0.009717
    25       H      0.002241     0.001519    -0.004146
    26       H      0.001109     0.000019     0.000182


          GRADIENT NORM =   0.03459


          TIME FOR SCF CALCULATION =    0.01

          TIME FOR DERIVATIVES     =    0.01

          MOLECULAR WEIGHT =  136.24



          ROTATIONAL CONSTANTS IN CM(-1)

          A =    0.05527768   B =    0.02669132   C =    0.02074922



           PRINCIPAL MOMENTS OF INERTIA IN UNITS OF 10**(-40)*GRAM-CM**2

          A =      506.4028   B =     1048.7593   C =     1349.1003


          ORIENTATION OF MOLECULE IN FORCE CALCULATION

    NO.       ATOM         X         Y         Z

     1          C      -1.6881   -0.9269    0.3748
     2          C      -0.1306   -0.9269    0.3748
     3          C      -0.1383    0.6332    0.3748
     4          C      -1.6856    0.6185    0.3212
     5          C      -2.3171   -1.6035   -0.8138
     6          C       2.1189    2.7554   -1.9160
     7          C       0.5056    1.2348   -0.8183
     8          C       0.4794   -1.5278    1.5865
     9          C       1.4711    2.1514   -0.7309
    10          C       1.4363   -2.4471    1.5318
    11          H      -2.1207   -1.3286    1.3157
    12          H       0.2617    1.0692    1.3156
    13          H       0.3025   -1.3595   -0.5537
    14          H      -2.1768    1.1102    1.1735
    15          H      -2.1186    1.0455   -0.5974
    16          H      -2.1419   -2.6866   -0.7907
    17          H      -3.4023   -1.4404   -0.8313
    18          H      -1.9126   -1.2245   -1.7627
    19          H       1.7217    2.3707   -2.8648
    20          H       1.9810    3.8451   -1.9165
    21          H       3.1996    2.5593   -1.9053
    22          H       0.1414    0.8807   -1.7921
    23          H       0.0939   -1.1676    2.5486
    24          H       1.8321    2.5017    0.2445
    25          H       1.8450   -2.8288    0.5999
    26          H       1.8798   -2.8829    2.4217


    FIRST DERIVATIVES WILL BE USED IN THE CALCULATION OF SECOND DERIVATIVES

          ESTIMATED TIME TO COMPLETE CALCULATION =        3.89 SECONDS

    FOR POINT-GROUP C1   THERE ARE   1 UNIQUE SYMMETRY FUNCTIONS.

 STEP:   1 TIME =     0.04 SECS, INTEGRAL =      0.04 TIME LEFT: 172799.95
 STEP:   2 TIME =     0.04 SECS, INTEGRAL =      0.08 TIME LEFT: 172799.91
 STEP:   3 TIME =     0.04 SECS, INTEGRAL =      0.12 TIME LEFT: 172799.87
 STEP:   4 TIME =     0.04 SECS, INTEGRAL =      0.15 TIME LEFT: 172799.83
 STEP:   5 TIME =     0.04 SECS, INTEGRAL =      0.19 TIME LEFT: 172799.79
 STEP:   6 TIME =     0.04 SECS, INTEGRAL =      0.23 TIME LEFT: 172799.75
 STEP:   7 TIME =     0.04 SECS, INTEGRAL =      0.27 TIME LEFT: 172799.72
 STEP:   8 TIME =     0.04 SECS, INTEGRAL =      0.31 TIME LEFT: 172799.68
 STEP:   9 TIME =     0.04 SECS, INTEGRAL =      0.35 TIME LEFT: 172799.64
 STEP:  10 TIME =     0.04 SECS, INTEGRAL =      0.39 TIME LEFT: 172799.60
 STEP:  11 TIME =     0.04 SECS, INTEGRAL =      0.43 TIME LEFT: 172799.56
 STEP:  12 TIME =     0.04 SECS, INTEGRAL =      0.46 TIME LEFT: 172799.52
 STEP:  13 TIME =     0.04 SECS, INTEGRAL =      0.50 TIME LEFT: 172799.48
 STEP:  14 TIME =     0.04 SECS, INTEGRAL =      0.54 TIME LEFT: 172799.45
 STEP:  15 TIME =     0.04 SECS, INTEGRAL =      0.58 TIME LEFT: 172799.41
 STEP:  16 TIME =     0.04 SECS, INTEGRAL =      0.62 TIME LEFT: 172799.37
 STEP:  17 TIME =     0.04 SECS, INTEGRAL =      0.66 TIME LEFT: 172799.33
 STEP:  18 TIME =     0.04 SECS, INTEGRAL =      0.70 TIME LEFT: 172799.29
 STEP:  19 TIME =     0.04 SECS, INTEGRAL =      0.74 TIME LEFT: 172799.25
 STEP:  20 TIME =     0.04 SECS, INTEGRAL =      0.78 TIME LEFT: 172799.21
 STEP:  21 TIME =     0.04 SECS, INTEGRAL =      0.82 TIME LEFT: 172799.17
 STEP:  22 TIME =     0.04 SECS, INTEGRAL =      0.86 TIME LEFT: 172799.13
 STEP:  23 TIME =     0.04 SECS, INTEGRAL =      0.90 TIME LEFT: 172799.09
 STEP:  24 TIME =     0.04 SECS, INTEGRAL =      0.94 TIME LEFT: 172799.05
 STEP:  25 TIME =     0.04 SECS, INTEGRAL =      0.97 TIME LEFT: 172799.01
 STEP:  26 TIME =     0.04 SECS, INTEGRAL =      1.01 TIME LEFT: 172798.97
 STEP:  27 TIME =     0.04 SECS, INTEGRAL =      1.05 TIME LEFT: 172798.94
 STEP:  28 TIME =     0.04 SECS, INTEGRAL =      1.09 TIME LEFT: 172798.90
 STEP:  29 TIME =     0.04 SECS, INTEGRAL =      1.13 TIME LEFT: 172798.86
 STEP:  30 TIME =     0.04 SECS, INTEGRAL =      1.17 TIME LEFT: 172798.82
 STEP:  31 TIME =     0.04 SECS, INTEGRAL =      1.21 TIME LEFT: 172798.78
 STEP:  32 TIME =     0.04 SECS, INTEGRAL =      1.25 TIME LEFT: 172798.74
 STEP:  33 TIME =     0.04 SECS, INTEGRAL =      1.29 TIME LEFT: 172798.70
 STEP:  34 TIME =     0.04 SECS, INTEGRAL =      1.33 TIME LEFT: 172798.66
 STEP:  35 TIME =     0.04 SECS, INTEGRAL =      1.37 TIME LEFT: 172798.62
 STEP:  36 TIME =     0.04 SECS, INTEGRAL =      1.40 TIME LEFT: 172798.58
 STEP:  37 TIME =     0.04 SECS, INTEGRAL =      1.44 TIME LEFT: 172798.54
 STEP:  38 TIME =     0.04 SECS, INTEGRAL =      1.48 TIME LEFT: 172798.50
 STEP:  39 TIME =     0.04 SECS, INTEGRAL =      1.52 TIME LEFT: 172798.47
 STEP:  40 TIME =     0.04 SECS, INTEGRAL =      1.56 TIME LEFT: 172798.43
 STEP:  41 TIME =     0.04 SECS, INTEGRAL =      1.60 TIME LEFT: 172798.39
 STEP:  42 TIME =     0.04 SECS, INTEGRAL =      1.64 TIME LEFT: 172798.35
 STEP:  43 TIME =     0.04 SECS, INTEGRAL =      1.68 TIME LEFT: 172798.31
 STEP:  44 TIME =     0.04 SECS, INTEGRAL =      1.72 TIME LEFT: 172798.27
 STEP:  45 TIME =     0.04 SECS, INTEGRAL =      1.76 TIME LEFT: 172798.23
 STEP:  46 TIME =     0.04 SECS, INTEGRAL =      1.80 TIME LEFT: 172798.19
 STEP:  47 TIME =     0.04 SECS, INTEGRAL =      1.84 TIME LEFT: 172798.15
 STEP:  48 TIME =     0.04 SECS, INTEGRAL =      1.87 TIME LEFT: 172798.11
 STEP:  49 TIME =     0.04 SECS, INTEGRAL =      1.91 TIME LEFT: 172798.08
 STEP:  50 TIME =     0.04 SECS, INTEGRAL =      1.95 TIME LEFT: 172798.04
 STEP:  51 TIME =     0.04 SECS, INTEGRAL =      1.99 TIME LEFT: 172798.00
 STEP:  52 TIME =     0.04 SECS, INTEGRAL =      2.03 TIME LEFT: 172797.96
 STEP:  53 TIME =     0.04 SECS, INTEGRAL =      2.07 TIME LEFT: 172797.92
 STEP:  54 TIME =     0.04 SECS, INTEGRAL =      2.11 TIME LEFT: 172797.88
 STEP:  55 TIME =     0.04 SECS, INTEGRAL =      2.15 TIME LEFT: 172797.84
 STEP:  56 TIME =     0.04 SECS, INTEGRAL =      2.19 TIME LEFT: 172797.80
 STEP:  57 TIME =     0.04 SECS, INTEGRAL =      2.22 TIME LEFT: 172797.76
 STEP:  58 TIME =     0.04 SECS, INTEGRAL =      2.26 TIME LEFT: 172797.72
 STEP:  59 TIME =     0.04 SECS, INTEGRAL =      2.30 TIME LEFT: 172797.69
 STEP:  60 TIME =     0.04 SECS, INTEGRAL =      2.34 TIME LEFT: 172797.65
 STEP:  61 TIME =     0.04 SECS, INTEGRAL =      2.38 TIME LEFT: 172797.61
 STEP:  62 TIME =     0.04 SECS, INTEGRAL =      2.42 TIME LEFT: 172797.57
 STEP:  63 TIME =     0.04 SECS, INTEGRAL =      2.46 TIME LEFT: 172797.53
 STEP:  64 TIME =     0.04 SECS, INTEGRAL =      2.50 TIME LEFT: 172797.49
 STEP:  65 TIME =     0.04 SECS, INTEGRAL =      2.54 TIME LEFT: 172797.45
 STEP:  66 TIME =     0.04 SECS, INTEGRAL =      2.58 TIME LEFT: 172797.41
 STEP:  67 TIME =     0.04 SECS, INTEGRAL =      2.62 TIME LEFT: 172797.37
 STEP:  68 TIME =     0.04 SECS, INTEGRAL =      2.66 TIME LEFT: 172797.33
 STEP:  69 TIME =     0.04 SECS, INTEGRAL =      2.70 TIME LEFT: 172797.29
 STEP:  70 TIME =     0.04 SECS, INTEGRAL =      2.74 TIME LEFT: 172797.25
 STEP:  71 TIME =     0.04 SECS, INTEGRAL =      2.78 TIME LEFT: 172797.21
 STEP:  72 TIME =     0.04 SECS, INTEGRAL =      2.81 TIME LEFT: 172797.17
 STEP:  73 TIME =     0.04 SECS, INTEGRAL =      2.85 TIME LEFT: 172797.13
 STEP:  74 TIME =     0.04 SECS, INTEGRAL =      2.90 TIME LEFT: 172797.09
 STEP:  75 TIME =     0.04 SECS, INTEGRAL =      2.93 TIME LEFT: 172797.05
 STEP:  76 TIME =     0.04 SECS, INTEGRAL =      2.97 TIME LEFT: 172797.01
 STEP:  77 TIME =     0.04 SECS, INTEGRAL =      3.01 TIME LEFT: 172796.97
 STEP:  78 TIME =     0.04 SECS, INTEGRAL =      3.05 TIME LEFT: 172796.93

(To convert to Hartree/Bohr^2, multiply by (10^(-21) x N x a0^2)/(4.184 x 627.51) = 0.0642)


           FORCE MATRIX IN MILLIDYNES/ANGSTROM


                  C  1       C  2       C  3       C  4       C  5       C  6
 ------------------------------------------------------------------------------
     C    1  14.493794
     C    2   3.143475  14.701374
     C    3   1.785299   3.039859  14.802012
     C    4   3.510427   1.794583   3.432435  14.334442
     C    5   4.628264   0.555088   0.039702   0.558969  14.521102
     C    6   0.001747   0.019189   0.143876   0.018226   0.000583  14.719758
     C    7   0.043110   0.594803   5.067013   0.594962   0.007260   0.848751
     C    8   0.582514   5.059850   0.588254   0.043907   0.034856   0.003466
     C    9   0.003224   0.031981   0.852030   0.034303   0.001350   5.267419
     C   10   0.036168   0.859120   0.034495   0.005019   0.006140   0.001364
     H   11   4.418081   0.436513   0.027093   0.428444   0.422421   0.000214
     H   12   0.027087   0.434663   4.398026   0.426348   0.002274   0.002158
     H   13   0.435011   4.377732   0.435223   0.025099   0.034737   0.001218
     H   14   0.440986   0.030157   0.444428   4.716227   0.033352   0.002507
     H   15   0.453607   0.027755   0.453058   4.656205   0.028128   0.001134
     H   16   0.453067   0.012499   0.003520   0.048490   4.750451   0.000174
     H   17   0.451319   0.047940   0.003731   0.011974   4.746181   0.000235
     H   18   0.468632   0.021321   0.002347   0.020410   4.699562   0.000259
     H   19   0.000179   0.000568   0.002176   0.000632   0.000207   4.724167
     H   20   0.000373   0.002402   0.019424   0.003021   0.000256   4.706441
     H   21   0.000358   0.003268   0.019419   0.002098   0.000271   4.706289
     H   22   0.001769   0.018810   0.434372   0.019696   0.003259   0.081768
     H   23   0.020068   0.436164   0.018796   0.000884   0.001595   0.000367
     H   24   0.000805   0.008133   0.085077   0.007814   0.000418   0.423533
     H   25   0.009406   0.098434   0.010136   0.001183   0.001460   0.000339
     H   26   0.016331   0.138180   0.017058   0.001589   0.002000   0.000241


                  C  7       C  8       C  9       C 10       H 11       H 12
 ------------------------------------------------------------------------------
     C    7  18.322728
     C    8   0.033606  18.310319
     C    9  10.662119   0.004519  18.181300
     C   10   0.005938  11.063656   0.001237  18.034575
     H   11   0.003563   0.037578   0.000676   0.002750   4.921473
     H   12   0.444918   0.037315   0.054853   0.002994   0.002501   4.900493
     H   13   0.037579   0.443910   0.003042   0.052561   0.028533   0.028089
     H   14   0.031805   0.004407   0.003692   0.000896   0.027215   0.027503
     H   15   0.030976   0.002635   0.003078   0.000511   0.030768   0.030253
     H   16   0.001467   0.002777   0.000424   0.000744   0.029329   0.000594
     H   17   0.001613   0.006254   0.000368   0.001375   0.029729   0.000608
     H   18   0.002710   0.000893   0.000724   0.000600   0.044843   0.000560
     H   19   0.041687   0.000324   0.479090   0.000328   0.000074   0.000560
     H   20   0.035488   0.000571   0.439160   0.000520   0.000081   0.000477
     H   21   0.035545   0.000876   0.438430   0.000566   0.000144   0.000459
     H   22   4.743560   0.001735   0.467848   0.000961   0.000892   0.036286
     H   23   0.001505   4.774526   0.000679   0.454092   0.021398   0.019661
     H   24   0.470487   0.001445   4.771801   0.000854   0.000181   0.029933
     H   25   0.001378   0.490227   0.000926   5.071111   0.000721   0.000789
     H   26   0.002112   0.461197   0.000198   5.106057   0.000993   0.001037


                  H 13       H 14       H 15       H 16       H 17       H 18
 ------------------------------------------------------------------------------
     H   13   4.886421
     H   14   0.000994   5.333013
     H   15   0.002582   0.549389   5.287771
     H   16   0.005707   0.005664   0.003139   5.474786
     H   17   0.002851   0.001797   0.005387   0.566659   5.471950
     H   18   0.022348   0.001528   0.019073   0.569625   0.571278   5.435447
     H   19   0.000269   0.000125   0.000261   0.000106   0.000110   0.000119
     H   20   0.000115   0.000582   0.000294   0.000067   0.000219   0.000180
     H   21   0.000306   0.000201   0.000134   0.000069   0.000115   0.000103
     H   22   0.019427   0.001434   0.019583   0.000546   0.000589   0.007762
     H   23   0.036318   0.000733   0.000839   0.000499   0.000355   0.000725
     H   24   0.000767   0.001200   0.000798   0.000222   0.000159   0.000202
     H   25   0.029594   0.000166   0.000195   0.000315   0.000439   0.000243
     H   26   0.002091   0.000399   0.000274   0.000260   0.000467   0.000148


                  H 19       H 20       H 21       H 22       H 23       H 24
 ------------------------------------------------------------------------------
     H   19   5.450752
     H   20   0.564624   5.425560
     H   21   0.564511   0.576501   5.425524
     H   22   0.029584   0.009356   0.009194   5.123120
     H   23   0.000131   0.000095   0.000163   0.000733   5.147720
     H   24   0.040996   0.024056   0.024139   0.103223   0.000516   5.149492
     H   25   0.000124   0.000139   0.000183   0.000469   0.116618   0.000473
     H   26   0.000073   0.000151   0.000191   0.000282   0.078364   0.000282


                  H 25       H 26
 ------------------------------
     H   25   5.466412
     H   26   0.422037   5.494083


          HEAT OF FORMATION =      16.458013 KCALS/MOLE

          ZERO POINT ENERGY     145.132 KCAL/MOL


           NORMAL COORDINATE ANALYSIS (Total motion = 1 Angstrom)


   Root No.       1         2         3         4         5         6         7         8

                 1 A       2 A       3 A       4 A       5 A       6 A       7 A       8 A   

                  48.0      68.2      81.6     128.6     165.4     180.4     194.7     254.3
  
           1   -0.0100   -0.0025   -0.0136   -0.0001   -0.0023   -0.0047   -0.0053    0.0142
           2   -0.0027    0.0066    0.0047   -0.0001    0.0064    0.0059    0.0133   -0.0104
           3    0.0062    0.0088   -0.0037   -0.0015    0.0013    0.0006   -0.0029   -0.0151
           4   -0.0102   -0.0023   -0.0136    0.0003   -0.0030   -0.0052   -0.0063    0.0148
           5    0.0082   -0.0052   -0.0201   -0.0106    0.0055   -0.0026    0.0084   -0.0004
           6   -0.0071   -0.0029   -0.0015   -0.0032    0.0117   -0.0020    0.0155   -0.0261
           7   -0.0214    0.0093    0.0112    0.0108   -0.0024    0.0049    0.0001    0.0064
           8    0.0082   -0.0054   -0.0199   -0.0106    0.0058   -0.0031    0.0082    0.0040
           9   -0.0070   -0.0157   -0.0009   -0.0094    0.0146   -0.0030    0.0194    0.0073
          10   -0.0208    0.0095    0.0110    0.0105   -0.0018    0.0039   -0.0001    0.0060
          11   -0.0032    0.0051    0.0049   -0.0006    0.0064    0.0062    0.0125   -0.0105
          12   -0.0148   -0.0304    0.0012   -0.0089   -0.0049    0.0006   -0.0241    0.0055
          13   -0.0178   -0.0207   -0.0240   -0.0100    0.0123    0.0011    0.0163   -0.0256
          14   -0.0255   -0.0233    0.0222   -0.0016    0.0001   -0.0041   -0.0157   -0.0138
          15    0.0235    0.0360   -0.0084    0.0048   -0.0031    0.0034    0.0024    0.0091
          16    0.0348    0.0037   -0.0063   -0.0113    0.0097    0.0013   -0.0261    0.0051
          17   -0.0198    0.0299    0.0029    0.0257   -0.0312    0.0046    0.0001   -0.0112
          18    0.0235    0.0120    0.0040    0.0023   -0.0088   -0.0001   -0.0179   -0.0183
          19   -0.0111    0.0246    0.0166    0.0081    0.0118    0.0071    0.0128   -0.0027
          20    0.0116   -0.0090   -0.0247   -0.0048   -0.0099   -0.0052    0.0034    0.0384
          21    0.0005   -0.0091   -0.0002   -0.0081    0.0148   -0.0031    0.0247    0.0200
          22    0.0092    0.0007   -0.0165   -0.0075    0.0006   -0.0114   -0.0154   -0.0175
          23    0.0122   -0.0030   -0.0184   -0.0046   -0.0105   -0.0051   -0.0181   -0.0160
          24   -0.0151   -0.0034    0.0010    0.0043    0.0012   -0.0002    0.0060   -0.0166
          25    0.0143   -0.0049   -0.0050    0.0030   -0.0374    0.0033    0.0270    0.0078
          26   -0.0164    0.0211   -0.0022    0.0003    0.0426   -0.0012   -0.0105    0.0292
          27    0.0139    0.0028    0.0020   -0.0029    0.0035   -0.0019    0.0070    0.0062
          28    0.0285   -0.0135    0.0408   -0.0005    0.0049   -0.0020    0.0012   -0.0020
          29    0.0330   -0.0177    0.0409    0.0020   -0.0050    0.0046    0.0001   -0.0012
          30   -0.0281   -0.0040    0.0063    0.0191   -0.0222    0.0039   -0.0181    0.0238
          31    0.0020    0.0037   -0.0223   -0.0012   -0.0101   -0.0037   -0.0185    0.0341
          32    0.0086    0.0365    0.0077    0.0083    0.0101    0.0073    0.0317   -0.0160
          33    0.0167    0.0247   -0.0065    0.0017   -0.0008    0.0017   -0.0010   -0.0068
          34   -0.0319    0.0011    0.0193    0.0134   -0.0113    0.0091   -0.0180    0.0047
          35    0.0095   -0.0039   -0.0280   -0.0127    0.0084   -0.0060    0.0086   -0.0145
          36   -0.0029   -0.0126   -0.0005   -0.0093    0.0166   -0.0034    0.0259    0.0162
          37   -0.0167   -0.0133   -0.0194   -0.0014   -0.0024   -0.0107   -0.0018    0.0245
          38    0.0128   -0.0150   -0.0288   -0.0191    0.0115   -0.0075    0.0174    0.0154
          39   -0.0124   -0.0034    0.0000    0.0004    0.0082   -0.0021    0.0124   -0.0272
          40   -0.0293    0.0038    0.0201    0.0139   -0.0131    0.0100   -0.0247    0.0001
          41    0.0055    0.0316    0.0101    0.0072    0.0103    0.0084    0.0269   -0.0259
          42   -0.0248   -0.0490    0.0034   -0.0115   -0.0137    0.0030   -0.0468    0.0111
          43   -0.0184    0.0232    0.0168    0.0133    0.0114    0.0047    0.0283    0.0043
          44   -0.0195   -0.0160    0.0148   -0.0024    0.0024    0.0117   -0.0004   -0.0021
          45   -0.0235   -0.0467    0.0031   -0.0111   -0.0128    0.0029   -0.0437    0.0102
          46   -0.0100   -0.0277   -0.0495   -0.0280    0.0222    0.2282    0.0251   -0.0392
          47   -0.0239   -0.0239    0.0180   -0.0043    0.0017    0.0294   -0.0139   -0.0159
          48    0.0387    0.0659   -0.0109    0.0156   -0.0005   -0.1187    0.0300    0.0150
          49   -0.0191   -0.0198   -0.0201   -0.0073    0.0110   -0.0340    0.0154   -0.0245
          50   -0.0334   -0.0166    0.0477    0.0162   -0.0100   -0.2279   -0.0253   -0.0006
          51    0.0325    0.0441   -0.0126    0.0027   -0.0123    0.1352   -0.0186    0.0420
          52   -0.0307   -0.0294   -0.0111   -0.0034    0.0167   -0.1776    0.0282   -0.0506
          53   -0.0377   -0.0541    0.0155   -0.0177    0.0028    0.1693   -0.0342   -0.0286
          54    0.0132    0.0201   -0.0056    0.0013   -0.0002   -0.0035    0.0000   -0.0068
          55    0.0188    0.0461    0.0238   -0.1484   -0.0211   -0.0031   -0.0556   -0.0004
          56    0.0118   -0.0004   -0.0258    0.1787   -0.0188    0.0122   -0.0069   -0.0431
          57    0.0174    0.0066    0.0030   -0.0022   -0.0011   -0.0013   -0.0030   -0.0034
          58    0.0765   -0.0416   -0.0463    0.1505    0.1069    0.0044   -0.0503    0.0127
          59   -0.0146    0.0243   -0.0021    0.0459   -0.0194    0.0050   -0.0028   -0.0104
          60    0.0427   -0.0077   -0.0146    0.1222   -0.0353    0.0077   -0.0118   -0.0586
          61    0.0274    0.0115    0.0006   -0.0390   -0.0074    0.0007   -0.0217    0.0038
          62   -0.0613    0.0749    0.0427   -0.1355   -0.1275    0.0015    0.0237   -0.0185
          63    0.0186    0.0451    0.0252   -0.1084   -0.0011   -0.0051   -0.0618   -0.0162
          64   -0.0212    0.0588    0.0363    0.0038    0.0726    0.0100   -0.0065   -0.0150
          65    0.0356   -0.0326   -0.0439    0.0040   -0.0803   -0.0075    0.0179    0.0547
          66   -0.0043   -0.0131   -0.0006   -0.0095    0.0172   -0.0033    0.0258    0.0179
          67    0.0078    0.0143   -0.0636   -0.0202    0.0021   -0.0241   -0.0341   -0.0675
          68   -0.0028    0.0105   -0.0631   -0.0043   -0.0294   -0.0146   -0.0578   -0.0386
          69   -0.0101   -0.0030   -0.0011   -0.0008    0.0086   -0.0017    0.0129   -0.0273
          70    0.0233   -0.0388   -0.0248    0.0113   -0.1016    0.0006    0.0650    0.0271
          71   -0.0402    0.0433    0.0159   -0.0154    0.1257   -0.0003   -0.0225    0.0356
          72    0.0192    0.0074    0.0029   -0.0002   -0.0029   -0.0012   -0.0034   -0.0040
          73    0.0305   -0.0267    0.0883    0.0128    0.0016    0.0109    0.0174    0.0557
          74    0.0484   -0.0312    0.0857    0.0010    0.0154    0.0142    0.0423    0.0152
          75   -0.0335   -0.0043    0.0088    0.0254   -0.0322    0.0057   -0.0284    0.0428
          76    0.0437   -0.0129    0.0448   -0.0077    0.0125   -0.0064    0.0006   -0.0457
          77    0.0362   -0.0175    0.0497    0.0091   -0.0208    0.0039   -0.0256   -0.0032
          78   -0.0341   -0.0041    0.0086    0.0261   -0.0337    0.0058   -0.0304    0.0449


   Root No.       9        10        11        12        13        14        15        16

                 9 A      10 A      11 A      12 A      13 A      14 A      15 A      16 A   

                 276.3     355.6     394.8     414.0     449.6     470.6     552.7     649.3
  
           1   -0.0015   -0.0118    0.0013   -0.0325    0.0105    0.0125    0.0064    0.0269
           2   -0.0079   -0.0015   -0.0312    0.0010    0.0008   -0.0137   -0.0101    0.0038
           3   -0.0122   -0.0052    0.0040    0.0197   -0.0203    0.0358    0.0203   -0.0078
           4    0.0007   -0.0163   -0.0006   -0.0302    0.0079    0.0066   -0.0020    0.0073
           5   -0.0055   -0.0028    0.0013   -0.0303   -0.0131   -0.0047   -0.0070    0.0015
           6   -0.0048   -0.0228    0.0250    0.0089    0.0098   -0.0133   -0.0219   -0.0006
           7   -0.0039    0.0081   -0.0088    0.0015    0.0307   -0.0014    0.0074   -0.0086
           8   -0.0062   -0.0080    0.0044   -0.0217   -0.0174   -0.0097   -0.0093    0.0178
           9    0.0097   -0.0009    0.0006   -0.0130    0.0044   -0.0351    0.0376   -0.0075
          10   -0.0019    0.0031   -0.0142   -0.0007    0.0370   -0.0009    0.0080   -0.0097
          11   -0.0078    0.0031   -0.0314   -0.0001    0.0015   -0.0178   -0.0126    0.0008
          12   -0.0211    0.0398    0.0067   -0.0029   -0.0091   -0.0099   -0.0089   -0.0011
          13   -0.0283    0.0114   -0.0194    0.0120   -0.0103    0.0217    0.0138    0.0097
          14    0.0143   -0.0309    0.0028   -0.0001   -0.0099    0.0252    0.0118    0.0076
          15   -0.0122   -0.0016   -0.0079   -0.0063   -0.0048    0.0165    0.0109    0.0108
          16   -0.0228   -0.0037    0.0222    0.0141   -0.0053   -0.0176    0.0130   -0.0028
          17   -0.0145    0.0009    0.0241    0.0066   -0.0117   -0.0171    0.0118   -0.0027
          18   -0.0042   -0.0049   -0.0196   -0.0149    0.0090    0.0061   -0.0059    0.0025
          19    0.0190    0.0284    0.0212   -0.0056   -0.0261    0.0090   -0.0114    0.0027
          20   -0.0063   -0.0116    0.0041    0.0362    0.0155    0.0087   -0.0096    0.0017
          21    0.0271    0.0098    0.0053    0.0071   -0.0048   -0.0120    0.0258   -0.0110
          22    0.0311   -0.0169   -0.0096    0.0080   -0.0129   -0.0162   -0.0166   -0.0405
          23    0.0282    0.0272    0.0037   -0.0118    0.0158    0.0094    0.0087   -0.0434
          24   -0.0032   -0.0140    0.0330    0.0024    0.0361   -0.0003   -0.0216    0.0042
          25    0.0119    0.0150    0.0206    0.0085   -0.0179    0.0066   -0.0104    0.0041
          26    0.0007    0.0039    0.0116    0.0261    0.0036    0.0075   -0.0082   -0.0007
          27    0.0232    0.0085   -0.0200   -0.0021    0.0059    0.0295   -0.0263    0.0057
          28    0.0055   -0.0219   -0.0089    0.0132   -0.0154   -0.0167   -0.0141    0.0035
          29    0.0010    0.0247    0.0070   -0.0082    0.0177    0.0121    0.0155    0.0020
          30    0.0055   -0.0134   -0.0177    0.0081   -0.0213   -0.0102   -0.0055    0.0001
          31    0.0025   -0.0083    0.0019   -0.0564   -0.0004    0.0258    0.0198    0.0426
          32   -0.0074   -0.0135   -0.0509    0.0144    0.0135   -0.0182   -0.0093   -0.0044
          33   -0.0105   -0.0081   -0.0040    0.0127   -0.0190    0.0388    0.0262   -0.0022
          34   -0.0237    0.0284   -0.0258    0.0091    0.0505   -0.0049    0.0019   -0.0197
          35   -0.0090   -0.0262    0.0206   -0.0417   -0.0266   -0.0100   -0.0311    0.0349
          36    0.0195    0.0000    0.0001   -0.0063    0.0007   -0.0322    0.0487   -0.0115
          37    0.0000   -0.0216    0.0143   -0.0584    0.0216   -0.0044   -0.0087    0.0373
          38   -0.0043   -0.0101    0.0007   -0.0531   -0.0293   -0.0233    0.0085    0.0229
          39   -0.0053   -0.0219    0.0319    0.0067    0.0239   -0.0097   -0.0320    0.0033
          40   -0.0224    0.0400   -0.0176    0.0146    0.0342    0.0102   -0.0444   -0.0117
          41   -0.0006   -0.0271   -0.0437    0.0258    0.0030    0.0147    0.0244   -0.0228
          42   -0.0374    0.0792    0.0120   -0.0091   -0.0120   -0.0230   -0.0628    0.0120
          43    0.0186   -0.0236   -0.0282    0.0011    0.0564   -0.0190    0.0614   -0.0328
          44   -0.0155    0.0405   -0.0379   -0.0078    0.0164   -0.0586   -0.0533    0.0018
          45   -0.0349    0.0718    0.0107   -0.0076   -0.0118   -0.0211   -0.0556    0.0108
          46   -0.0300    0.0206   -0.0399    0.0317   -0.0129    0.0106    0.0092   -0.0041
          47    0.0137   -0.0293   -0.0008    0.0029   -0.0103    0.0233    0.0110    0.0057
          48   -0.0435    0.0382   -0.0466   -0.0063    0.0061   -0.0247   -0.0135    0.0121
          49   -0.0288    0.0107   -0.0173    0.0104   -0.0108    0.0245    0.0155    0.0114
          50    0.0166   -0.0421    0.0237   -0.0197   -0.0087    0.0410    0.0200    0.0239
          51    0.0215   -0.0333    0.0155   -0.0530    0.0183    0.0069    0.0012    0.0434
          52   -0.0540    0.0313   -0.0291    0.0456   -0.0315    0.0407    0.0286   -0.0111
          53    0.0364   -0.0585    0.0261    0.0127   -0.0236    0.0594    0.0334   -0.0002
          54   -0.0143   -0.0037   -0.0027    0.0124   -0.0186    0.0369    0.0246   -0.0007
          55   -0.0526   -0.0209    0.0243    0.0164    0.0054   -0.0439    0.0421   -0.0133
          56   -0.0285   -0.0028    0.0342   -0.0110   -0.0240   -0.0431    0.0366   -0.0058
          57    0.0134    0.0035   -0.0241   -0.0089    0.0094    0.0264   -0.0267    0.0078
          58   -0.0262   -0.0070    0.0192    0.0245    0.0069   -0.0184    0.0166   -0.0088
          59   -0.0150    0.0005    0.0241    0.0077   -0.0106   -0.0177    0.0128   -0.0035
          60   -0.0162   -0.0066   -0.0077   -0.0410   -0.0105   -0.0223    0.0201    0.0019
          61   -0.0222   -0.0031    0.0234    0.0127   -0.0077   -0.0182    0.0133   -0.0021
          62   -0.0120    0.0039    0.0297   -0.0022   -0.0249   -0.0195    0.0119    0.0018
          63   -0.0376   -0.0257   -0.0220   -0.0068    0.0295   -0.0200    0.0251   -0.0111
          64    0.0337    0.0522    0.0323   -0.0300   -0.0688    0.0284   -0.0400    0.0213
          65   -0.0128   -0.0290   -0.0104    0.0786    0.0560    0.0306   -0.0272   -0.0076
          66    0.0231    0.0071    0.0063    0.0004   -0.0032   -0.0274    0.0423   -0.0143
          67    0.0853   -0.0002   -0.0072    0.0468    0.0067   -0.0461   -0.0157    0.0105
          68    0.0905    0.0587   -0.0167    0.0226    0.0271   -0.0098    0.0343    0.0093
          69   -0.0046   -0.0191    0.0403    0.0053    0.0381   -0.0053   -0.0302    0.0047
          70    0.0179    0.0053    0.0197    0.0388    0.0041    0.0060   -0.0019   -0.0086
          71    0.0178    0.0265    0.0269    0.0110   -0.0282    0.0051   -0.0062    0.0052
          72    0.0139    0.0036   -0.0249   -0.0082    0.0092    0.0293   -0.0291    0.0080
          73   -0.0481   -0.0490   -0.0316   -0.0228   -0.0754    0.0029   -0.0242   -0.1292
          74   -0.0650    0.0000    0.0493   -0.0558    0.0398    0.0520   -0.0137   -0.1265
          75    0.0092   -0.0152   -0.0459    0.0119   -0.0580   -0.0182    0.0025   -0.0056
          76    0.0347    0.0002    0.0155    0.0552    0.0433   -0.0372   -0.0013    0.2068
          77    0.0415    0.0476   -0.0329    0.0437   -0.0032   -0.0253    0.0542    0.2033
          78    0.0109   -0.0137   -0.0501    0.0130   -0.0622   -0.0190    0.0066   -0.0028


   Root No.      17        18        19        20        21        22        23        24

                17 A      18 A      19 A      20 A      21 A      22 A      23 A      24 A   

                 751.7     858.5     899.2     916.5     925.7     935.4     935.9     964.8
  
           1   -0.0222   -0.0030    0.0125   -0.0132   -0.0003   -0.0111   -0.0048    0.0010
           2   -0.0258    0.0003   -0.0057   -0.0026    0.0093    0.0111    0.0130    0.0003
           3    0.0203    0.0019   -0.0055    0.0062   -0.0042   -0.0042   -0.0069    0.0032
           4   -0.0154    0.0032   -0.0204    0.0170    0.0011    0.0068    0.0034    0.0107
           5    0.0331   -0.0107   -0.0039    0.0095    0.0059   -0.0034   -0.0003    0.0067
           6    0.0214   -0.0097    0.0201   -0.0047    0.0040   -0.0038    0.0089    0.0054
           7    0.0273   -0.0042    0.0014   -0.0015    0.0089    0.0068    0.0070   -0.0033
           8    0.0318    0.0064    0.0001   -0.0039   -0.0085    0.0113   -0.0050   -0.0090
           9    0.0103    0.0002   -0.0008   -0.0039    0.0027    0.0053    0.0005   -0.0126
          10    0.0335    0.0089    0.0103    0.0097   -0.0163    0.0104    0.0008   -0.0009
          11   -0.0180    0.0019   -0.0034   -0.0040   -0.0090   -0.0342   -0.0293    0.0061
          12    0.0077    0.0080   -0.0212   -0.0197    0.0125   -0.0119   -0.0011    0.0087
          13   -0.0152   -0.0040    0.0170   -0.0125    0.0001   -0.0098    0.0000   -0.0067
          14   -0.0161   -0.0010   -0.0014   -0.0038    0.0123    0.0216    0.0234    0.0018
          15   -0.0150   -0.0029    0.0071    0.0054   -0.0035    0.0083    0.0019   -0.0087
          16   -0.0063    0.0142    0.0026   -0.0028    0.0034   -0.0017    0.0023   -0.0125
          17   -0.0059   -0.0151   -0.0052   -0.0047    0.0028   -0.0010   -0.0013   -0.0134
          18    0.0083    0.0005   -0.0002   -0.0011    0.0006    0.0019    0.0002   -0.0049
          19    0.0026   -0.0265   -0.0042    0.0041    0.0217   -0.0004   -0.0084    0.0024
          20    0.0037    0.0284    0.0034   -0.0051   -0.0230    0.0015    0.0087    0.0054
          21   -0.0275   -0.0028    0.0072    0.0132   -0.0083   -0.0019   -0.0009    0.0122
          22   -0.0050    0.0012   -0.0050    0.0063    0.0003   -0.0155    0.0116   -0.0061
          23   -0.0044   -0.0013    0.0009    0.0060    0.0011   -0.0167    0.0160   -0.0033
          24   -0.0195    0.0065   -0.0087    0.0001   -0.0001   -0.0017   -0.0011    0.0046
          25    0.0013    0.0169    0.0023    0.0000    0.0086   -0.0007   -0.0018   -0.0002
          26    0.0014   -0.0173   -0.0045   -0.0045   -0.0064    0.0005    0.0023    0.0008
          27    0.0074    0.0006   -0.0018   -0.0040    0.0028   -0.0009    0.0004   -0.0029
          28   -0.0008    0.0020   -0.0050    0.0013   -0.0007   -0.0039    0.0009   -0.0055
          29    0.0006   -0.0020    0.0048    0.0004    0.0008   -0.0052    0.0074   -0.0010
          30   -0.0038    0.0058   -0.0167    0.0035   -0.0034    0.0037   -0.0126   -0.0131
          31   -0.0402   -0.0004   -0.0235   -0.0113    0.0033   -0.0229   -0.0401    0.0211
          32   -0.0368   -0.0001    0.0225    0.0380   -0.0260    0.0331    0.0091   -0.0333
          33    0.0057    0.0024   -0.0085    0.0235   -0.0171    0.0009   -0.0233   -0.0030
          34    0.0494    0.0191   -0.0174   -0.0396    0.0239   -0.0354    0.0012    0.0021
          35    0.0708   -0.0163    0.0122    0.0122   -0.0095    0.0572   -0.0011   -0.0121
          36   -0.0174    0.0006    0.0021    0.0061   -0.0039    0.0015    0.0008   -0.0125
          37   -0.0274   -0.0024   -0.0325    0.0343    0.0062    0.0104   -0.0049    0.0416
          38    0.0631   -0.0184   -0.0250    0.0349    0.0100    0.0158   -0.0278    0.0011
          39    0.0015   -0.0079    0.0235   -0.0082    0.0045   -0.0106    0.0180    0.0228
          40    0.0132   -0.0128    0.0537    0.0873   -0.0637    0.0150   -0.0177    0.0407
          41    0.0187    0.0278   -0.0681   -0.0247    0.0085   -0.0931   -0.0571    0.0874
          42   -0.0280   -0.0206    0.0437    0.0404   -0.0271    0.0271    0.0044   -0.0155
          43    0.0686    0.0387   -0.0383   -0.0498    0.0071   -0.0210   -0.0025   -0.0222
          44   -0.0573   -0.0169    0.0567    0.0438   -0.0536   -0.0029   -0.0305   -0.0578
          45   -0.0284   -0.0168    0.0331    0.0336   -0.0215    0.0190   -0.0001   -0.0122
          46   -0.0215    0.0079   -0.0350    0.0088    0.0299    0.0703    0.0565    0.0130
          47   -0.0179    0.0007   -0.0092   -0.0006    0.0175    0.0352    0.0334    0.0047
          48   -0.0585    0.0042   -0.0276   -0.0294    0.0684    0.0932    0.1124    0.0242
          49   -0.0146   -0.0054    0.0233   -0.0134   -0.0047   -0.0183   -0.0078   -0.0103
          50   -0.0145   -0.0147    0.0571   -0.0234   -0.0201   -0.0548   -0.0327   -0.0247
          51   -0.0473   -0.0215    0.0836   -0.0698    0.0051   -0.0657   -0.0022   -0.0200
          52    0.0120    0.0060   -0.0250    0.0492   -0.0220    0.0292   -0.0186   -0.0102
          53    0.0175   -0.0034    0.0103    0.0428   -0.0424   -0.0121   -0.0494   -0.0260
          54    0.0089    0.0001   -0.0053    0.0483   -0.0332    0.0114   -0.0331   -0.0207
          55   -0.0210   -0.0394   -0.0012    0.0169   -0.0168   -0.0008   -0.0050    0.0553
          56   -0.0196    0.0375    0.0162    0.0211   -0.0108   -0.0021    0.0002    0.0542
          57    0.0192    0.0015   -0.0068   -0.0186    0.0137    0.0020    0.0025   -0.0575
          58   -0.0086   -0.0843   -0.0215   -0.0098    0.0000   -0.0005   -0.0065   -0.0178
          59   -0.0066   -0.0248   -0.0075   -0.0052    0.0024   -0.0010   -0.0022   -0.0134
          60   -0.0044    0.1039    0.0359    0.0337   -0.0153    0.0018    0.0055    0.0796
          61   -0.0071    0.0301    0.0065   -0.0018    0.0041   -0.0023    0.0038   -0.0124
          62   -0.0082    0.0814    0.0186    0.0019    0.0067   -0.0038    0.0075   -0.0107
          63   -0.0046   -0.1080   -0.0159    0.0189   -0.0253    0.0061   -0.0125    0.0720
          64    0.0020    0.0653   -0.0253   -0.0493   -0.1616    0.0019    0.0505    0.0331
          65    0.0023   -0.0659    0.0156    0.0418    0.1771   -0.0156   -0.0550    0.0142
          66   -0.0262   -0.0029    0.0108    0.0160   -0.0124    0.0036    0.0004   -0.0020
          67    0.0040   -0.0035    0.0454   -0.0669    0.0049    0.1100   -0.0866    0.0440
          68   -0.0182    0.0099    0.0107   -0.0535   -0.0070    0.1388   -0.1115    0.0093
          69   -0.0099    0.0000    0.0083   -0.0070    0.0049   -0.0099    0.0075    0.0200
          70   -0.0102   -0.1268   -0.0400   -0.0297   -0.1265    0.0070    0.0273    0.0383
          71   -0.0112    0.1314    0.0500    0.0480    0.1210   -0.0108   -0.0311    0.0281
          72    0.0161    0.0004   -0.0055   -0.0116    0.0069    0.0004    0.0016   -0.0263
          73    0.0175   -0.0171    0.0708   -0.0518    0.0096    0.0683   -0.0327    0.0616
          74   -0.0491    0.0233   -0.0297   -0.0284   -0.0121    0.0992   -0.1040   -0.0110
          75    0.0262   -0.0140    0.0329   -0.0085    0.0069   -0.0080    0.0197    0.0218
          76   -0.0107    0.0226   -0.0765    0.0276   -0.0121    0.0173   -0.0472   -0.0255
          77    0.0615   -0.0280    0.0484    0.0019    0.0131   -0.0108    0.0353    0.0563
          78    0.0321   -0.0178    0.0416   -0.0093    0.0087   -0.0102    0.0259    0.0260


   Root No.      25        26        27        28        29        30        31        32

                25 A      26 A      27 A      28 A      29 A      30 A      31 A      32 A   

                 970.5     997.0    1021.7    1030.2    1045.3    1057.2    1074.8    1136.8
  
           1   -0.0016    0.0007   -0.0086   -0.0042   -0.0092   -0.0206   -0.0072    0.0147
           2    0.0000   -0.0029    0.0036    0.0009    0.0042   -0.0105    0.0269   -0.0138
           3   -0.0018    0.0080    0.0015    0.0013    0.0001    0.0027   -0.0001   -0.0232
           4    0.0166    0.0027    0.0010    0.0043   -0.0001    0.0107    0.0310   -0.0372
           5    0.0027   -0.0002    0.0254    0.0035    0.0279    0.0062   -0.0132   -0.0325
           6    0.0044    0.0001    0.0042    0.0001    0.0048    0.0043   -0.0060   -0.0037
           7   -0.0037   -0.0090    0.0182   -0.0017    0.0204   -0.0266    0.0086   -0.0215
           8   -0.0178    0.0018   -0.0192   -0.0029   -0.0190   -0.0254    0.0046    0.0285
           9    0.0008   -0.0011    0.0009   -0.0015    0.0008   -0.0073    0.0036    0.0080
          10   -0.0079    0.0152   -0.0178    0.0013   -0.0189    0.0162   -0.0106    0.0146
          11    0.0084    0.0014   -0.0058   -0.0035   -0.0082   -0.0036   -0.0176    0.0046
          12    0.0004   -0.0027   -0.0081    0.0000   -0.0134    0.0102    0.0220    0.0005
          13   -0.0124    0.0036    0.0067    0.0036    0.0052    0.0148    0.0051   -0.0017
          14   -0.0042    0.0040   -0.0003   -0.0005    0.0004    0.0065   -0.0191    0.0067
          15    0.0048   -0.0131   -0.0007   -0.0007    0.0008    0.0038   -0.0067    0.0185
          16    0.0152    0.0122    0.0176   -0.0125   -0.0092    0.0028   -0.0011    0.0001
          17    0.0108    0.0118   -0.0178    0.0146    0.0107    0.0028   -0.0019   -0.0010
          18    0.0011    0.0034    0.0004   -0.0005    0.0008   -0.0080    0.0013   -0.0013
          19   -0.0077   -0.0067    0.0060   -0.0095   -0.0127   -0.0034    0.0031    0.0053
          20   -0.0020   -0.0055   -0.0068    0.0089    0.0129   -0.0027   -0.0006   -0.0058
          21   -0.0031    0.0104    0.0006    0.0012    0.0014   -0.0009   -0.0029   -0.0057
          22   -0.0052   -0.0003    0.0066    0.0176   -0.0090   -0.0030   -0.0037    0.0098
          23   -0.0004   -0.0003    0.0049    0.0182   -0.0108   -0.0034   -0.0025    0.0108
          24    0.0066   -0.0034   -0.0057   -0.0002   -0.0035   -0.0059    0.0028    0.0021
          25   -0.0024   -0.0040   -0.0223    0.0182    0.0158   -0.0016    0.0006   -0.0021
          26    0.0003   -0.0035    0.0230   -0.0200   -0.0174   -0.0018    0.0025    0.0035
          27    0.0032   -0.0014   -0.0004    0.0003   -0.0007    0.0066   -0.0002    0.0023
          28   -0.0062   -0.0017   -0.0119   -0.0292    0.0122    0.0029    0.0010   -0.0038
          29    0.0017   -0.0014   -0.0152   -0.0304    0.0104    0.0036    0.0036   -0.0055
          30   -0.0189    0.0025    0.0089   -0.0003    0.0070    0.0016   -0.0089    0.0010
          31    0.0339   -0.0206   -0.0188   -0.0312   -0.0114   -0.1007   -0.1442   -0.0698
          32    0.0093   -0.0232   -0.0031    0.0165   -0.0001    0.0049    0.2157    0.0421
          33    0.0180   -0.0118   -0.0060   -0.0045   -0.0027   -0.0277    0.0165   -0.0378
          34    0.0037   -0.0635    0.0579    0.0105    0.1044   -0.0626   -0.0094    0.1162
          35   -0.0352    0.0232   -0.0555   -0.0207   -0.0997    0.0182    0.0397   -0.0832
          36    0.0061    0.0138    0.0013    0.0018    0.0034   -0.0119   -0.0057    0.0007
          37    0.0791   -0.0077   -0.0076   -0.0193    0.0244    0.0988    0.0335    0.1394
          38    0.0089    0.0084    0.0504   -0.0199    0.0764    0.1207   -0.0380    0.1237
          39    0.0311   -0.0089   -0.0125    0.0000   -0.0071   -0.0084    0.0076    0.0061
          40   -0.0118    0.1377    0.0013   -0.0118    0.0296   -0.0008   -0.0383    0.0223
          41    0.0116    0.1082   -0.0141   -0.0180   -0.0034    0.0071    0.0239    0.0151
          42   -0.0035    0.0071    0.0072    0.0009    0.0110   -0.0058   -0.0159   -0.0021
          43    0.0141   -0.0815   -0.0376    0.0209   -0.0680    0.1298   -0.0513   -0.0680
          44    0.0313   -0.0800   -0.0034    0.0160   -0.0226    0.0768   -0.1066   -0.0923
          45    0.0004    0.0054    0.0036   -0.0002    0.0047   -0.0068   -0.0022   -0.0065
          46    0.0086    0.0015   -0.0142   -0.0078   -0.0096   -0.0065   -0.0606    0.0290
          47   -0.0012    0.0036   -0.0032   -0.0021   -0.0014    0.0039   -0.0292    0.0123
          48   -0.0232    0.0345   -0.0051   -0.0024   -0.0041    0.0297   -0.0935    0.0212
          49   -0.0133    0.0012    0.0085    0.0044    0.0067    0.0163    0.0112   -0.0006
          50   -0.0243   -0.0021    0.0213    0.0108    0.0175    0.0320    0.0417   -0.0001
          51   -0.0618    0.0311    0.0360    0.0187    0.0277    0.0755    0.0337   -0.0073
          52    0.0433   -0.0451   -0.0185   -0.0108   -0.0111   -0.0332   -0.0194    0.0426
          53    0.0339   -0.0493   -0.0048   -0.0030    0.0002   -0.0181    0.0275    0.0347
          54    0.0421   -0.0533   -0.0126   -0.0075   -0.0058   -0.0237    0.0002    0.0485
          55   -0.0456   -0.0413   -0.0230    0.0154    0.0081    0.0145   -0.0004    0.0037
          56   -0.0377   -0.0391    0.0214   -0.0178   -0.0154    0.0134    0.0006    0.0046
          57    0.0435    0.0442    0.0015    0.0009    0.0041   -0.0178    0.0003   -0.0052
          58    0.0093    0.0154   -0.0640    0.0501    0.0357    0.0082   -0.0043   -0.0015
          59    0.0101    0.0120   -0.0264    0.0212    0.0154    0.0040   -0.0023   -0.0011
          60   -0.0591   -0.0604    0.0815   -0.0663   -0.0483   -0.0107    0.0082    0.0027
          61    0.0176    0.0130    0.0313   -0.0228   -0.0168    0.0041   -0.0011    0.0007
          62    0.0222    0.0135    0.0624   -0.0461   -0.0338    0.0071   -0.0012    0.0019
          63   -0.0776   -0.0594   -0.0855    0.0607    0.0435   -0.0096    0.0044   -0.0018
          64   -0.0001   -0.0375   -0.0116    0.0259    0.0374    0.0513   -0.0078    0.0076
          65   -0.0267   -0.0368    0.0092   -0.0267   -0.0518    0.0480   -0.0029    0.0255
          66    0.0024    0.0327    0.0013    0.0008    0.0061   -0.0402    0.0023   -0.0178
          67    0.0406   -0.0093   -0.0114   -0.0503    0.0437   -0.0049   -0.0180   -0.0011
          68   -0.0017    0.0101   -0.0078   -0.0494    0.0278    0.0331    0.0418   -0.0355
          69    0.0257   -0.0109   -0.0080   -0.0020    0.0033   -0.0205   -0.0199    0.0148
          70   -0.0190   -0.0252    0.0534   -0.0450   -0.0379    0.0017    0.0079    0.0106
          71   -0.0305   -0.0268   -0.0582    0.0455    0.0370    0.0023    0.0019   -0.0082
          72    0.0198    0.0142    0.0007    0.0001   -0.0003    0.0034   -0.0025    0.0019
          73    0.0674   -0.0035    0.0274    0.0978   -0.0463   -0.0176    0.0081    0.0185
          74   -0.0321    0.0157    0.0713    0.1033   -0.0218   -0.0006   -0.0184    0.0131
          75    0.0292   -0.0055   -0.0099    0.0007   -0.0057   -0.0059    0.0034    0.0030
          76   -0.0469    0.0147    0.0810    0.1185   -0.0234   -0.0044   -0.0246    0.0100
          77    0.0684    0.0006    0.0381    0.1228   -0.0561   -0.0137    0.0112    0.0014
          78    0.0354   -0.0052   -0.0117    0.0011   -0.0079   -0.0038    0.0071   -0.0020


[...]
 EFF. MASS   2.0301

 VIBRATION   52   52A       ATOM PAIR        ENERGY CONTRIBUTION    RADIAL
 FREQ.      1421.56        C  4 --  H 14          +20.1% ( 51.6%)     3.4%
 T-DIPOLE    0.0199        C  4 --  H 15          +19.7% ( 51.1%)     4.3%
 TRAVEL      0.1178        C  5 --  H 18           +9.5% ( 35.5%)     4.3%
 RED. MASS   0.4096        C  1 --  C  5           +9.4% ( 35.3%)   100.0%
 EFF. MASS   3.4169

 VIBRATION   53   53A       ATOM PAIR        ENERGY CONTRIBUTION    RADIAL
 FREQ.      1430.46        C  6 --  H 19          +14.0% ( 52.7%)     5.4%
 T-DIPOLE    0.0771        C  6 --  C  9          +13.7% ( 52.2%)    99.2%
 TRAVEL      0.0840        C  6 --  H 20          +11.3% ( 47.4%)     2.9%
 RED. MASS   0.8797        C  6 --  H 21          +11.3% ( 47.3%)     2.8%
 EFF. MASS   6.6785

 VIBRATION   54   54A       ATOM PAIR        ENERGY CONTRIBUTION    RADIAL
 FREQ.      1475.49        C  1 --  C  3          +10.1% ( 53.8%)    99.8%
 T-DIPOLE    0.0697        C  2 --  C  3           +9.3% ( 51.6%)    49.4%
 TRAVEL      0.0680        C  1 --  C  2           +8.1% ( 48.3%)    51.5%
 RED. MASS   1.4076        C  3 --  C  7           +7.7% ( 47.1%)    94.8%
 EFF. MASS   9.8762

 VIBRATION   55   55A       ATOM PAIR        ENERGY CONTRIBUTION    RADIAL
 FREQ.      1862.81        C  8 --  C 10          +44.7% ( 99.0%)    98.8%
 T-DIPOLE    0.1360        C  2 --  C  8          +16.9% ( 60.9%)    55.7%
 TRAVEL      0.0554        C  8 --  H 23          +15.5% ( 58.2%)     3.8%
 RED. MASS   5.2657        C 10 --  H 25          +10.7% ( 48.5%)    10.9%
 EFF. MASS  11.7917        C 10 --  H 26          +10.5% ( 48.0%)    13.1%

 VIBRATION   56   56A       ATOM PAIR        ENERGY CONTRIBUTION    RADIAL
 FREQ.      1890.64        C  7 --  C  9          +43.4% ( 97.3%)    96.3%
 T-DIPOLE    0.3187        C  3 --  C  7          +14.4% ( 56.0%)    55.9%
 TRAVEL      0.0550        C  6 --  C  9          +14.0% ( 55.3%)    56.3%
 RED. MASS   5.3284        C  7 --  H 22          +13.3% ( 53.9%)     3.5%
 EFF. MASS  11.7898        C  9 --  H 24          +13.0% ( 53.3%)     3.4%

 VIBRATION   57   57A       ATOM PAIR        ENERGY CONTRIBUTION    RADIAL
 FREQ.      2935.10        C  2 --  H 13          +77.9% ( 90.4%)   100.0%
 T-DIPOLE    0.0652        C  3 --  H 12          +14.1% ( 38.4%)   100.0%
 TRAVEL      0.1255        C  1 --  H 11           +3.3% ( 18.6%)    99.9%
 RED. MASS   0.6411        C  2 --  C  3           +1.1% ( 10.9%)    16.5%
 EFF. MASS   1.4588

 VIBRATION   58   58A       ATOM PAIR        ENERGY CONTRIBUTION    RADIAL
 FREQ.      2943.62        C  3 --  H 12          +77.7% ( 90.1%)   100.0%
 T-DIPOLE    0.1033        C  2 --  H 13          +10.2% ( 32.6%)    99.9%
 TRAVEL      0.1260        C  1 --  H 11           +7.5% ( 28.0%)   100.0%
 RED. MASS   0.6290        C  1 --  C  3           +0.9% (  9.8%)    10.6%
 EFF. MASS   1.4426

 VIBRATION   59   59A       ATOM PAIR        ENERGY CONTRIBUTION    RADIAL
 FREQ.      2951.03        C  1 --  H 11          +84.4% ( 93.9%)   100.0%
 T-DIPOLE    0.1201        C  2 --  H 13           +7.1% ( 27.3%)    99.9%
 TRAVEL      0.1256        C  3 --  H 12           +3.4% ( 18.8%)    99.9%
 RED. MASS   0.7292        C  1 --  C  3           +1.0% ( 10.3%)    49.6%
 EFF. MASS   1.4492

 VIBRATION   60   60A       ATOM PAIR        ENERGY CONTRIBUTION    RADIAL
 FREQ.      3030.57        C  7 --  H 22          +96.4% ( 99.5%)   100.0%
 T-DIPOLE    0.2659        C  7 --  C  9           +1.4% ( 12.0%)    40.1%
 TRAVEL      0.1216        C  3 --  C  7           +1.3% ( 11.7%)    15.0%
 RED. MASS   0.9133        C  9 --  H 24           +0.5% (  7.2%)    96.2%
 EFF. MASS   1.5038

 VIBRATION   61   61A       ATOM PAIR        ENERGY CONTRIBUTION    RADIAL
 FREQ.      3035.69        C  4 --  H 15          +58.1% ( 79.3%)    98.0%
 T-DIPOLE    0.1143        C  4 --  H 14          +36.6% ( 63.0%)    95.2%
 TRAVEL      0.1201        C  9 --  H 24           +1.2% ( 11.6%)   100.0%
 RED. MASS   0.5207        C  2 --  C  4           +1.1% ( 11.0%)     0.5%
 EFF. MASS   1.5389

 VIBRATION   62   62A       ATOM PAIR        ENERGY CONTRIBUTION    RADIAL
 FREQ.      3037.90        C  9 --  H 24          +92.8% ( 97.9%)   100.0%
 T-DIPOLE    0.2156        C  7 --  C  9           +1.5% ( 12.6%)    39.2%
 TRAVEL      0.1206        C  6 --  H 19           +1.4% ( 12.0%)    98.0%
 RED. MASS   0.8551        C  6 --  C  9           +1.4% ( 11.9%)    10.9%
 EFF. MASS   1.5273

 VIBRATION   63   63A       ATOM PAIR        ENERGY CONTRIBUTION    RADIAL
 FREQ.      3038.13        C  8 --  H 23          +96.2% ( 99.4%)   100.0%
 T-DIPOLE    0.2327        C  8 --  C 10           +1.4% ( 12.1%)    30.9%
 TRAVEL      0.1215        C  2 --  C  8           +1.3% ( 11.7%)    14.7%
 RED. MASS   0.9100        C 10 --  H 26           +0.9% (  9.4%)    95.0%
 EFF. MASS   1.5032

 VIBRATION   64   64A       ATOM PAIR        ENERGY CONTRIBUTION    RADIAL
 FREQ.      3069.95        C  6 --  H 21          +49.1% ( 72.3%)    97.1%
 T-DIPOLE    0.0240        C  6 --  H 20          +49.0% ( 72.2%)    97.0%
 TRAVEL      0.1210        C  6 --  C  9           +1.0% ( 10.2%)     0.0%
 RED. MASS   0.5093        C  6 --  H 19           +0.9% (  9.9%)     0.0%
 EFF. MASS   1.5011

 VIBRATION   65   65A       ATOM PAIR        ENERGY CONTRIBUTION    RADIAL
 FREQ.      3073.93        C  5 --  H 18          +69.3% ( 85.9%)    99.1%
 T-DIPOLE    0.0133        C  5 --  H 17          +16.6% ( 42.0%)    84.7%
 TRAVEL      0.1208        C  5 --  H 16          +12.8% ( 36.9%)    79.8%
 RED. MASS   0.5525        C  1 --  C  5           +1.0% ( 10.3%)     0.1%
 EFF. MASS   1.5038

 VIBRATION   66   66A       ATOM PAIR        ENERGY CONTRIBUTION    RADIAL
 FREQ.      3075.70        C  6 --  H 19          +62.7% ( 81.6%)    98.9%
 T-DIPOLE    0.0598        C  6 --  H 20          +17.2% ( 42.7%)    85.0%
 TRAVEL      0.1206        C  6 --  H 21          +17.0% ( 42.5%)    84.8%
 RED. MASS   0.4792        C  9 --  H 24           +2.0% ( 14.4%)   100.0%
 EFF. MASS   1.5085

 VIBRATION   67   67A       ATOM PAIR        ENERGY CONTRIBUTION    RADIAL
 FREQ.      3084.74        C  5 --  H 16          +50.7% ( 73.4%)    97.3%
 T-DIPOLE    0.0195        C  5 --  H 17          +47.2% ( 70.9%)    96.8%
 TRAVEL      0.1204        C  5 --  H 18           +1.1% ( 10.7%)     2.7%
 RED. MASS   0.5097        C  1 --  C  5           +1.0% ( 10.4%)     0.0%
 EFF. MASS   1.5082

 VIBRATION   68   68A       ATOM PAIR        ENERGY CONTRIBUTION    RADIAL
 FREQ.      3102.09        C  4 --  H 14          +60.9% ( 77.4%)    98.4%
 T-DIPOLE    0.0823        C  4 --  H 15          +37.0% ( 60.4%)    95.0%
 TRAVEL      0.1300        C  2 --  C  4           +0.7% (  8.3%)    97.9%
 RED. MASS   0.5083        C  1 --  C  4           +0.7% (  8.2%)    48.3%
 EFF. MASS   1.2860

 VIBRATION   69   69A       ATOM PAIR        ENERGY CONTRIBUTION    RADIAL
 FREQ.      3134.92        C 10 --  H 25          +91.1% ( 97.2%)    99.8%
 T-DIPOLE    0.1930        C 10 --  H 26           +7.6% ( 28.1%)    73.4%
 TRAVEL      0.1181        C  8 --  C 10           +1.3% ( 11.7%)    20.9%
 RED. MASS   0.8428
 EFF. MASS   1.5416

 VIBRATION   70   70A       ATOM PAIR        ENERGY CONTRIBUTION    RADIAL
 FREQ.      3146.75        C 10 --  H 26          +91.1% ( 96.1%)    99.7%
 T-DIPOLE    0.2557        C 10 --  H 25           +6.5% ( 25.7%)    46.2%
 TRAVEL      0.1210        C  8 --  C 10           +1.6% ( 12.7%)    74.6%
 RED. MASS   0.8073        C  8 --  H 23           +0.7% (  8.6%)    94.4%
 EFF. MASS   1.4624

 VIBRATION   71   71A       ATOM PAIR        ENERGY CONTRIBUTION    RADIAL
 FREQ.      3169.58        C  6 --  H 19          +34.5% ( 56.5%)    97.2%
 T-DIPOLE    0.0742        C  6 --  H 20          +32.6% ( 55.0%)    97.1%
 TRAVEL      0.1366        C  6 --  H 21          +32.6% ( 55.0%)    97.0%
 RED. MASS   0.3272        C  6 --  C  9           +0.3% (  5.4%)   100.0%
 EFF. MASS   1.1395

 VIBRATION   72   72A       ATOM PAIR        ENERGY CONTRIBUTION    RADIAL
 FREQ.      3176.22        C  5 --  H 16          +36.1% ( 57.8%)    97.5%
 T-DIPOLE    0.0346        C  5 --  H 17          +35.6% ( 57.5%)    97.4%
 TRAVEL      0.1366        C  5 --  H 18          +28.0% ( 50.9%)    96.0%
 RED. MASS   0.3304        C  1 --  C  5           +0.3% (  5.2%)    98.8%
 EFF. MASS   1.1377

 SYMMETRY NUMBER FOR POINT-GROUP C1  =  1


          SYSTEM IS A GROUND STATE


    NULL



          MOLECULE IS NOT LINEAR

          THERE ARE 72 GENUINE VIBRATIONS IN THIS SYSTEM
          THIS THERMODYNAMICS CALCULATION IS LIMITED TO
          MOLECULES WHICH HAVE NO INTERNAL ROTATIONS




                    CALCULATED THERMODYNAMIC PROPERTIES
                                          *
   TEMP. (K)   PARTITION FUNCTION   H.O.F.    ENTHALPY  HEAT CAPACITY ENTROPY
                                   KCAL/MOL   CAL/MOLE    CAL/K/MOL  CAL/K/MOL


 298.00  VIB.     0.3267D+04                  5372.3572    36.3539    34.1076
         ROT.     0.9549D+06                   888.2813     2.9808    30.3433
         INT.     0.3119D+10                  6260.6385    39.3347    64.4509
         TRA.     0.1537D+28                  1480.4688     4.9680    40.6375
         TOT.                       16.458    7741.1073    44.3027   105.0884

 200.00  VIB.     0.1641D+03                  2445.4365    23.8170    22.3632
         ROT.     0.5250D+06                   596.1620     2.9808    29.1547
         INT.     0.8617D+08                  3041.5984    26.7978    51.5179
         TRA.     0.8452D+27                   993.6033     4.9680    38.6564
         TOT.                       12.752    4035.2017    31.7659    90.1742

 210.00  VIB.     0.2232D+03                  2689.3224    24.9654    23.5529
         ROT.     0.5649D+06                   625.9700     2.9808    29.3001
         INT.     0.1261D+09                  3315.2925    27.9462    52.8530
         TRA.     0.9094D+27                  1043.2834     4.9680    38.8988
         TOT.                       13.075    4358.5759    32.9142    91.7518

 220.00  VIB.     0.3032D+03                  2944.8520    26.1460    24.7414
         ROT.     0.6057D+06                   655.7781     2.9808    29.4388
         INT.     0.1837D+09                  3600.6301    29.1268    54.1802
         TRA.     0.9752D+27                  1092.9636     4.9680    39.1299
         TOT.                       13.410    4693.5937    34.0948    93.3101

 230.00  VIB.     0.4117D+03                  3212.3524    27.3596    25.9303
         ROT.     0.6475D+06                   685.5862     2.9808    29.5713
         INT.     0.2666D+09                  3897.9386    30.3404    55.5016
         TRA.     0.1042D+28                  1142.6437     4.9680    39.3507
         TOT.                       13.757    5040.5823    35.3084    94.8523

 240.00  VIB.     0.5587D+03                  3492.1525    28.6058    27.1209
         ROT.     0.6901D+06                   715.3943     2.9808    29.6981
         INT.     0.3856D+09                  4207.5468    31.5866    56.8191
         TRA.     0.1111D+28                  1192.3239     4.9680    39.5621
         TOT.                       14.117    5399.8707    36.5546    96.3812

 250.00  VIB.     0.7579D+03                  3784.5708    29.8829    28.3145
         ROT.     0.7337D+06                   745.2024     2.9808    29.8198
         INT.     0.5561D+09                  4529.7733    32.8637    58.1343
         TRA.     0.1181D+28                  1242.0041     4.9680    39.7650
         TOT.                       14.489    5771.7773    37.8317    97.8992

 260.00  VIB.     0.1028D+04                  4089.9062    31.1887    29.5119
         ROT.     0.7782D+06                   775.0105     2.9808    29.9367
         INT.     0.7997D+09                  4864.9168    34.1695    59.4486
         TRA.     0.1253D+28                  1291.6842     4.9680    39.9598
         TOT.                       14.874    6156.6010    39.1375    99.4084

 270.00  VIB.     0.1393D+04                  4408.4303    32.5201    30.7138
         ROT.     0.8235D+06                   804.8186     2.9808    30.0492
         INT.     0.1147D+10                  5213.2489    35.5009    60.7630
         TRA.     0.1326D+28                  1341.3644     4.9680    40.1473
         TOT.                       15.272    6554.6133    40.4689   100.9103

 280.00  VIB.     0.1889D+04                  4740.3820    33.8736    31.9209
         ROT.     0.8697D+06                   834.6267     2.9808    30.1576
         INT.     0.1643D+10                  5575.0087    36.8545    62.0785
         TRA.     0.1400D+28                  1391.0445     4.9680    40.3280
         TOT.                       15.683    6966.0533    41.8225   102.4065

 290.00  VIB.     0.2561D+04                  5085.9646    35.2456    33.1335
         ROT.     0.9167D+06                   864.4348     2.9808    30.2622
         INT.     0.2347D+10                  5950.3994    38.2264    63.3957
         TRA.     0.1476D+28                  1440.7247     4.9680    40.5023
         TOT.                       16.108    7391.1241    43.1945   103.8980

 300.00  VIB.     0.3472D+04                  5445.3432    36.6322    34.3517
         ROT.     0.9645D+06                   894.2429     2.9808    30.3633
         INT.     0.3349D+10                  6339.5861    39.6130    64.7149
         TRA.     0.1553D+28                  1490.4049     4.9680    40.6707
         TOT.                       16.547    7829.9910    44.5810   105.3857

 310.00  VIB.     0.4708D+04                  5818.6445    38.0295    35.5756
         ROT.     0.1013D+07                   924.0510     2.9808    30.4610
         INT.     0.4770D+10                  6742.6955    41.0103    66.0366
         TRA.     0.1631D+28                  1540.0850     4.9680    40.8336
         TOT.                       17.000    8282.7805    45.9783   106.8702

 320.00  VIB.     0.6386D+04                  6205.9569    39.4338    36.8051
         ROT.     0.1063D+07                   953.8591     2.9808    30.5556
         INT.     0.6785D+10                  7159.8161    42.4146    67.3608
         TRA.     0.1711D+28                  1589.7652     4.9680    40.9914
         TOT.                       17.466    8749.5813    47.3827   108.3522

 330.00  VIB.     0.8664D+04                  6607.3323    40.8415    38.0401
         ROT.     0.1113D+07                   983.6672     2.9808    30.6474
         INT.     0.9641D+10                  7590.9995    43.8223    68.6875
         TRA.     0.1791D+28                  1639.4454     4.9680    41.1442
         TOT.                       17.947    9230.4448    48.7903   109.8317

 340.00  VIB.     0.1176D+05                  7022.7872    42.2492    39.2803
         ROT.     0.1164D+07                  1013.4753     2.9808    30.7364
         INT.     0.1369D+11                  8036.2625    45.2300    70.0166
         TRA.     0.1874D+28                  1689.1255     4.9680    41.2926
         TOT.                       18.442    9725.3880    50.1980   111.3092

 350.00  VIB.     0.1597D+05                  7452.3057    43.6537    40.5253
         ROT.     0.1215D+07                  1043.2834     2.9808    30.8228
         INT.     0.1941D+11                  8495.5891    46.6346    71.3480
         TRA.     0.1957D+28                  1738.8057     4.9680    41.4366
         TOT.                       18.951   10234.3948    51.6026   112.7846

 360.00  VIB.     0.2169D+05                  7895.8420    45.0523    41.7746
         ROT.     0.1268D+07                  1073.0915     2.9808    30.9067
         INT.     0.2750D+11                  8968.9335    48.0331    72.6814
         TRA.     0.2041D+28                  1788.4859     4.9680    41.5765
         TOT.                       19.474   10757.4194    53.0011   114.2579

 370.00  VIB.     0.2948D+05                  8353.3228    46.4422    43.0280
         ROT.     0.1321D+07                  1102.8996     2.9808    30.9884
         INT.     0.3895D+11                  9456.2224    49.4231    74.0164
         TRA.     0.2127D+28                  1838.1660     4.9680    41.7126
         TOT.                       20.011   11294.3884    54.3911   115.7290

 380.00  VIB.     0.4009D+05                  8824.6506    47.8213    44.2849
         ROT.     0.1375D+07                  1132.7077     2.9808    31.0679
         INT.     0.5512D+11                  9957.3583    50.8021    75.3528
         TRA.     0.2214D+28                  1887.8462     4.9680    41.8451
         TOT.                       20.562   11845.2045    55.7701   117.1979

 390.00  VIB.     0.5454D+05                  9309.7062    49.1875    45.5447
         ROT.     0.1430D+07                  1162.5158     2.9808    31.1453
         INT.     0.7797D+11                 10472.2220    52.1683    76.6901
         TRA.     0.2302D+28                  1937.5263     4.9680    41.9742
         TOT.                       21.127   12409.7484    57.1363   118.6642

 400.00  VIB.     0.7423D+05                  9808.3518    50.5390    46.8071
         ROT.     0.1485D+07                  1192.3239     2.9808    31.2208
         INT.     0.1102D+12                 11000.6757    53.5199    78.0279
         TRA.     0.2391D+28                  1987.2065     4.9680    42.1000
         TOT.                       21.705   12987.8822    58.4879   120.1279

   *: NOTE: HEATS OF FORMATION ARE RELATIVE TO THE
            ELEMENTS IN THEIR STANDARD STATE AT 298K
              (=  Standard Enthalpy of Formation).

            Hvib:  Zero-point energy is not included.
                   frequencies of less than zero cm-1 are not included.
            Hrot = (3/2)RT
            Htra = (3/2)RT + pV = (5/2)RT

            Heat capacity is Cp, not Cv

           For more information, see: HTTP://OpenMOPAC.net/Manual/thermochemistry.html


           FORCE CONSTANT IN CARTESIAN COORDINATES (Millidynes/A)

    ATOM   CHEMICAL       X               Y               Z
   NUMBER   SYMBOL  FORCE CONSTANT  FORCE CONSTANT  FORCE CONSTANT

      1       C        7.748984        8.069357        8.879590
      2       C        7.806700        7.688248        9.376204
      3       C        8.036960        7.687320        9.328739
      4       C        7.851836        7.872071        8.655011
      5       C        8.400379        8.418373        8.330394
      6       C        8.306868        8.268925        8.878731
      7       C        9.368273        8.691050        9.361487
      8       C        9.340061        8.823446        9.208030
      9       C        9.225966        8.538982        9.432336
     10       C        9.004225        8.466671        9.037563
     11       H        1.373594        1.258584        3.634229
     12       H        1.256034        1.381856        3.626217
     13       H        1.371513        1.366240        3.530606
     14       H        1.570525        1.573423        3.493433
     15       H        1.384515        1.365770        3.871300
     16       H        0.800304        5.245498        0.708006
     17       H        5.266300        0.783257        0.699838
     18       H        1.368888        1.288852        4.094282
     19       H        1.353399        1.307232        4.110212
     20       H        0.732242        5.252438        0.678307
     21       H        5.168348        0.815168        0.680238
     22       H        1.045837        0.998067        4.155056
     23       H        1.095465        1.011638        4.107385
     24       H        1.043863        0.994039        4.181797
     25       H        1.193889        1.095055        4.181075
     26       H        1.304184        1.263061        3.913482



 TOTAL CPU TIME:             5.10 SECONDS

 == MOPAC DONE ==
