 *******************************************************************************
 ** Site#: 14399           For non-commercial use only        Version 13.159M **
 *******************************************************************************
 ** Cite this work as: MOPAC2012, James J. P. Stewart, Stewart Computational  **
 ** Chemistry, Version 13.159M web: HTTP://OpenMOPAC.net  Days remaining:   6 **
 *******************************************************************************
 **                                                                           **
 **                                MOPAC2012                                  **
 **                                                                           **
 *******************************************************************************

                            PM3 CALCULATION RESULTS


 *******************************************************************************
 *  CALCULATION DONE:                                Mon Jun  2 11:04:38 2014  *
 *  PM3      - The PM3 Hamiltonian to be used
 *  PRECISE  - CRITERIA TO BE INCREASED BY 100 TIMES
 *  NOSYM    - POINT-GROUP SYMMETRY SET TO C1
 *  T=       - A TIME OF 172800.0 SECONDS REQUESTED
 *  DUMP=N   - RESTART FILE WRITTEN EVERY  7200.000 SECONDS
 *******************************************************************************
pm3  precise nosym
 InChI=1S/C5H8/c1-2-4-5-3-1/h1-2H,3-5H2

   ATOM   CHEMICAL          X               Y               Z
  NUMBER   SYMBOL      (ANGSTROMS)     (ANGSTROMS)     (ANGSTROMS)
 
     1       C         -0.21700000  *  -0.97170000  *   0.50070000  *
     2       C         -1.24320000  *   0.07110000  *   0.05460000  *
     3       C          1.16350000  *  -0.42800000  *   0.12930000  *
     4       C         -0.41960000  *   1.15310000  *  -0.54510000  *
     5       C          0.87470000  *   0.88470000  *  -0.50490000  *
     6       H         -0.40370000  *  -1.94750000  *  -0.00580000  *
     7       H         -0.28730000  *  -1.14620000  *   1.59980000  *
     8       H         -1.94220000  *  -0.33880000  *  -0.71020000  *
     9       H         -1.82430000  *   0.47290000  *   0.91620000  *
    10       H          1.80410000  *  -0.27950000  *   1.02880000  *
    11       H          1.68620000  *  -1.09120000  *  -0.59760000  *
    12       H         -0.83000000  *   2.06650000  *  -0.97120000  *
    13       H          1.63880000  *   1.55450000  *  -0.89460000  *
 


          CARTESIAN COORDINATES 

    NO.       ATOM         X         Y         Z

     1         C       -0.2170   -0.9717    0.5007
     2         C       -1.2432    0.0711    0.0546
     3         C        1.1635   -0.4280    0.1293
     4         C       -0.4196    1.1531   -0.5451
     5         C        0.8747    0.8847   -0.5049
     6         H       -0.4037   -1.9475   -0.0058
     7         H       -0.2873   -1.1462    1.5998
     8         H       -1.9422   -0.3388   -0.7102
     9         H       -1.8243    0.4729    0.9162
    10         H        1.8041   -0.2795    1.0288
    11         H        1.6862   -1.0912   -0.5976
    12         H       -0.8300    2.0665   -0.9712
    13         H        1.6388    1.5545   -0.8946

  H: (PM3): J. J. P. STEWART, J. COMP. CHEM. 10, 209 (1989).
  C: (PM3): J. J. P. STEWART, J. COMP. CHEM. 10, 209 (1989).

           Empirical Formula: C5 H8  =    13 atoms



      MOLECULAR POINT GROUP   :   C1  


      RHF CALCULATION, NO. OF DOUBLY OCCUPIED LEVELS =   14

      Geometry optimization using EF

          DIAGONAL MATRIX USED AS START HESSIAN

 CYCLE:     1 TIME:   0.003 TIME LEFT:  2.00D  GRAD.:    49.639 HEAT: 4.463412
 CYCLE:     2 TIME:   0.006 TIME LEFT:  2.00D  GRAD.:    39.078 HEAT: 3.980686
 CYCLE:     3 TIME:   0.003 TIME LEFT:  2.00D  GRAD.:    27.053 HEAT: 3.626447
 CYCLE:     4 TIME:   0.002 TIME LEFT:  2.00D  GRAD.:    35.284 HEAT: 3.514106
 CYCLE:     5 TIME:   0.004 TIME LEFT:  2.00D  GRAD.:    17.628 HEAT: 3.204135
 CYCLE:     6 TIME:   0.004 TIME LEFT:  2.00D  GRAD.:    12.993 HEAT: 3.132371
 CYCLE:     7 TIME:   0.002 TIME LEFT:  2.00D  GRAD.:    11.381 HEAT: 3.072717
 CYCLE:     8 TIME:   0.002 TIME LEFT:  2.00D  GRAD.:    16.417 HEAT: 3.072090
 CYCLE:     9 TIME:   0.004 TIME LEFT:  2.00D  GRAD.:     7.391 HEAT: 3.001293
 CYCLE:    10 TIME:   0.006 TIME LEFT:  2.00D  GRAD.:     5.085 HEAT: 2.986832
 CYCLE:    11 TIME:   0.004 TIME LEFT:  2.00D  GRAD.:     3.705 HEAT: 2.972409
 CYCLE:    12 TIME:   0.003 TIME LEFT:  2.00D  GRAD.:     5.409 HEAT: 2.967867
 CYCLE:    13 TIME:   0.002 TIME LEFT:  2.00D  GRAD.:     3.397 HEAT: 2.962202
 CYCLE:    14 TIME:   0.002 TIME LEFT:  2.00D  GRAD.:     5.380 HEAT: 2.967291
 CYCLE:    15 TIME:   0.003 TIME LEFT:  2.00D  GRAD.:     1.525 HEAT: 2.958873
 CYCLE:    16 TIME:   0.003 TIME LEFT:  2.00D  GRAD.:     3.993 HEAT: 2.962156
 CYCLE:    17 TIME:   0.002 TIME LEFT:  2.00D  GRAD.:     0.425 HEAT: 2.958197
 CYCLE:    18 TIME:   0.002 TIME LEFT:  2.00D  GRAD.:     0.474 HEAT: 2.958146
 CYCLE:    19 TIME:   0.002 TIME LEFT:  2.00D  GRAD.:     0.200 HEAT: 2.958028
 CYCLE:    20 TIME:   0.002 TIME LEFT:  2.00D  GRAD.:     0.196 HEAT: 2.957946
 CYCLE:    21 TIME:   0.002 TIME LEFT:  2.00D  GRAD.:     0.298 HEAT: 2.957913
 CYCLE:    22 TIME:   0.002 TIME LEFT:  2.00D  GRAD.:     0.122 HEAT: 2.957884
 CYCLE:    23 TIME:   0.003 TIME LEFT:  2.00D  GRAD.:     0.070 HEAT: 2.957879
 CYCLE:    24 TIME:   0.003 TIME LEFT:  2.00D  GRAD.:     0.031 HEAT: 2.957875

     RMS GRADIENT =  0.03068  IS LESS THAN CUTOFF =  0.05000



 -------------------------------------------------------------------------------
pm3  precise nosym
 InChI=1S/C5H8/c1-2-4-5-3-1/h1-2H,3-5H2



     GEOMETRY OPTIMISED USING EIGENVECTOR FOLLOWING (EF).     
     SCF FIELD WAS ACHIEVED                                   


                              PM3 CALCULATION
                                                       MOPAC2012 (Version: 13.159M)
                                                       Mon Jun  2 11:04:38 2014
                                                       No. of days left =   6




          FINAL HEAT OF FORMATION =          2.95788 KCAL/MOL =      12.37575 KJ/MOL


          TOTAL ENERGY            =       -715.73524 EV
          ELECTRONIC ENERGY       =      -2851.24073 EV  POINT GROUP:     C1  
          CORE-CORE REPULSION     =       2135.50549 EV
          COSMO AREA              =        114.00 SQUARE ANGSTROMS
          COSMO VOLUME            =        101.15 CUBIC ANGSTROMS

          GRADIENT NORM           =          0.03068
          IONIZATION POTENTIAL    =          9.524491 EV
          HOMO LUMO ENERGIES (EV) =         -9.524  1.135
          NO. OF FILLED LEVELS    =         14
          MOLECULAR WEIGHT        =         68.118

          MOLECULAR DIMENSIONS (Angstroms)

            Atom       Atom       Distance
            H    12    H     6     4.16497
            H    10    H     8     4.05964
            H     9    H    11     3.01354


          SCF CALCULATIONS        =         31
          COMPUTATION TIME        =          0.084 SECONDS




   ATOM   CHEMICAL          X               Y               Z
  NUMBER   SYMBOL      (ANGSTROMS)     (ANGSTROMS)     (ANGSTROMS)
 
     1       C         -0.21904406  *  -0.98061399  *   0.50533207  *
     2       C         -1.24108656  *   0.07390381  *   0.05297916  *
     3       C          1.16274161  *  -0.42459004  *   0.12759228  *
     4       C         -0.42374339  *   1.16971490  *  -0.55297891  *
     5       C          0.88559563  *   0.89811917  *  -0.51243922  *
     6       H         -0.40584606  *  -1.95451816  *   0.01907303  *
     7       H         -0.29186085  *  -1.16949131  *   1.59108249  *
     8       H         -1.96035251  *  -0.33111963  *  -0.68228917  *
     9       H         -1.84631466  *   0.45599946  *   0.89541786  *
    10       H          1.81867017  *  -0.30384561  *   1.00918794  *
    11       H          1.70434922  *  -1.09116428  *  -0.56836559  *
    12       H         -0.89121563  *   2.06332792  *  -0.96496216  *
    13       H          1.69323958  *   1.52715301  *  -0.88501960  *

           Empirical Formula: C5 H8  =    13 atoms



      MOLECULAR POINT GROUP   :   C1  


                  EIGENVALUES  
 -39.69942 -28.05482 -27.95632 -20.17243 -18.44192 -17.51808 -16.29994 -13.73264
 -13.53772 -12.89876 -12.76310 -12.58494 -12.02787  -9.52449   1.13507   3.45006
   3.62400   3.76945   3.86001   3.97018   4.17894   4.30684   4.32340   4.53754
   5.06216   5.20280   5.60241   6.00285


              NET ATOMIC CHARGES AND DIPOLE CONTRIBUTIONS

  ATOM NO.   TYPE          CHARGE      No. of ELECS.   s-Pop       p-Pop       
    1          C          -0.098424        4.0984     1.16592     2.93251
    2          C          -0.064696        4.0647     1.15411     2.91059
    3          C          -0.064719        4.0647     1.15411     2.91061
    4          C          -0.155373        4.1554     1.20240     2.95298
    5          C          -0.155374        4.1554     1.20239     2.95298
    6          H           0.049265        0.9507     0.95074
    7          H           0.049250        0.9507     0.95075
    8          H           0.054850        0.9451     0.94515
    9          H           0.054849        0.9452     0.94515
   10          H           0.054847        0.9452     0.94515
   11          H           0.054851        0.9451     0.94515
   12          H           0.110340        0.8897     0.88966
   13          H           0.110334        0.8897     0.88967
 DIPOLE           X         Y         Z       TOTAL
 POINT-CHG.    -0.032    -0.142     0.073     0.162
 HYBRID         0.003     0.012    -0.006     0.014
 SUM           -0.029    -0.129     0.067     0.148


          ATOMIC ORBITAL ELECTRON POPULATIONS

    Atom      s        px        py        pz   
    1  C   1.16592   0.94958   0.97730   1.00562
    2  C   1.15411   0.96714   0.94903   0.99442
    3  C   1.15411   0.96369   0.95224   0.99468
    4  C   1.20240   0.95894   0.98675   1.00728
    5  C   1.20239   0.96818   0.97818   1.00661
    6  H   0.95074
    7  H   0.95075
    8  H   0.94515
    9  H   0.94515
   10  H   0.94515
   11  H   0.94515
   12  H   0.88966
   13  H   0.88967
 *******************************************************************************
 ** Site#: 14399           For non-commercial use only        Version 13.159M **
 *******************************************************************************
 ** Cite this work as: MOPAC2012, James J. P. Stewart, Stewart Computational  **
 ** Chemistry, Version 13.159M web: HTTP://OpenMOPAC.net  Days remaining:   6 **
 *******************************************************************************
 **                                                                           **
 **                                MOPAC2012                                  **
 **                                                                           **
 *******************************************************************************

                            PM3 CALCULATION RESULTS


 *******************************************************************************
 *  CALCULATION DONE:                                Mon Jun  2 11:04:38 2014  *
 *  PM3      - The PM3 Hamiltonian to be used
 *  OLDGEO   - PREVIOUS GEOMETRY TO BE USED
 *  PRECISE  - CRITERIA TO BE INCREASED BY 100 TIMES
 *  NOSYM    - POINT-GROUP SYMMETRY SET TO C1
 *  T=       - A TIME OF 172800.0 SECONDS REQUESTED
 *  DUMP=N   - RESTART FILE WRITTEN EVERY  7200.000 SECONDS
 *  THERMO   - THERMODYNAMIC QUANTITIES TO BE CALCULATED
 *******************************************************************************
oldgeo thermo nosym precise  pm3

   ATOM   CHEMICAL          X               Y               Z
  NUMBER   SYMBOL      (ANGSTROMS)     (ANGSTROMS)     (ANGSTROMS)
 
     1       C         -0.21904406  *  -0.98061399  *   0.50533207  *
     2       C         -1.24108656  *   0.07390381  *   0.05297916  *
     3       C          1.16274161  *  -0.42459004  *   0.12759228  *
     4       C         -0.42374339  *   1.16971490  *  -0.55297891  *
     5       C          0.88559563  *   0.89811917  *  -0.51243922  *
     6       H         -0.40584606  *  -1.95451816  *   0.01907303  *
     7       H         -0.29186085  *  -1.16949131  *   1.59108249  *
     8       H         -1.96035251  *  -0.33111963  *  -0.68228917  *
     9       H         -1.84631466  *   0.45599946  *   0.89541786  *
    10       H          1.81867017  *  -0.30384561  *   1.00918794  *
    11       H          1.70434922  *  -1.09116428  *  -0.56836559  *
    12       H         -0.89121563  *   2.06332792  *  -0.96496216  *
    13       H          1.69323958  *   1.52715301  *  -0.88501960  *
 


          CARTESIAN COORDINATES 

    NO.       ATOM         X         Y         Z

     1         C       -0.2190   -0.9806    0.5053
     2         C       -1.2411    0.0739    0.0530
     3         C        1.1627   -0.4246    0.1276
     4         C       -0.4237    1.1697   -0.5530
     5         C        0.8856    0.8981   -0.5124
     6         H       -0.4058   -1.9545    0.0191
     7         H       -0.2919   -1.1695    1.5911
     8         H       -1.9604   -0.3311   -0.6823
     9         H       -1.8463    0.4560    0.8954
    10         H        1.8187   -0.3038    1.0092
    11         H        1.7043   -1.0912   -0.5684
    12         H       -0.8912    2.0633   -0.9650
    13         H        1.6932    1.5272   -0.8850

  H: (PM3): J. J. P. STEWART, J. COMP. CHEM. 10, 209 (1989).
  C: (PM3): J. J. P. STEWART, J. COMP. CHEM. 10, 209 (1989).

           Empirical Formula: C5 H8  =    13 atoms



      MOLECULAR POINT GROUP   :   C1  


      RHF CALCULATION, NO. OF DOUBLY OCCUPIED LEVELS =   14



          HEAT OF FORMATION =       2.957875 KCALS/MOLE


          INTERNAL COORDINATE DERIVATIVES

   NUMBER  ATOM       BOND         ANGLE      DIHEDRAL

     1       C      0.003827    -0.010613     0.002271
     2       C      0.000296    -0.006265     0.001589
     3       C      0.001515    -0.006817     0.001825
     4       C      0.007417    -0.005301    -0.003194
     5       C     -0.002594    -0.004361     0.001834
     6       H     -0.007692     0.001811    -0.005444
     7       H      0.000804     0.010837     0.003633
     8       H      0.009072     0.007426    -0.002142
     9       H     -0.003141    -0.000890     0.002036
    10       H     -0.003404     0.002964    -0.001611
    11       H     -0.004357     0.010263    -0.003874
    12       H      0.001080     0.005680    -0.001012
    13       H     -0.002824    -0.004733     0.004088


          GRADIENT NORM =   0.03119


          TIME FOR SCF CALCULATION =    0.00

          TIME FOR DERIVATIVES     =    0.00

          MOLECULAR WEIGHT =   68.12



          ROTATIONAL CONSTANTS IN CM(-1)

          A =    0.24447826   B =    0.24314456   C =    0.13081358



           PRINCIPAL MOMENTS OF INERTIA IN UNITS OF 10**(-40)*GRAM-CM**2

          A =      114.5001   B =      115.1281   C =      213.9898


          ORIENTATION OF MOLECULE IN FORCE CALCULATION

    NO.       ATOM         X         Y         Z

     1          C      -0.7574   -1.0070    0.0001
     2          C       0.7793   -1.0070    0.0001
     3          C      -1.1836    0.4693    0.0001
     4          C       1.1660    0.4375   -0.0002
     5          C       0.0968    1.2416   -0.0001
     6          H      -1.1583   -1.5400    0.8804
     7          H      -1.1582   -1.5398   -0.8804
     8          H       1.1962   -1.5242    0.8836
     9          H       1.1960   -1.5248   -0.8832
    10          H      -1.7966    0.7262   -0.8833
    11          H      -1.7964    0.7263    0.8835
    12          H       2.2115    0.7438   -0.0004
    13          H       0.1010    2.3310   -0.0001


    FIRST DERIVATIVES WILL BE USED IN THE CALCULATION OF SECOND DERIVATIVES

          ESTIMATED TIME TO COMPLETE CALCULATION =        0.71 SECONDS

    FOR POINT-GROUP C1   THERE ARE   1 UNIQUE SYMMETRY FUNCTIONS.

 STEP:   1 TIME =     0.01 SECS, INTEGRAL =      0.01 TIME LEFT: 172799.98
 STEP:   2 TIME =     0.01 SECS, INTEGRAL =      0.03 TIME LEFT: 172799.97
 STEP:   3 TIME =     0.01 SECS, INTEGRAL =      0.04 TIME LEFT: 172799.96
 STEP:   4 TIME =     0.01 SECS, INTEGRAL =      0.05 TIME LEFT: 172799.95
 STEP:   5 TIME =     0.02 SECS, INTEGRAL =      0.06 TIME LEFT: 172799.93
 STEP:   6 TIME =     0.01 SECS, INTEGRAL =      0.08 TIME LEFT: 172799.92
 STEP:   7 TIME =     0.01 SECS, INTEGRAL =      0.09 TIME LEFT: 172799.91
 STEP:   8 TIME =     0.01 SECS, INTEGRAL =      0.10 TIME LEFT: 172799.89
 STEP:   9 TIME =     0.01 SECS, INTEGRAL =      0.11 TIME LEFT: 172799.88
 STEP:  10 TIME =     0.01 SECS, INTEGRAL =      0.12 TIME LEFT: 172799.87
 STEP:  11 TIME =     0.01 SECS, INTEGRAL =      0.14 TIME LEFT: 172799.86
 STEP:  12 TIME =     0.01 SECS, INTEGRAL =      0.15 TIME LEFT: 172799.85
 STEP:  13 TIME =     0.01 SECS, INTEGRAL =      0.16 TIME LEFT: 172799.84
 STEP:  14 TIME =     0.01 SECS, INTEGRAL =      0.17 TIME LEFT: 172799.83
 STEP:  15 TIME =     0.01 SECS, INTEGRAL =      0.18 TIME LEFT: 172799.82
 STEP:  16 TIME =     0.01 SECS, INTEGRAL =      0.19 TIME LEFT: 172799.80
 STEP:  17 TIME =     0.01 SECS, INTEGRAL =      0.21 TIME LEFT: 172799.79
 STEP:  18 TIME =     0.01 SECS, INTEGRAL =      0.22 TIME LEFT: 172799.78
 STEP:  19 TIME =     0.01 SECS, INTEGRAL =      0.23 TIME LEFT: 172799.77
 STEP:  20 TIME =     0.01 SECS, INTEGRAL =      0.24 TIME LEFT: 172799.76
 STEP:  21 TIME =     0.01 SECS, INTEGRAL =      0.25 TIME LEFT: 172799.75
 STEP:  22 TIME =     0.01 SECS, INTEGRAL =      0.26 TIME LEFT: 172799.74
 STEP:  23 TIME =     0.01 SECS, INTEGRAL =      0.27 TIME LEFT: 172799.72
 STEP:  24 TIME =     0.01 SECS, INTEGRAL =      0.28 TIME LEFT: 172799.71
 STEP:  25 TIME =     0.01 SECS, INTEGRAL =      0.29 TIME LEFT: 172799.70
 STEP:  26 TIME =     0.01 SECS, INTEGRAL =      0.30 TIME LEFT: 172799.69
 STEP:  27 TIME =     0.01 SECS, INTEGRAL =      0.31 TIME LEFT: 172799.68
 STEP:  28 TIME =     0.01 SECS, INTEGRAL =      0.32 TIME LEFT: 172799.67
 STEP:  29 TIME =     0.01 SECS, INTEGRAL =      0.33 TIME LEFT: 172799.66
 STEP:  30 TIME =     0.01 SECS, INTEGRAL =      0.35 TIME LEFT: 172799.65
 STEP:  31 TIME =     0.01 SECS, INTEGRAL =      0.36 TIME LEFT: 172799.64
 STEP:  32 TIME =     0.01 SECS, INTEGRAL =      0.37 TIME LEFT: 172799.63
 STEP:  33 TIME =     0.01 SECS, INTEGRAL =      0.38 TIME LEFT: 172799.62
 STEP:  34 TIME =     0.01 SECS, INTEGRAL =      0.39 TIME LEFT: 172799.61
 STEP:  35 TIME =     0.01 SECS, INTEGRAL =      0.40 TIME LEFT: 172799.60
 STEP:  36 TIME =     0.01 SECS, INTEGRAL =      0.41 TIME LEFT: 172799.59
 STEP:  37 TIME =     0.01 SECS, INTEGRAL =      0.42 TIME LEFT: 172799.58
 STEP:  38 TIME =     0.01 SECS, INTEGRAL =      0.43 TIME LEFT: 172799.57
 STEP:  39 TIME =     0.01 SECS, INTEGRAL =      0.44 TIME LEFT: 172799.56

(To convert to Hartree/Bohr^2, multiply by (10^(-21) x N x a0^2)/(4.184 x 627.51) = 0.0642)


           FORCE MATRIX IN MILLIDYNES/ANGSTROM


                  C  1       C  2       C  3       C  4       C  5       H  6
 ------------------------------------------------------------------------------
     C    1  14.253441
     C    2   3.747187  14.657200
     C    3   3.747664   0.740605  14.665886
     C    4   0.884766   4.722873   1.183790  18.369331
     C    5   0.884641   1.182925   4.726098  10.568828  18.378025
     H    6   4.575919   0.440651   0.440402   0.027820   0.027817   5.183377
     H    7   4.575875   0.440683   0.440475   0.027865   0.027841   0.585265
     H    8   0.436678   4.522863   0.027795   0.430289   0.038226   0.029135
     H    9   0.436679   4.523010   0.027907   0.430377   0.038258   0.027384
     H   10   0.436681   0.028263   4.522874   0.038277   0.430165   0.027393
     H   11   0.436666   0.028166   4.523019   0.038261   0.430156   0.029136
     H   12   0.042905   0.412353   0.115338   5.025050   0.449293   0.002994
     H   13   0.042913   0.115467   0.412381   0.449905   5.025332   0.003005


                  H  7       H  8       H  9       H 10       H 11       H 12
 ------------------------------------------------------------------------------
     H    7   5.183276
     H    8   0.027400   5.130004
     H    9   0.029135   0.573893   5.130093
     H   10   0.029128   0.004135   0.001210   5.129711
     H   11   0.027402   0.001199   0.004139   0.574015   5.129922
     H   12   0.002994   0.014455   0.014443   0.015815   0.015824   5.421771
     H   13   0.003004   0.015762   0.015769   0.014471   0.014481   0.047900


                  H 13
 ------------------
     H   13   5.422168


          HEAT OF FORMATION =       2.957875 KCALS/MOLE

          ZERO POINT ENERGY      72.401 KCAL/MOL


           NORMAL COORDINATE ANALYSIS (Total motion = 1 Angstrom)


   Root No.       1         2         3         4         5         6         7         8

                 1 A       2 A       3 A       4 A       5 A       6 A       7 A       8 A   

                 126.4     366.9     690.9     719.7     773.4     807.7     852.0     981.2
  
           1    0.0000    0.0000    0.0512    0.0000    0.0457    0.0000    0.0000    0.0000
           2    0.0000    0.0000    0.0681    0.0000   -0.0344    0.0000    0.0000    0.0000
           3    0.0423    0.0000    0.0000   -0.0077    0.0000    0.0286    0.0000    0.0000
           4    0.0000    0.0000    0.0654    0.0000   -0.0004    0.0000    0.0000    0.0000
           5    0.0000    0.0000   -0.0479    0.0000   -0.0704    0.0000    0.0000    0.0000
           6   -0.0375   -0.0182    0.0000   -0.0140    0.0000    0.0069   -0.0339    0.0142
           7    0.0000    0.0000   -0.0641    0.0000    0.0675    0.0000    0.0000    0.0000
           8    0.0000    0.0000    0.0495    0.0000    0.0199    0.0000    0.0000    0.0000
           9   -0.0376    0.0181    0.0000   -0.0140    0.0000    0.0068    0.0339   -0.0141
          10    0.0000    0.0000   -0.0265    0.0000   -0.1175    0.0000    0.0000    0.0000
          11    0.0000    0.0000   -0.0414    0.0000   -0.0232    0.0000    0.0000    0.0000
          12    0.0187    0.0623    0.0000   -0.0098    0.0000   -0.0221   -0.0006   -0.0370
          13    0.0000    0.0000   -0.0324    0.0000   -0.0102    0.0000    0.0000    0.0000
          14    0.0000    0.0000   -0.0369    0.0000    0.1194    0.0000    0.0000    0.0000
          15    0.0187   -0.0622    0.0000   -0.0098   -0.0001   -0.0221    0.0005    0.0369
          16    0.0514    0.0111    0.0589    0.0478    0.0160   -0.0798    0.0622   -0.0660
          17    0.0684   -0.0083    0.0784    0.0635   -0.0119   -0.1060   -0.0469    0.0497
          18    0.1076    0.0001    0.0068    0.0554    0.0001   -0.0769   -0.0001    0.0000
          19   -0.0514   -0.0111    0.0591   -0.0477    0.0159    0.0799   -0.0622    0.0661
          20   -0.0684    0.0083    0.0787   -0.0634   -0.0122    0.1060    0.0469   -0.0498
          21    0.1076    0.0001   -0.0071    0.0554    0.0002   -0.0769   -0.0001    0.0000
          22    0.0475    0.0182    0.0606   -0.0402    0.0398    0.0695   -0.0572    0.0943
          23   -0.0546   -0.0908   -0.0632    0.0810   -0.0529   -0.0050    0.0992    0.0141
          24   -0.0925   -0.0818   -0.0051    0.0560   -0.0058   -0.0310    0.0553   -0.0241
          25   -0.0475   -0.0182    0.0604    0.0403    0.0400   -0.0695    0.0572   -0.0943
          26    0.0546    0.0908   -0.0629   -0.0811   -0.0531    0.0050   -0.0992   -0.0141
          27   -0.0925   -0.0818    0.0048    0.0560    0.0060   -0.0310    0.0554   -0.0240
          28    0.0657   -0.0923   -0.0773   -0.0891    0.0620    0.0238    0.1111   -0.0123
          29   -0.0305   -0.0078    0.0405    0.0162   -0.0237   -0.0655   -0.0275    0.0948
          30   -0.0926    0.0817    0.0049    0.0560   -0.0059   -0.0309   -0.0554    0.0240
          31   -0.0658    0.0923   -0.0776    0.0890    0.0621   -0.0238   -0.1112    0.0123
          32    0.0305    0.0078    0.0406   -0.0162   -0.0236    0.0655    0.0275   -0.0948
          33   -0.0926    0.0817   -0.0051    0.0560    0.0060   -0.0309   -0.0554    0.0240
          34    0.0000    0.0000   -0.0462    0.0000   -0.1025    0.0000    0.0000    0.0000
          35    0.0000    0.0000    0.0272    0.0000   -0.0769    0.0000    0.0000    0.0000
          36    0.0501    0.1588   -0.0002    0.1625    0.0000    0.1508    0.1335    0.1694
          37    0.0000    0.0000    0.0390    0.0000    0.0450    0.0000    0.0000    0.0000
          38    0.0000    0.0000   -0.0368    0.0000    0.1198    0.0000    0.0000    0.0000
          39    0.0502   -0.1587   -0.0001    0.1626    0.0000    0.1510   -0.1330   -0.1691


   Root No.       9        10        11        12        13        14        15        16

                 9 A      10 A      11 A      12 A      13 A      14 A      15 A      16 A   

                 997.0    1002.6    1004.2    1064.6    1097.2    1103.0    1117.0    1120.1
  
           1    0.0185   -0.0004    0.0383    0.0000   -0.0085    0.0000    0.0000    0.0265
           2   -0.0146   -0.0005    0.0506    0.0000   -0.0110    0.0000    0.0000   -0.0199
           3    0.0000   -0.0240   -0.0003    0.0001    0.0000    0.0000    0.0560    0.0000
           4   -0.0201    0.0004   -0.0335    0.0000    0.0065    0.0000    0.0000   -0.0246
           5    0.0316    0.0000   -0.0004    0.0000   -0.0168    0.0000    0.0000   -0.0004
           6    0.0000    0.0319    0.0004   -0.0012    0.0000    0.0334   -0.0274    0.0000
           7   -0.0360    0.0000    0.0082    0.0000   -0.0178    0.0000    0.0000   -0.0064
           8    0.0111    0.0003   -0.0321    0.0000    0.0013    0.0000    0.0000    0.0237
           9    0.0001    0.0320    0.0003    0.0011    0.0001   -0.0333   -0.0274    0.0000
          10   -0.0056   -0.0001    0.0089    0.0000    0.0170    0.0000    0.0000    0.0062
          11   -0.0206    0.0000    0.0027    0.0000    0.0199    0.0000    0.0000    0.0083
          12   -0.0001   -0.0257   -0.0003    0.0313   -0.0001   -0.0197   -0.0021    0.0000
          13    0.0182    0.0000    0.0005    0.0000    0.0144    0.0000    0.0000   -0.0062
          14    0.0109   -0.0001    0.0095    0.0000    0.0219    0.0000    0.0000   -0.0082
          15    0.0000   -0.0259   -0.0003   -0.0313    0.0000    0.0197   -0.0020    0.0000
          16    0.0863    0.0425    0.0420    0.0403   -0.0182    0.2330   -0.0631    0.1188
          17   -0.0654    0.0568    0.0541   -0.0307   -0.0225   -0.1752   -0.0841   -0.0894
          18    0.0001    0.0331    0.0050   -0.0001   -0.0088    0.0000   -0.0227    0.0000
          19    0.0860   -0.0436    0.0410   -0.0402   -0.0183   -0.2328    0.0632    0.1191
          20   -0.0655   -0.0577    0.0526    0.0306   -0.0226    0.1750    0.0840   -0.0896
          21    0.0001    0.0332   -0.0042   -0.0001    0.0090    0.0000   -0.0226    0.0000
          22    0.0190   -0.0500   -0.1113    0.1389   -0.0628    0.0245   -0.1581   -0.0968
          23    0.0716   -0.1258   -0.0678    0.1063   -0.0899   -0.0534   -0.0444   -0.0701
          24    0.0057   -0.0195   -0.0012   -0.0043   -0.0093   -0.0084    0.0223   -0.0050
          25    0.0191    0.0523   -0.1101   -0.1389   -0.0630   -0.0247    0.1580   -0.0967
          26    0.0719    0.1271   -0.0648   -0.1064   -0.0898    0.0532    0.0443   -0.0701
          27   -0.0059   -0.0197    0.0009   -0.0042    0.0092   -0.0085    0.0223    0.0051
          28   -0.0630    0.1079   -0.0329    0.0635   -0.0692   -0.0578   -0.0015    0.0402
          29   -0.0362    0.0856   -0.1245    0.1632   -0.0865    0.0089    0.1636    0.1114
          30    0.0059   -0.0197    0.0009    0.0043    0.0094    0.0084    0.0222   -0.0051
          31   -0.0632   -0.1070   -0.0356   -0.0635   -0.0691    0.0579    0.0015    0.0401
          32   -0.0363   -0.0829   -0.1266   -0.1631   -0.0865   -0.0087   -0.1635    0.1116
          33   -0.0057   -0.0196   -0.0015    0.0044   -0.0092    0.0084    0.0223    0.0049
          34    0.0392   -0.0004    0.0363    0.0000   -0.0334    0.0000    0.0000   -0.0108
          35   -0.1679    0.0011   -0.0933    0.0000    0.1942    0.0001    0.0001    0.0618
          36   -0.0001    0.0753    0.0010   -0.0669   -0.0002    0.0371   -0.0041    0.0000
          37    0.1749    0.0008   -0.0967    0.0000    0.1965   -0.0001    0.0000   -0.0595
          38    0.0086   -0.0001    0.0092    0.0000    0.0218    0.0000    0.0000   -0.0068
          39    0.0001    0.0759    0.0009    0.0669    0.0000   -0.0370   -0.0043    0.0000


   Root No.      17        18        19        20        21        22        23        24

                17 A      18 A      19 A      20 A      21 A      22 A      23 A      24 A   

                1129.7    1243.2    1285.0    1346.7    1367.5    1399.0    1416.8    1424.6
  
           1    0.0194    0.0078    0.0790   -0.0063   -0.0034   -0.0145   -0.0190   -0.0272
           2    0.0261   -0.0059   -0.0593   -0.0086    0.0026   -0.0197    0.0137   -0.0363
           3    0.0000    0.0000    0.0000    0.0000    0.0000    0.0000    0.0000    0.0000
           4   -0.0296    0.0248   -0.0400    0.0451   -0.0352   -0.0028    0.0073    0.0205
           5    0.0297    0.0136   -0.0095    0.0398   -0.0219    0.0419   -0.0440   -0.0069
           6   -0.0001   -0.0001    0.0000    0.0000    0.0000    0.0000    0.0000    0.0000
           7    0.0369   -0.0062   -0.0020    0.0256    0.0113    0.0400    0.0453   -0.0127
           8   -0.0205   -0.0276    0.0409    0.0541    0.0403    0.0090    0.0057    0.0177
           9    0.0001    0.0001    0.0000    0.0000    0.0000    0.0000    0.0000    0.0000
          10   -0.0316   -0.0051    0.0153   -0.0166    0.0155   -0.0113    0.0054    0.0022
          11   -0.0262    0.0272    0.0128   -0.0212    0.0417   -0.0107    0.0346    0.0017
          12   -0.0001   -0.0001    0.0000    0.0000    0.0000    0.0000    0.0000    0.0000
          13   -0.0165   -0.0275   -0.0080   -0.0154   -0.0358   -0.0066   -0.0319    0.0013
          14   -0.0376   -0.0026   -0.0182   -0.0216   -0.0266   -0.0135   -0.0152    0.0027
          15    0.0000    0.0000    0.0000    0.0000    0.0000    0.0000    0.0000    0.0000
          16    0.0278   -0.0589   -0.1618   -0.0624    0.0261    0.0478    0.0574    0.1110
          17    0.0383    0.0444    0.1219   -0.0821   -0.0204    0.0651   -0.0411    0.1480
          18    0.0099    0.0001    0.0001   -0.0616   -0.0004    0.0687    0.0014    0.1508
          19    0.0277   -0.0590   -0.1617   -0.0623    0.0260    0.0479    0.0573    0.1111
          20    0.0383    0.0444    0.1219   -0.0821   -0.0203    0.0652   -0.0411    0.1481
          21   -0.0098    0.0000   -0.0001    0.0615    0.0004   -0.0687   -0.0014   -0.1508
          22   -0.0256   -0.0652   -0.0269   -0.1128    0.1216    0.0494   -0.0481   -0.0715
          23    0.0741   -0.0793    0.0684   -0.0221   -0.0486   -0.1103    0.0875    0.0378
          24    0.0202   -0.0105    0.0346    0.0331   -0.0782   -0.0992    0.0891    0.0604
          25   -0.0257   -0.0652   -0.0269   -0.1128    0.1216    0.0495   -0.0481   -0.0714
          26    0.0740   -0.0793    0.0683   -0.0221   -0.0486   -0.1102    0.0875    0.0378
          27   -0.0204    0.0104   -0.0346   -0.0330    0.0782    0.0992   -0.0892   -0.0604
          28    0.0785    0.0578   -0.0729    0.0097    0.0810   -0.1169   -0.0999    0.0570
          29   -0.0044    0.0847    0.0072   -0.1136   -0.1043    0.0159    0.0216   -0.0583
          30   -0.0203   -0.0102    0.0346   -0.0326   -0.0788    0.0967    0.0911   -0.0613
          31    0.0787    0.0579   -0.0729    0.0096    0.0811   -0.1169   -0.0998    0.0570
          32   -0.0045    0.0847    0.0071   -0.1137   -0.1043    0.0159    0.0216   -0.0583
          33    0.0205    0.0104   -0.0346    0.0326    0.0789   -0.0967   -0.0910    0.0612
          34   -0.0919    0.0481    0.0129   -0.0100    0.0451   -0.0140    0.0331    0.0064
          35    0.1659   -0.1522    0.0213   -0.0485   -0.0566   -0.0078   -0.0581   -0.0087
          36   -0.0001   -0.0001    0.0000    0.0001    0.0000    0.0000    0.0000    0.0000
          37    0.1855    0.1586   -0.0168   -0.0445    0.0664   -0.0052    0.0645   -0.0107
          38   -0.0423   -0.0039   -0.0183   -0.0228   -0.0278   -0.0153   -0.0161    0.0038
          39    0.0000    0.0000    0.0000    0.0000    0.0000    0.0000    0.0000    0.0000


   Root No.      25        26        27        28        29        30        31        32

                25 A      26 A      27 A      28 A      29 A      30 A      31 A      32 A   

                1828.0    2971.2    2976.7    2995.3    3055.7    3056.1    3072.5    3117.1
  
           1    0.0048    0.0000    0.0000    0.0000    0.0004    0.0030    0.0206   -0.0001
           2    0.0064    0.0000    0.0000    0.0000   -0.0005    0.0039    0.0273    0.0001
           3   -0.0001    0.0178    0.0002   -0.0341    0.0000    0.0000    0.0000    0.0002
           4    0.0068    0.0000    0.0000    0.0000    0.0129    0.0123   -0.0020    0.0002
           5   -0.0177    0.0000    0.0000    0.0000   -0.0162   -0.0153    0.0033   -0.0001
           6    0.0000   -0.0218   -0.0306   -0.0136    0.0000    0.0000    0.0000    0.0002
           7   -0.0190    0.0000    0.0000    0.0000    0.0202   -0.0172    0.0037    0.0001
           8    0.0016    0.0000    0.0000    0.0000   -0.0083    0.0072   -0.0010   -0.0002
           9    0.0000   -0.0221    0.0303   -0.0136    0.0000    0.0000    0.0000   -0.0001
          10   -0.1693    0.0000    0.0000    0.0000   -0.0007   -0.0009    0.0006    0.0366
          11    0.1589    0.0000    0.0000    0.0000   -0.0004   -0.0006    0.0001    0.0108
          12    0.0001   -0.0001    0.0001   -0.0001    0.0000    0.0000    0.0000   -0.0001
          13    0.1998    0.0000    0.0000    0.0000    0.0002   -0.0003   -0.0001   -0.0003
          14   -0.1186    0.0000    0.0000    0.0000    0.0008   -0.0010    0.0006   -0.0379
          15    0.0001   -0.0001   -0.0001   -0.0001    0.0000    0.0000    0.0000   -0.0002
          16    0.0014    0.0489   -0.0023   -0.0965    0.0014   -0.0163   -0.1240   -0.0001
          17    0.0017    0.0650    0.0028   -0.1283   -0.0001   -0.0217   -0.1648    0.0004
          18   -0.0056   -0.1069   -0.0010    0.2038   -0.0012    0.0418    0.3141    0.0001
          19    0.0014   -0.0489    0.0023    0.0965    0.0015   -0.0163   -0.1239   -0.0001
          20    0.0018   -0.0650   -0.0028    0.1283   -0.0001   -0.0217   -0.1647    0.0001
          21    0.0054   -0.1070   -0.0010    0.2039    0.0012   -0.0417   -0.3141    0.0004
          22   -0.0181    0.0628    0.0901    0.0425   -0.0790   -0.0729    0.0163   -0.0006
          23   -0.0293   -0.0796   -0.1118   -0.0498    0.0977    0.0905   -0.0187    0.0032
          24   -0.0004    0.1313    0.1845    0.0819   -0.1921   -0.1778    0.0377   -0.0037
          25   -0.0181   -0.0627   -0.0901   -0.0424   -0.0790   -0.0729    0.0164   -0.0006
          26   -0.0292    0.0796    0.1119    0.0498    0.0978    0.0906   -0.0188    0.0030
          27    0.0003    0.1311    0.1844    0.0818    0.1920    0.1779   -0.0377    0.0042
          28   -0.0231    0.0953   -0.1312    0.0595   -0.1220    0.1016   -0.0225   -0.0031
          29   -0.0255   -0.0388    0.0550   -0.0269    0.0514   -0.0425    0.0105   -0.0004
          30    0.0003    0.1332   -0.1827    0.0816   -0.2022    0.1685   -0.0376   -0.0039
          31   -0.0231   -0.0952    0.1310   -0.0594   -0.1221    0.1016   -0.0225   -0.0031
          32   -0.0256    0.0388   -0.0550    0.0269    0.0515   -0.0426    0.0105   -0.0001
          33   -0.0003    0.1331   -0.1825    0.0815    0.2024   -0.1686    0.0376    0.0037
          34   -0.1392    0.0000    0.0000    0.0000    0.0039    0.0136   -0.0120   -0.4336
          35   -0.0976    0.0000    0.0000    0.0000    0.0004    0.0029   -0.0036   -0.1302
          36    0.0001   -0.0007   -0.0003   -0.0005    0.0000    0.0000    0.0000    0.0000
          37   -0.0556    0.0000    0.0000    0.0000    0.0008   -0.0009   -0.0001    0.0050
          38   -0.1607    0.0000    0.0000    0.0000   -0.0047    0.0136   -0.0123    0.4498
          39    0.0002   -0.0007    0.0003   -0.0005    0.0000    0.0000    0.0000   -0.0004


   Root No.      33

                33 A   

                3136.1
  
           1    0.0011
           2    0.0014
           3    0.0002
           4   -0.0012
           5    0.0019
           6    0.0002
           7    0.0021
           8   -0.0007
           9   -0.0001
          10   -0.0392
          11   -0.0063
          12   -0.0001
          13    0.0048
          14   -0.0397
          15   -0.0002
          16   -0.0032
          17   -0.0041
          18    0.0084
          19   -0.0032
          20   -0.0044
          21   -0.0080
          22    0.0043
          23   -0.0071
          24    0.0126
          25    0.0043
          26   -0.0074
          27   -0.0121
          28   -0.0082
          29    0.0020
          30   -0.0125
          31   -0.0082
          32    0.0023
          33    0.0123
          34    0.3990
          35    0.1172
          36   -0.0002
          37    0.0021
          38    0.4186
          39   -0.0004


           MASS-WEIGHTED COORDINATE ANALYSIS (NORMAL COORDINATES)


   Root No.       1         2         3         4         5         6         7         8

                 1 A       2 A       3 A       4 A       5 A       6 A       7 A       8 A   

                 126.4     366.9     690.9     719.7     773.4     807.7     852.0     981.2
  
           1    0.0000    0.0000    0.2961    0.0002    0.2125    0.0001    0.0000    0.0000
           2    0.0000    0.0000    0.3936    0.0004   -0.1599    0.0000    0.0000   -0.0001
           3    0.3634    0.0002    0.0001   -0.0756    0.0002    0.2653    0.0001   -0.0002
           4    0.0000    0.0000    0.3781    0.0004   -0.0020   -0.0002    0.0000    0.0000
           5    0.0000    0.0000   -0.2771   -0.0001   -0.3277    0.0000    0.0000    0.0000
           6   -0.3227   -0.1361    0.0000   -0.1370    0.0001    0.0636   -0.3131    0.1275
           7    0.0000    0.0000   -0.3709   -0.0005    0.3141    0.0002    0.0000    0.0000
           8    0.0000    0.0000    0.2864    0.0003    0.0926   -0.0002    0.0000    0.0000
           9   -0.3228    0.1358    0.0002   -0.1373   -0.0001    0.0631    0.3133   -0.1268
          10    0.0000    0.0000   -0.1533    0.0001   -0.5467   -0.0001    0.0000   -0.0001
          11    0.0000    0.0000   -0.2393   -0.0002   -0.1080    0.0001    0.0000   -0.0001
          12    0.1606    0.4668    0.0000   -0.0959   -0.0001   -0.2056   -0.0054   -0.3332
          13    0.0000    0.0000   -0.1875   -0.0002   -0.0476    0.0000    0.0000    0.0001
          14    0.0000    0.0000   -0.2133   -0.0004    0.5555    0.0002    0.0000    0.0001
          15    0.1609   -0.4666    0.0002   -0.0957   -0.0003   -0.2054    0.0048    0.3325
          16    0.1281    0.0240    0.0987    0.1353    0.0216   -0.2146    0.1664   -0.1721
          17    0.1703   -0.0180    0.1313    0.1799   -0.0161   -0.2849   -0.1254    0.1297
          18    0.2680    0.0001    0.0114    0.1570    0.0002   -0.2067   -0.0001    0.0001
          19   -0.1281   -0.0240    0.0991   -0.1352    0.0214    0.2147   -0.1665    0.1723
          20   -0.1703    0.0180    0.1319   -0.1797   -0.0165    0.2849    0.1255   -0.1298
          21    0.2680    0.0001   -0.0119    0.1570    0.0003   -0.2066   -0.0001    0.0001
          22    0.1182    0.0395    0.1016   -0.1140    0.0536    0.1868   -0.1529    0.2459
          23   -0.1361   -0.1972   -0.1059    0.2295   -0.0713   -0.0135    0.2653    0.0367
          24   -0.2302   -0.1776   -0.0086    0.1586   -0.0078   -0.0833    0.1480   -0.0628
          25   -0.1182   -0.0395    0.1011    0.1141    0.0539   -0.1870    0.1529   -0.2459
          26    0.1360    0.1972   -0.1054   -0.2296   -0.0716    0.0134   -0.2653   -0.0367
          27   -0.2303   -0.1777    0.0081    0.1587    0.0081   -0.0833    0.1482   -0.0627
          28    0.1637   -0.2004   -0.1295   -0.2525    0.0835    0.0641    0.2973   -0.0322
          29   -0.0759   -0.0169    0.0678    0.0460   -0.0319   -0.1762   -0.0736    0.2473
          30   -0.2304    0.1775    0.0083    0.1587   -0.0080   -0.0830   -0.1481    0.0626
          31   -0.1637    0.2004   -0.1300    0.2522    0.0837   -0.0640   -0.2973    0.0322
          32    0.0759    0.0169    0.0680   -0.0458   -0.0318    0.1760    0.0736   -0.2472
          33   -0.2304    0.1775   -0.0085    0.1587    0.0081   -0.0830   -0.1481    0.0626
          34    0.0000    0.0001   -0.0774    0.0001   -0.1382    0.0001    0.0001    0.0001
          35    0.0000    0.0000    0.0455    0.0001   -0.1037    0.0000    0.0001    0.0000
          36    0.1246    0.3448   -0.0003    0.4603    0.0000    0.4053    0.3569    0.4416
          37    0.0000    0.0000    0.0654    0.0001    0.0607    0.0000    0.0000    0.0001
          38    0.0000    0.0000   -0.0617   -0.0001    0.1616    0.0001    0.0000    0.0000
          39    0.1249   -0.3446   -0.0002    0.4607    0.0000    0.4060   -0.3558   -0.4409


   Root No.       9        10        11        12        13        14        15        16

                 9 A      10 A      11 A      12 A      13 A      14 A      15 A      16 A   

                 997.0    1002.6    1004.2    1064.6    1097.2    1103.0    1117.0    1120.1
  
           1    0.1615   -0.0038    0.3186    0.0000   -0.0745    0.0002    0.0001    0.2459
           2   -0.1273   -0.0045    0.4207   -0.0002   -0.0963   -0.0001   -0.0001   -0.1847
           3    0.0002   -0.2160   -0.0027    0.0010    0.0004   -0.0003    0.4458   -0.0004
           4   -0.1754    0.0034   -0.2785    0.0000    0.0567   -0.0001   -0.0001   -0.2284
           5    0.2758   -0.0003   -0.0036    0.0000   -0.1474    0.0000   -0.0002   -0.0040
           6   -0.0001    0.2875    0.0034   -0.0107   -0.0003    0.2442   -0.2185    0.0000
           7   -0.3139   -0.0003    0.0679   -0.0001   -0.1558    0.0000   -0.0001   -0.0595
           8    0.0965    0.0029   -0.2667    0.0001    0.0110    0.0001    0.0001    0.2199
           9    0.0010    0.2881    0.0028    0.0096    0.0008   -0.2437   -0.2186    0.0001
          10   -0.0492   -0.0008    0.0740    0.0000    0.1487    0.0000    0.0001    0.0573
          11   -0.1795   -0.0001    0.0225    0.0001    0.1746    0.0000    0.0001    0.0770
          12   -0.0009   -0.2314   -0.0022    0.2702   -0.0009   -0.1446   -0.0165    0.0003
          13    0.1585   -0.0003    0.0045    0.0000    0.1261    0.0000    0.0000   -0.0576
          14    0.0951   -0.0011    0.0790    0.0000    0.1918   -0.0001    0.0001   -0.0763
          15   -0.0004   -0.2332   -0.0026   -0.2700   -0.0002    0.1444   -0.0158    0.0000
          16    0.2181    0.1110    0.1012    0.1006   -0.0462    0.4941   -0.1455    0.3191
          17   -0.1654    0.1481    0.1303   -0.0766   -0.0572   -0.3715   -0.1940   -0.2399
          18    0.0003    0.0864    0.0120   -0.0003   -0.0224    0.0001   -0.0523   -0.0001
          19    0.2173   -0.1138    0.0986   -0.1005   -0.0466   -0.4938    0.1457    0.3197
          20   -0.1656   -0.1504    0.1268    0.0764   -0.0574    0.3712    0.1938   -0.2407
          21    0.0004    0.0866   -0.0101   -0.0002    0.0229    0.0001   -0.0522    0.0000
          22    0.0481   -0.1305   -0.2681    0.3472   -0.1596    0.0519   -0.3647   -0.2599
          23    0.1809   -0.3281   -0.1632    0.2658   -0.2284   -0.1133   -0.1023   -0.1883
          24    0.0144   -0.0510   -0.0029   -0.0108   -0.0237   -0.0179    0.0514   -0.0134
          25    0.0483    0.1365   -0.2651   -0.3472   -0.1600   -0.0524    0.3645   -0.2597
          26    0.1817    0.3314   -0.1560   -0.2660   -0.2282    0.1129    0.1021   -0.1883
          27   -0.0149   -0.0513    0.0021   -0.0105    0.0234   -0.0179    0.0513    0.0136
          28   -0.1592    0.2813   -0.0793    0.1587   -0.1758   -0.1226   -0.0034    0.1080
          29   -0.0914    0.2232   -0.2998    0.4080   -0.2198    0.0189    0.3774    0.2992
          30    0.0150   -0.0513    0.0021    0.0108    0.0240    0.0177    0.0513   -0.0136
          31   -0.1596   -0.2790   -0.0857   -0.1587   -0.1756    0.1229    0.0034    0.1076
          32   -0.0919   -0.2162   -0.3050   -0.4077   -0.2196   -0.0183   -0.3771    0.2997
          33   -0.0145   -0.0511   -0.0035    0.0109   -0.0234    0.0178    0.0513    0.0133
          34    0.0991   -0.0010    0.0875    0.0000   -0.0848   -0.0001    0.0000   -0.0290
          35   -0.4244    0.0029   -0.2248    0.0000    0.4934    0.0002    0.0002    0.1660
          36   -0.0001    0.1963    0.0023   -0.1672   -0.0004    0.0786   -0.0095    0.0001
          37    0.4420    0.0020   -0.2329    0.0001    0.4992   -0.0001    0.0000   -0.1597
          38    0.0218   -0.0003    0.0222    0.0000    0.0554    0.0000    0.0000   -0.0182
          39    0.0003    0.1980    0.0022    0.1672   -0.0001   -0.0785   -0.0099    0.0001


   Root No.      17        18        19        20        21        22        23        24

                17 A      18 A      19 A      20 A      21 A      22 A      23 A      24 A   

                1129.7    1243.2    1285.0    1346.7    1367.5    1399.0    1416.8    1424.6
  
           1    0.1506    0.0716    0.5193   -0.0490   -0.0267   -0.1204   -0.1561   -0.2143
           2    0.2022   -0.0540   -0.3903   -0.0671    0.0203   -0.1642    0.1122   -0.2862
           3    0.0003    0.0004   -0.0001   -0.0001    0.0001    0.0000    0.0001    0.0000
           4   -0.2296    0.2267   -0.2632    0.3526   -0.2750   -0.0234    0.0600    0.1616
           5    0.2304    0.1241   -0.0627    0.3117   -0.1707    0.3483   -0.3610   -0.0545
           6   -0.0006   -0.0005    0.0000    0.0000   -0.0002   -0.0001   -0.0001    0.0000
           7    0.2865   -0.0571   -0.0132    0.2000    0.0879    0.3328    0.3718   -0.1004
           8   -0.1593   -0.2521    0.2691    0.4230    0.3147    0.0746    0.0467    0.1397
           9    0.0006    0.0007    0.0000   -0.0002    0.0002    0.0000    0.0002   -0.0001
          10   -0.2452   -0.0465    0.1007   -0.1300    0.1208   -0.0937    0.0443    0.0174
          11   -0.2029    0.2491    0.0843   -0.1657    0.3257   -0.0894    0.2845    0.0137
          12   -0.0004   -0.0006    0.0001    0.0002   -0.0002    0.0001   -0.0002    0.0000
          13   -0.1282   -0.2515   -0.0527   -0.1204   -0.2799   -0.0545   -0.2623    0.0106
          14   -0.2914   -0.0235   -0.1200   -0.1691   -0.2075   -0.1124   -0.1249    0.0216
          15    0.0001    0.0000    0.0001    0.0001    0.0001    0.0001    0.0001    0.0000
          16    0.0624   -0.1561   -0.3082   -0.1414    0.0591    0.1152    0.1365    0.2538
          17    0.0861    0.1175    0.2323   -0.1861   -0.0461    0.1569   -0.0978    0.3384
          18    0.0223    0.0002    0.0001   -0.1396   -0.0009    0.1655    0.0034    0.3448
          19    0.0623   -0.1563   -0.3081   -0.1413    0.0589    0.1153    0.1364    0.2539
          20    0.0861    0.1175    0.2322   -0.1860   -0.0460    0.1570   -0.0977    0.3385
          21   -0.0221    0.0001   -0.0002    0.1394    0.0010   -0.1655   -0.0033   -0.3447
          22   -0.0576   -0.1726   -0.0512   -0.2557    0.2752    0.1192   -0.1144   -0.1634
          23    0.1664   -0.2101    0.1303   -0.0501   -0.1101   -0.2659    0.2082    0.0865
          24    0.0454   -0.0278    0.0659    0.0749   -0.1770   -0.2391    0.2120    0.1382
          25   -0.0578   -0.1728   -0.0512   -0.2556    0.2752    0.1192   -0.1145   -0.1634
          26    0.1663   -0.2100    0.1302   -0.0500   -0.1099   -0.2656    0.2080    0.0864
          27   -0.0459    0.0275   -0.0660   -0.0749    0.1769    0.2392   -0.2123   -0.1382
          28    0.1764    0.1530   -0.1389    0.0219    0.1833   -0.2817   -0.2376    0.1304
          29   -0.0099    0.2243    0.0137   -0.2576   -0.2361    0.0383    0.0513   -0.1334
          30   -0.0455   -0.0270    0.0658   -0.0740   -0.1784    0.2331    0.2168   -0.1401
          31    0.1767    0.1533   -0.1390    0.0219    0.1834   -0.2818   -0.2375    0.1304
          32   -0.0101    0.2243    0.0136   -0.2577   -0.2361    0.0383    0.0513   -0.1334
          33    0.0461    0.0275   -0.0658    0.0739    0.1786   -0.2331   -0.2165    0.1400
          34   -0.2065    0.1274    0.0247   -0.0227    0.1021   -0.0337    0.0786    0.0146
          35    0.3727   -0.4033    0.0405   -0.1099   -0.1282   -0.0187   -0.1381   -0.0200
          36   -0.0003   -0.0003    0.0000    0.0001   -0.0001    0.0000   -0.0001    0.0000
          37    0.4166    0.4201   -0.0319   -0.1010    0.1502   -0.0125    0.1534   -0.0245
          38   -0.0950   -0.0104   -0.0349   -0.0517   -0.0629   -0.0368   -0.0384    0.0088
          39    0.0001   -0.0001    0.0000    0.0001    0.0000    0.0000    0.0000    0.0000


   Root No.      25        26        27        28        29        30        31        32

                25 A      26 A      27 A      28 A      29 A      30 A      31 A      32 A   

                1828.0    2971.2    2976.7    2995.3    3055.7    3056.1    3072.5    3117.1
  
           1    0.0141    0.0000    0.0000    0.0000    0.0030    0.0237    0.1286   -0.0005
           2    0.0189    0.0000    0.0000    0.0000   -0.0035    0.0313    0.1709    0.0003
           3   -0.0002    0.1522    0.0012   -0.2653    0.0000    0.0000   -0.0001    0.0009
           4    0.0202    0.0000    0.0000    0.0000    0.0923    0.0985   -0.0126    0.0012
           5   -0.0524    0.0000    0.0000    0.0000   -0.1161   -0.1225    0.0206   -0.0006
           6   -0.0001   -0.1862   -0.2165   -0.1061    0.0000    0.0000    0.0000    0.0009
           7   -0.0564   -0.0001    0.0001    0.0000    0.1447   -0.1377    0.0233    0.0007
           8    0.0048    0.0000    0.0000    0.0000   -0.0596    0.0576   -0.0064   -0.0010
           9    0.0000   -0.1889    0.2143   -0.1057   -0.0001    0.0000    0.0000   -0.0004
          10   -0.5017    0.0000    0.0000    0.0000   -0.0048   -0.0070    0.0040    0.1900
          11    0.4707    0.0000    0.0000    0.0000   -0.0027   -0.0050    0.0007    0.0560
          12    0.0002   -0.0010    0.0007   -0.0010    0.0000    0.0000    0.0000   -0.0004
          13    0.5919    0.0000    0.0000    0.0000    0.0014   -0.0028   -0.0004   -0.0014
          14   -0.3513    0.0000    0.0000    0.0000    0.0058   -0.0078    0.0040   -0.1966
          15    0.0002   -0.0010   -0.0007   -0.0010    0.0000    0.0000    0.0000   -0.0011
          16    0.0012    0.1212   -0.0048   -0.2176    0.0030   -0.0379   -0.2244   -0.0002
          17    0.0014    0.1610    0.0056   -0.2893   -0.0003   -0.0505   -0.2983    0.0005
          18   -0.0048   -0.2649   -0.0021    0.4595   -0.0024    0.0969    0.5687    0.0002
          19    0.0012   -0.1212    0.0048    0.2176    0.0030   -0.0378   -0.2242   -0.0002
          20    0.0015   -0.1610   -0.0056    0.2893   -0.0002   -0.0504   -0.2981    0.0001
          21    0.0046   -0.2651   -0.0021    0.4598    0.0025   -0.0969   -0.5687    0.0006
          22   -0.0155    0.1555    0.1845    0.0958   -0.1637   -0.1691    0.0296   -0.0010
          23   -0.0251   -0.1971   -0.2288   -0.1124    0.2022    0.2100   -0.0339    0.0049
          24   -0.0003    0.3252    0.3778    0.1847   -0.3977   -0.4125    0.0682   -0.0056
          25   -0.0155   -0.1553   -0.1844   -0.0957   -0.1637   -0.1691    0.0296   -0.0009
          26   -0.0251    0.1972    0.2290    0.1124    0.2025    0.2103   -0.0340    0.0044
          27    0.0002    0.3249    0.3776    0.1844    0.3977    0.4127   -0.0683    0.0063
          28   -0.0198    0.2361   -0.2685    0.1341   -0.2526    0.2358   -0.0407   -0.0046
          29   -0.0219   -0.0960    0.1126   -0.0606    0.1064   -0.0986    0.0190   -0.0007
          30    0.0002    0.3299   -0.3741    0.1839   -0.4187    0.3909   -0.0681   -0.0059
          31   -0.0199   -0.2359    0.2682   -0.1339   -0.2528    0.2359   -0.0407   -0.0046
          32   -0.0219    0.0960   -0.1126    0.0606    0.1066   -0.0987    0.0190   -0.0002
          33   -0.0002    0.3297   -0.3737    0.1838    0.4192   -0.3912    0.0681    0.0055
          34   -0.1195    0.0000    0.0000    0.0000    0.0082    0.0315   -0.0217   -0.6523
          35   -0.0838    0.0000    0.0000    0.0000    0.0008    0.0067   -0.0065   -0.1959
          36    0.0001   -0.0017   -0.0007   -0.0011    0.0000    0.0000    0.0000   -0.0001
          37   -0.0477    0.0000    0.0000    0.0000    0.0016   -0.0022   -0.0003    0.0074
          38   -0.1379    0.0000    0.0000    0.0000   -0.0098    0.0315   -0.0223    0.6767
          39    0.0001   -0.0017    0.0007   -0.0011    0.0000    0.0000    0.0000   -0.0006


   Root No.      33

                33 A   

                3136.1
  
           1    0.0060
           2    0.0080
           3    0.0009
           4   -0.0069
           5    0.0103
           6    0.0009
           7    0.0118
           8   -0.0038
           9   -0.0004
          10   -0.2177
          11   -0.0351
          12   -0.0003
          13    0.0267
          14   -0.2202
          15   -0.0011
          16   -0.0051
          17   -0.0066
          18    0.0136
          19   -0.0052
          20   -0.0070
          21   -0.0128
          22    0.0070
          23   -0.0114
          24    0.0202
          25    0.0070
          26   -0.0119
          27   -0.0195
          28   -0.0132
          29    0.0033
          30   -0.0201
          31   -0.0132
          32    0.0037
          33    0.0198
          34    0.6411
          35    0.1883
          36   -0.0003
          37    0.0033
          38    0.6726
          39   -0.0006


          DESCRIPTION OF VIBRATIONS


 VIBRATION    1    1A       ATOM PAIR        ENERGY CONTRIBUTION    RADIAL
 FREQ.       126.41        C  1 --  C  3          +16.5% (443.7%)     0.0%
 T-DIPOLE    0.0470        C  1 --  C  2          +16.5% (443.7%)     0.0%
 TRAVEL      0.0521        C  1 --  H  6          +10.3% (350.4%)    76.9%
 RED. MASS   0.5439        C  1 --  H  7          +10.3% (350.4%)    76.9%
 EFF. MASS 196.3983

 VIBRATION    2    2A       ATOM PAIR        ENERGY CONTRIBUTION    RADIAL
 FREQ.       366.86        C  4 --  C  5          +23.7% (125.8%)     0.0%
 T-DIPOLE    0.0003        C  2 --  C  4          +12.6% ( 91.8%)     0.0%
 TRAVEL      0.1039        C  3 --  C  5          +12.6% ( 91.8%)     0.0%
 RED. MASS   1.1974        C  2 --  H  9           +9.1% ( 78.2%)    13.0%
 EFF. MASS  17.0209

 VIBRATION    3    3A       ATOM PAIR        ENERGY CONTRIBUTION    RADIAL
 FREQ.       690.91        C  1 --  C  3          +14.6% (104.6%)     1.5%
 T-DIPOLE    0.0352        C  1 --  C  2          +14.6% (104.6%)     1.5%
 TRAVEL      0.0772        C  2 --  C  4           +9.7% ( 85.5%)     3.6%
 RED. MASS   2.0260        C  3 --  C  5           +9.7% ( 85.5%)     3.6%
 EFF. MASS  16.3930

 VIBRATION    4    4A       ATOM PAIR        ENERGY CONTRIBUTION    RADIAL
 FREQ.       719.75        C  5 --  H 13          +13.8% ( 54.8%)     0.1%
 T-DIPOLE    0.4442        C  4 --  H 12          +13.8% ( 54.8%)     0.0%
 TRAVEL      0.2297        C  3 --  H 11          +11.5% ( 50.2%)     4.8%
 RED. MASS   0.1463        C  3 --  H 10          +11.5% ( 50.2%)     4.9%
 EFF. MASS   1.7750        C  2 --  H  9          +11.5% ( 50.1%)     4.8%
                           C  2 --  H  8          +11.5% ( 50.1%)     4.8%

 VIBRATION    5    5A       ATOM PAIR        ENERGY CONTRIBUTION    RADIAL
 FREQ.       773.40        C  4 --  C  5          +21.1% (118.7%)     0.0%
 T-DIPOLE    0.0024        C  3 --  C  5          +16.3% (104.2%)     1.4%
 TRAVEL      0.0730        C  2 --  C  4          +16.3% (104.2%)     1.5%
 RED. MASS   2.6573        C  5 --  H 13          +10.2% ( 82.6%)    92.7%
 EFF. MASS  16.3707        C  4 --  H 12          +10.2% ( 82.6%)    92.7%

 VIBRATION    6    6A       ATOM PAIR        ENERGY CONTRIBUTION    RADIAL
 FREQ.       807.69        C  1 --  H  6          +21.6% ( 67.5%)     7.4%
 T-DIPOLE    0.3082        C  1 --  H  7          +21.6% ( 67.5%)     7.4%
 TRAVEL      0.1748        C  5 --  H 13          +11.9% ( 50.0%)     0.1%
 RED. MASS   0.2226        C  4 --  H 12          +11.9% ( 49.9%)     0.0%
 EFF. MASS   2.7329

 VIBRATION    7    7A       ATOM PAIR        ENERGY CONTRIBUTION    RADIAL
 FREQ.       852.04        C  3 --  H 11          +14.4% ( 57.2%)    11.4%
 T-DIPOLE    0.0007        C  3 --  H 10          +14.4% ( 57.2%)    11.4%
 TRAVEL      0.1436        C  2 --  H  9          +14.4% ( 57.2%)    11.4%
 RED. MASS   0.3215        C  2 --  H  8          +14.4% ( 57.2%)    11.4%
 EFF. MASS   3.8400

 VIBRATION    8    8A       ATOM PAIR        ENERGY CONTRIBUTION    RADIAL
 FREQ.       981.21        C  4 --  H 12          +19.2% ( 50.2%)     0.0%
 T-DIPOLE    0.0007        C  5 --  H 13          +19.1% ( 50.2%)     0.1%
 TRAVEL      0.1426        C  4 --  C  5           +8.5% ( 33.6%)     0.0%
 RED. MASS   0.3995        C  3 --  H 11           +7.7% ( 31.8%)     5.9%
 EFF. MASS   3.3812

 VIBRATION    9    9A       ATOM PAIR        ENERGY CONTRIBUTION    RADIAL
 FREQ.       996.96        C  3 --  C  5          +10.8% ( 49.6%)    73.1%
 T-DIPOLE    0.1445        C  2 --  C  4          +10.8% ( 49.6%)    74.3%
 TRAVEL      0.1050        C  5 --  H 13          +10.2% ( 48.2%)     6.1%
 RED. MASS   0.4179        C  1 --  C  3          +10.1% ( 47.9%)    43.6%
 EFF. MASS   6.1352

 VIBRATION   10   10A       ATOM PAIR        ENERGY CONTRIBUTION    RADIAL
 FREQ.      1002.61        C  3 --  H 10          +11.9% ( 46.6%)    11.4%
 T-DIPOLE    0.2596        C  2 --  H  9          +11.9% ( 46.6%)    11.3%
 TRAVEL      0.1203        C  3 --  H 11          +11.7% ( 46.1%)    11.7%
 RED. MASS   0.3350        C  2 --  H  8          +11.6% ( 46.1%)    11.7%
 EFF. MASS   4.6434

 VIBRATION   11   11A       ATOM PAIR        ENERGY CONTRIBUTION    RADIAL
 FREQ.      1004.22        C  1 --  C  2          +20.3% ( 72.8%)    66.4%
 T-DIPOLE    0.0336        C  1 --  C  3          +20.2% ( 72.5%)    65.2%
 TRAVEL      0.0939        C  1 --  H  7          +11.2% ( 54.0%)    38.4%
 RED. MASS   1.1198        C  1 --  H  6          +11.2% ( 53.9%)    40.4%
 EFF. MASS   7.6103

 VIBRATION   12   12A       ATOM PAIR        ENERGY CONTRIBUTION    RADIAL
 FREQ.      1064.63        C  3 --  H 10          +18.7% ( 44.0%)     0.0%
 T-DIPOLE    0.0001        C  3 --  H 11          +18.7% ( 44.0%)     0.0%
 TRAVEL      0.1727        C  2 --  H  9          +18.7% ( 44.0%)     0.0%
 RED. MASS   0.2778        C  2 --  H  8          +18.6% ( 44.0%)     0.0%
 EFF. MASS   2.1246

 VIBRATION   13   13A       ATOM PAIR        ENERGY CONTRIBUTION    RADIAL
 FREQ.      1097.17        C  5 --  H 13          +19.6% ( 50.8%)    11.5%
 T-DIPOLE    0.0172        C  4 --  H 12          +19.5% ( 50.6%)    11.6%
 TRAVEL      0.1342        C  2 --  C  4           +8.9% ( 34.1%)   100.0%
 RED. MASS   0.2365        C  3 --  C  5           +8.8% ( 34.1%)    99.9%
 EFF. MASS   3.4144

 VIBRATION   14   14A       ATOM PAIR        ENERGY CONTRIBUTION    RADIAL
 FREQ.      1103.01        C  1 --  H  6          +29.5% ( 61.6%)     0.0%
 T-DIPOLE    0.0003        C  1 --  H  7          +29.5% ( 61.5%)     0.0%
 TRAVEL      0.1500        C  2 --  C  4           +5.5% ( 26.6%)     0.0%
 RED. MASS   0.3906        C  3 --  C  5           +5.5% ( 26.5%)     0.0%
 EFF. MASS   2.7157

 VIBRATION   15   15A       ATOM PAIR        ENERGY CONTRIBUTION    RADIAL
 FREQ.      1117.01        C  1 --  C  3          +15.0% ( 50.8%)     0.0%
 T-DIPOLE    0.0094        C  1 --  C  2          +15.0% ( 50.8%)     0.0%
 TRAVEL      0.1166        C  1 --  H  6          +12.1% ( 45.6%)    20.5%
 RED. MASS   0.6222        C  1 --  H  7          +12.1% ( 45.6%)    20.5%
 EFF. MASS   4.4428        C  2 --  H  8          +10.2% ( 42.0%)     7.3%
                           C  2 --  H  9          +10.2% ( 42.0%)     7.3%
                           C  3 --  H 10          +10.2% ( 41.9%)     7.4%
                           C  3 --  H 11          +10.2% ( 41.9%)     7.4%

 VIBRATION   16   16A       ATOM PAIR        ENERGY CONTRIBUTION    RADIAL
 FREQ.      1120.13        C  1 --  H  7          +13.1% ( 41.3%)     0.0%
 T-DIPOLE    0.0715        C  1 --  H  6          +13.0% ( 41.2%)     0.0%
 TRAVEL      0.1257        C  1 --  C  2          +12.5% ( 40.3%)    87.3%
 RED. MASS   0.2696        C  1 --  C  3          +12.4% ( 40.3%)    87.2%
 EFF. MASS   3.8122

 VIBRATION   17   17A       ATOM PAIR        ENERGY CONTRIBUTION    RADIAL
 FREQ.      1129.68        C  5 --  H 13          +12.3% ( 52.1%)    11.7%
 T-DIPOLE    0.0006        C  4 --  H 12          +12.3% ( 52.0%)    11.9%
 TRAVEL      0.0888        C  3 --  C  5          +12.0% ( 51.3%)    94.6%
 RED. MASS   0.6396        C  2 --  C  4          +11.9% ( 51.1%)    95.0%
 EFF. MASS   7.5764        C  4 --  C  5          +10.4% ( 47.9%)   100.0%

 VIBRATION   18   18A       ATOM PAIR        ENERGY CONTRIBUTION    RADIAL
 FREQ.      1243.21        C  4 --  H 12          +17.7% ( 49.8%)     0.1%
 T-DIPOLE    0.0035        C  5 --  H 13          +17.5% ( 49.6%)     0.1%
 TRAVEL      0.1373        C  2 --  H  9           +8.9% ( 35.4%)     0.1%
 RED. MASS   0.2955        C  2 --  H  8           +8.9% ( 35.4%)     0.1%
 EFF. MASS   2.8753

 VIBRATION   19   19A       ATOM PAIR        ENERGY CONTRIBUTION    RADIAL
 FREQ.      1285.00        C  1 --  H  6          +21.5% ( 67.2%)     0.0%
 T-DIPOLE    0.0309        C  1 --  H  7          +21.5% ( 67.2%)     0.0%
 TRAVEL      0.0847        C  1 --  C  2          +17.8% ( 61.1%)    85.1%
 RED. MASS   2.3203        C  1 --  C  3          +17.8% ( 61.0%)    85.0%
 EFF. MASS   7.3224

 VIBRATION   20   20A       ATOM PAIR        ENERGY CONTRIBUTION    RADIAL
 FREQ.      1346.75        C  2 --  C  4          +12.4% ( 47.4%)    74.5%
 T-DIPOLE    0.0100        C  3 --  C  5          +12.2% ( 47.0%)    74.3%
 TRAVEL      0.0877        C  2 --  H  8          +12.0% ( 46.6%)     0.0%
 RED. MASS   1.2444        C  2 --  H  9          +12.0% ( 46.6%)     0.0%
 EFF. MASS   6.5109        C  3 --  H 11          +11.8% ( 46.3%)     0.0%
                           C  3 --  H 10          +11.8% ( 46.3%)     0.0%

 VIBRATION   21   21A       ATOM PAIR        ENERGY CONTRIBUTION    RADIAL
 FREQ.      1367.51        C  3 --  C  5          +13.3% ( 45.4%)    83.8%
 T-DIPOLE    0.0427        C  2 --  C  4          +13.2% ( 45.2%)    84.0%
 TRAVEL      0.0924        C  4 --  C  5          +11.9% ( 43.0%)     0.0%
 RED. MASS   0.6803        C  3 --  H 11          +10.2% ( 39.7%)     0.4%
 EFF. MASS   5.7760        C  3 --  H 10          +10.2% ( 39.7%)     0.4%

 VIBRATION   22   22A       ATOM PAIR        ENERGY CONTRIBUTION    RADIAL
 FREQ.      1398.98        C  2 --  H  8          +13.5% ( 43.1%)     5.0%
 T-DIPOLE    0.0469        C  2 --  H  9          +13.5% ( 43.1%)     5.0%
 TRAVEL      0.1063        C  3 --  H 10          +12.8% ( 42.1%)     4.9%
 RED. MASS   0.4538        C  3 --  H 11          +12.8% ( 42.1%)     4.9%
 EFF. MASS   4.2627

 VIBRATION   23   23A       ATOM PAIR        ENERGY CONTRIBUTION    RADIAL
 FREQ.      1416.82        C  3 --  C  5          +12.8% ( 46.5%)    92.4%
 T-DIPOLE    0.0322        C  2 --  C  4          +12.3% ( 45.6%)    92.0%
 TRAVEL      0.0888        C  3 --  H 10          +10.1% ( 41.3%)     6.6%
 RED. MASS   0.6829        C  3 --  H 11          +10.1% ( 41.3%)     6.6%
 EFF. MASS   6.0389

 VIBRATION   24   24A       ATOM PAIR        ENERGY CONTRIBUTION    RADIAL
 FREQ.      1424.58        C  1 --  H  7          +27.2% ( 54.0%)     5.3%
 T-DIPOLE    0.0431        C  1 --  H  6          +27.2% ( 54.0%)     5.3%
 TRAVEL      0.1289        C  1 --  C  3          +10.6% ( 33.7%)    73.3%
 RED. MASS   0.4075        C  1 --  C  2          +10.6% ( 33.6%)    72.5%
 EFF. MASS   2.8472

 VIBRATION   25   25A       ATOM PAIR        ENERGY CONTRIBUTION    RADIAL
 FREQ.      1828.01        C  4 --  C  5          +45.8% (100.1%)   100.0%
 T-DIPOLE    0.0564        C  3 --  C  5          +13.9% ( 55.2%)    25.2%
 TRAVEL      0.0557        C  2 --  C  4          +13.9% ( 55.1%)    25.1%
 RED. MASS   5.3865        C  5 --  H 13          +13.0% ( 53.2%)     9.8%
 EFF. MASS  11.8703        C  4 --  H 12          +12.9% ( 53.2%)     9.8%

 VIBRATION   26   26A       ATOM PAIR        ENERGY CONTRIBUTION    RADIAL
 FREQ.      2971.24        C  3 --  H 10          +18.6% ( 45.0%)    96.5%
 T-DIPOLE    0.0166        C  3 --  H 11          +18.6% ( 45.0%)    96.5%
 TRAVEL      0.1207        C  2 --  H  8          +18.1% ( 44.4%)    96.5%
 RED. MASS   0.1791        C  2 --  H  9          +18.1% ( 44.3%)    96.5%
 EFF. MASS   1.5571        C  1 --  H  7          +12.0% ( 36.2%)    96.1%
                           C  1 --  H  6          +12.0% ( 36.2%)    96.1%

 VIBRATION   27   27A       ATOM PAIR        ENERGY CONTRIBUTION    RADIAL
 FREQ.      2976.68        C  2 --  H  8          +24.7% ( 51.6%)    96.6%
 T-DIPOLE    0.0001        C  2 --  H  9          +24.7% ( 51.6%)    96.6%
 TRAVEL      0.1213        C  3 --  H 10          +24.2% ( 51.1%)    96.6%
 RED. MASS   0.2590        C  3 --  H 11          +24.2% ( 51.0%)    96.6%
 EFF. MASS   1.5391

 VIBRATION   28   28A       ATOM PAIR        ENERGY CONTRIBUTION    RADIAL
 FREQ.      2995.29        C  1 --  H  7          +37.1% ( 63.0%)    96.6%
 T-DIPOLE    0.0384        C  1 --  H  6          +37.1% ( 62.9%)    96.6%
 TRAVEL      0.1214        C  2 --  H  8           +6.0% ( 25.3%)    97.0%
 RED. MASS   0.3112        C  2 --  H  9           +6.0% ( 25.3%)    96.9%
 EFF. MASS   1.5270

 VIBRATION   29   29A       ATOM PAIR        ENERGY CONTRIBUTION    RADIAL
 FREQ.      3055.68        C  3 --  H 11          +26.0% ( 50.2%)    97.6%
 T-DIPOLE    0.0976        C  3 --  H 10          +25.9% ( 50.2%)    97.6%
 TRAVEL      0.1315        C  2 --  H  9          +23.4% ( 47.7%)    97.6%
 RED. MASS   0.2426        C  2 --  H  8          +23.4% ( 47.7%)    97.6%
 EFF. MASS   1.2753

 VIBRATION   30   30A       ATOM PAIR        ENERGY CONTRIBUTION    RADIAL
 FREQ.      3056.10        C  2 --  H  9          +25.2% ( 49.5%)    97.5%
 T-DIPOLE    0.0435        C  2 --  H  8          +25.2% ( 49.5%)    97.5%
 TRAVEL      0.1307        C  3 --  H 11          +22.6% ( 46.9%)    97.5%
 RED. MASS   0.2288        C  3 --  H 10          +22.6% ( 46.9%)    97.5%
 EFF. MASS   1.2916

 VIBRATION   31   31A       ATOM PAIR        ENERGY CONTRIBUTION    RADIAL
 FREQ.      3072.47        C  1 --  H  6          +47.9% ( 68.2%)    97.7%
 T-DIPOLE    0.0606        C  1 --  H  7          +47.9% ( 68.2%)    97.7%
 TRAVEL      0.1310        C  2 --  H  9           +0.7% (  8.1%)    97.9%
 RED. MASS   0.4568        C  2 --  H  8           +0.7% (  8.1%)    97.9%
 EFF. MASS   1.2795

 VIBRATION   32   32A       ATOM PAIR        ENERGY CONTRIBUTION    RADIAL
 FREQ.      3117.10        C  4 --  H 12          +49.0% ( 71.1%)   100.0%
 T-DIPOLE    0.3701        C  5 --  H 13          +48.4% ( 70.7%)    99.9%
 TRAVEL      0.1216        C  4 --  C  5           +1.1% ( 10.7%)     0.0%
 RED. MASS   0.4647        C  2 --  C  4           +0.7% (  8.7%)    27.6%
 EFF. MASS   1.4625

 VIBRATION   33   33A       ATOM PAIR        ENERGY CONTRIBUTION    RADIAL
 FREQ.      3136.11        C  5 --  H 13          +48.0% ( 70.6%)    99.9%
 T-DIPOLE    0.3337        C  4 --  H 12          +47.4% ( 70.1%)    99.9%
 TRAVEL      0.1141        C  4 --  C  5           +2.5% ( 16.0%)   100.0%
 RED. MASS   0.4647        C  3 --  C  5           +0.9% (  9.9%)    20.8%
 EFF. MASS   1.6519

 SYMMETRY NUMBER FOR POINT-GROUP C1  =  1


          SYSTEM IS A GROUND STATE


    NULL



          MOLECULE IS NOT LINEAR

          THERE ARE 33 GENUINE VIBRATIONS IN THIS SYSTEM
          THIS THERMODYNAMICS CALCULATION IS LIMITED TO
          MOLECULES WHICH HAVE NO INTERNAL ROTATIONS




                    CALCULATED THERMODYNAMIC PROPERTIES
                                          *
   TEMP. (K)   PARTITION FUNCTION   H.O.F.    ENTHALPY  HEAT CAPACITY ENTROPY
                                   KCAL/MOL   CAL/MOLE    CAL/K/MOL  CAL/K/MOL


 298.00  VIB.     0.3226D+01                  1152.7694    11.0854     6.1961
         ROT.     0.5991D+05                   888.2813     2.9808    24.8414
         INT.     0.1933D+06                  2041.0507    14.0663    31.0375
         TRA.     0.5435D+27                  1480.4688     4.9680    38.5714
         TOT.                        2.958    3521.5196    19.0343    69.6089

 200.00  VIB.     0.1853D+01                   387.9673     4.9215     3.1657
         ROT.     0.3294D+05                   596.1620     2.9808    23.6527
         INT.     0.6105D+05                   984.1292     7.9023    26.8185
         TRA.     0.2988D+27                   993.6033     4.9680    36.5902
         TOT.                        1.414    1977.7325    12.8704    63.4087

 210.00  VIB.     0.1947D+01                   439.6593     5.4231     3.4178
         ROT.     0.3544D+05                   625.9700     2.9808    23.7982
         INT.     0.6901D+05                  1065.6294     8.4039    27.2160
         TRA.     0.3215D+27                  1043.2834     4.9680    36.8326
         TOT.                        1.545    2108.9128    13.3720    64.0486

 220.00  VIB.     0.2049D+01                   496.5515     5.9612     3.6824
         ROT.     0.3800D+05                   655.7781     2.9808    23.9368
         INT.     0.7786D+05                  1152.3296     8.9420    27.6192
         TRA.     0.3448D+27                  1092.9636     4.9680    37.0637
         TOT.                        1.682    2245.2932    13.9100    64.6829

 230.00  VIB.     0.2159D+01                   558.9969     6.5333     3.9599
         ROT.     0.4063D+05                   685.5862     2.9808    24.0693
         INT.     0.8771D+05                  1244.5831     9.5142    28.0292
         TRA.     0.3685D+27                  1142.6437     4.9680    37.2846
         TOT.                        1.824    2387.2269    14.4822    65.3138

 240.00  VIB.     0.2279D+01                   627.3225     7.1367     4.2506
         ROT.     0.4330D+05                   715.3943     2.9808    24.1962
         INT.     0.9868D+05                  1342.7168    10.1175    28.4468
         TRA.     0.3928D+27                  1192.3239     4.9680    37.4960
         TOT.                        1.971    2535.0407    15.0856    65.9428

 250.00  VIB.     0.2409D+01                   701.8254     7.7683     4.5546
         ROT.     0.4604D+05                   745.2024     2.9808    24.3179
         INT.     0.1109D+06                  1447.0278    10.7491    28.8725
         TRA.     0.4176D+27                  1242.0041     4.9680    37.6988
         TOT.                        2.125    2689.0319    15.7171    66.5713

 260.00  VIB.     0.2551D+01                   782.7702     8.4246     4.8720
         ROT.     0.4883D+05                   775.0105     2.9808    24.4348
         INT.     0.1246D+06                  1557.7807    11.4054    29.3068
         TRA.     0.4430D+27                  1291.6842     4.9680    37.8937
         TOT.                        2.286    2849.4650    16.3734    67.2005

 270.00  VIB.     0.2707D+01                   870.3880     9.1023     5.2026
         ROT.     0.5167D+05                   804.8186     2.9808    24.5473
         INT.     0.1399D+06                  1675.2066    12.0831    29.7499
         TRA.     0.4687D+27                  1341.3644     4.9680    38.0812
         TOT.                        2.453    3016.5710    17.0511    67.8310

 280.00  VIB.     0.2877D+01                   964.8760     9.7980     5.5462
         ROT.     0.5457D+05                   834.6267     2.9808    24.6557
         INT.     0.1570D+06                  1799.5027    12.7788    30.2019
         TRA.     0.4950D+27                  1391.0445     4.9680    38.2618
         TOT.                        2.627    3190.5472    17.7469    68.4637

 290.00  VIB.     0.3064D+01                  1066.3979    10.5085     5.9023
         ROT.     0.5752D+05                   864.4348     2.9808    24.7603
         INT.     0.1762D+06                  1930.8327    13.4894    30.6626
         TRA.     0.5218D+27                  1440.7247     4.9680    38.4362
         TOT.                        2.808    3371.5575    18.4574    69.0988

 300.00  VIB.     0.3269D+01                  1175.0855    11.2306     6.2707
         ROT.     0.6052D+05                   894.2429     2.9808    24.8614
         INT.     0.1978D+06                  2069.3284    14.2115    31.1321
         TRA.     0.5490D+27                  1490.4049     4.9680    38.6046
         TOT.                        2.996    3559.7333    19.1795    69.7367

 310.00  VIB.     0.3494D+01                  1291.0397    11.9614     6.6509
         ROT.     0.6357D+05                   924.0510     2.9808    24.9591
         INT.     0.2221D+06                  2215.0907    14.9422    31.6100
         TRA.     0.5767D+27                  1540.0850     4.9680    38.7675
         TOT.                        3.192    3755.1757    19.9102    70.3775

 320.00  VIB.     0.3742D+01                  1414.3328    12.6980     7.0423
         ROT.     0.6667D+05                   953.8591     2.9808    25.0537
         INT.     0.2495D+06                  2368.1920    15.6788    32.0960
         TRA.     0.6048D+27                  1589.7652     4.9680    38.9252
         TOT.                        3.394    3957.9572    20.6468    71.0212

 330.00  VIB.     0.4015D+01                  1545.0108    13.4380     7.4443
         ROT.     0.6982D+05                   983.6672     2.9808    25.1455
         INT.     0.2804D+06                  2528.6781    16.4188    32.5898
         TRA.     0.6334D+27                  1639.4454     4.9680    39.0781
         TOT.                        3.604    4168.1234    21.3868    71.6679

 340.00  VIB.     0.4317D+01                  1683.0954    14.1789     7.8565
         ROT.     0.7302D+05                  1013.4753     2.9808    25.2344
         INT.     0.3152D+06                  2696.5707    17.1597    33.0909
         TRA.     0.6624D+27                  1689.1255     4.9680    39.2264
         TOT.                        3.822    4385.6962    22.1278    72.3173

 350.00  VIB.     0.4649D+01                  1828.5861    14.9189     8.2782
         ROT.     0.7626D+05                  1043.2834     2.9808    25.3208
         INT.     0.3545D+06                  2871.8695    17.8997    33.5990
         TRA.     0.6918D+27                  1738.8057     4.9680    39.3704
         TOT.                        4.047    4610.6752    22.8677    72.9694

 360.00  VIB.     0.5016D+01                  1981.4633    15.6559     8.7088
         ROT.     0.7955D+05                  1073.0915     2.9808    25.4048
         INT.     0.3991D+06                  3054.5548    18.6367    34.1136
         TRA.     0.7217D+27                  1788.4859     4.9680    39.5104
         TOT.                        4.279    4843.0406    23.6048    73.6240

 370.00  VIB.     0.5422D+01                  2141.6897    16.3885     9.1478
         ROT.     0.8289D+05                  1102.8996     2.9808    25.4865
         INT.     0.4495D+06                  3244.5893    19.3693    34.6342
         TRA.     0.7520D+27                  1838.1660     4.9680    39.6465
         TOT.                        4.519    5082.7554    24.3373    74.2807

 380.00  VIB.     0.5872D+01                  2309.2132    17.1151     9.5945
         ROT.     0.8627D+05                  1132.7077     2.9808    25.5660
         INT.     0.5066D+06                  3441.9209    20.0959    35.1604
         TRA.     0.7827D+27                  1887.8462     4.9680    39.7790
         TOT.                        4.766    5329.7670    25.0639    74.9394

 390.00  VIB.     0.6369D+01                  2483.9681    17.8346    10.0484
         ROT.     0.8970D+05                  1162.5158     2.9808    25.6434
         INT.     0.5713D+06                  3646.4839    20.8154    35.6918
         TRA.     0.8138D+27                  1937.5263     4.9680    39.9080
         TOT.                        5.020    5584.0103    25.7834    75.5998

 400.00  VIB.     0.6920D+01                  2665.8779    18.5459    10.5089
         ROT.     0.9317D+05                  1192.3239     2.9808    25.7189
         INT.     0.6448D+06                  3858.2018    21.5267    36.2278
         TRA.     0.8452D+27                  1987.2065     4.9680    40.0338
         TOT.                        5.282    5845.4083    26.4947    76.2616

   *: NOTE: HEATS OF FORMATION ARE RELATIVE TO THE
            ELEMENTS IN THEIR STANDARD STATE AT 298K
              (=  Standard Enthalpy of Formation).

            Hvib:  Zero-point energy is not included.
                   frequencies of less than zero cm-1 are not included.
            Hrot = (3/2)RT
            Htra = (3/2)RT + pV = (5/2)RT

            Heat capacity is Cp, not Cv

           For more information, see: HTTP://OpenMOPAC.net/Manual/thermochemistry.html


           FORCE CONSTANT IN CARTESIAN COORDINATES (Millidynes/A)

    ATOM   CHEMICAL       X               Y               Z
   NUMBER   SYMBOL  FORCE CONSTANT  FORCE CONSTANT  FORCE CONSTANT

      1       C        7.788092        8.393097        8.357816
      2       C        7.849721        9.318132        8.070087
      3       C        9.640509        7.541578        8.069579
      4       C       14.604108       10.482790        2.348782
      5       C       11.928283       13.171503        2.349891
      6       H        1.252394        1.663453        3.588024
      7       H        1.251970        1.662794        3.588991
      8       H        1.289767        1.547079        3.556952
      9       H        1.289417        1.548808        3.555473
     10       H        1.917537        0.919744        3.555808
     11       H        1.917037        0.920037        3.556247
     12       H        4.986219        1.089537        0.351496
     13       H        0.711661        5.363506        0.351450



 TOTAL CPU TIME:             0.54 SECONDS

 == MOPAC DONE ==
