 *******************************************************************************
 ** Site#: 14399           For non-commercial use only        Version 13.159M **
 *******************************************************************************
 ** Cite this work as: MOPAC2012, James J. P. Stewart, Stewart Computational  **
 ** Chemistry, Version 13.159M web: HTTP://OpenMOPAC.net  Days remaining:   6 **
 *******************************************************************************
 **                                                                           **
 **                                MOPAC2012                                  **
 **                                                                           **
 *******************************************************************************

                            PM3 CALCULATION RESULTS


 *******************************************************************************
 *  CALCULATION DONE:                                Mon Jun  2 11:12:31 2014  *
 *  PM3      - The PM3 Hamiltonian to be used
 *  PRECISE  - CRITERIA TO BE INCREASED BY 100 TIMES
 *  NOSYM    - POINT-GROUP SYMMETRY SET TO C1
 *  T=       - A TIME OF 172800.0 SECONDS REQUESTED
 *  DUMP=N   - RESTART FILE WRITTEN EVERY  7200.000 SECONDS
 *******************************************************************************
pm3  precise nosym
 InChI=1S/C11H16/c1-3-7-10(4-2)11-8-5-6-9-11/h3,5-11H,4H2,1-2H3

   ATOM   CHEMICAL          X               Y               Z
  NUMBER   SYMBOL      (ANGSTROMS)     (ANGSTROMS)     (ANGSTROMS)
 
     1       C         -0.22290000  *   0.66140000  *  -0.43750000  *
     2       C         -1.59890000  *  -0.03990000  *  -0.48970000  *
     3       C         -0.32290000  *   2.06820000  *   0.18130000  *
     4       C          0.94190000  *   2.90940000  *   0.01930000  *
     5       C          2.91570000  *  -1.47780000  *   0.40340000  *
     6       C          0.82120000  *  -0.16720000  *   0.28030000  *
     7       C         -2.16710000  *  -0.43230000  *   0.84310000  *
     8       C         -1.55440000  *  -1.38050000  *  -1.16170000  *
     9       C          1.90440000  *  -0.65870000  *  -0.33530000  *
    10       C         -2.37150000  *  -1.73700000  *   0.90910000  *
    11       C         -1.98480000  *  -2.33460000  *  -0.35360000  *
    12       H          0.07140000  *   0.81090000  *  -1.50510000  *
    13       H         -2.33710000  *   0.59730000  *  -1.03060000  *
    14       H         -1.15400000  *   2.63220000  *  -0.30330000  *
    15       H         -0.57130000  *   2.00380000  *   1.26640000  *
    16       H          1.20600000  *   3.02630000  *  -1.05640000  *
    17       H          1.80320000  *   2.45100000  *   0.55590000  *
    18       H          0.77830000  *   3.92450000  *   0.44720000  *
    19       H          3.36250000  *  -0.88360000  *   1.23250000  *
    20       H          3.73280000  *  -1.78850000  *  -0.28590000  *
    21       H          2.43980000  *  -2.39450000  *   0.81980000  *
    22       H         -2.39330000  *   0.25460000  *   1.65230000  *
    23       H         -1.21590000  *  -1.55520000  *  -2.17800000  *
    24       H          0.67400000  *  -0.36760000  *   1.34190000  *
    25       H          2.06860000  *  -0.47060000  *  -1.39570000  *
    26       H         -2.77730000  *  -2.26410000  *   1.76620000  *
    27       H         -2.04830000  *  -3.38750000  *  -0.60700000  *
 


          CARTESIAN COORDINATES 

    NO.       ATOM         X         Y         Z

     1         C       -0.2229    0.6614   -0.4375
     2         C       -1.5989   -0.0399   -0.4897
     3         C       -0.3229    2.0682    0.1813
     4         C        0.9419    2.9094    0.0193
     5         C        2.9157   -1.4778    0.4034
     6         C        0.8212   -0.1672    0.2803
     7         C       -2.1671   -0.4323    0.8431
     8         C       -1.5544   -1.3805   -1.1617
     9         C        1.9044   -0.6587   -0.3353
    10         C       -2.3715   -1.7370    0.9091
    11         C       -1.9848   -2.3346   -0.3536
    12         H        0.0714    0.8109   -1.5051
    13         H       -2.3371    0.5973   -1.0306
    14         H       -1.1540    2.6322   -0.3033
    15         H       -0.5713    2.0038    1.2664
    16         H        1.2060    3.0263   -1.0564
    17         H        1.8032    2.4510    0.5559
    18         H        0.7783    3.9245    0.4472
    19         H        3.3625   -0.8836    1.2325
    20         H        3.7328   -1.7885   -0.2859
    21         H        2.4398   -2.3945    0.8198
    22         H       -2.3933    0.2546    1.6523
    23         H       -1.2159   -1.5552   -2.1780
    24         H        0.6740   -0.3676    1.3419
    25         H        2.0686   -0.4706   -1.3957
    26         H       -2.7773   -2.2641    1.7662
    27         H       -2.0483   -3.3875   -0.6070

  H: (PM3): J. J. P. STEWART, J. COMP. CHEM. 10, 209 (1989).
  C: (PM3): J. J. P. STEWART, J. COMP. CHEM. 10, 209 (1989).

           Empirical Formula: C11 H16  =    27 atoms



      MOLECULAR POINT GROUP   :   C1  


      RHF CALCULATION, NO. OF DOUBLY OCCUPIED LEVELS =   30

      Geometry optimization using EF

          DIAGONAL MATRIX USED AS START HESSIAN

 CYCLE:     1 TIME:   0.014 TIME LEFT:  2.00D  GRAD.:   112.880 HEAT: 34.61718
 CYCLE:     2 TIME:   0.032 TIME LEFT:  2.00D  GRAD.:    72.824 HEAT: 32.79991
 CYCLE:     3 TIME:   0.010 TIME LEFT:  2.00D  GRAD.:    28.200 HEAT: 31.19689
 CYCLE:     4 TIME:   0.022 TIME LEFT:  2.00D  GRAD.:    48.128 HEAT: 31.06459
 CYCLE:     5 TIME:   0.010 TIME LEFT:  2.00D  GRAD.:    34.451 HEAT: 30.55945
 CYCLE:     6 TIME:   0.021 TIME LEFT:  2.00D  GRAD.:    21.712 HEAT: 30.29764
 CYCLE:     7 TIME:   0.011 TIME LEFT:  2.00D  GRAD.:    22.335 HEAT: 30.11775
 CYCLE:     8 TIME:   0.015 TIME LEFT:  2.00D  GRAD.:    37.516 HEAT: 30.07822
 CYCLE:     9 TIME:   0.011 TIME LEFT:  2.00D  GRAD.:    34.089 HEAT: 30.02648
 CYCLE:    10 TIME:   0.019 TIME LEFT:  2.00D  GRAD.:    14.829 HEAT: 29.75277
 CYCLE:    11 TIME:   0.020 TIME LEFT:  2.00D  GRAD.:    12.329 HEAT: 29.71165
 CYCLE:    12 TIME:   0.011 TIME LEFT:  2.00D  GRAD.:    12.472 HEAT: 29.66902
 CYCLE:    13 TIME:   0.011 TIME LEFT:  2.00D  GRAD.:    14.772 HEAT: 29.64611
 CYCLE:    14 TIME:   0.011 TIME LEFT:  2.00D  GRAD.:    15.337 HEAT: 29.61945
 CYCLE:    15 TIME:   0.018 TIME LEFT:  2.00D  GRAD.:     7.389 HEAT: 29.56563
 CYCLE:    16 TIME:   0.010 TIME LEFT:  2.00D  GRAD.:    10.782 HEAT: 29.56075
 CYCLE:    17 TIME:   0.010 TIME LEFT:  2.00D  GRAD.:     7.779 HEAT: 29.52445
 CYCLE:    18 TIME:   0.020 TIME LEFT:  2.00D  GRAD.:     7.280 HEAT: 29.51000
 CYCLE:    19 TIME:   0.010 TIME LEFT:  2.00D  GRAD.:     4.781 HEAT: 29.48682
 CYCLE:    20 TIME:   0.010 TIME LEFT:  2.00D  GRAD.:    10.456 HEAT: 29.48624
 CYCLE:    21 TIME:   0.010 TIME LEFT:  2.00D  GRAD.:     8.786 HEAT: 29.45864
 CYCLE:    22 TIME:   0.027 TIME LEFT:  2.00D  GRAD.:     4.729 HEAT: 29.44082
 CYCLE:    23 TIME:   0.010 TIME LEFT:  2.00D  GRAD.:     3.658 HEAT: 29.43214
 CYCLE:    24 TIME:   0.010 TIME LEFT:  2.00D  GRAD.:     3.637 HEAT: 29.42272
 CYCLE:    25 TIME:   0.010 TIME LEFT:  2.00D  GRAD.:     5.158 HEAT: 29.41604
 CYCLE:    26 TIME:   0.013 TIME LEFT:  2.00D  GRAD.:     4.150 HEAT: 29.40425
 CYCLE:    27 TIME:   0.029 TIME LEFT:  2.00D  GRAD.:     5.475 HEAT: 29.40136
 CYCLE:    28 TIME:   0.010 TIME LEFT:  2.00D  GRAD.:     4.126 HEAT: 29.39577
 CYCLE:    29 TIME:   0.010 TIME LEFT:  2.00D  GRAD.:     4.455 HEAT: 29.39101
 CYCLE:    30 TIME:   0.010 TIME LEFT:  2.00D  GRAD.:     2.693 HEAT: 29.38432
 CYCLE:    31 TIME:   0.011 TIME LEFT:  2.00D  GRAD.:     4.967 HEAT: 29.38363
 CYCLE:    32 TIME:   0.010 TIME LEFT:  2.00D  GRAD.:     4.029 HEAT: 29.37916
 CYCLE:    33 TIME:   0.011 TIME LEFT:  2.00D  GRAD.:     4.338 HEAT: 29.37711
 CYCLE:    34 TIME:   0.010 TIME LEFT:  2.00D  GRAD.:     1.441 HEAT: 29.37190
 CYCLE:    35 TIME:   0.010 TIME LEFT:  2.00D  GRAD.:     2.355 HEAT: 29.36958
 CYCLE:    36 TIME:   0.011 TIME LEFT:  2.00D  GRAD.:     2.413 HEAT: 29.36469
 CYCLE:    37 TIME:   0.014 TIME LEFT:  2.00D  GRAD.:     2.453 HEAT: 29.35267
 CYCLE:    38 TIME:   0.010 TIME LEFT:  2.00D  GRAD.:     2.169 HEAT: 29.34764
 CYCLE:    39 TIME:   0.011 TIME LEFT:  2.00D  GRAD.:     3.006 HEAT: 29.34295
 CYCLE:    40 TIME:   0.011 TIME LEFT:  2.00D  GRAD.:     2.606 HEAT: 29.33695
 CYCLE:    41 TIME:   0.010 TIME LEFT:  2.00D  GRAD.:     2.121 HEAT: 29.33005
 CYCLE:    42 TIME:   0.010 TIME LEFT:  2.00D  GRAD.:     1.977 HEAT: 29.32646
 CYCLE:    43 TIME:   0.010 TIME LEFT:  2.00D  GRAD.:     1.386 HEAT: 29.32357
 CYCLE:    44 TIME:   0.010 TIME LEFT:  2.00D  GRAD.:     1.467 HEAT: 29.32055
 CYCLE:    45 TIME:   0.010 TIME LEFT:  2.00D  GRAD.:     1.730 HEAT: 29.31553
 CYCLE:    46 TIME:   0.010 TIME LEFT:  2.00D  GRAD.:     1.533 HEAT: 29.31160
 CYCLE:    47 TIME:   0.014 TIME LEFT:  2.00D  GRAD.:     1.459 HEAT: 29.30738
 CYCLE:    48 TIME:   0.010 TIME LEFT:  2.00D  GRAD.:     1.636 HEAT: 29.30276
 CYCLE:    49 TIME:   0.010 TIME LEFT:  2.00D  GRAD.:     1.742 HEAT: 29.29698
 CYCLE:    50 TIME:   0.010 TIME LEFT:  2.00D  GRAD.:     1.507 HEAT: 29.29124
 CYCLE:    51 TIME:   0.010 TIME LEFT:  2.00D  GRAD.:     1.368 HEAT: 29.28675
 CYCLE:    52 TIME:   0.013 TIME LEFT:  2.00D  GRAD.:     1.350 HEAT: 29.28345
 CYCLE:    53 TIME:   0.012 TIME LEFT:  2.00D  GRAD.:     1.303 HEAT: 29.28048
 CYCLE:    54 TIME:   0.011 TIME LEFT:  2.00D  GRAD.:     1.276 HEAT: 29.27726
 CYCLE:    55 TIME:   0.010 TIME LEFT:  2.00D  GRAD.:     1.345 HEAT: 29.27380
 CYCLE:    56 TIME:   0.011 TIME LEFT:  2.00D  GRAD.:     1.667 HEAT: 29.26979
 CYCLE:    57 TIME:   0.011 TIME LEFT:  2.00D  GRAD.:     1.703 HEAT: 29.26482
 CYCLE:    58 TIME:   0.010 TIME LEFT:  2.00D  GRAD.:     1.561 HEAT: 29.25881
 CYCLE:    59 TIME:   0.011 TIME LEFT:  2.00D  GRAD.:     1.559 HEAT: 29.25337
 CYCLE:    60 TIME:   0.010 TIME LEFT:  2.00D  GRAD.:     1.425 HEAT: 29.24936
 CYCLE:    61 TIME:   0.011 TIME LEFT:  2.00D  GRAD.:     1.159 HEAT: 29.24581
 CYCLE:    62 TIME:   0.010 TIME LEFT:  2.00D  GRAD.:     0.844 HEAT: 29.24348
 CYCLE:    63 TIME:   0.010 TIME LEFT:  2.00D  GRAD.:     0.737 HEAT: 29.24199
 CYCLE:    64 TIME:   0.010 TIME LEFT:  2.00D  GRAD.:     0.825 HEAT: 29.24042
 CYCLE:    65 TIME:   0.011 TIME LEFT:  2.00D  GRAD.:     0.963 HEAT: 29.23836
 CYCLE:    66 TIME:   0.011 TIME LEFT:  2.00D  GRAD.:     0.969 HEAT: 29.23610
 CYCLE:    67 TIME:   0.010 TIME LEFT:  2.00D  GRAD.:     0.874 HEAT: 29.23359
 CYCLE:    68 TIME:   0.011 TIME LEFT:  2.00D  GRAD.:     0.740 HEAT: 29.23235
 CYCLE:    69 TIME:   0.011 TIME LEFT:  2.00D  GRAD.:     0.840 HEAT: 29.23039
 CYCLE:    70 TIME:   0.011 TIME LEFT:  2.00D  GRAD.:     0.598 HEAT: 29.22970
 CYCLE:    71 TIME:   0.011 TIME LEFT:  2.00D  GRAD.:     0.643 HEAT: 29.22842
 CYCLE:    72 TIME:   0.011 TIME LEFT:  2.00D  GRAD.:     0.560 HEAT: 29.22786
 CYCLE:    73 TIME:   0.012 TIME LEFT:  2.00D  GRAD.:     0.562 HEAT: 29.22649
 CYCLE:    74 TIME:   0.012 TIME LEFT:  2.00D  GRAD.:     0.440 HEAT: 29.22601
 CYCLE:    75 TIME:   0.012 TIME LEFT:  2.00D  GRAD.:     0.519 HEAT: 29.22507
 CYCLE:    76 TIME:   0.010 TIME LEFT:  2.00D  GRAD.:     0.483 HEAT: 29.22455
 CYCLE:    77 TIME:   0.011 TIME LEFT:  2.00D  GRAD.:     0.732 HEAT: 29.22233
 CYCLE:    78 TIME:   0.010 TIME LEFT:  2.00D  GRAD.:     0.634 HEAT: 29.22151
 CYCLE:    79 TIME:   0.011 TIME LEFT:  2.00D  GRAD.:     0.848 HEAT: 29.21957
 CYCLE:    80 TIME:   0.012 TIME LEFT:  2.00D  GRAD.:     0.594 HEAT: 29.21871
 CYCLE:    81 TIME:   0.011 TIME LEFT:  2.00D  GRAD.:     0.449 HEAT: 29.21756
 CYCLE:    82 TIME:   0.010 TIME LEFT:  2.00D  GRAD.:     0.524 HEAT: 29.21649
 CYCLE:    83 TIME:   0.012 TIME LEFT:  2.00D  GRAD.:     0.698 HEAT: 29.21496
 CYCLE:    84 TIME:   0.011 TIME LEFT:  2.00D  GRAD.:     0.780 HEAT: 29.21345
 CYCLE:    85 TIME:   0.011 TIME LEFT:  2.00D  GRAD.:     0.870 HEAT: 29.21084
 CYCLE:    86 TIME:   0.013 TIME LEFT:  2.00D  GRAD.:     0.843 HEAT: 29.20846
 CYCLE:    87 TIME:   0.011 TIME LEFT:  2.00D  GRAD.:     1.037 HEAT: 29.20433
 CYCLE:    88 TIME:   0.011 TIME LEFT:  2.00D  GRAD.:     1.285 HEAT: 29.20096
 CYCLE:    89 TIME:   0.013 TIME LEFT:  2.00D  GRAD.:     2.240 HEAT: 29.19636
 CYCLE:    90 TIME:   0.011 TIME LEFT:  2.00D  GRAD.:     2.289 HEAT: 29.19263
 CYCLE:    91 TIME:   0.011 TIME LEFT:  2.00D  GRAD.:     1.635 HEAT: 29.18489
 CYCLE:    92 TIME:   0.013 TIME LEFT:  2.00D  GRAD.:     5.012 HEAT: 29.17034
 CYCLE:    93 TIME:   0.011 TIME LEFT:  2.00D  GRAD.:     2.487 HEAT: 29.16154
 CYCLE:    94 TIME:   0.013 TIME LEFT:  2.00D  GRAD.:     2.138 HEAT: 29.14921
 CYCLE:    95 TIME:   0.014 TIME LEFT:  2.00D  GRAD.:     7.526 HEAT: 29.13060
 CYCLE:    96 TIME:   0.010 TIME LEFT:  2.00D  GRAD.:     2.488 HEAT: 29.10936
 CYCLE:    97 TIME:   0.011 TIME LEFT:  2.00D  GRAD.:     2.080 HEAT: 29.09312
 CYCLE:    98 TIME:   0.011 TIME LEFT:  2.00D  GRAD.:     5.763 HEAT: 29.06190
 CYCLE:    99 TIME:   0.010 TIME LEFT:  2.00D  GRAD.:     3.411 HEAT: 29.04159
 CYCLE:   100 TIME:   0.011 TIME LEFT:  2.00D  GRAD.:     3.559 HEAT: 29.01449
 CYCLE:   101 TIME:   0.011 TIME LEFT:  2.00D  GRAD.:     3.208 HEAT: 28.98066
 CYCLE:   102 TIME:   0.014 TIME LEFT:  2.00D  GRAD.:     3.124 HEAT: 28.95893
 CYCLE:   103 TIME:   0.011 TIME LEFT:  2.00D  GRAD.:     3.620 HEAT: 28.93726
 CYCLE:   104 TIME:   0.010 TIME LEFT:  2.00D  GRAD.:     5.524 HEAT: 28.93394
 CYCLE:   105 TIME:   0.010 TIME LEFT:  2.00D  GRAD.:     2.369 HEAT: 28.91527
 CYCLE:   106 TIME:   0.010 TIME LEFT:  2.00D  GRAD.:     2.510 HEAT: 28.90530
 CYCLE:   107 TIME:   0.011 TIME LEFT:  2.00D  GRAD.:     3.107 HEAT: 28.88846
 CYCLE:   108 TIME:   0.010 TIME LEFT:  2.00D  GRAD.:     3.120 HEAT: 28.87164
 CYCLE:   109 TIME:   0.010 TIME LEFT:  2.00D  GRAD.:     3.507 HEAT: 28.85284
 CYCLE:   110 TIME:   0.011 TIME LEFT:  2.00D  GRAD.:     3.840 HEAT: 28.83475
 CYCLE:   111 TIME:   0.010 TIME LEFT:  2.00D  GRAD.:     4.342 HEAT: 28.81522
 CYCLE:   112 TIME:   0.010 TIME LEFT:  2.00D  GRAD.:     2.812 HEAT: 28.80023
 CYCLE:   113 TIME:   0.010 TIME LEFT:  2.00D  GRAD.:     2.653 HEAT: 28.78411
 CYCLE:   114 TIME:   0.010 TIME LEFT:  2.00D  GRAD.:     2.097 HEAT: 28.77112
 CYCLE:   115 TIME:   0.010 TIME LEFT:  2.00D  GRAD.:     2.302 HEAT: 28.75997
 CYCLE:   116 TIME:   0.011 TIME LEFT:  2.00D  GRAD.:     2.600 HEAT: 28.73861
 CYCLE:   117 TIME:   0.011 TIME LEFT:  2.00D  GRAD.:     3.242 HEAT: 28.71632
 CYCLE:   118 TIME:   0.011 TIME LEFT:  2.00D  GRAD.:     3.001 HEAT: 28.69478
 CYCLE:   119 TIME:   0.011 TIME LEFT:  2.00D  GRAD.:     5.534 HEAT: 28.69323
 CYCLE:   120 TIME:   0.015 TIME LEFT:  2.00D  GRAD.:     2.551 HEAT: 28.67406
 CYCLE:   121 TIME:   0.010 TIME LEFT:  2.00D  GRAD.:     1.860 HEAT: 28.66687
 CYCLE:   122 TIME:   0.010 TIME LEFT:  2.00D  GRAD.:     1.284 HEAT: 28.65801
 CYCLE:   123 TIME:   0.011 TIME LEFT:  2.00D  GRAD.:     1.530 HEAT: 28.65167
 CYCLE:   124 TIME:   0.011 TIME LEFT:  2.00D  GRAD.:     1.264 HEAT: 28.64888
 CYCLE:   125 TIME:   0.011 TIME LEFT:  2.00D  GRAD.:     0.910 HEAT: 28.64702
 CYCLE:   126 TIME:   0.010 TIME LEFT:  2.00D  GRAD.:     0.918 HEAT: 28.64565
 CYCLE:   127 TIME:   0.010 TIME LEFT:  2.00D  GRAD.:     0.904 HEAT: 28.64406
 CYCLE:   128 TIME:   0.011 TIME LEFT:  2.00D  GRAD.:     0.941 HEAT: 28.64117
 CYCLE:   129 TIME:   0.010 TIME LEFT:  2.00D  GRAD.:     0.920 HEAT: 28.63910
 CYCLE:   130 TIME:   0.011 TIME LEFT:  2.00D  GRAD.:     1.013 HEAT: 28.63688
 CYCLE:   131 TIME:   0.010 TIME LEFT:  2.00D  GRAD.:     1.099 HEAT: 28.63444
 CYCLE:   132 TIME:   0.011 TIME LEFT:  2.00D  GRAD.:     1.301 HEAT: 28.63167
 CYCLE:   133 TIME:   0.010 TIME LEFT:  2.00D  GRAD.:     1.203 HEAT: 28.62892
 CYCLE:   134 TIME:   0.010 TIME LEFT:  2.00D  GRAD.:     1.376 HEAT: 28.62620
 CYCLE:   135 TIME:   0.010 TIME LEFT:  2.00D  GRAD.:     1.080 HEAT: 28.62468
 CYCLE:   136 TIME:   0.011 TIME LEFT:  2.00D  GRAD.:     1.343 HEAT: 28.62097
 CYCLE:   137 TIME:   0.010 TIME LEFT:  2.00D  GRAD.:     1.203 HEAT: 28.61884
 CYCLE:   138 TIME:   0.011 TIME LEFT:  2.00D  GRAD.:     1.826 HEAT: 28.61088
 CYCLE:   139 TIME:   0.010 TIME LEFT:  2.00D  GRAD.:     1.147 HEAT: 28.60811
 CYCLE:   140 TIME:   0.011 TIME LEFT:  2.00D  GRAD.:     0.867 HEAT: 28.60376
 CYCLE:   141 TIME:   0.011 TIME LEFT:  2.00D  GRAD.:     0.881 HEAT: 28.60007
 CYCLE:   142 TIME:   0.011 TIME LEFT:  2.00D  GRAD.:     0.780 HEAT: 28.59874
 CYCLE:   143 TIME:   0.011 TIME LEFT:  2.00D  GRAD.:     0.481 HEAT: 28.59807
 CYCLE:   144 TIME:   0.012 TIME LEFT:  2.00D  GRAD.:     0.435 HEAT: 28.59762
 CYCLE:   145 TIME:   0.010 TIME LEFT:  2.00D  GRAD.:     0.486 HEAT: 28.59726
 CYCLE:   146 TIME:   0.011 TIME LEFT:  2.00D  GRAD.:     0.566 HEAT: 28.59675
 CYCLE:   147 TIME:   0.011 TIME LEFT:  2.00D  GRAD.:     0.641 HEAT: 28.59591
 CYCLE:   148 TIME:   0.011 TIME LEFT:  2.00D  GRAD.:     0.852 HEAT: 28.59449
 CYCLE:   149 TIME:   0.011 TIME LEFT:  2.00D  GRAD.:     0.798 HEAT: 28.59315
 CYCLE:   150 TIME:   0.011 TIME LEFT:  2.00D  GRAD.:     0.973 HEAT: 28.59099
 CYCLE:   151 TIME:   0.011 TIME LEFT:  2.00D  GRAD.:     1.067 HEAT: 28.58948
 CYCLE:   152 TIME:   0.011 TIME LEFT:  2.00D  GRAD.:     1.050 HEAT: 28.58748
 CYCLE:   153 TIME:   0.013 TIME LEFT:  2.00D  GRAD.:     0.870 HEAT: 28.58549
 CYCLE:   154 TIME:   0.011 TIME LEFT:  2.00D  GRAD.:     0.846 HEAT: 28.58296
 CYCLE:   155 TIME:   0.011 TIME LEFT:  2.00D  GRAD.:     0.776 HEAT: 28.58138
 CYCLE:   156 TIME:   0.011 TIME LEFT:  2.00D  GRAD.:     0.653 HEAT: 28.57989
 CYCLE:   157 TIME:   0.010 TIME LEFT:  2.00D  GRAD.:     0.598 HEAT: 28.57890
 CYCLE:   158 TIME:   0.010 TIME LEFT:  2.00D  GRAD.:     0.442 HEAT: 28.57831
 CYCLE:   159 TIME:   0.010 TIME LEFT:  2.00D  GRAD.:     0.616 HEAT: 28.57796
 CYCLE:   160 TIME:   0.011 TIME LEFT:  2.00D  GRAD.:     0.318 HEAT: 28.57771
 CYCLE:   161 TIME:   0.011 TIME LEFT:  2.00D  GRAD.:     0.262 HEAT: 28.57754
 CYCLE:   162 TIME:   0.011 TIME LEFT:  2.00D  GRAD.:     0.229 HEAT: 28.57742
 CYCLE:   163 TIME:   0.013 TIME LEFT:  2.00D  GRAD.:     0.217 HEAT: 28.57731
 CYCLE:   164 TIME:   0.011 TIME LEFT:  2.00D  GRAD.:     0.273 HEAT: 28.57718
 CYCLE:   165 TIME:   0.010 TIME LEFT:  2.00D  GRAD.:     0.237 HEAT: 28.57707
 CYCLE:   166 TIME:   0.011 TIME LEFT:  2.00D  GRAD.:     0.393 HEAT: 28.57680
 CYCLE:   167 TIME:   0.011 TIME LEFT:  2.00D  GRAD.:     0.465 HEAT: 28.57655
 CYCLE:   168 TIME:   0.013 TIME LEFT:  2.00D  GRAD.:     0.749 HEAT: 28.57573
 CYCLE:   169 TIME:   0.011 TIME LEFT:  2.00D  GRAD.:     0.705 HEAT: 28.57519
 CYCLE:   170 TIME:   0.010 TIME LEFT:  2.00D  GRAD.:     0.515 HEAT: 28.57440
 CYCLE:   171 TIME:   0.010 TIME LEFT:  2.00D  GRAD.:     0.382 HEAT: 28.57426
 CYCLE:   172 TIME:   0.011 TIME LEFT:  2.00D  GRAD.:     0.422 HEAT: 28.57402
 CYCLE:   173 TIME:   0.010 TIME LEFT:  2.00D  GRAD.:     0.285 HEAT: 28.57383
 CYCLE:   174 TIME:   0.011 TIME LEFT:  2.00D  GRAD.:     0.333 HEAT: 28.57364
 CYCLE:   175 TIME:   0.010 TIME LEFT:  2.00D  GRAD.:     0.421 HEAT: 28.57344
 CYCLE:   176 TIME:   0.011 TIME LEFT:  2.00D  GRAD.:     0.484 HEAT: 28.57314
 CYCLE:   177 TIME:   0.010 TIME LEFT:  2.00D  GRAD.:     0.418 HEAT: 28.57262
 CYCLE:   178 TIME:   0.011 TIME LEFT:  2.00D  GRAD.:     0.374 HEAT: 28.57210
 CYCLE:   179 TIME:   0.011 TIME LEFT:  2.00D  GRAD.:     2.817 HEAT: 28.57412
 CYCLE:   180 TIME:   0.011 TIME LEFT:  2.00D  GRAD.:     1.177 HEAT: 28.57010
 CYCLE:   181 TIME:   0.013 TIME LEFT:  2.00D  GRAD.:     0.673 HEAT: 28.56901
 CYCLE:   182 TIME:   0.011 TIME LEFT:  2.00D  GRAD.:     2.158 HEAT: 28.56862
 CYCLE:   183 TIME:   0.010 TIME LEFT:  2.00D  GRAD.:     0.260 HEAT: 28.56695
 CYCLE:   184 TIME:   0.012 TIME LEFT:  2.00D  GRAD.:     0.297 HEAT: 28.56623
 CYCLE:   185 TIME:   0.011 TIME LEFT:  2.00D  GRAD.:     0.901 HEAT: 28.56533
 CYCLE:   186 TIME:   0.013 TIME LEFT:  2.00D  GRAD.:     0.428 HEAT: 28.56496
 CYCLE:   187 TIME:   0.011 TIME LEFT:  2.00D  GRAD.:     0.193 HEAT: 28.56474
 CYCLE:   188 TIME:   0.010 TIME LEFT:  2.00D  GRAD.:     0.190 HEAT: 28.56454
 CYCLE:   189 TIME:   0.010 TIME LEFT:  2.00D  GRAD.:     0.171 HEAT: 28.56440
 CYCLE:   190 TIME:   0.010 TIME LEFT:  2.00D  GRAD.:     0.132 HEAT: 28.56435
 CYCLE:   191 TIME:   0.011 TIME LEFT:  2.00D  GRAD.:     0.074 HEAT: 28.56433
 CYCLE:   192 TIME:   0.012 TIME LEFT:  2.00D  GRAD.:     0.054 HEAT: 28.56431
 CYCLE:   193 TIME:   0.011 TIME LEFT:  2.00D  GRAD.:     0.028 HEAT: 28.56430

     RMS GRADIENT =  0.02842  IS LESS THAN CUTOFF =  0.05000



 -------------------------------------------------------------------------------
pm3  precise nosym
 InChI=1S/C11H16/c1-3-7-10(4-2)11-8-5-6-9-11/h3,5-11H,4H2,1-2H3



     GEOMETRY OPTIMISED USING EIGENVECTOR FOLLOWING (EF).     
     SCF FIELD WAS ACHIEVED                                   


                              PM3 CALCULATION
                                                       MOPAC2012 (Version: 13.159M)
                                                       Mon Jun  2 11:12:33 2014
                                                       No. of days left =   6




          FINAL HEAT OF FORMATION =         28.56430 KCAL/MOL =     119.51304 KJ/MOL


          TOTAL ENERGY            =      -1549.12877 EV
          ELECTRONIC ENERGY       =      -9184.92598 EV  POINT GROUP:     C1  
          CORE-CORE REPULSION     =       7635.79722 EV
          COSMO AREA              =        208.64 SQUARE ANGSTROMS
          COSMO VOLUME            =        220.32 CUBIC ANGSTROMS

          GRADIENT NORM           =          0.02842
          IONIZATION POTENTIAL    =          9.204078 EV
          HOMO LUMO ENERGIES (EV) =         -9.204  0.323
          NO. OF FILLED LEVELS    =         30
          MOLECULAR WEIGHT        =        148.247

          MOLECULAR DIMENSIONS (Angstroms)

            Atom       Atom       Distance
            H    26    H    19     7.03236
            H    18    H    27     6.49814
            H    21    H    23     4.42722


          SCF CALCULATIONS        =        206
          COMPUTATION TIME        =          2.226 SECONDS




   ATOM   CHEMICAL          X               Y               Z
  NUMBER   SYMBOL      (ANGSTROMS)     (ANGSTROMS)     (ANGSTROMS)
 
     1       C         -0.21345990  *   0.62124014  *  -0.43713986  *
     2       C         -1.59343256  *  -0.04452913  *  -0.44435500  *
     3       C         -0.29145241  *   2.01058946  *   0.20824917  *
     4       C          0.94266559  *   2.83621336  *  -0.07686935  *
     5       C          2.98398466  *  -1.34762987  *   0.48653739  *
     6       C          0.79315830  *  -0.21749780  *   0.28679709  *
     7       C         -2.10486145  *  -0.48582997  *   0.90735011  *
     8       C         -1.63360573  *  -1.32931732  *  -1.23884168  *
     9       C          1.98357150  *  -0.52575014  *  -0.22973775  *
    10       C         -2.43198432  *  -1.79578654  *   0.86323068  *
    11       C         -2.13696129  *  -2.32150053  *  -0.47293888  *
    12       H          0.09647181  *   0.74412161  *  -1.50606830  *
    13       H         -2.33869925  *   0.66229917  *  -0.88622903  *
    14       H         -1.18911854  *   2.54475002  *  -0.16313581  *
    15       H         -0.43722503  *   1.90640139  *   1.30224331  *
    16       H          1.05409676  *   3.04211030  *  -1.14992804  *
    17       H          1.85547776  *   2.31993096  *   0.25147718  *
    18       H          0.90304120  *   3.80274429  *   0.44098662  *
    19       H          3.91643307  *  -0.78419089  *   0.62616645  *
    20       H          3.22600135  *  -2.24931278  *  -0.09202473  *
    21       H          2.64100776  *  -1.67238361  *   1.47796031  *
    22       H         -2.18368384  *   0.19727637  *   1.75077231  *
    23       H         -1.29561291  *  -1.38483936  *  -2.27129389  *
    24       H          0.49097688  *  -0.56889387  *   1.28269927  *
    25       H          2.27583792  *  -0.17454558  *  -1.22755828  *
    26       H         -2.84790398  *  -2.40223013  *   1.66526195  *
    27       H         -2.30995200  *  -3.35696117  *  -0.75897369  *

           Empirical Formula: C11 H16  =    27 atoms



      MOLECULAR POINT GROUP   :   C1  


                  EIGENVALUES  
 -41.48755 -36.66297 -33.77978 -29.24346 -27.32282 -26.08329 -23.30214 -20.71230
 -19.84764 -18.83865 -18.25682 -17.84707 -16.33288 -15.51450 -15.30462 -14.41347
 -14.19506 -14.07888 -13.89321 -13.69062 -13.20320 -13.06621 -12.74640 -12.44162
 -12.02329 -12.00899 -11.53196 -10.97348  -9.72467  -9.20408   0.32313   1.15517
   2.04235   3.19100   3.35852   3.39483   3.56841   3.67496   3.77035   3.88958
   3.95384   4.02254   4.05618   4.12697   4.26205   4.35787   4.36945   4.48509
   4.50080   4.56427   4.59728   4.72237   4.89900   4.96154   5.04171   5.67456
   5.81077   5.86940   6.03894   6.17710


              NET ATOMIC CHARGES AND DIPOLE CONTRIBUTIONS

  ATOM NO.   TYPE          CHARGE      No. of ELECS.   s-Pop       p-Pop       
    1          C          -0.014818        4.0148     1.16411     2.85071
    2          C          -0.033407        4.0334     1.16867     2.86474
    3          C          -0.097398        4.0974     1.16194     2.93545
    4          C          -0.115059        4.1151     1.13899     2.97607
    5          C          -0.073396        4.0734     1.12506     2.94833
    6          C          -0.147635        4.1476     1.19885     2.94879
    7          C          -0.159085        4.1591     1.20852     2.95057
    8          C          -0.153089        4.1531     1.20926     2.94383
    9          C          -0.146954        4.1470     1.19337     2.95359
   10          C          -0.118098        4.1181     1.19247     2.92563
   11          C          -0.120819        4.1208     1.19224     2.92858
   12          H           0.066689        0.9333     0.93331
   13          H           0.091238        0.9088     0.90876
   14          H           0.048554        0.9514     0.95145
   15          H           0.053582        0.9464     0.94642
   16          H           0.037002        0.9630     0.96300
   17          H           0.046356        0.9536     0.95364
   18          H           0.038173        0.9618     0.96183
   19          H           0.042313        0.9577     0.95769
   20          H           0.043820        0.9562     0.95618
   21          H           0.041738        0.9583     0.95826
   22          H           0.117874        0.8821     0.88213
   23          H           0.116657        0.8833     0.88334
   24          H           0.110982        0.8890     0.88902
   25          H           0.097720        0.9023     0.90228
   26          H           0.113295        0.8867     0.88671
   27          H           0.113764        0.8862     0.88624
 DIPOLE           X         Y         Z       TOTAL
 POINT-CHG.     0.243     0.378    -0.082     0.457
 HYBRID        -0.052    -0.009    -0.022     0.057
 SUM            0.191     0.369    -0.104     0.428


          ATOMIC ORBITAL ELECTRON POPULATIONS

    Atom      s        px        py        pz   
    1  C   1.16411   0.92451   0.93620   0.98999
    2  C   1.16867   0.96140   0.96450   0.93884
    3  C   1.16194   0.97960   0.94764   1.00822
    4  C   1.13899   0.97903   0.99029   1.00675
    5  C   1.12506   0.97519   0.98221   0.99093
    6  C   1.19885   0.95468   0.99389   1.00021
    7  C   1.20852   1.01112   0.96812   0.97132
    8  C   1.20926   1.00588   0.95309   0.98486
    9  C   1.19337   0.96142   0.99750   0.99467
   10  C   1.19247   1.00594   0.95511   0.96458
   11  C   1.19224   1.00442   0.97720   0.94696
   12  H   0.93331
   13  H   0.90876
   14  H   0.95145
   15  H   0.94642
   16  H   0.96300
   17  H   0.95364
   18  H   0.96183
   19  H   0.95769
   20  H   0.95618
   21  H   0.95826
   22  H   0.88213
   23  H   0.88334
   24  H   0.88902
   25  H   0.90228
   26  H   0.88671
   27  H   0.88624
 *******************************************************************************
 ** Site#: 14399           For non-commercial use only        Version 13.159M **
 *******************************************************************************
 ** Cite this work as: MOPAC2012, James J. P. Stewart, Stewart Computational  **
 ** Chemistry, Version 13.159M web: HTTP://OpenMOPAC.net  Days remaining:   6 **
 *******************************************************************************
 **                                                                           **
 **                                MOPAC2012                                  **
 **                                                                           **
 *******************************************************************************

                            PM3 CALCULATION RESULTS


 *******************************************************************************
 *  CALCULATION DONE:                                Mon Jun  2 11:12:33 2014  *
 *  PM3      - The PM3 Hamiltonian to be used
 *  OLDGEO   - PREVIOUS GEOMETRY TO BE USED
 *  PRECISE  - CRITERIA TO BE INCREASED BY 100 TIMES
 *  NOSYM    - POINT-GROUP SYMMETRY SET TO C1
 *  T=       - A TIME OF 172800.0 SECONDS REQUESTED
 *  DUMP=N   - RESTART FILE WRITTEN EVERY  7200.000 SECONDS
 *  THERMO   - THERMODYNAMIC QUANTITIES TO BE CALCULATED
 *******************************************************************************
oldgeo thermo nosym precise  pm3

   ATOM   CHEMICAL          X               Y               Z
  NUMBER   SYMBOL      (ANGSTROMS)     (ANGSTROMS)     (ANGSTROMS)
 
     1       C         -0.21345990  *   0.62124014  *  -0.43713986  *
     2       C         -1.59343256  *  -0.04452913  *  -0.44435500  *
     3       C         -0.29145241  *   2.01058946  *   0.20824917  *
     4       C          0.94266559  *   2.83621336  *  -0.07686935  *
     5       C          2.98398466  *  -1.34762987  *   0.48653739  *
     6       C          0.79315830  *  -0.21749780  *   0.28679709  *
     7       C         -2.10486145  *  -0.48582997  *   0.90735011  *
     8       C         -1.63360573  *  -1.32931732  *  -1.23884168  *
     9       C          1.98357150  *  -0.52575014  *  -0.22973775  *
    10       C         -2.43198432  *  -1.79578654  *   0.86323068  *
    11       C         -2.13696129  *  -2.32150053  *  -0.47293888  *
    12       H          0.09647181  *   0.74412161  *  -1.50606830  *
    13       H         -2.33869925  *   0.66229917  *  -0.88622903  *
    14       H         -1.18911854  *   2.54475002  *  -0.16313581  *
    15       H         -0.43722503  *   1.90640139  *   1.30224331  *
    16       H          1.05409676  *   3.04211030  *  -1.14992804  *
    17       H          1.85547776  *   2.31993096  *   0.25147718  *
    18       H          0.90304120  *   3.80274429  *   0.44098662  *
    19       H          3.91643307  *  -0.78419089  *   0.62616645  *
    20       H          3.22600135  *  -2.24931278  *  -0.09202473  *
    21       H          2.64100776  *  -1.67238361  *   1.47796031  *
    22       H         -2.18368384  *   0.19727637  *   1.75077231  *
    23       H         -1.29561291  *  -1.38483936  *  -2.27129389  *
    24       H          0.49097688  *  -0.56889387  *   1.28269927  *
    25       H          2.27583792  *  -0.17454558  *  -1.22755828  *
    26       H         -2.84790398  *  -2.40223013  *   1.66526195  *
    27       H         -2.30995200  *  -3.35696117  *  -0.75897369  *
 


          CARTESIAN COORDINATES 

    NO.       ATOM         X         Y         Z

     1         C       -0.2135    0.6212   -0.4371
     2         C       -1.5934   -0.0445   -0.4444
     3         C       -0.2915    2.0106    0.2082
     4         C        0.9427    2.8362   -0.0769
     5         C        2.9840   -1.3476    0.4865
     6         C        0.7932   -0.2175    0.2868
     7         C       -2.1049   -0.4858    0.9074
     8         C       -1.6336   -1.3293   -1.2388
     9         C        1.9836   -0.5258   -0.2297
    10         C       -2.4320   -1.7958    0.8632
    11         C       -2.1370   -2.3215   -0.4729
    12         H        0.0965    0.7441   -1.5061
    13         H       -2.3387    0.6623   -0.8862
    14         H       -1.1891    2.5448   -0.1631
    15         H       -0.4372    1.9064    1.3022
    16         H        1.0541    3.0421   -1.1499
    17         H        1.8555    2.3199    0.2515
    18         H        0.9030    3.8027    0.4410
    19         H        3.9164   -0.7842    0.6262
    20         H        3.2260   -2.2493   -0.0920
    21         H        2.6410   -1.6724    1.4780
    22         H       -2.1837    0.1973    1.7508
    23         H       -1.2956   -1.3848   -2.2713
    24         H        0.4910   -0.5689    1.2827
    25         H        2.2758   -0.1745   -1.2276
    26         H       -2.8479   -2.4022    1.6653
    27         H       -2.3100   -3.3570   -0.7590

  H: (PM3): J. J. P. STEWART, J. COMP. CHEM. 10, 209 (1989).
  C: (PM3): J. J. P. STEWART, J. COMP. CHEM. 10, 209 (1989).

           Empirical Formula: C11 H16  =    27 atoms



      MOLECULAR POINT GROUP   :   C1  


      RHF CALCULATION, NO. OF DOUBLY OCCUPIED LEVELS =   30



          HEAT OF FORMATION =      28.564302 KCALS/MOLE


          INTERNAL COORDINATE DERIVATIVES

   NUMBER  ATOM       BOND         ANGLE      DIHEDRAL

     1       C     -0.002178     0.001967     0.001012
     2       C      0.000353    -0.003821    -0.004071
     3       C     -0.000335     0.002259    -0.000235
     4       C      0.002293    -0.000541    -0.000259
     5       C      0.006918    -0.008031     0.006456
     6       C      0.007785     0.004069     0.003337
     7       C     -0.004352    -0.000053     0.002755
     8       C     -0.003423     0.003706     0.003205
     9       C     -0.007663     0.001987    -0.005417
    10       C      0.003802    -0.005436     0.004867
    11       C      0.002825     0.007179    -0.006893
    12       H     -0.000875    -0.001026    -0.000319
    13       H      0.002056    -0.000733    -0.001026
    14       H     -0.000055    -0.000165    -0.000496
    15       H     -0.000743    -0.001236     0.002316
    16       H      0.000590    -0.000972    -0.000763
    17       H     -0.001642     0.000122     0.000224
    18       H      0.000735    -0.001305     0.000126
    19       H     -0.011327     0.004793    -0.000929
    20       H     -0.000019    -0.002141     0.001830
    21       H      0.003730     0.002474    -0.009021
    22       H      0.000005     0.001696     0.000899
    23       H      0.001053    -0.000274    -0.000919
    24       H      0.005261    -0.000114    -0.006551
    25       H     -0.003077    -0.003618     0.009832
    26       H     -0.000584    -0.001126    -0.000546
    27       H     -0.001133     0.000338     0.000586


          GRADIENT NORM =   0.03326


          TIME FOR SCF CALCULATION =    0.01

          TIME FOR DERIVATIVES     =    0.01

          MOLECULAR WEIGHT =  148.25



          ROTATIONAL CONSTANTS IN CM(-1)

          A =    0.04542370   B =    0.02731270   C =    0.02001794



           PRINCIPAL MOMENTS OF INERTIA IN UNITS OF 10**(-40)*GRAM-CM**2

          A =      616.2592   B =     1024.8995   C =     1398.3843


          ORIENTATION OF MOLECULE IN FORCE CALCULATION

    NO.       ATOM         X         Y         Z

     1          C      -0.4060    0.4390    0.7027
     2          C       1.1262    0.4390    0.7027
     3          C      -0.9425    1.8760    0.7027
     4          C      -2.4114    1.9308    1.0567
     5          C      -2.4346   -1.9806   -1.5297
     6          C      -0.9515   -0.3051   -0.4760
     7          C       1.7722    0.8883   -0.5873
     8          C       1.7244   -0.9345    0.9009
     9          C      -1.8873   -1.2491   -0.3657
    10          C       2.6363   -0.0577   -1.0157
    11          C       2.6053   -1.1936   -0.0897
    12          H      -0.7335   -0.0614    1.6494
    13          H       1.4924    1.1010    1.5261
    14          H      -0.3643    2.4902    1.4222
    15          H      -0.7711    2.3385   -0.2900
    16          H      -2.5962    1.5729    2.0785
    17          H      -3.0107    1.3058    0.3801
    18          H      -2.7981    2.9556    0.9923
    19          H      -3.5199   -1.8290   -1.6042
    20          H      -2.2580   -3.0595   -1.4233
    21          H      -1.9892   -1.6645   -2.4824
    22          H       1.5424    1.8460   -1.0501
    23          H       1.4490   -1.5730    1.7374
    24          H      -0.5314   -0.0243   -1.4513
    25          H      -2.2985   -1.5270    0.6131
    26          H       3.2706   -0.0244   -1.8992
    27          H       3.2124   -2.0871   -0.2200


    FIRST DERIVATIVES WILL BE USED IN THE CALCULATION OF SECOND DERIVATIVES

          ESTIMATED TIME TO COMPLETE CALCULATION =        4.80 SECONDS

    FOR POINT-GROUP C1   THERE ARE   1 UNIQUE SYMMETRY FUNCTIONS.

 STEP:   1 TIME =     0.05 SECS, INTEGRAL =      0.05 TIME LEFT: 172799.94
 STEP:   2 TIME =     0.05 SECS, INTEGRAL =      0.09 TIME LEFT: 172799.89
 STEP:   3 TIME =     0.05 SECS, INTEGRAL =      0.15 TIME LEFT: 172799.84
 STEP:   4 TIME =     0.05 SECS, INTEGRAL =      0.20 TIME LEFT: 172799.79
 STEP:   5 TIME =     0.05 SECS, INTEGRAL =      0.25 TIME LEFT: 172799.73
 STEP:   6 TIME =     0.05 SECS, INTEGRAL =      0.30 TIME LEFT: 172799.68
 STEP:   7 TIME =     0.05 SECS, INTEGRAL =      0.35 TIME LEFT: 172799.63
 STEP:   8 TIME =     0.05 SECS, INTEGRAL =      0.40 TIME LEFT: 172799.58
 STEP:   9 TIME =     0.05 SECS, INTEGRAL =      0.45 TIME LEFT: 172799.53
 STEP:  10 TIME =     0.05 SECS, INTEGRAL =      0.51 TIME LEFT: 172799.48
 STEP:  11 TIME =     0.05 SECS, INTEGRAL =      0.55 TIME LEFT: 172799.43
 STEP:  12 TIME =     0.05 SECS, INTEGRAL =      0.60 TIME LEFT: 172799.38
 STEP:  13 TIME =     0.05 SECS, INTEGRAL =      0.65 TIME LEFT: 172799.34
 STEP:  14 TIME =     0.05 SECS, INTEGRAL =      0.70 TIME LEFT: 172799.29
 STEP:  15 TIME =     0.05 SECS, INTEGRAL =      0.75 TIME LEFT: 172799.24
 STEP:  16 TIME =     0.05 SECS, INTEGRAL =      0.80 TIME LEFT: 172799.19
 STEP:  17 TIME =     0.05 SECS, INTEGRAL =      0.85 TIME LEFT: 172799.13
 STEP:  18 TIME =     0.06 SECS, INTEGRAL =      0.91 TIME LEFT: 172799.08
 STEP:  19 TIME =     0.05 SECS, INTEGRAL =      0.96 TIME LEFT: 172799.03
 STEP:  20 TIME =     0.05 SECS, INTEGRAL =      1.00 TIME LEFT: 172798.98
 STEP:  21 TIME =     0.05 SECS, INTEGRAL =      1.05 TIME LEFT: 172798.94
 STEP:  22 TIME =     0.05 SECS, INTEGRAL =      1.10 TIME LEFT: 172798.88
 STEP:  23 TIME =     0.05 SECS, INTEGRAL =      1.15 TIME LEFT: 172798.84
 STEP:  24 TIME =     0.05 SECS, INTEGRAL =      1.19 TIME LEFT: 172798.79
 STEP:  25 TIME =     0.05 SECS, INTEGRAL =      1.25 TIME LEFT: 172798.74
 STEP:  26 TIME =     0.05 SECS, INTEGRAL =      1.29 TIME LEFT: 172798.69
 STEP:  27 TIME =     0.05 SECS, INTEGRAL =      1.34 TIME LEFT: 172798.64
 STEP:  28 TIME =     0.05 SECS, INTEGRAL =      1.39 TIME LEFT: 172798.60
 STEP:  29 TIME =     0.05 SECS, INTEGRAL =      1.44 TIME LEFT: 172798.55
 STEP:  30 TIME =     0.05 SECS, INTEGRAL =      1.49 TIME LEFT: 172798.50
 STEP:  31 TIME =     0.05 SECS, INTEGRAL =      1.54 TIME LEFT: 172798.45
 STEP:  32 TIME =     0.05 SECS, INTEGRAL =      1.59 TIME LEFT: 172798.39
 STEP:  33 TIME =     0.05 SECS, INTEGRAL =      1.64 TIME LEFT: 172798.35
 STEP:  34 TIME =     0.05 SECS, INTEGRAL =      1.69 TIME LEFT: 172798.30
 STEP:  35 TIME =     0.05 SECS, INTEGRAL =      1.74 TIME LEFT: 172798.25
 STEP:  36 TIME =     0.05 SECS, INTEGRAL =      1.78 TIME LEFT: 172798.20
 STEP:  37 TIME =     0.05 SECS, INTEGRAL =      1.83 TIME LEFT: 172798.15
 STEP:  38 TIME =     0.05 SECS, INTEGRAL =      1.88 TIME LEFT: 172798.10
 STEP:  39 TIME =     0.05 SECS, INTEGRAL =      1.93 TIME LEFT: 172798.06
 STEP:  40 TIME =     0.05 SECS, INTEGRAL =      1.98 TIME LEFT: 172798.01
 STEP:  41 TIME =     0.05 SECS, INTEGRAL =      2.02 TIME LEFT: 172797.96
 STEP:  42 TIME =     0.05 SECS, INTEGRAL =      2.07 TIME LEFT: 172797.91
 STEP:  43 TIME =     0.05 SECS, INTEGRAL =      2.13 TIME LEFT: 172797.86
 STEP:  44 TIME =     0.05 SECS, INTEGRAL =      2.18 TIME LEFT: 172797.81
 STEP:  45 TIME =     0.05 SECS, INTEGRAL =      2.22 TIME LEFT: 172797.76
 STEP:  46 TIME =     0.05 SECS, INTEGRAL =      2.28 TIME LEFT: 172797.71
 STEP:  47 TIME =     0.05 SECS, INTEGRAL =      2.32 TIME LEFT: 172797.66
 STEP:  48 TIME =     0.05 SECS, INTEGRAL =      2.37 TIME LEFT: 172797.62
 STEP:  49 TIME =     0.05 SECS, INTEGRAL =      2.42 TIME LEFT: 172797.57
 STEP:  50 TIME =     0.05 SECS, INTEGRAL =      2.46 TIME LEFT: 172797.52
 STEP:  51 TIME =     0.05 SECS, INTEGRAL =      2.51 TIME LEFT: 172797.48
 STEP:  52 TIME =     0.05 SECS, INTEGRAL =      2.56 TIME LEFT: 172797.42
 STEP:  53 TIME =     0.04 SECS, INTEGRAL =      2.61 TIME LEFT: 172797.38
 STEP:  54 TIME =     0.05 SECS, INTEGRAL =      2.65 TIME LEFT: 172797.33
 STEP:  55 TIME =     0.05 SECS, INTEGRAL =      2.70 TIME LEFT: 172797.29
 STEP:  56 TIME =     0.05 SECS, INTEGRAL =      2.75 TIME LEFT: 172797.24
 STEP:  57 TIME =     0.05 SECS, INTEGRAL =      2.79 TIME LEFT: 172797.19
 STEP:  58 TIME =     0.05 SECS, INTEGRAL =      2.84 TIME LEFT: 172797.14
 STEP:  59 TIME =     0.05 SECS, INTEGRAL =      2.89 TIME LEFT: 172797.09
 STEP:  60 TIME =     0.05 SECS, INTEGRAL =      2.95 TIME LEFT: 172797.04
 STEP:  61 TIME =     0.05 SECS, INTEGRAL =      3.00 TIME LEFT: 172796.99
 STEP:  62 TIME =     0.05 SECS, INTEGRAL =      3.04 TIME LEFT: 172796.94
 STEP:  63 TIME =     0.05 SECS, INTEGRAL =      3.09 TIME LEFT: 172796.89
 STEP:  64 TIME =     0.05 SECS, INTEGRAL =      3.14 TIME LEFT: 172796.84
 STEP:  65 TIME =     0.05 SECS, INTEGRAL =      3.19 TIME LEFT: 172796.79
 STEP:  66 TIME =     0.05 SECS, INTEGRAL =      3.24 TIME LEFT: 172796.75
 STEP:  67 TIME =     0.05 SECS, INTEGRAL =      3.29 TIME LEFT: 172796.70
 STEP:  68 TIME =     0.05 SECS, INTEGRAL =      3.34 TIME LEFT: 172796.65
 STEP:  69 TIME =     0.05 SECS, INTEGRAL =      3.39 TIME LEFT: 172796.59
 STEP:  70 TIME =     0.06 SECS, INTEGRAL =      3.45 TIME LEFT: 172796.54
 STEP:  71 TIME =     0.05 SECS, INTEGRAL =      3.50 TIME LEFT: 172796.49
 STEP:  72 TIME =     0.04 SECS, INTEGRAL =      3.54 TIME LEFT: 172796.44
 STEP:  73 TIME =     0.05 SECS, INTEGRAL =      3.59 TIME LEFT: 172796.39
 STEP:  74 TIME =     0.05 SECS, INTEGRAL =      3.64 TIME LEFT: 172796.34
 STEP:  75 TIME =     0.05 SECS, INTEGRAL =      3.69 TIME LEFT: 172796.29
 STEP:  76 TIME =     0.05 SECS, INTEGRAL =      3.74 TIME LEFT: 172796.24
 STEP:  77 TIME =     0.06 SECS, INTEGRAL =      3.80 TIME LEFT: 172796.18
 STEP:  78 TIME =     0.05 SECS, INTEGRAL =      3.85 TIME LEFT: 172796.14
 STEP:  79 TIME =     0.05 SECS, INTEGRAL =      3.90 TIME LEFT: 172796.09
 STEP:  80 TIME =     0.05 SECS, INTEGRAL =      3.95 TIME LEFT: 172796.04
 STEP:  81 TIME =     0.05 SECS, INTEGRAL =      3.99 TIME LEFT: 172795.99

(To convert to Hartree/Bohr^2, multiply by (10^(-21) x N x a0^2)/(4.184 x 627.51) = 0.0642)


           FORCE MATRIX IN MILLIDYNES/ANGSTROM


                  C  1       C  2       C  3       C  4       C  5       C  6
 ------------------------------------------------------------------------------
     C    1  14.451533
     C    2   3.673783  14.764372
     C    3   3.720114   0.630208  14.243938
     C    4   0.627629   0.053344   4.468983  14.368016
     C    5   0.141233   0.018252   0.021308   0.001195  14.720553
     C    6   4.672724   0.644481   0.684503   0.050050   0.847432  18.154347
     C    7   0.555831   4.121190   0.041052   0.004349   0.001725   0.062435
     C    8   0.574653   4.125526   0.046799   0.010034   0.001899   0.039042
     C    9   0.796610   0.039311   0.033227   0.024405   5.265748  10.694572
     C   10   0.052869   1.210313   0.009461   0.001385   0.001463   0.014937
     C   11   0.050037   1.207524   0.009238   0.002302   0.001453   0.010237
     H   12   4.148080   0.415410   0.427442   0.038294   0.002483   0.441598
     H   13   0.436546   4.169782   0.044214   0.002824   0.003137   0.045854
     H   14   0.444079   0.053392   4.434051   0.435928   0.003573   0.046302
     H   15   0.449651   0.014318   4.442767   0.438317   0.000808   0.035529
     H   16   0.021925   0.002095   0.463440   4.719866   0.000299   0.002493
     H   17   0.024772   0.001890   0.464702   4.705087   0.001642   0.012515
     H   18   0.049676   0.009137   0.449720   4.759088   0.000313   0.002625
     H   19   0.018928   0.002380   0.003571   0.000465   4.705789   0.034929
     H   20   0.018406   0.003072   0.002339   0.000282   4.707593   0.035838
     H   21   0.002155   0.000685   0.000594   0.000156   4.725940   0.041929
     H   22   0.009581   0.403660   0.010366   0.001961   0.000440   0.006576
     H   23   0.013808   0.404196   0.002002   0.000710   0.000588   0.002063
     H   24   0.437425   0.025625   0.013387   0.002244   0.082104   4.744396
     H   25   0.082807   0.007720   0.010531   0.001683   0.423844   0.471531
     H   26   0.015457   0.112231   0.000696   0.000285   0.000407   0.001344
     H   27   0.015257   0.111989   0.002359   0.000626   0.000362   0.001239


                  C  7       C  8       C  9       C 10       C 11       H 12
 ------------------------------------------------------------------------------
     C    7  17.864685
     C    8   1.095351  17.891333
     C    9   0.007796   0.005101  18.190416
     C   10   9.769021   1.574676   0.001875  18.312879
     C   11   1.573454   9.779306   0.002853   5.151804  18.318786
     H   12   0.043840   0.030845   0.055928   0.007568   0.005103   4.624238
     H   13   0.379675   0.378656   0.005489   0.054660   0.054803   0.029922
     H   14   0.004660   0.001512   0.004422   0.001178   0.001113   0.019883
     H   15   0.009150   0.001517   0.002525   0.000843   0.000855   0.042105
     H   16   0.000797   0.000703   0.001419   0.000288   0.000445   0.022785
     H   17   0.000955   0.001059   0.013245   0.000899   0.000391   0.002678
     H   18   0.000976   0.001792   0.001271   0.000444   0.000747   0.002233
     H   19   0.000653   0.000601   0.439200   0.000307   0.000541   0.000612
     H   20   0.000857   0.000572   0.438033   0.000450   0.000799   0.000299
     H   21   0.000552   0.000434   0.478978   0.000473   0.000295   0.000598
     H   22   5.061010   0.042303   0.002287   0.442274   0.099851   0.001821
     H   23   0.041628   5.077528   0.001617   0.099799   0.442560   0.010807
     H   24   0.019762   0.002573   0.465451   0.008438   0.002856   0.035751
     H   25   0.001414   0.001939   4.767467   0.001133   0.000682   0.030176
     H   26   0.446378   0.049497   0.000711   5.070981   0.419198   0.002306
     H   27   0.048861   0.446823   0.000944   0.419135   5.072689   0.000650


                  H 13       H 14       H 15       H 16       H 17       H 18
 ------------------------------------------------------------------------------
     H   13   4.643095
     H   14   0.026188   5.052403
     H   15   0.001629   0.567588   5.062447
     H   16   0.000372   0.027610   0.047831   5.463220
     H   17   0.000494   0.048127   0.022067   0.574607   5.434911
     H   18   0.000611   0.028425   0.032058   0.573090   0.562640   5.490957
     H   19   0.000205   0.000769   0.000202   0.000251   0.000355   0.000197
     H   20   0.000612   0.000303   0.000206   0.000133   0.000358   0.000123
     H   21   0.000135   0.000220   0.000232   0.000147   0.000250   0.000101
     H   22   0.011586   0.000966   0.018920   0.000562   0.000457   0.000384
     H   23   0.011659   0.000556   0.000555   0.000222   0.000224   0.000208
     H   24   0.001776   0.001672   0.012539   0.000421   0.001234   0.000331
     H   25   0.001362   0.002231   0.000828   0.001130   0.002631   0.000494
     H   26   0.014512   0.000228   0.000292   0.000092   0.000181   0.000134
     H   27   0.014463   0.000206   0.000156   0.000112   0.000148   0.000208


                  H 19       H 20       H 21       H 22       H 23       H 24
 ------------------------------------------------------------------------------
     H   19   5.424718
     H   20   0.576155   5.426631
     H   21   0.563236   0.565211   5.451934
     H   22   0.000116   0.000208   0.000242   5.464258
     H   23   0.000187   0.000343   0.000223   0.010199   5.477257
     H   24   0.009207   0.009098   0.029435   0.005610   0.001365   5.124718
     H   25   0.023994   0.023998   0.040960   0.000447   0.001159   0.102719
     H   26   0.000204   0.000138   0.000177   0.041106   0.005437   0.001511
     H   27   0.000172   0.000330   0.000205   0.005307   0.041147   0.000814


                  H 25       H 26       H 27
 ------------------------------------------
     H   25   5.148304
     H   26   0.000276   5.461797
     H   27   0.000388   0.009552   5.463587


          HEAT OF FORMATION =      28.564302 KCALS/MOLE

          ZERO POINT ENERGY     148.910 KCAL/MOL


           NORMAL COORDINATE ANALYSIS (Total motion = 1 Angstrom)


   Root No.       1         2         3         4         5         6         7         8

                 1 A       2 A       3 A       4 A       5 A       6 A       7 A       8 A   

                  56.3      67.3      87.4     124.3     143.6     165.1     176.2     197.7
  
           1   -0.0079   -0.0001   -0.0080    0.0052    0.0095   -0.0064    0.0026    0.0039
           2    0.0133    0.0060   -0.0001    0.0044    0.0026   -0.0178   -0.0007   -0.0047
           3    0.0048   -0.0074   -0.0167    0.0074    0.0034    0.0179    0.0023   -0.0037
           4   -0.0076    0.0000   -0.0084    0.0056    0.0096   -0.0052    0.0019    0.0040
           5   -0.0023    0.0161   -0.0050    0.0085    0.0086   -0.0106    0.0028    0.0076
           6    0.0044   -0.0162   -0.0010    0.0103    0.0114    0.0109    0.0078    0.0123
           7    0.0060   -0.0105   -0.0039   -0.0034   -0.0058    0.0144   -0.0020    0.0005
           8    0.0181    0.0022    0.0019    0.0008   -0.0034   -0.0085   -0.0015   -0.0056
           9    0.0088    0.0090   -0.0373   -0.0037   -0.0162   -0.0030   -0.0178   -0.0228
          10    0.0063   -0.0031    0.0173   -0.0020   -0.0033    0.0166    0.0010    0.0074
          11    0.0309   -0.0112    0.0171   -0.0071   -0.0204    0.0341   -0.0030    0.0024
          12    0.0082    0.0424    0.0479    0.0040   -0.0017   -0.0064   -0.0046    0.0018
          13    0.0496    0.0115   -0.0035    0.0250    0.0051    0.0083   -0.0215   -0.0124
          14   -0.0272    0.0081   -0.0180   -0.0009    0.0108    0.0038    0.0270    0.0065
          15   -0.0041   -0.0206   -0.0019   -0.0049   -0.0001   -0.0252   -0.0059   -0.0019
          16   -0.0076   -0.0013   -0.0017    0.0188    0.0206   -0.0028    0.0007    0.0135
          17    0.0189    0.0127   -0.0118   -0.0055   -0.0086   -0.0209    0.0000   -0.0155
          18    0.0012   -0.0110   -0.0123    0.0074    0.0053    0.0183    0.0028   -0.0016
          19   -0.0063   -0.0093    0.0081   -0.0030    0.0066   -0.0339   -0.0008   -0.0003
          20    0.0007   -0.0242    0.0080    0.0048    0.0064   -0.0069    0.0032    0.0087
          21    0.0060   -0.0349    0.0120    0.0043    0.0090   -0.0028    0.0068    0.0108
          22   -0.0235    0.0077   -0.0115   -0.0025    0.0005    0.0254    0.0017    0.0056
          23   -0.0113    0.0257   -0.0070    0.0037    0.0034    0.0039    0.0026    0.0087
          24   -0.0092    0.0270   -0.0070    0.0036    0.0057    0.0125    0.0066    0.0122
          25    0.0324    0.0079   -0.0101    0.0037   -0.0076   -0.0179    0.0387    0.0102
          26   -0.0206    0.0031   -0.0031    0.0088    0.0190   -0.0082   -0.0371   -0.0122
          27   -0.0001   -0.0157   -0.0081   -0.0009    0.0007   -0.0039    0.0062   -0.0007
          28   -0.0206   -0.0070    0.0160   -0.0250   -0.0148   -0.0239   -0.0079   -0.0167
          29   -0.0069   -0.0346    0.0137   -0.0076   -0.0063    0.0063   -0.0003    0.0002
          30   -0.0058   -0.0076    0.0155   -0.0124   -0.0060   -0.0108    0.0006   -0.0027
          31   -0.0314    0.0035    0.0038   -0.0246   -0.0191    0.0176   -0.0063   -0.0123
          32   -0.0143   -0.0036    0.0043   -0.0081   -0.0083    0.0157   -0.0006    0.0009
          33   -0.0153    0.0310    0.0036   -0.0128   -0.0085    0.0020    0.0005   -0.0015
          34   -0.0136    0.0091   -0.0164    0.0034    0.0071   -0.0117   -0.0010   -0.0008
          35    0.0137   -0.0043    0.0107    0.0075    0.0085   -0.0075    0.0066    0.0012
          36    0.0030   -0.0096   -0.0137    0.0083    0.0056    0.0202    0.0047   -0.0021
          37    0.0004    0.0014   -0.0160    0.0071    0.0068   -0.0045   -0.0012   -0.0060
          38   -0.0131    0.0451   -0.0139    0.0078    0.0074   -0.0012    0.0034    0.0100
          39    0.0093   -0.0402    0.0099    0.0094    0.0128    0.0033    0.0085    0.0143
          40    0.0115   -0.0001    0.0384   -0.0035   -0.0063    0.0260    0.0025    0.0116
          41    0.0102    0.0045    0.0271    0.0117    0.0173   -0.0072    0.0158    0.0058
          42    0.0112   -0.0013   -0.0926   -0.0130   -0.0338   -0.0131   -0.0365   -0.0411
          43    0.0108   -0.0352   -0.0601   -0.0122   -0.0226    0.0238   -0.0145   -0.0160
          44    0.0200    0.0069   -0.0332   -0.0077   -0.0192   -0.0279   -0.0199   -0.0201
          45    0.0105    0.0070   -0.0632   -0.0092   -0.0264   -0.0107   -0.0287   -0.0323
          46    0.0017    0.0224    0.0771    0.0075    0.0171    0.0085    0.0206    0.0035
          47    0.0251   -0.0208    0.0537    0.0090    0.0238    0.0761    0.0721   -0.1445
          48    0.0054    0.0437    0.0716    0.0113    0.0174    0.0067    0.0251   -0.0499
          49    0.0001   -0.0138   -0.0239    0.0004    0.0037    0.0040    0.0052   -0.0277
          50    0.0430   -0.0099   -0.0056   -0.0252   -0.0674    0.0219   -0.0668    0.1319
          51    0.0029    0.0508    0.1056    0.0185    0.0350    0.0162    0.0505   -0.0856
          52    0.0171   -0.0119    0.0152   -0.0125   -0.0284    0.0383   -0.0201    0.0511
          53    0.0355   -0.0134    0.0155   -0.0121   -0.0327    0.0400   -0.0156    0.0291
          54    0.0159    0.0595    0.0348   -0.0118   -0.0461   -0.0449   -0.0790    0.1626
          55    0.0394    0.0095   -0.0020    0.0485   -0.0103    0.0063   -0.0155   -0.0133
          56   -0.0887   -0.0034   -0.0135    0.1188   -0.0793   -0.0168    0.0897    0.0125
          57    0.0211   -0.0151   -0.0144   -0.1092    0.0460   -0.0358    0.0285    0.0220
          58    0.1143    0.0241   -0.0100   -0.1078    0.1012    0.0291   -0.0780   -0.0151
          59   -0.0193    0.0091   -0.0172   -0.0144    0.0225    0.0053    0.0136    0.0040
          60   -0.0297   -0.0315    0.0167    0.0750   -0.0385   -0.0443   -0.0522   -0.0235
          61    0.0119    0.0043    0.0072    0.1444   -0.0582    0.0133   -0.0299   -0.0300
          62    0.0179    0.0221   -0.0352   -0.1087    0.0765    0.0310    0.0398    0.0208
          63   -0.0067   -0.0193   -0.0026    0.0150   -0.0079   -0.0140   -0.0057   -0.0054
          64    0.0042   -0.0171    0.0117    0.0051    0.0175   -0.0599    0.0011    0.0051
          65    0.0077   -0.0407    0.0117    0.0101    0.0128   -0.0151    0.0050    0.0132
          66    0.0151   -0.0652    0.0179    0.0113    0.0169   -0.0071    0.0097    0.0174
          67   -0.0277    0.0152   -0.0236    0.0058    0.0058    0.0534    0.0061    0.0169
          68   -0.0145    0.0525   -0.0160    0.0081    0.0073    0.0053    0.0043    0.0138
          69   -0.0131    0.0499   -0.0178    0.0097    0.0104    0.0227    0.0094    0.0198
          70   -0.0355   -0.0092    0.0106    0.0452    0.0501    0.0177   -0.0498    0.0143
          71    0.0529    0.0252   -0.0287   -0.0274   -0.0378   -0.0310    0.0510   -0.0178
          72   -0.0011   -0.0109   -0.0118    0.0122    0.0095    0.0235   -0.0043   -0.0019
          73    0.0589    0.0145   -0.0220   -0.0277   -0.0372   -0.0466    0.0997    0.0158
          74   -0.0547   -0.0099    0.0150    0.0320    0.0465   -0.0066   -0.1006   -0.0157
          75    0.0013   -0.0167   -0.0079   -0.0076   -0.0040   -0.0160    0.0136    0.0006
          76   -0.0241   -0.0116    0.0286   -0.0394   -0.0259   -0.0419   -0.0134   -0.0292
          77   -0.0077   -0.0615    0.0233   -0.0156   -0.0134    0.0106   -0.0025   -0.0055
          78   -0.0084   -0.0119    0.0249   -0.0231   -0.0143   -0.0235   -0.0035   -0.0118
          79   -0.0432    0.0067    0.0070   -0.0389   -0.0342    0.0376   -0.0103   -0.0205
          80   -0.0209   -0.0053    0.0065   -0.0162   -0.0170    0.0293   -0.0027   -0.0035
          81   -0.0255    0.0578    0.0036   -0.0242   -0.0193    0.0022   -0.0037   -0.0096


   Root No.       9        10        11        12        13        14        15        16

                 9 A      10 A      11 A      12 A      13 A      14 A      15 A      16 A   

                 251.0     305.0     345.7     375.2     475.6     498.6     524.5     645.2
  
           1   -0.0010   -0.0019   -0.0035   -0.0004   -0.0037   -0.0029    0.0099    0.0392
           2    0.0112    0.0123   -0.0019   -0.0003    0.0332   -0.0158   -0.0116    0.0100
           3    0.0198    0.0009    0.0055   -0.0001   -0.0147   -0.0361    0.0302   -0.0271
           4   -0.0006   -0.0056   -0.0016    0.0162    0.0006   -0.0087    0.0101    0.0442
           5   -0.0026   -0.0292   -0.0076   -0.0058   -0.0037   -0.0038    0.0132    0.0205
           6   -0.0148    0.0159   -0.0017    0.0084    0.0034   -0.0089    0.0005    0.0303
           7   -0.0162   -0.0033   -0.0359   -0.0332    0.0009   -0.0008    0.0001   -0.0064
           8    0.0063    0.0133   -0.0105   -0.0063    0.0441   -0.0219   -0.0223   -0.0044
           9   -0.0179   -0.0253    0.0134   -0.0049    0.0094    0.0002   -0.0022   -0.0005
          10   -0.0139   -0.0011   -0.0391   -0.0355   -0.0048    0.0013    0.0026   -0.0107
          11   -0.0040   -0.0205    0.0396    0.0228   -0.0016    0.0023   -0.0003    0.0058
          12   -0.0007   -0.0042    0.0085    0.0031    0.0057    0.0009   -0.0037    0.0021
          13    0.0241    0.0104   -0.0040    0.0003   -0.0126    0.0255   -0.0087   -0.0038
          14    0.0276    0.0077    0.0097   -0.0078   -0.0101    0.0279   -0.0112   -0.0049
          15   -0.0120    0.0160    0.0144   -0.0045   -0.0130    0.0157   -0.0038   -0.0071
          16   -0.0090   -0.0008    0.0553   -0.0304    0.0058   -0.0053   -0.0017   -0.0095
          17   -0.0095    0.0345   -0.0149    0.0182   -0.0233   -0.0076    0.0153   -0.0057
          18    0.0418   -0.0119   -0.0116    0.0014    0.0097   -0.0259    0.0143   -0.0058
          19    0.0042   -0.0307   -0.0096    0.0397    0.0149    0.0119    0.0168   -0.0144
          20   -0.0095   -0.0185   -0.0136    0.0014    0.0027    0.0122    0.0124   -0.0031
          21   -0.0160    0.0094   -0.0094    0.0216    0.0140    0.0091   -0.0004    0.0007
          22   -0.0126    0.0127   -0.0041    0.0474   -0.0011   -0.0128   -0.0289   -0.0033
          23   -0.0097   -0.0269   -0.0136    0.0018   -0.0102   -0.0023   -0.0018   -0.0107
          24   -0.0195   -0.0004   -0.0129    0.0095   -0.0082   -0.0030   -0.0166    0.0007
          25   -0.0095    0.0119    0.0350   -0.0157   -0.0020   -0.0050    0.0014   -0.0150
          26   -0.0094    0.0253    0.0083    0.0021   -0.0211    0.0012    0.0093   -0.0050
          27    0.0284    0.0007   -0.0073   -0.0015   -0.0043    0.0387   -0.0196    0.0063
          28    0.0232   -0.0166    0.0061    0.0040   -0.0160   -0.0190   -0.0153    0.0013
          29   -0.0014    0.0007   -0.0030   -0.0155   -0.0130   -0.0073   -0.0116    0.0081
          30    0.0025   -0.0023   -0.0020   -0.0154   -0.0144   -0.0092   -0.0145    0.0125
          31    0.0086    0.0265    0.0116    0.0134    0.0228    0.0088    0.0157    0.0043
          32   -0.0043    0.0037   -0.0029   -0.0162    0.0051    0.0099    0.0154    0.0004
          33   -0.0023    0.0026   -0.0024   -0.0176    0.0081    0.0140    0.0201    0.0054
          34    0.0139   -0.0234   -0.0084    0.0083   -0.0129   -0.0045    0.0283    0.0480
          35    0.0333    0.0192   -0.0105   -0.0042    0.0524   -0.0342   -0.0171    0.0012
          36    0.0362   -0.0029   -0.0011    0.0000   -0.0069   -0.0446    0.0327   -0.0286
          37    0.0199    0.0036    0.0117   -0.0055    0.0020   -0.0327    0.0248    0.0491
          38   -0.0056   -0.0415   -0.0115   -0.0057   -0.0281   -0.0162   -0.0045    0.0126
          39   -0.0212    0.0217   -0.0052    0.0177    0.0223    0.0121    0.0079    0.0325
          40   -0.0135   -0.0010   -0.0332   -0.0300   -0.0116    0.0039    0.0050   -0.0171
          41    0.0353    0.0385   -0.0148    0.0082    0.0205   -0.0532    0.0110   -0.0143
          42   -0.0455   -0.0501    0.0153   -0.0205    0.0397    0.0242   -0.0353    0.0169
          43   -0.0366   -0.0299   -0.0320   -0.0449    0.0068    0.0115   -0.0082   -0.0143
          44   -0.0221   -0.0057   -0.0100   -0.0202    0.0823    0.0072   -0.0651    0.0251
          45   -0.0347   -0.0388    0.0141   -0.0139    0.0300    0.0161   -0.0250    0.0121
          46   -0.0039    0.0206   -0.0592   -0.0402    0.0052   -0.0042   -0.0062   -0.0162
          47   -0.0400   -0.0491    0.0628    0.0348   -0.0177    0.0175    0.0065    0.0178
          48   -0.0114   -0.0100    0.0125    0.0061    0.0023    0.0051   -0.0032    0.0050
          49   -0.0221    0.0026   -0.0628   -0.0568    0.0244   -0.0143   -0.0104   -0.0258
          50    0.0210   -0.0177    0.0570    0.0366   -0.0229    0.0095    0.0122    0.0148
          51   -0.0164   -0.0105    0.0146    0.0101   -0.0011    0.0087   -0.0035    0.0081
          52   -0.0133   -0.0241    0.0036   -0.0086   -0.0489    0.0247    0.0262    0.0088
          53   -0.0012   -0.0276    0.0556    0.0333   -0.0183    0.0109    0.0087    0.0137
          54    0.0399    0.0259   -0.0076   -0.0010    0.0125   -0.0087   -0.0073   -0.0036
          55    0.0263    0.0101   -0.0053    0.0004   -0.0123    0.0285   -0.0106   -0.0035
          56    0.0289    0.0046    0.0228   -0.0172    0.0012    0.0277   -0.0195   -0.0172
          57   -0.0397    0.0157    0.0554   -0.0228   -0.0002   -0.0174    0.0057   -0.0326
          58    0.0236    0.0128   -0.0131    0.0069   -0.0234    0.0305   -0.0040    0.0052
          59    0.0243    0.0100    0.0080   -0.0057   -0.0137    0.0264   -0.0081   -0.0040
          60   -0.0474    0.0365    0.0106    0.0082   -0.0334   -0.0143    0.0254   -0.0099
          61    0.0511    0.0088   -0.0353    0.0128   -0.0208    0.0562   -0.0203    0.0128
          62    0.0628   -0.0091    0.0046   -0.0141    0.0008    0.0608   -0.0360    0.0011
          63    0.0116    0.0098   -0.0014   -0.0007   -0.0133    0.0393   -0.0166    0.0020
          64    0.0009   -0.0650   -0.0252    0.0720    0.0309    0.0377    0.0392   -0.1262
          65   -0.0148   -0.0271   -0.0219    0.0217    0.0137    0.0275    0.0205   -0.0633
          66   -0.0253    0.0080   -0.0189    0.0477    0.0289    0.0281    0.0057   -0.0689
          67   -0.0340    0.0279   -0.0141    0.0920   -0.0041   -0.0229   -0.0867   -0.0850
          68   -0.0175   -0.0400   -0.0239    0.0155   -0.0178   -0.0034   -0.0232   -0.0551
          69   -0.0325   -0.0057   -0.0240    0.0346   -0.0151   -0.0071   -0.0517   -0.0601
          70   -0.0077   -0.0155    0.1003   -0.0605    0.0355   -0.0280   -0.0097   -0.0584
          71   -0.0153    0.0529   -0.0452    0.0475   -0.0665   -0.0284    0.0570   -0.0029
          72    0.0394   -0.0126   -0.0005   -0.0030    0.0097   -0.0411    0.0227   -0.0261
          73   -0.0276    0.0311    0.0201    0.0019   -0.0303    0.0047    0.0127   -0.0009
          74   -0.0278    0.0235    0.0465   -0.0221   -0.0073    0.0079   -0.0079   -0.0253
          75    0.0143    0.0086   -0.0020   -0.0011   -0.0124    0.0433   -0.0189    0.0058
          76    0.0422   -0.0358    0.0098   -0.0193   -0.0617   -0.0533   -0.0642   -0.0440
          77    0.0047    0.0127    0.0031   -0.0198   -0.0334   -0.0312   -0.0525   -0.0116
          78    0.0162   -0.0155    0.0008   -0.0324   -0.0481   -0.0347   -0.0512   -0.0205
          79    0.0109    0.0604    0.0217    0.0033    0.0656    0.0468    0.0596   -0.0414
          80   -0.0039    0.0264    0.0032   -0.0215    0.0299    0.0316    0.0389   -0.0240
          81    0.0055    0.0048    0.0024   -0.0298    0.0362    0.0436    0.0643   -0.0408


   Root No.      17        18        19        20        21        22        23        24

                17 A      18 A      19 A      20 A      21 A      22 A      23 A      24 A   

                 753.2     811.7     823.1     826.3     833.3     866.3     924.1     939.1
  
           1    0.0372   -0.0019   -0.0059    0.0012    0.0052   -0.0023    0.0005    0.0089
           2    0.0103    0.0010   -0.0010   -0.0012    0.0019   -0.0083   -0.0187    0.0189
           3   -0.0114    0.0012    0.0018   -0.0010   -0.0041    0.0015    0.0068   -0.0163
           4    0.0184   -0.0019   -0.0073    0.0002    0.0062   -0.0082    0.0002   -0.0133
           5   -0.0196   -0.0039    0.0213   -0.0221    0.0181   -0.0040   -0.0003   -0.0053
           6   -0.0282    0.0061   -0.0260   -0.0156    0.0244   -0.0064    0.0001   -0.0086
           7   -0.0027    0.0010    0.0027    0.0047    0.0043    0.0008    0.0002    0.0001
           8   -0.0033   -0.0037    0.0013    0.0077    0.0036    0.0136    0.0157   -0.0115
           9    0.0007    0.0034    0.0129    0.0213    0.0202    0.0047   -0.0010    0.0010
          10   -0.0083    0.0016    0.0045   -0.0017    0.0017   -0.0023   -0.0067    0.0074
          11    0.0022   -0.0013    0.0006    0.0032    0.0020    0.0068    0.0152   -0.0153
          12    0.0013    0.0003    0.0018    0.0058    0.0055    0.0034    0.0006    0.0055
          13   -0.0042    0.0002    0.0026    0.0023   -0.0019   -0.0148   -0.0028    0.0034
          14   -0.0035    0.0000   -0.0010   -0.0023   -0.0022    0.0161   -0.0001    0.0069
          15   -0.0054   -0.0001    0.0011    0.0007   -0.0004   -0.0008    0.0023   -0.0047
          16    0.0027   -0.0005   -0.0039   -0.0050   -0.0024    0.0270    0.0308    0.0070
          17   -0.0015    0.0009    0.0032    0.0028   -0.0028   -0.0270   -0.0315   -0.0067
          18    0.0091    0.0014   -0.0039   -0.0077   -0.0149   -0.0001   -0.0039    0.0175
          19   -0.0143    0.0303   -0.0100    0.0100   -0.0096    0.0017    0.0016   -0.0077
          20    0.0259    0.0048    0.0386    0.0102   -0.0220    0.0029    0.0033   -0.0164
          21   -0.0172    0.0133    0.0082   -0.0090    0.0062    0.0001   -0.0026    0.0135
          22   -0.0096   -0.0308    0.0175    0.0036   -0.0072    0.0009   -0.0003   -0.0058
          23   -0.0320   -0.0072    0.0051   -0.0124    0.0115    0.0015   -0.0009    0.0116
          24    0.0166   -0.0122   -0.0357    0.0264   -0.0152   -0.0010   -0.0004   -0.0086
          25   -0.0032    0.0006    0.0036    0.0028   -0.0043   -0.0177    0.0088    0.0040
          26    0.0018   -0.0001   -0.0031   -0.0049   -0.0038    0.0173   -0.0107   -0.0001
          27   -0.0026   -0.0003    0.0005    0.0024    0.0059   -0.0022    0.0028   -0.0033
          28   -0.0250    0.0290   -0.0273    0.0072   -0.0024    0.0018    0.0006    0.0055
          29    0.0094    0.0104   -0.0055    0.0101   -0.0098    0.0009    0.0005    0.0010
          30    0.0120   -0.0041    0.0597   -0.0058   -0.0120    0.0035    0.0015   -0.0011
          31   -0.0179   -0.0273    0.0321   -0.0056   -0.0030    0.0025   -0.0026    0.0085
          32   -0.0049    0.0061   -0.0573    0.0193   -0.0038   -0.0006   -0.0014    0.0028
          33    0.0079   -0.0122   -0.0023    0.0116   -0.0103    0.0013   -0.0013    0.0034
          34    0.0728   -0.0033    0.0188    0.0065   -0.0022   -0.0130   -0.0037    0.0162
          35    0.0162   -0.0023   -0.0197   -0.0142   -0.0237    0.0019   -0.0226    0.0521
          36    0.0037   -0.0006   -0.0002   -0.0066   -0.0207    0.0030    0.0024    0.0050
          37    0.0736   -0.0054   -0.0192    0.0026    0.0077   -0.0164   -0.0054   -0.0187
          38   -0.0372   -0.0542    0.0024   -0.0171    0.0186   -0.0014    0.0066   -0.0090
          39   -0.0377    0.0481   -0.0052   -0.0207    0.0233   -0.0048   -0.0032   -0.0015
          40   -0.0098    0.0093    0.0302    0.0513    0.0446    0.0194    0.0075    0.0128
          41    0.0025    0.0036    0.0390    0.0691    0.0606    0.0184    0.0113   -0.0181
          42    0.0011   -0.0102   -0.0436   -0.0732   -0.0645   -0.0155   -0.0041   -0.0027
          43   -0.0182   -0.0122   -0.0399   -0.0792   -0.0714   -0.0198    0.0099   -0.0501
          44    0.0063   -0.0133   -0.0464   -0.0629   -0.0598    0.0045    0.0118    0.0203
          45    0.0023   -0.0039   -0.0188   -0.0290   -0.0252   -0.0032   -0.0004    0.0059
          46   -0.0189   -0.0125   -0.0386   -0.0808   -0.0758   -0.0171    0.0261   -0.0757
          47    0.0127    0.0013   -0.0042   -0.0056   -0.0029   -0.0119   -0.0244    0.0288
          48    0.0026   -0.0018   -0.0090   -0.0139   -0.0124   -0.0062   -0.0065    0.0038
          49   -0.0198    0.0066    0.0428    0.0669    0.0632    0.0420    0.0381   -0.0106
          50    0.0120    0.0012   -0.0042   -0.0057   -0.0034   -0.0126   -0.0232    0.0253
          51    0.0031   -0.0068   -0.0297   -0.0503   -0.0472   -0.0197   -0.0055   -0.0157
          52    0.0112    0.0083   -0.0020   -0.0183   -0.0059   -0.0439   -0.0933    0.1012
          53    0.0100    0.0009   -0.0032   -0.0051   -0.0029   -0.0096   -0.0174    0.0190
          54   -0.0054   -0.0068   -0.0179   -0.0281   -0.0290    0.0012    0.0249   -0.0421
          55   -0.0052    0.0002    0.0035    0.0037   -0.0007   -0.0203   -0.0019   -0.0001
          56   -0.0140    0.0017    0.0149    0.0162   -0.0030   -0.0934   -0.0044   -0.0009
          57   -0.0121    0.0026    0.0152    0.0124   -0.0181   -0.1033   -0.0166    0.0286
          58    0.0025   -0.0011   -0.0102   -0.0131   -0.0014    0.0793    0.0021    0.0099
          59   -0.0016   -0.0002   -0.0043   -0.0068   -0.0038    0.0398   -0.0006    0.0126
          60    0.0069   -0.0003   -0.0156   -0.0248   -0.0193    0.1118   -0.0127    0.0486
          61   -0.0032   -0.0016   -0.0046   -0.0025    0.0119    0.0419    0.0129   -0.0270
          62   -0.0130   -0.0006    0.0078    0.0126    0.0140   -0.0360    0.0165   -0.0383
          63   -0.0079   -0.0010    0.0006    0.0031    0.0105    0.0083    0.0144   -0.0321
          64    0.0373   -0.1660   -0.0315   -0.0174    0.0302    0.0002    0.0032    0.0004
          65    0.0675   -0.1054   -0.0091    0.0074    0.0019    0.0003    0.0003    0.0060
          66    0.0424   -0.1172   -0.0817   -0.0016    0.0369   -0.0047   -0.0094    0.0562
          67    0.0696    0.1674    0.0104   -0.0321    0.0151   -0.0001    0.0000    0.0091
          68    0.0331    0.0896    0.0663   -0.0417    0.0171    0.0039   -0.0009    0.0393
          69    0.0926    0.1271    0.0078   -0.0071   -0.0039    0.0005   -0.0002    0.0171
          70   -0.0238    0.0042    0.0183    0.0170   -0.0089   -0.0352   -0.2180   -0.0572
          71    0.0067   -0.0037   -0.0182   -0.0276   -0.0220    0.0372    0.2281    0.0379
          72   -0.0004    0.0023   -0.0005   -0.0070   -0.0231   -0.0083   -0.0359    0.0026
          73    0.0056   -0.0012   -0.0163   -0.0205    0.0026    0.1491   -0.1489   -0.0401
          74   -0.0158    0.0001    0.0211    0.0248   -0.0004   -0.1437    0.1646    0.0070
          75   -0.0042   -0.0010   -0.0010    0.0010    0.0095    0.0220   -0.0137   -0.0196
          76    0.0616   -0.0649   -0.0981   -0.0423    0.0838   -0.0234   -0.0022   -0.0335
          77    0.0365   -0.0594   -0.0164   -0.0496    0.0641   -0.0155   -0.0091    0.0236
          78    0.0756   -0.0745    0.0098   -0.0438    0.0527   -0.0152   -0.0009   -0.0277
          79    0.0842    0.0695    0.0340   -0.0760    0.0678   -0.0165    0.0133   -0.0515
          80    0.0596    0.0585   -0.0533   -0.0179    0.0328   -0.0116    0.0079   -0.0361
          81    0.0416    0.0818   -0.0285   -0.0590    0.0685   -0.0119    0.0093   -0.0066


   Root No.      25        26        27        28        29        30        31        32

                25 A      26 A      27 A      28 A      29 A      30 A      31 A      32 A   

                 961.2     973.8     978.7     990.9    1018.4    1023.4    1034.8    1051.2
  
           1   -0.0065    0.0095   -0.0065   -0.0142    0.0010    0.0032    0.0110   -0.0230
           2   -0.0036   -0.0109    0.0106    0.0048    0.0043    0.0059    0.0027    0.0036
           3   -0.0082   -0.0041    0.0018   -0.0007   -0.0004    0.0016   -0.0022    0.0154
           4   -0.0009    0.0014   -0.0064    0.0057   -0.0075   -0.0011   -0.0121    0.0139
           5   -0.0014    0.0003   -0.0016    0.0196    0.0096   -0.0057   -0.0018   -0.0029
           6   -0.0009   -0.0061   -0.0063    0.0264   -0.0018   -0.0008   -0.0017    0.0013
           7   -0.0004   -0.0002   -0.0007   -0.0011   -0.0007    0.0042    0.0028    0.0044
           8   -0.0007    0.0044   -0.0027   -0.0029    0.0035    0.0062    0.0100    0.0061
           9   -0.0022    0.0005   -0.0003   -0.0021    0.0111    0.0147    0.0142    0.0062
          10    0.0011   -0.0045    0.0067    0.0049    0.0039   -0.0025   -0.0001   -0.0012
          11    0.0007    0.0122   -0.0134   -0.0067   -0.0040   -0.0068   -0.0074   -0.0115
          12    0.0036   -0.0021    0.0021    0.0045   -0.0075   -0.0103   -0.0082   -0.0028
          13    0.0138    0.0126   -0.0127    0.0053   -0.0051   -0.0095    0.0152    0.0120
          14    0.0147    0.0073   -0.0074    0.0078    0.0075    0.0147   -0.0154    0.0025
          15   -0.0030   -0.0026    0.0026   -0.0016   -0.0024   -0.0045    0.0003   -0.0008
          16   -0.0039   -0.0070    0.0067   -0.0022   -0.0017   -0.0062    0.0148    0.0033
          17   -0.0042   -0.0004    0.0012   -0.0039    0.0001    0.0029   -0.0136   -0.0148
          18    0.0127    0.0021   -0.0012   -0.0013   -0.0029   -0.0065    0.0010   -0.0210
          19    0.0158   -0.0098    0.0054   -0.0125    0.0132   -0.0065   -0.0021    0.0083
          20    0.0155   -0.0171    0.0007    0.0013   -0.0013    0.0000   -0.0013    0.0080
          21    0.0005    0.0114    0.0064   -0.0306    0.0162   -0.0077   -0.0029    0.0046
          22    0.0148   -0.0007    0.0157   -0.0037   -0.0134    0.0088    0.0035   -0.0003
          23    0.0003    0.0000   -0.0020   -0.0220   -0.0217    0.0112    0.0024    0.0003
          24    0.0129    0.0028    0.0161   -0.0010   -0.0024    0.0034    0.0014    0.0003
          25    0.0008   -0.0026    0.0034   -0.0009    0.0074    0.0145   -0.0224   -0.0135
          26   -0.0006    0.0007    0.0000   -0.0032   -0.0085   -0.0174    0.0218    0.0031
          27   -0.0046   -0.0018    0.0009    0.0007    0.0023    0.0050   -0.0014    0.0026
          28   -0.0138    0.0162    0.0053    0.0114   -0.0148    0.0074    0.0014   -0.0032
          29   -0.0073    0.0109    0.0045    0.0044   -0.0095    0.0043   -0.0008    0.0009
          30   -0.0079    0.0086    0.0057    0.0190   -0.0076    0.0041    0.0034   -0.0060
          31   -0.0095   -0.0107   -0.0179   -0.0028    0.0128   -0.0081   -0.0040    0.0050
          32   -0.0045   -0.0076   -0.0105    0.0055    0.0125   -0.0052    0.0019   -0.0047
          33   -0.0058   -0.0091   -0.0148   -0.0041    0.0081   -0.0052   -0.0032    0.0032
          34   -0.0202    0.0484   -0.0164   -0.0731    0.0373    0.0027    0.0279   -0.1162
          35    0.0030   -0.0402    0.0459    0.0151   -0.0284   -0.0303   -0.0207    0.0307
          36   -0.0088   -0.0069    0.0173   -0.0155   -0.0057   -0.0179   -0.0086   -0.0037
          37   -0.0509    0.0029   -0.0153    0.0037   -0.0419   -0.0019   -0.0825    0.1848
          38   -0.0074    0.1014    0.0836    0.0345    0.1240   -0.0727   -0.0156    0.0049
          39    0.0256   -0.0871   -0.0706    0.0129   -0.0786    0.0533    0.0407   -0.0821
          40    0.0219   -0.0006   -0.0076    0.0099   -0.0407   -0.0437   -0.0520   -0.0105
          41   -0.0207    0.0074    0.0002   -0.0157    0.0588    0.0784    0.0863    0.0323
          42   -0.0034   -0.0024    0.0041    0.0005   -0.0035   -0.0089   -0.0067   -0.0043
          43   -0.0191    0.0101   -0.0184   -0.0071    0.0157    0.0278    0.0128    0.0204
          44    0.0161   -0.0075    0.0148    0.0078   -0.0409   -0.0578   -0.0391   -0.0233
          45    0.0024   -0.0028    0.0042    0.0016   -0.0076   -0.0118   -0.0078   -0.0049
          46   -0.0248    0.0340   -0.0377   -0.0358    0.0383    0.0482    0.0329    0.0007
          47   -0.0013   -0.0173    0.0206    0.0077    0.0046    0.0087    0.0121    0.0120
          48   -0.0024   -0.0047    0.0050    0.0014    0.0024    0.0055    0.0053    0.0063
          49    0.0238    0.0204   -0.0208    0.0093   -0.0347   -0.0684   -0.0593   -0.0464
          50   -0.0031   -0.0162    0.0192    0.0059    0.0075    0.0133    0.0157    0.0133
          51   -0.0142    0.0011   -0.0025   -0.0114    0.0182    0.0327    0.0258    0.0162
          52   -0.0047   -0.0680    0.0802    0.0365    0.0274    0.0327    0.0432    0.0474
          53   -0.0023   -0.0114    0.0140    0.0043    0.0061    0.0085    0.0108    0.0076
          54   -0.0082    0.0206   -0.0250   -0.0172    0.0049    0.0110    0.0040   -0.0025
          55    0.0089    0.0101   -0.0102    0.0029   -0.0076   -0.0144    0.0194    0.0121
          56    0.0213    0.0272   -0.0272    0.0054   -0.0243   -0.0456    0.0585    0.0308
          57    0.0773    0.0660   -0.0659    0.0279   -0.0227   -0.0418    0.0674    0.0505
          58    0.0132   -0.0009    0.0008    0.0100    0.0221    0.0422   -0.0499   -0.0069
          59    0.0225    0.0094   -0.0094    0.0124    0.0152    0.0294   -0.0318    0.0008
          60    0.0818    0.0405   -0.0403    0.0402    0.0377    0.0729   -0.0717    0.0081
          61   -0.0482   -0.0378    0.0377   -0.0189    0.0022    0.0033   -0.0226   -0.0219
          62   -0.0585   -0.0369    0.0367   -0.0260   -0.0155   -0.0302    0.0131   -0.0144
          63   -0.0529   -0.0387    0.0385   -0.0227   -0.0065   -0.0130   -0.0079   -0.0213
          64   -0.0543    0.0059   -0.0191    0.1329   -0.0141    0.0128    0.0236   -0.0430
          65   -0.0349    0.0146   -0.0131    0.0335   -0.0356    0.0128   -0.0043    0.0015
          66   -0.0693    0.0689   -0.0105   -0.0351   -0.0410    0.0096   -0.0210    0.0154
          67   -0.0536   -0.0215   -0.0530    0.0944    0.0675   -0.0332    0.0091   -0.0352
          68   -0.0498    0.0034   -0.0542   -0.0589   -0.0266    0.0014   -0.0261    0.0439
          69   -0.0477   -0.0016   -0.0466    0.0025    0.0200   -0.0177   -0.0188    0.0225
          70   -0.0200   -0.0028    0.0092   -0.0217   -0.0070   -0.0061   -0.0503   -0.0539
          71   -0.0075   -0.0369    0.0330   -0.0031   -0.0167   -0.0405    0.0232   -0.0095
          72    0.0053   -0.0063    0.0086   -0.0090   -0.0099   -0.0188   -0.0164   -0.0433
          73   -0.0327   -0.0128    0.0180   -0.0230   -0.0222   -0.0471    0.0466    0.0040
          74   -0.0310   -0.0299    0.0311   -0.0138    0.0158    0.0268   -0.0530   -0.0312
          75   -0.0263   -0.0144    0.0154   -0.0111   -0.0033   -0.0081    0.0061    0.0005
[...]
 TRAVEL      0.0965        C  4 --  H 17          +11.5% ( 42.5%)     2.6%
 RED. MASS   0.6749        C  4 --  H 18          +11.2% ( 42.0%)     3.5%
 EFF. MASS   5.0878        C  3 --  H 15          +10.3% ( 40.2%)     3.8%
                           C  3 --  H 14          +10.3% ( 40.1%)     3.5%

 VIBRATION   56   56A       ATOM PAIR        ENERGY CONTRIBUTION    RADIAL
 FREQ.      1430.88        C  5 --  C  9          +16.5% ( 55.2%)    99.3%
 T-DIPOLE    0.0905        C  5 --  H 21          +16.4% ( 55.0%)     5.4%
 TRAVEL      0.0848        C  5 --  H 20          +13.3% ( 49.5%)     2.9%
 RED. MASS   1.0200        C  5 --  H 19          +13.2% ( 49.5%)     3.0%
 EFF. MASS   6.5551

 VIBRATION   57   57A       ATOM PAIR        ENERGY CONTRIBUTION    RADIAL
 FREQ.      1730.46        C  7 --  C 10          +18.4% ( 73.0%)    99.9%
 T-DIPOLE    0.4032        C  8 --  C 11          +18.0% ( 72.3%)    99.9%
 TRAVEL      0.0569        C  8 --  C 10          +10.7% ( 55.7%)    25.8%
 RED. MASS   2.7203        C  7 --  C 11          +10.7% ( 55.7%)    26.2%
 EFF. MASS  12.0246

 VIBRATION   58   58A       ATOM PAIR        ENERGY CONTRIBUTION    RADIAL
 FREQ.      1788.07        C  8 --  C 11          +18.1% ( 70.5%)    99.8%
 T-DIPOLE    0.3023        C  7 --  C 10          +17.7% ( 69.8%)    99.8%
 TRAVEL      0.0565        C 10 --  C 11          +12.2% ( 57.8%)     0.0%
 RED. MASS   2.6869        C  8 --  C 10          +10.9% ( 54.7%)    67.3%
 EFF. MASS  11.8007        C  7 --  C 11          +10.9% ( 54.7%)    64.2%

 VIBRATION   59   59A       ATOM PAIR        ENERGY CONTRIBUTION    RADIAL
 FREQ.      1888.05        C  6 --  C  9          +44.0% ( 97.7%)    96.5%
 T-DIPOLE    0.3003        C  5 --  C  9          +14.5% ( 56.1%)    56.3%
 TRAVEL      0.0550        C  1 --  C  6          +13.9% ( 55.0%)    53.5%
 RED. MASS   5.3825        C  9 --  H 25          +13.4% ( 54.0%)     3.5%
 EFF. MASS  11.7935        C  6 --  H 24          +13.1% ( 53.4%)     4.0%

 VIBRATION   60   60A       ATOM PAIR        ENERGY CONTRIBUTION    RADIAL
 FREQ.      2853.34        C  1 --  H 12          +93.8% ( 98.5%)   100.0%
 T-DIPOLE    0.0380        C  2 --  H 13           +2.7% ( 16.6%)   100.0%
 TRAVEL      0.1277        C  1 --  C  2           +1.1% ( 10.5%)     4.7%
 RED. MASS   0.8758        C  1 --  C  3           +1.0% ( 10.4%)     8.6%
 EFF. MASS   1.4483

 VIBRATION   61   61A       ATOM PAIR        ENERGY CONTRIBUTION    RADIAL
 FREQ.      2870.47        C  2 --  H 13          +94.3% ( 98.6%)   100.0%
 T-DIPOLE    0.1987        C  1 --  H 12           +2.6% ( 16.4%)   100.0%
 TRAVEL      0.1279        C  1 --  C  2           +1.0% ( 10.2%)    12.9%
 RED. MASS   0.8800        C  2 --  C  7           +1.0% ( 10.0%)     9.7%
 EFF. MASS   1.4351

 VIBRATION   62   62A       ATOM PAIR        ENERGY CONTRIBUTION    RADIAL
 FREQ.      2949.89        C  3 --  H 14          +50.3% ( 73.7%)    96.7%
 T-DIPOLE    0.0282        C  3 --  H 15          +46.9% ( 71.1%)    96.3%
 TRAVEL      0.1217        C  3 --  C  4           +1.2% ( 11.3%)     0.0%
 RED. MASS   0.5140        C  1 --  C  3           +1.1% ( 11.1%)     0.0%
 EFF. MASS   1.5436

 VIBRATION   63   63A       ATOM PAIR        ENERGY CONTRIBUTION    RADIAL
 FREQ.      3028.65        C  3 --  H 15          +50.1% ( 69.8%)    97.9%
 T-DIPOLE    0.0659        C  3 --  H 14          +46.3% ( 67.1%)    97.5%
 TRAVEL      0.1320        C  6 --  H 24           +1.7% ( 12.7%)   100.0%
 RED. MASS   0.4638        C  3 --  C  4           +0.6% (  7.7%)    26.0%
 EFF. MASS   1.2771

 VIBRATION   64   64A       ATOM PAIR        ENERGY CONTRIBUTION    RADIAL
 FREQ.      3030.99        C  6 --  H 24          +95.0% ( 98.8%)   100.0%
 T-DIPOLE    0.2860        C  6 --  C  9           +1.4% ( 11.9%)    40.7%
 TRAVEL      0.1219        C  1 --  C  6           +1.3% ( 11.6%)    13.9%
 RED. MASS   0.8858        C  3 --  H 15           +0.8% (  9.0%)    98.2%
 EFF. MASS   1.4982

 VIBRATION   65   65A       ATOM PAIR        ENERGY CONTRIBUTION    RADIAL
 FREQ.      3037.56        C  9 --  H 25          +94.2% ( 98.6%)   100.0%
 T-DIPOLE    0.2094        C  6 --  C  9           +1.6% ( 12.8%)    39.2%
 TRAVEL      0.1205        C  5 --  C  9           +1.4% ( 12.0%)    10.9%
 RED. MASS   0.8791        C  5 --  H 21           +1.4% ( 11.9%)    98.0%
 EFF. MASS   1.5281

 VIBRATION   66   66A       ATOM PAIR        ENERGY CONTRIBUTION    RADIAL
 FREQ.      3070.08        C  5 --  H 19          +49.6% ( 72.6%)    97.1%
 T-DIPOLE    0.0161        C  5 --  H 20          +48.5% ( 71.9%)    97.0%
 TRAVEL      0.1210        C  5 --  C  9           +1.0% ( 10.2%)     0.0%
 RED. MASS   0.5092        C  5 --  H 21           +0.9% (  9.9%)     0.0%
 EFF. MASS   1.5011

 VIBRATION   67   67A       ATOM PAIR        ENERGY CONTRIBUTION    RADIAL
 FREQ.      3073.25        C  4 --  H 17          +58.4% ( 78.8%)    98.1%
 T-DIPOLE    0.0409        C  4 --  H 16          +38.8% ( 64.3%)    95.4%
 TRAVEL      0.1209        C  4 --  H 18           +1.5% ( 12.7%)    15.0%
 RED. MASS   0.5194        C  3 --  C  4           +1.0% ( 10.3%)     0.0%
 EFF. MASS   1.5020

 VIBRATION   68   68A       ATOM PAIR        ENERGY CONTRIBUTION    RADIAL
 FREQ.      3075.94        C  5 --  H 21          +62.6% ( 81.5%)    98.9%
 T-DIPOLE    0.0549        C  5 --  H 20          +17.5% ( 43.1%)    85.2%
 TRAVEL      0.1205        C  5 --  H 19          +16.9% ( 42.4%)    84.6%
 RED. MASS   0.4788        C  9 --  H 25           +1.9% ( 14.2%)   100.0%
 EFF. MASS   1.5087

 VIBRATION   69   69A       ATOM PAIR        ENERGY CONTRIBUTION    RADIAL
 FREQ.      3084.56        C  4 --  H 18          +59.3% ( 79.4%)    98.6%
 T-DIPOLE    0.0195        C  4 --  H 16          +27.0% ( 53.6%)    91.1%
 TRAVEL      0.1206        C  4 --  H 17          +12.2% ( 36.1%)    78.0%
 RED. MASS   0.4682        C  3 --  C  4           +1.0% ( 10.4%)     0.0%
 EFF. MASS   1.5042

 VIBRATION   70   70A       ATOM PAIR        ENERGY CONTRIBUTION    RADIAL
 FREQ.      3130.91        C 10 --  H 26          +45.7% ( 69.2%)   100.0%
 T-DIPOLE    0.2589        C  7 --  H 22          +38.8% ( 63.8%)   100.0%
 TRAVEL      0.1207        C 11 --  H 27           +8.4% ( 29.6%)   100.0%
 RED. MASS   0.3719        C  8 --  H 23           +3.0% ( 17.6%)   100.0%
 EFF. MASS   1.4776

 VIBRATION   71   71A       ATOM PAIR        ENERGY CONTRIBUTION    RADIAL
 FREQ.      3133.53        C 11 --  H 27          +50.5% ( 72.7%)    99.9%
 T-DIPOLE    0.4429        C  8 --  H 23          +33.2% ( 58.9%)   100.0%
 TRAVEL      0.1208        C  7 --  H 22           +9.4% ( 31.3%)   100.0%
 RED. MASS   0.3791        C 10 --  H 26           +2.8% ( 17.2%)    99.9%
 EFF. MASS   1.4746

 VIBRATION   72   72A       ATOM PAIR        ENERGY CONTRIBUTION    RADIAL
 FREQ.      3144.62        C  7 --  H 22          +30.7% ( 57.0%)    99.9%
 T-DIPOLE    0.5374        C  8 --  H 23          +27.8% ( 54.2%)   100.0%
 TRAVEL      0.1158        C 10 --  H 26          +26.3% ( 52.7%)    99.9%
 RED. MASS   0.2618        C 11 --  H 27           +9.5% ( 31.8%)    99.9%
 EFF. MASS   1.6002

 VIBRATION   73   73A       ATOM PAIR        ENERGY CONTRIBUTION    RADIAL
 FREQ.      3155.07        C  8 --  H 23          +30.8% ( 57.2%)    99.9%
 T-DIPOLE    0.2271        C 11 --  H 27          +26.5% ( 53.0%)   100.0%
 TRAVEL      0.1121        C 10 --  H 26          +20.0% ( 46.1%)   100.0%
 RED. MASS   0.2486        C  7 --  H 22          +16.0% ( 41.1%)    99.9%
 EFF. MASS   1.6993

 VIBRATION   74   74A       ATOM PAIR        ENERGY CONTRIBUTION    RADIAL
 FREQ.      3169.58        C  5 --  H 21          +34.7% ( 56.7%)    97.2%
 T-DIPOLE    0.0649        C  5 --  H 20          +32.8% ( 55.1%)    97.1%
 TRAVEL      0.1366        C  5 --  H 19          +32.2% ( 54.7%)    97.0%
 RED. MASS   0.3272        C  5 --  C  9           +0.3% (  5.4%)   100.0%
 EFF. MASS   1.1395

 VIBRATION   75   75A       ATOM PAIR        ENERGY CONTRIBUTION    RADIAL
 FREQ.      3177.28        C  4 --  H 18          +38.8% ( 60.0%)    97.9%
 T-DIPOLE    0.0280        C  4 --  H 16          +33.2% ( 55.4%)    97.0%
 TRAVEL      0.1366        C  4 --  H 17          +27.7% ( 50.7%)    95.9%
 RED. MASS   0.3320        C  3 --  C  4           +0.3% (  5.1%)    98.5%
 EFF. MASS   1.1376

 SYMMETRY NUMBER FOR POINT-GROUP C1  =  1


          SYSTEM IS A GROUND STATE


    NULL



          MOLECULE IS NOT LINEAR

          THERE ARE 75 GENUINE VIBRATIONS IN THIS SYSTEM
          THIS THERMODYNAMICS CALCULATION IS LIMITED TO
          MOLECULES WHICH HAVE NO INTERNAL ROTATIONS




                    CALCULATED THERMODYNAMIC PROPERTIES
                                          *
   TEMP. (K)   PARTITION FUNCTION   H.O.F.    ENTHALPY  HEAT CAPACITY ENTROPY
                                   KCAL/MOL   CAL/MOLE    CAL/K/MOL  CAL/K/MOL


 298.00  VIB.     0.4963D+04                  5697.0116    38.4479    36.0283
         ROT.     0.1060D+07                   888.2813     2.9808    30.5512
         INT.     0.5262D+10                  6585.2929    41.4287    66.5795
         TRA.     0.1745D+28                  1480.4688     4.9680    40.8894
         TOT.                       28.564    8065.7618    46.3968   107.4689

 200.00  VIB.     0.2069D+03                  2606.7446    25.1077    23.6301
         ROT.     0.5829D+06                   596.1620     2.9808    29.3625
         INT.     0.1206D+09                  3202.9066    28.0885    52.9926
         TRA.     0.9595D+27                   993.6033     4.9680    38.9082
         TOT.                       24.695    4196.5098    33.0565    91.9008

 210.00  VIB.     0.2870D+03                  2863.8380    26.3176    24.8842
         ROT.     0.6272D+06                   625.9700     2.9808    29.5080
         INT.     0.1800D+09                  3489.8080    29.2984    54.3921
         TRA.     0.1032D+28                  1043.2834     4.9680    39.1506
         TOT.                       25.032    4533.0914    34.2665    93.5427

 220.00  VIB.     0.3978D+03                  3133.2309    27.5676    26.1372
         ROT.     0.6725D+06                   655.7781     2.9808    29.6466
         INT.     0.2675D+09                  3789.0091    30.5484    55.7838
         TRA.     0.1107D+28                  1092.9636     4.9680    39.3817
         TOT.                       25.381    4881.9727    35.5165    95.1655

 230.00  VIB.     0.5507D+03                  3415.3222    28.8571    27.3909
         ROT.     0.7189D+06                   685.5862     2.9808    29.7791
         INT.     0.3959D+09                  4100.9084    31.8379    57.1700
         TRA.     0.1183D+28                  1142.6437     4.9680    39.6026
         TOT.                       25.742    5243.5521    36.8059    96.7726

 240.00  VIB.     0.7618D+03                  3710.4981    30.1842    28.6470
         ROT.     0.7662D+06                   715.3943     2.9808    29.9060
         INT.     0.5837D+09                  4425.8925    33.1650    58.5529
         TRA.     0.1261D+28                  1192.3239     4.9680    39.8140
         TOT.                       26.117    5618.2164    38.1330    98.3669

 250.00  VIB.     0.1053D+04                  4019.1222    31.5462    29.9066
         ROT.     0.8146D+06                   745.2024     2.9808    30.0277
         INT.     0.8580D+09                  4764.3247    34.5270    59.9343
         TRA.     0.1341D+28                  1242.0041     4.9680    40.0168
         TOT.                       26.505    6006.3287    39.4950    99.9511

 260.00  VIB.     0.1455D+04                  4341.5265    32.9396    31.1710
         ROT.     0.8640D+06                   775.0105     2.9808    30.1446
         INT.     0.1257D+10                  5116.5371    35.9204    61.3155
         TRA.     0.1422D+28                  1291.6842     4.9680    40.2117
         TOT.                       26.907    6408.2213    40.8884   101.5272

 270.00  VIB.     0.2010D+04                  4678.0055    34.3604    32.4407
         ROT.     0.9143D+06                   804.8186     2.9808    30.2571
         INT.     0.1838D+10                  5482.8241    37.3412    62.6977
         TRA.     0.1505D+28                  1341.3644     4.9680    40.3992
         TOT.                       27.323    6824.1885    42.3093   103.0969

 280.00  VIB.     0.2776D+04                  5028.8123    35.8044    33.7163
         ROT.     0.9656D+06                   834.6267     2.9808    30.3655
         INT.     0.2681D+10                  5863.4390    38.7852    64.0818
         TRA.     0.1589D+28                  1391.0445     4.9680    40.5798
         TOT.                       27.753    7254.4836    43.7533   104.6616

 290.00  VIB.     0.3834D+04                  5394.1565    37.2672    34.9982
         ROT.     0.1018D+07                   864.4348     2.9808    30.4701
         INT.     0.3902D+10                  6258.5914    40.2480    65.4683
         TRA.     0.1675D+28                  1440.7247     4.9680    40.7542
         TOT.                       28.198    7699.3161    45.2160   106.2224

 300.00  VIB.     0.5294D+04                  5774.2038    38.7443    36.2865
         ROT.     0.1071D+07                   894.2429     2.9808    30.5711
         INT.     0.5670D+10                  6668.4467    41.7251    66.8576
         TRA.     0.1763D+28                  1490.4049     4.9680    40.9226
         TOT.                       28.657    8158.8516    46.6931   107.7802

 310.00  VIB.     0.7313D+04                  6169.0759    40.2314    37.5811
         ROT.     0.1125D+07                   924.0510     2.9808    30.6689
         INT.     0.8226D+10                  7093.1269    43.2123    68.2500
         TRA.     0.1851D+28                  1540.0850     4.9680    41.0855
         TOT.                       29.132    8633.2119    48.1803   109.3355

 320.00  VIB.     0.1010D+05                  6578.8525    41.7245    38.8820
         ROT.     0.1180D+07                   953.8591     2.9808    30.7635
         INT.     0.1192D+11                  7532.7116    44.7053    69.6455
         TRA.     0.1942D+28                  1589.7652     4.9680    41.2432
         TOT.                       29.621    9122.4768    49.6734   110.8887

 330.00  VIB.     0.1396D+05                  7003.5731    43.2196    40.1888
         ROT.     0.1235D+07                   983.6672     2.9808    30.8552
         INT.     0.1725D+11                  7987.2403    46.2005    71.0440
         TRA.     0.2034D+28                  1639.4454     4.9680    41.3961
         TOT.                       30.125    9626.6857    51.1685   112.4401

 340.00  VIB.     0.1930D+05                  7443.2401    44.7132    41.5012
         ROT.     0.1292D+07                  1013.4753     2.9808    30.9442
         INT.     0.2493D+11                  8456.7154    47.6940    72.4454
         TRA.     0.2127D+28                  1689.1255     4.9680    41.5444
         TOT.                       30.644   10145.8409    52.6620   113.9899

 350.00  VIB.     0.2669D+05                  7897.8209    46.2019    42.8188
         ROT.     0.1349D+07                  1043.2834     2.9808    31.0306
         INT.     0.3602D+11                  8941.1043    49.1827    73.8495
         TRA.     0.2221D+28                  1738.8057     4.9680    41.6884
         TOT.                       31.178   10679.9100    54.1507   115.5379

 360.00  VIB.     0.3693D+05                  8367.2519    47.6828    44.1412
         ROT.     0.1408D+07                  1073.0915     2.9808    31.1146
         INT.     0.5198D+11                  9440.3435    50.6636    75.2558
         TRA.     0.2317D+28                  1788.4859     4.9680    41.8284
         TOT.                       31.727   11228.8293    55.6316   117.0841

 370.00  VIB.     0.5111D+05                  8851.4413    49.1531    45.4677
         ROT.     0.1467D+07                  1102.8996     2.9808    31.1963
         INT.     0.7497D+11                  9954.3409    52.1340    76.6640
         TRA.     0.2414D+28                  1838.1660     4.9680    41.9645
         TOT.                       32.291   11792.5069    57.1020   118.6285

 380.00  VIB.     0.7079D+05                  9350.2721    50.6107    46.7979
         ROT.     0.1527D+07                  1132.7077     2.9808    31.2758
         INT.     0.1081D+12                 10482.9798    53.5915    78.0737
         TRA.     0.2513D+28                  1887.8462     4.9680    42.0970
         TOT.                       32.869   12370.8259    58.5595   120.1707

 390.00  VIB.     0.9808D+05                  9863.6055    52.0534    48.1312
         ROT.     0.1587D+07                  1162.5158     2.9808    31.3532
         INT.     0.1557D+12                 11026.1213    55.0342    79.4844
         TRA.     0.2613D+28                  1937.5263     4.9680    42.2260
         TOT.                       33.462   12963.6476    60.0022   121.7105

 400.00  VIB.     0.1360D+06                 10391.2838    53.4794    49.4671
         ROT.     0.1649D+07                  1192.3239     2.9808    31.4287
         INT.     0.2241D+12                 11583.6077    56.4602    80.8958
         TRA.     0.2714D+28                  1987.2065     4.9680    42.3518
         TOT.                       34.069   13570.8142    61.4282   123.2476

   *: NOTE: HEATS OF FORMATION ARE RELATIVE TO THE
            ELEMENTS IN THEIR STANDARD STATE AT 298K
              (=  Standard Enthalpy of Formation).

            Hvib:  Zero-point energy is not included.
                   frequencies of less than zero cm-1 are not included.
            Hrot = (3/2)RT
            Htra = (3/2)RT + pV = (5/2)RT

            Heat capacity is Cp, not Cv

           For more information, see: HTTP://OpenMOPAC.net/Manual/thermochemistry.html


           FORCE CONSTANT IN CARTESIAN COORDINATES (Millidynes/A)

    ATOM   CHEMICAL       X               Y               Z
   NUMBER   SYMBOL  FORCE CONSTANT  FORCE CONSTANT  FORCE CONSTANT

      1       C        8.154992        8.061632        8.775989
      2       C        8.731532        8.292374        8.374922
      3       C        8.455928        7.926883        8.272864
      4       C        8.264137        8.423450        8.195198
      5       C        8.259466        8.343314        8.853649
      6       C        8.984048        9.216499        9.046508
      7       C        7.291556       12.277267        7.146742
      8       C        7.472617        8.039605       11.242010
      9       C        8.773354        9.076065        9.359853
     10       C        8.266026        9.548366        9.633801
     11       C        8.222135       10.132348        9.099914
     12       H        1.065082        1.497503        3.434546
     13       H        1.100463        1.978576        2.742020
     14       H        1.848972        1.966888        2.583886
     15       H        0.803805        1.416407        4.186243
     16       H        0.830892        1.179396        4.766400
     17       H        2.020735        2.188590        2.518800
     18       H        1.240750        4.862133        0.689962
     19       H        5.223238        0.752153        0.687583
     20       H        0.782585        5.141670        0.741169
     21       H        1.506204        1.125161        4.141212
     22       H        0.712002        4.277316        1.463576
     23       H        0.801145        2.284313        3.376311
     24       H        1.184060        0.845460        4.169386
     25       H        1.166816        0.844639        4.201286
     26       H        2.112043        0.643058        3.706623
     27       H        1.977250        3.821663        0.664393



 TOTAL CPU TIME:             6.26 SECONDS

 == MOPAC DONE ==
