 *******************************************************************************
 ** Site#: 14399           For non-commercial use only        Version 13.159M **
 *******************************************************************************
 ** Cite this work as: MOPAC2012, James J. P. Stewart, Stewart Computational  **
 ** Chemistry, Version 13.159M web: HTTP://OpenMOPAC.net  Days remaining:   6 **
 *******************************************************************************
 **                                                                           **
 **                                MOPAC2012                                  **
 **                                                                           **
 *******************************************************************************

                            PM3 CALCULATION RESULTS


 *******************************************************************************
 *  CALCULATION DONE:                                Mon Jun  2 11:10:22 2014  *
 *  PM3      - The PM3 Hamiltonian to be used
 *  PRECISE  - CRITERIA TO BE INCREASED BY 100 TIMES
 *  NOSYM    - POINT-GROUP SYMMETRY SET TO C1
 *  T=       - A TIME OF 172800.0 SECONDS REQUESTED
 *  DUMP=N   - RESTART FILE WRITTEN EVERY  7200.000 SECONDS
 *******************************************************************************
pm3  precise nosym
 InChI=1S/C10H14/c1-2-3-4-7-10-8-5-6-9-10/h2-6,10H,1,7-9H2

   ATOM   CHEMICAL          X               Y               Z
  NUMBER   SYMBOL      (ANGSTROMS)     (ANGSTROMS)     (ANGSTROMS)
 
     1       C         -1.15550000  *  -0.08220000  *  -0.85390000  *
     2       C         -1.42460000  *   0.80140000  *   0.37360000  *
     3       C          0.09020000  *  -0.97110000  *  -0.73190000  *
     4       C         -2.44750000  *  -0.87760000  *  -1.08960000  *
     5       C         -2.90200000  *   0.74440000  *   0.52790000  *
     6       C         -3.45420000  *  -0.16180000  *  -0.26210000  *
     7       C          1.35220000  *  -0.16200000  *  -0.64650000  *
     8       C          2.16200000  *  -0.20350000  *   0.41300000  *
     9       C          3.38870000  *   0.60540000  *   0.47370000  *
    10       C          4.19680000  *   0.57210000  *   1.52870000  *
    11       H         -1.02390000  *   0.59160000  *  -1.73640000  *
    12       H         -1.08650000  *   1.84960000  *   0.20420000  *
    13       H         -0.95930000  *   0.41260000  *   1.30900000  *
    14       H          0.17240000  *  -1.61650000  *  -1.63660000  *
    15       H         -0.02670000  *  -1.66230000  *   0.13650000  *
    16       H         -2.39220000  *  -1.93310000  *  -0.73480000  *
    17       H         -2.74540000  *  -0.86930000  *  -2.16350000  *
    18       H         -3.46480000  *   1.33770000  *   1.24580000  *
    19       H          1.59330000  *   0.47990000  *  -1.49030000  *
    20       H         -4.51810000  *  -0.39060000  *  -0.26070000  *
    21       H          1.91230000  *  -0.84350000  *   1.25600000  *
    22       H          3.65190000  *   1.25200000  *  -0.35950000  *
    23       H          3.98600000  *  -0.05400000  *   2.39090000  *
    24       H          5.09530000  *   1.18100000  *   1.54480000  *
 


          CARTESIAN COORDINATES 

    NO.       ATOM         X         Y         Z

     1         C       -1.1555   -0.0822   -0.8539
     2         C       -1.4246    0.8014    0.3736
     3         C        0.0902   -0.9711   -0.7319
     4         C       -2.4475   -0.8776   -1.0896
     5         C       -2.9020    0.7444    0.5279
     6         C       -3.4542   -0.1618   -0.2621
     7         C        1.3522   -0.1620   -0.6465
     8         C        2.1620   -0.2035    0.4130
     9         C        3.3887    0.6054    0.4737
    10         C        4.1968    0.5721    1.5287
    11         H       -1.0239    0.5916   -1.7364
    12         H       -1.0865    1.8496    0.2042
    13         H       -0.9593    0.4126    1.3090
    14         H        0.1724   -1.6165   -1.6366
    15         H       -0.0267   -1.6623    0.1365
    16         H       -2.3922   -1.9331   -0.7348
    17         H       -2.7454   -0.8693   -2.1635
    18         H       -3.4648    1.3377    1.2458
    19         H        1.5933    0.4799   -1.4903
    20         H       -4.5181   -0.3906   -0.2607
    21         H        1.9123   -0.8435    1.2560
    22         H        3.6519    1.2520   -0.3595
    23         H        3.9860   -0.0540    2.3909
    24         H        5.0953    1.1810    1.5448

  H: (PM3): J. J. P. STEWART, J. COMP. CHEM. 10, 209 (1989).
  C: (PM3): J. J. P. STEWART, J. COMP. CHEM. 10, 209 (1989).

           Empirical Formula: C10 H14  =    24 atoms



      MOLECULAR POINT GROUP   :   C1  


      RHF CALCULATION, NO. OF DOUBLY OCCUPIED LEVELS =   27

      Geometry optimization using EF

          DIAGONAL MATRIX USED AS START HESSIAN

 CYCLE:     1 TIME:   0.012 TIME LEFT:  2.00D  GRAD.:    61.040 HEAT: 34.59591
 CYCLE:     2 TIME:   0.021 TIME LEFT:  2.00D  GRAD.:    66.812 HEAT: 34.12373
 CYCLE:     3 TIME:   0.008 TIME LEFT:  2.00D  GRAD.:    62.321 HEAT: 33.66242
 CYCLE:     4 TIME:   0.008 TIME LEFT:  2.00D  GRAD.:    43.001 HEAT: 33.05555
 CYCLE:     5 TIME:   0.008 TIME LEFT:  2.00D  GRAD.:    51.447 HEAT: 32.94088
 CYCLE:     6 TIME:   0.014 TIME LEFT:  2.00D  GRAD.:    28.528 HEAT: 32.49716
 CYCLE:     7 TIME:   0.015 TIME LEFT:  2.00D  GRAD.:    15.537 HEAT: 32.32353
 CYCLE:     8 TIME:   0.008 TIME LEFT:  2.00D  GRAD.:    19.430 HEAT: 32.23810
 CYCLE:     9 TIME:   0.009 TIME LEFT:  2.00D  GRAD.:    11.063 HEAT: 32.08866
 CYCLE:    10 TIME:   0.015 TIME LEFT:  2.00D  GRAD.:    12.788 HEAT: 32.05288
 CYCLE:    11 TIME:   0.008 TIME LEFT:  2.00D  GRAD.:     9.482 HEAT: 31.99638
 CYCLE:    12 TIME:   0.014 TIME LEFT:  2.00D  GRAD.:    11.045 HEAT: 31.97636
 CYCLE:    13 TIME:   0.014 TIME LEFT:  2.00D  GRAD.:     8.157 HEAT: 31.95579
 CYCLE:    14 TIME:   0.008 TIME LEFT:  2.00D  GRAD.:     9.472 HEAT: 31.94994
 CYCLE:    15 TIME:   0.008 TIME LEFT:  2.00D  GRAD.:     5.164 HEAT: 31.92269
 CYCLE:    16 TIME:   0.008 TIME LEFT:  2.00D  GRAD.:     9.645 HEAT: 31.91792
 CYCLE:    17 TIME:   0.008 TIME LEFT:  2.00D  GRAD.:     6.302 HEAT: 31.88767
 CYCLE:    18 TIME:   0.014 TIME LEFT:  2.00D  GRAD.:     8.760 HEAT: 31.88074
 CYCLE:    19 TIME:   0.008 TIME LEFT:  2.00D  GRAD.:     3.273 HEAT: 31.84954
 CYCLE:    20 TIME:   0.008 TIME LEFT:  2.00D  GRAD.:     5.469 HEAT: 31.83423
 CYCLE:    21 TIME:   0.007 TIME LEFT:  2.00D  GRAD.:     4.285 HEAT: 31.80986
 CYCLE:    22 TIME:   0.008 TIME LEFT:  2.00D  GRAD.:     7.736 HEAT: 31.80688
 CYCLE:    23 TIME:   0.007 TIME LEFT:  2.00D  GRAD.:     6.826 HEAT: 31.79153
 CYCLE:    24 TIME:   0.008 TIME LEFT:  2.00D  GRAD.:     8.237 HEAT: 31.78746
 CYCLE:    25 TIME:   0.007 TIME LEFT:  2.00D  GRAD.:     4.166 HEAT: 31.76858
 CYCLE:    26 TIME:   0.008 TIME LEFT:  2.00D  GRAD.:     4.736 HEAT: 31.76031
 CYCLE:    27 TIME:   0.008 TIME LEFT:  2.00D  GRAD.:     3.839 HEAT: 31.74816
 CYCLE:    28 TIME:   0.008 TIME LEFT:  2.00D  GRAD.:     6.495 HEAT: 31.73478
 CYCLE:    29 TIME:   0.008 TIME LEFT:  2.00D  GRAD.:     3.859 HEAT: 31.71597
 CYCLE:    30 TIME:   0.008 TIME LEFT:  2.00D  GRAD.:     6.334 HEAT: 31.70565
 CYCLE:    31 TIME:   0.007 TIME LEFT:  2.00D  GRAD.:     4.380 HEAT: 31.68559
 CYCLE:    32 TIME:   0.008 TIME LEFT:  2.00D  GRAD.:     4.807 HEAT: 31.66520
 CYCLE:    33 TIME:   0.008 TIME LEFT:  2.00D  GRAD.:     6.751 HEAT: 31.64597
 CYCLE:    34 TIME:   0.008 TIME LEFT:  2.00D  GRAD.:     5.163 HEAT: 31.61687
 CYCLE:    35 TIME:   0.008 TIME LEFT:  2.00D  GRAD.:     4.920 HEAT: 31.59192
 CYCLE:    36 TIME:   0.008 TIME LEFT:  2.00D  GRAD.:     5.242 HEAT: 31.56354
 CYCLE:    37 TIME:   0.008 TIME LEFT:  2.00D  GRAD.:     6.523 HEAT: 31.54215
 CYCLE:    38 TIME:   0.008 TIME LEFT:  2.00D  GRAD.:     3.125 HEAT: 31.52206
 CYCLE:    39 TIME:   0.008 TIME LEFT:  2.00D  GRAD.:     3.068 HEAT: 31.51193
 CYCLE:    40 TIME:   0.008 TIME LEFT:  2.00D  GRAD.:     2.674 HEAT: 31.49989
 CYCLE:    41 TIME:   0.008 TIME LEFT:  2.00D  GRAD.:     1.723 HEAT: 31.49067
 CYCLE:    42 TIME:   0.008 TIME LEFT:  2.00D  GRAD.:     1.832 HEAT: 31.48453
 CYCLE:    43 TIME:   0.008 TIME LEFT:  2.00D  GRAD.:     1.926 HEAT: 31.47860
 CYCLE:    44 TIME:   0.008 TIME LEFT:  2.00D  GRAD.:     1.581 HEAT: 31.47310
 CYCLE:    45 TIME:   0.008 TIME LEFT:  2.00D  GRAD.:     1.551 HEAT: 31.46776
 CYCLE:    46 TIME:   0.008 TIME LEFT:  2.00D  GRAD.:     1.752 HEAT: 31.46170
 CYCLE:    47 TIME:   0.008 TIME LEFT:  2.00D  GRAD.:     1.622 HEAT: 31.45552
 CYCLE:    48 TIME:   0.008 TIME LEFT:  2.00D  GRAD.:     1.243 HEAT: 31.45107
 CYCLE:    49 TIME:   0.008 TIME LEFT:  2.00D  GRAD.:     1.161 HEAT: 31.44785
 CYCLE:    50 TIME:   0.008 TIME LEFT:  2.00D  GRAD.:     1.222 HEAT: 31.44498
 CYCLE:    51 TIME:   0.008 TIME LEFT:  2.00D  GRAD.:     1.275 HEAT: 31.44178
 CYCLE:    52 TIME:   0.008 TIME LEFT:  2.00D  GRAD.:     1.275 HEAT: 31.43818
 CYCLE:    53 TIME:   0.008 TIME LEFT:  2.00D  GRAD.:     1.427 HEAT: 31.43414
 CYCLE:    54 TIME:   0.008 TIME LEFT:  2.00D  GRAD.:     1.476 HEAT: 31.42958
 CYCLE:    55 TIME:   0.008 TIME LEFT:  2.00D  GRAD.:     1.512 HEAT: 31.42508
 CYCLE:    56 TIME:   0.008 TIME LEFT:  2.00D  GRAD.:     1.267 HEAT: 31.42120
 CYCLE:    57 TIME:   0.008 TIME LEFT:  2.00D  GRAD.:     1.112 HEAT: 31.41779
 CYCLE:    58 TIME:   0.008 TIME LEFT:  2.00D  GRAD.:     1.112 HEAT: 31.41472
 CYCLE:    59 TIME:   0.008 TIME LEFT:  2.00D  GRAD.:     0.932 HEAT: 31.41215
 CYCLE:    60 TIME:   0.008 TIME LEFT:  2.00D  GRAD.:     0.758 HEAT: 31.41043
 CYCLE:    61 TIME:   0.008 TIME LEFT:  2.00D  GRAD.:     0.735 HEAT: 31.40890
 CYCLE:    62 TIME:   0.008 TIME LEFT:  2.00D  GRAD.:     0.778 HEAT: 31.40738
 CYCLE:    63 TIME:   0.008 TIME LEFT:  2.00D  GRAD.:     0.691 HEAT: 31.40617
 CYCLE:    64 TIME:   0.008 TIME LEFT:  2.00D  GRAD.:     0.493 HEAT: 31.40539
 CYCLE:    65 TIME:   0.008 TIME LEFT:  2.00D  GRAD.:     0.389 HEAT: 31.40496
 CYCLE:    66 TIME:   0.008 TIME LEFT:  2.00D  GRAD.:     0.342 HEAT: 31.40465
 CYCLE:    67 TIME:   0.008 TIME LEFT:  2.00D  GRAD.:     0.284 HEAT: 31.40441
 CYCLE:    68 TIME:   0.007 TIME LEFT:  2.00D  GRAD.:     0.229 HEAT: 31.40424
 CYCLE:    69 TIME:   0.008 TIME LEFT:  2.00D  GRAD.:     0.201 HEAT: 31.40414
 CYCLE:    70 TIME:   0.008 TIME LEFT:  2.00D  GRAD.:     0.188 HEAT: 31.40406
 CYCLE:    71 TIME:   0.008 TIME LEFT:  2.00D  GRAD.:     0.174 HEAT: 31.40397
 CYCLE:    72 TIME:   0.007 TIME LEFT:  2.00D  GRAD.:     0.170 HEAT: 31.40389
 CYCLE:    73 TIME:   0.008 TIME LEFT:  2.00D  GRAD.:     0.185 HEAT: 31.40380
 CYCLE:    74 TIME:   0.008 TIME LEFT:  2.00D  GRAD.:     0.199 HEAT: 31.40371
 CYCLE:    75 TIME:   0.008 TIME LEFT:  2.00D  GRAD.:     0.192 HEAT: 31.40362
 CYCLE:    76 TIME:   0.008 TIME LEFT:  2.00D  GRAD.:     0.170 HEAT: 31.40353
 CYCLE:    77 TIME:   0.008 TIME LEFT:  2.00D  GRAD.:     0.166 HEAT: 31.40344
 CYCLE:    78 TIME:   0.007 TIME LEFT:  2.00D  GRAD.:     0.175 HEAT: 31.40336
 CYCLE:    79 TIME:   0.008 TIME LEFT:  2.00D  GRAD.:     0.200 HEAT: 31.40326
 CYCLE:    80 TIME:   0.008 TIME LEFT:  2.00D  GRAD.:     0.225 HEAT: 31.40314
 CYCLE:    81 TIME:   0.008 TIME LEFT:  2.00D  GRAD.:     0.255 HEAT: 31.40297
 CYCLE:    82 TIME:   0.008 TIME LEFT:  2.00D  GRAD.:     0.275 HEAT: 31.40281
 CYCLE:    83 TIME:   0.008 TIME LEFT:  2.00D  GRAD.:     0.339 HEAT: 31.40258
 CYCLE:    84 TIME:   0.008 TIME LEFT:  2.00D  GRAD.:     0.396 HEAT: 31.40235
 CYCLE:    85 TIME:   0.010 TIME LEFT:  2.00D  GRAD.:     0.521 HEAT: 31.40178
 CYCLE:    86 TIME:   0.010 TIME LEFT:  2.00D  GRAD.:     0.516 HEAT: 31.40124
 CYCLE:    87 TIME:   0.008 TIME LEFT:  2.00D  GRAD.:     0.580 HEAT: 31.40014
 CYCLE:    88 TIME:   0.008 TIME LEFT:  2.00D  GRAD.:     0.450 HEAT: 31.39974
 CYCLE:    89 TIME:   0.008 TIME LEFT:  2.00D  GRAD.:     0.513 HEAT: 31.39885
 CYCLE:    90 TIME:   0.008 TIME LEFT:  2.00D  GRAD.:     0.437 HEAT: 31.39845
 CYCLE:    91 TIME:   0.008 TIME LEFT:  2.00D  GRAD.:     0.554 HEAT: 31.39766
 CYCLE:    92 TIME:   0.008 TIME LEFT:  2.00D  GRAD.:     0.273 HEAT: 31.39742
 CYCLE:    93 TIME:   0.008 TIME LEFT:  2.00D  GRAD.:     0.215 HEAT: 31.39724
 CYCLE:    94 TIME:   0.008 TIME LEFT:  2.00D  GRAD.:     0.215 HEAT: 31.39697
 CYCLE:    95 TIME:   0.008 TIME LEFT:  2.00D  GRAD.:     0.225 HEAT: 31.39677
 CYCLE:    96 TIME:   0.008 TIME LEFT:  2.00D  GRAD.:     0.202 HEAT: 31.39666
 CYCLE:    97 TIME:   0.008 TIME LEFT:  2.00D  GRAD.:     0.157 HEAT: 31.39645
 CYCLE:    98 TIME:   0.008 TIME LEFT:  2.00D  GRAD.:     0.128 HEAT: 31.39640
 CYCLE:    99 TIME:   0.008 TIME LEFT:  2.00D  GRAD.:     0.206 HEAT: 31.39638
 CYCLE:   100 TIME:   0.008 TIME LEFT:  2.00D  GRAD.:     0.096 HEAT: 31.39632
 CYCLE:   101 TIME:   0.008 TIME LEFT:  2.00D  GRAD.:     0.085 HEAT: 31.39630
 CYCLE:   102 TIME:   0.008 TIME LEFT:  2.00D  GRAD.:     0.141 HEAT: 31.39626
 CYCLE:   103 TIME:   0.008 TIME LEFT:  2.00D  GRAD.:     0.137 HEAT: 31.39623
 CYCLE:   104 TIME:   0.008 TIME LEFT:  2.00D  GRAD.:     0.202 HEAT: 31.39616
 CYCLE:   105 TIME:   0.008 TIME LEFT:  2.00D  GRAD.:     0.162 HEAT: 31.39611
 CYCLE:   106 TIME:   0.007 TIME LEFT:  2.00D  GRAD.:     0.144 HEAT: 31.39604
 CYCLE:   107 TIME:   0.008 TIME LEFT:  2.00D  GRAD.:     0.175 HEAT: 31.39594
 CYCLE:   108 TIME:   0.008 TIME LEFT:  2.00D  GRAD.:     0.237 HEAT: 31.39580
 CYCLE:   109 TIME:   0.008 TIME LEFT:  2.00D  GRAD.:     0.338 HEAT: 31.39556
 CYCLE:   110 TIME:   0.008 TIME LEFT:  2.00D  GRAD.:     0.420 HEAT: 31.39506
 CYCLE:   111 TIME:   0.008 TIME LEFT:  2.00D  GRAD.:     0.447 HEAT: 31.39454
 CYCLE:   112 TIME:   0.008 TIME LEFT:  2.00D  GRAD.:     0.616 HEAT: 31.39362
 CYCLE:   113 TIME:   0.008 TIME LEFT:  2.00D  GRAD.:     0.457 HEAT: 31.39319
 CYCLE:   114 TIME:   0.008 TIME LEFT:  2.00D  GRAD.:     0.395 HEAT: 31.39227
 CYCLE:   115 TIME:   0.008 TIME LEFT:  2.00D  GRAD.:     0.315 HEAT: 31.39200
 CYCLE:   116 TIME:   0.009 TIME LEFT:  2.00D  GRAD.:     0.208 HEAT: 31.39156
 CYCLE:   117 TIME:   0.008 TIME LEFT:  2.00D  GRAD.:     0.179 HEAT: 31.39151
 CYCLE:   118 TIME:   0.008 TIME LEFT:  2.00D  GRAD.:     0.092 HEAT: 31.39148
 CYCLE:   119 TIME:   0.008 TIME LEFT:  2.00D  GRAD.:     0.093 HEAT: 31.39147
 CYCLE:   120 TIME:   0.007 TIME LEFT:  2.00D  GRAD.:     0.079 HEAT: 31.39146
 CYCLE:   121 TIME:   0.008 TIME LEFT:  2.00D  GRAD.:     0.050 HEAT: 31.39144
 CYCLE:   122 TIME:   0.007 TIME LEFT:  2.00D  GRAD.:     0.077 HEAT: 31.39143
 CYCLE:   123 TIME:   0.007 TIME LEFT:  2.00D  GRAD.:     0.050 HEAT: 31.39143

     RMS GRADIENT =  0.04952  IS LESS THAN CUTOFF =  0.05000



 -------------------------------------------------------------------------------
pm3  precise nosym
 InChI=1S/C10H14/c1-2-3-4-7-10-8-5-6-9-10/h2-6,10H,1,7-9H2



     GEOMETRY OPTIMISED USING EIGENVECTOR FOLLOWING (EF).     
     SCF FIELD WAS ACHIEVED                                   


                              PM3 CALCULATION
                                                       MOPAC2012 (Version: 13.159M)
                                                       Mon Jun  2 11:10:23 2014
                                                       No. of days left =   6




          FINAL HEAT OF FORMATION =         31.39143 KCAL/MOL =     131.34172 KJ/MOL


          TOTAL ENERGY            =      -1399.70040 EV
          ELECTRONIC ENERGY       =      -7509.91090 EV  POINT GROUP:     C1  
          CORE-CORE REPULSION     =       6110.21050 EV
          COSMO AREA              =        199.63 SQUARE ANGSTROMS
          COSMO VOLUME            =        198.86 CUBIC ANGSTROMS

          GRADIENT NORM           =          0.04952
          IONIZATION POTENTIAL    =          9.221126 EV
          HOMO LUMO ENERGIES (EV) =         -9.221  0.227
          NO. OF FILLED LEVELS    =         27
          MOLECULAR WEIGHT        =        134.221

          MOLECULAR DIMENSIONS (Angstroms)

            Atom       Atom       Distance
            H    24    H    20     9.96573
            H    18    H    14     4.72866
            H    11    H    23     3.55923


          SCF CALCULATIONS        =        132
          COMPUTATION TIME        =          1.029 SECONDS




   ATOM   CHEMICAL          X               Y               Z
  NUMBER   SYMBOL      (ANGSTROMS)     (ANGSTROMS)     (ANGSTROMS)
 
     1       C         -1.15660669  *  -0.00947188  *  -0.92534005  *
     2       C         -1.50908782  *   0.94736786  *   0.23474342  *
     3       C          0.04571113  *  -0.89297070  *  -0.60728066  *
     4       C         -2.42967614  *  -0.85158021  *  -1.16514086  *
     5       C         -2.93742130  *   0.65693946  *   0.56312106  *
     6       C         -3.43877521  *  -0.32089144  *  -0.19924692  *
     7       C          1.30878816  *  -0.10943400  *  -0.55458261  *
     8       C          2.17433884  *  -0.19866924  *   0.46137879  *
     9       C          3.41697078  *   0.55797234  *   0.48439878  *
    10       C          4.28927596  *   0.46137653  *   1.48585984  *
    11       H         -0.92724313  *   0.58536247  *  -1.84005482  *
    12       H         -1.37908025  *   2.00662854  *  -0.05322561  *
    13       H         -0.86194091  *   0.78834537  *   1.11841691  *
    14       H          0.15597787  *  -1.66753375  *  -1.39410669  *
    15       H         -0.12693721  *  -1.44681721  *   0.33824670  *
    16       H         -2.25948157  *  -1.93179864  *  -0.99470606  *
    17       H         -2.79254560  *  -0.75891835  *  -2.20509280  *
    18       H         -3.46104235  *   1.20744932  *   1.34403130  *
    19       H          1.50463771  *   0.55111325  *  -1.40937480  *
    20       H         -4.45081457  *  -0.72256936  *  -0.16155115  *
    21       H          1.97442666  *  -0.85398502  *   1.31965758  *
    22       H          3.61047985  *   1.22126490  *  -0.36816541  *
    23       H          4.13720290  *  -0.18248863  *   2.34787070  *
    24       H          5.21765804  *   1.02348939  *   1.50807329  *

           Empirical Formula: C10 H14  =    24 atoms



      MOLECULAR POINT GROUP   :   C1  


                  EIGENVALUES  
 -41.01159 -36.34625 -32.27140 -28.31599 -27.69437 -24.15171 -20.40397 -20.08485
 -19.28549 -18.55303 -17.54353 -16.44273 -16.18749 -15.44239 -14.20475 -13.96195
 -13.74682 -13.44223 -12.95625 -12.89721 -12.60794 -12.40851 -12.00723 -11.91372
 -11.60572  -9.56183  -9.22113   0.22706   1.12213   2.11075   3.13341   3.40335
   3.48638   3.61614   3.70178   3.77365   3.83592   3.89074   3.95133   3.99200
   4.09962   4.19202   4.32874   4.37526   4.51145   4.57630   5.01153   5.11419
   5.23851   5.41110   5.60042   5.97357   5.99860   6.06844


              NET ATOMIC CHARGES AND DIPOLE CONTRIBUTIONS

  ATOM NO.   TYPE          CHARGE      No. of ELECS.   s-Pop       p-Pop       
    1          C          -0.076180        4.0762     1.18530     2.89088
    2          C          -0.069549        4.0695     1.15744     2.91211
    3          C          -0.066648        4.0666     1.15271     2.91393
    4          C          -0.067420        4.0674     1.15760     2.90982
    5          C          -0.152413        4.1524     1.20201     2.95040
    6          C          -0.158236        4.1582     1.20190     2.95634
    7          C          -0.131560        4.1316     1.19826     2.93330
    8          C          -0.124006        4.1240     1.18356     2.94045
    9          C          -0.104075        4.1041     1.18082     2.92325
   10          C          -0.152924        4.1529     1.18371     2.96922
   11          H           0.064630        0.9354     0.93537
   12          H           0.056982        0.9430     0.94302
   13          H           0.065012        0.9350     0.93499
   14          H           0.057652        0.9423     0.94235
   15          H           0.059934        0.9401     0.94007
   16          H           0.059381        0.9406     0.94062
   17          H           0.055719        0.9443     0.94428
   18          H           0.110745        0.8893     0.88925
   19          H           0.101285        0.8987     0.89872
   20          H           0.110972        0.8890     0.88903
   21          H           0.103738        0.8963     0.89626
   22          H           0.097098        0.9029     0.90290
   23          H           0.081096        0.9189     0.91890
   24          H           0.078768        0.9212     0.92123
 DIPOLE           X         Y         Z       TOTAL
 POINT-CHG.    -0.065    -0.089    -0.172     0.204
 HYBRID         0.019    -0.007     0.005     0.021
 SUM           -0.046    -0.095    -0.167     0.197


          ATOMIC ORBITAL ELECTRON POPULATIONS

    Atom      s        px        py        pz   
    1  C   1.18530   0.94300   0.96357   0.98431
    2  C   1.15744   0.94923   0.98516   0.97772
    3  C   1.15271   0.92892   0.96624   1.01877
    4  C   1.15760   0.94024   0.98716   0.98242
    5  C   1.20201   0.96844   0.98740   0.99457
    6  C   1.20190   0.98459   0.98683   0.98492
    7  C   1.19826   0.96082   0.99152   0.98096
    8  C   1.18356   0.95561   0.99961   0.98522
    9  C   1.18082   0.95093   0.98741   0.98492
   10  C   1.18371   0.98431   1.00580   0.97911
   11  H   0.93537
   12  H   0.94302
   13  H   0.93499
   14  H   0.94235
   15  H   0.94007
   16  H   0.94062
   17  H   0.94428
   18  H   0.88925
   19  H   0.89872
   20  H   0.88903
   21  H   0.89626
   22  H   0.90290
   23  H   0.91890
   24  H   0.92123
 *******************************************************************************
 ** Site#: 14399           For non-commercial use only        Version 13.159M **
 *******************************************************************************
 ** Cite this work as: MOPAC2012, James J. P. Stewart, Stewart Computational  **
 ** Chemistry, Version 13.159M web: HTTP://OpenMOPAC.net  Days remaining:   6 **
 *******************************************************************************
 **                                                                           **
 **                                MOPAC2012                                  **
 **                                                                           **
 *******************************************************************************

                            PM3 CALCULATION RESULTS


 *******************************************************************************
 *  CALCULATION DONE:                                Mon Jun  2 11:10:23 2014  *
 *  PM3      - The PM3 Hamiltonian to be used
 *  OLDGEO   - PREVIOUS GEOMETRY TO BE USED
 *  PRECISE  - CRITERIA TO BE INCREASED BY 100 TIMES
 *  NOSYM    - POINT-GROUP SYMMETRY SET TO C1
 *  T=       - A TIME OF 172800.0 SECONDS REQUESTED
 *  DUMP=N   - RESTART FILE WRITTEN EVERY  7200.000 SECONDS
 *  THERMO   - THERMODYNAMIC QUANTITIES TO BE CALCULATED
 *******************************************************************************
oldgeo thermo nosym precise  pm3

   ATOM   CHEMICAL          X               Y               Z
  NUMBER   SYMBOL      (ANGSTROMS)     (ANGSTROMS)     (ANGSTROMS)
 
     1       C         -1.15660669  *  -0.00947188  *  -0.92534005  *
     2       C         -1.50908782  *   0.94736786  *   0.23474342  *
     3       C          0.04571113  *  -0.89297070  *  -0.60728066  *
     4       C         -2.42967614  *  -0.85158021  *  -1.16514086  *
     5       C         -2.93742130  *   0.65693946  *   0.56312106  *
     6       C         -3.43877521  *  -0.32089144  *  -0.19924692  *
     7       C          1.30878816  *  -0.10943400  *  -0.55458261  *
     8       C          2.17433884  *  -0.19866924  *   0.46137879  *
     9       C          3.41697078  *   0.55797234  *   0.48439878  *
    10       C          4.28927596  *   0.46137653  *   1.48585984  *
    11       H         -0.92724313  *   0.58536247  *  -1.84005482  *
    12       H         -1.37908025  *   2.00662854  *  -0.05322561  *
    13       H         -0.86194091  *   0.78834537  *   1.11841691  *
    14       H          0.15597787  *  -1.66753375  *  -1.39410669  *
    15       H         -0.12693721  *  -1.44681721  *   0.33824670  *
    16       H         -2.25948157  *  -1.93179864  *  -0.99470606  *
    17       H         -2.79254560  *  -0.75891835  *  -2.20509280  *
    18       H         -3.46104235  *   1.20744932  *   1.34403130  *
    19       H          1.50463771  *   0.55111325  *  -1.40937480  *
    20       H         -4.45081457  *  -0.72256936  *  -0.16155115  *
    21       H          1.97442666  *  -0.85398502  *   1.31965758  *
    22       H          3.61047985  *   1.22126490  *  -0.36816541  *
    23       H          4.13720290  *  -0.18248863  *   2.34787070  *
    24       H          5.21765804  *   1.02348939  *   1.50807329  *
 


          CARTESIAN COORDINATES 

    NO.       ATOM         X         Y         Z

     1         C       -1.1566   -0.0095   -0.9253
     2         C       -1.5091    0.9474    0.2347
     3         C        0.0457   -0.8930   -0.6073
     4         C       -2.4297   -0.8516   -1.1651
     5         C       -2.9374    0.6569    0.5631
     6         C       -3.4388   -0.3209   -0.1992
     7         C        1.3088   -0.1094   -0.5546
     8         C        2.1743   -0.1987    0.4614
     9         C        3.4170    0.5580    0.4844
    10         C        4.2893    0.4614    1.4859
    11         H       -0.9272    0.5854   -1.8401
    12         H       -1.3791    2.0066   -0.0532
    13         H       -0.8619    0.7883    1.1184
    14         H        0.1560   -1.6675   -1.3941
    15         H       -0.1269   -1.4468    0.3382
    16         H       -2.2595   -1.9318   -0.9947
    17         H       -2.7925   -0.7589   -2.2051
    18         H       -3.4610    1.2074    1.3440
    19         H        1.5046    0.5511   -1.4094
    20         H       -4.4508   -0.7226   -0.1616
    21         H        1.9744   -0.8540    1.3197
    22         H        3.6105    1.2213   -0.3682
    23         H        4.1372   -0.1825    2.3479
    24         H        5.2177    1.0235    1.5081

  H: (PM3): J. J. P. STEWART, J. COMP. CHEM. 10, 209 (1989).
  C: (PM3): J. J. P. STEWART, J. COMP. CHEM. 10, 209 (1989).

           Empirical Formula: C10 H14  =    24 atoms



      MOLECULAR POINT GROUP   :   C1  


      RHF CALCULATION, NO. OF DOUBLY OCCUPIED LEVELS =   27



          HEAT OF FORMATION =      31.391425 KCALS/MOLE


          INTERNAL COORDINATE DERIVATIVES

   NUMBER  ATOM       BOND         ANGLE      DIHEDRAL

     1       C      0.000266    -0.003229    -0.001988
     2       C     -0.007901    -0.002699    -0.009290
     3       C      0.002068     0.000645    -0.001976
     4       C      0.002201    -0.000211    -0.002238
     5       C     -0.003877    -0.003177    -0.004363
     6       C      0.003002     0.001081    -0.000239
     7       C     -0.002974     0.000052    -0.003627
     8       C      0.006047    -0.008715     0.002140
     9       C      0.006726     0.010544    -0.001321
    10       C     -0.004411    -0.021915    -0.003518
    11       H     -0.003062     0.007232     0.000991
    12       H      0.001813     0.001468     0.008088
    13       H      0.002628     0.008599     0.001448
    14       H     -0.006238     0.002719     0.003892
    15       H      0.001596    -0.004382    -0.001723
    16       H     -0.002606     0.001404     0.003351
    17       H     -0.003106    -0.001619     0.004556
    18       H      0.000434     0.007771     0.002593
    19       H     -0.007543     0.012656     0.002327
    20       H      0.006025     0.000355    -0.000605
    21       H      0.010049    -0.015280    -0.001135
    22       H      0.010651    -0.003830    -0.003950
    23       H     -0.008350     0.005748     0.005436
    24       H     -0.003435     0.004787     0.001150


          GRADIENT NORM =   0.04881


          TIME FOR SCF CALCULATION =    0.01

          TIME FOR DERIVATIVES     =    0.01

          MOLECULAR WEIGHT =  134.22



          ROTATIONAL CONSTANTS IN CM(-1)

          A =    0.13056400   B =    0.01734293   C =    0.01618997



           PRINCIPAL MOMENTS OF INERTIA IN UNITS OF 10**(-40)*GRAM-CM**2

          A =      214.3989   B =     1614.0744   C =     1729.0192


          ORIENTATION OF MOLECULE IN FORCE CALCULATION

    NO.       ATOM         X         Y         Z

     1          C      -0.4362   -1.3358   -0.3676
     2          C       1.1083   -1.3358   -0.3676
     3          C      -1.0190    0.0741   -0.3676
     4          C      -0.8475   -2.1178   -1.6351
     5          C       1.5010   -2.1354   -1.5671
     6          C       0.4370   -2.5621   -2.2561
     7          C      -0.7823    0.7700    0.9253
     8          C      -0.2720    2.0042    1.0005
     9          C      -0.0696    2.6786    2.2738
    10          C       0.4237    3.9129    2.3536
    11          H      -0.8071   -1.8726    0.5365
    12          H       1.5186   -1.7841    0.5557
    13          H       1.5258   -0.3123   -0.4231
    14          H      -2.1150    0.0229   -0.5332
    15          H      -0.6126    0.6553   -1.2206
    16          H      -1.4275   -1.4971   -2.3444
    17          H      -1.4884   -2.9849   -1.3918
    18          H       2.5481   -2.3179   -1.8066
    19          H      -1.0598    0.2155    1.8314
    20          H       0.4475   -3.1606   -3.1663
    21          H       0.0123    2.5555    0.0943
    22          H      -0.3432    2.1225    3.1794
    23          H       0.7070    4.4983    1.4830
    24          H       0.5767    4.4207    3.3007


    FIRST DERIVATIVES WILL BE USED IN THE CALCULATION OF SECOND DERIVATIVES

          ESTIMATED TIME TO COMPLETE CALCULATION =        3.23 SECONDS

    FOR POINT-GROUP C1   THERE ARE   1 UNIQUE SYMMETRY FUNCTIONS.

 STEP:   1 TIME =     0.03 SECS, INTEGRAL =      0.03 TIME LEFT: 172799.95
 STEP:   2 TIME =     0.04 SECS, INTEGRAL =      0.07 TIME LEFT: 172799.92
 STEP:   3 TIME =     0.04 SECS, INTEGRAL =      0.11 TIME LEFT: 172799.88
 STEP:   4 TIME =     0.03 SECS, INTEGRAL =      0.14 TIME LEFT: 172799.85
 STEP:   5 TIME =     0.03 SECS, INTEGRAL =      0.18 TIME LEFT: 172799.81
 STEP:   6 TIME =     0.03 SECS, INTEGRAL =      0.21 TIME LEFT: 172799.78
 STEP:   7 TIME =     0.04 SECS, INTEGRAL =      0.25 TIME LEFT: 172799.74
 STEP:   8 TIME =     0.04 SECS, INTEGRAL =      0.28 TIME LEFT: 172799.70
 STEP:   9 TIME =     0.04 SECS, INTEGRAL =      0.32 TIME LEFT: 172799.67
 STEP:  10 TIME =     0.03 SECS, INTEGRAL =      0.35 TIME LEFT: 172799.63
 STEP:  11 TIME =     0.03 SECS, INTEGRAL =      0.39 TIME LEFT: 172799.60
 STEP:  12 TIME =     0.04 SECS, INTEGRAL =      0.42 TIME LEFT: 172799.56
 STEP:  13 TIME =     0.03 SECS, INTEGRAL =      0.46 TIME LEFT: 172799.53
 STEP:  14 TIME =     0.04 SECS, INTEGRAL =      0.49 TIME LEFT: 172799.49
 STEP:  15 TIME =     0.04 SECS, INTEGRAL =      0.53 TIME LEFT: 172799.46
 STEP:  16 TIME =     0.04 SECS, INTEGRAL =      0.57 TIME LEFT: 172799.42
 STEP:  17 TIME =     0.04 SECS, INTEGRAL =      0.60 TIME LEFT: 172799.39
 STEP:  18 TIME =     0.04 SECS, INTEGRAL =      0.64 TIME LEFT: 172799.35
 STEP:  19 TIME =     0.04 SECS, INTEGRAL =      0.67 TIME LEFT: 172799.32
 STEP:  20 TIME =     0.04 SECS, INTEGRAL =      0.71 TIME LEFT: 172799.28
 STEP:  21 TIME =     0.03 SECS, INTEGRAL =      0.74 TIME LEFT: 172799.25
 STEP:  22 TIME =     0.04 SECS, INTEGRAL =      0.78 TIME LEFT: 172799.21
 STEP:  23 TIME =     0.04 SECS, INTEGRAL =      0.81 TIME LEFT: 172799.18
 STEP:  24 TIME =     0.04 SECS, INTEGRAL =      0.85 TIME LEFT: 172799.14
 STEP:  25 TIME =     0.04 SECS, INTEGRAL =      0.89 TIME LEFT: 172799.10
 STEP:  26 TIME =     0.04 SECS, INTEGRAL =      0.92 TIME LEFT: 172799.06
 STEP:  27 TIME =     0.04 SECS, INTEGRAL =      0.96 TIME LEFT: 172799.03
 STEP:  28 TIME =     0.04 SECS, INTEGRAL =      1.00 TIME LEFT: 172798.99
 STEP:  29 TIME =     0.03 SECS, INTEGRAL =      1.03 TIME LEFT: 172798.96
 STEP:  30 TIME =     0.03 SECS, INTEGRAL =      1.06 TIME LEFT: 172798.92
 STEP:  31 TIME =     0.04 SECS, INTEGRAL =      1.10 TIME LEFT: 172798.89
 STEP:  32 TIME =     0.04 SECS, INTEGRAL =      1.14 TIME LEFT: 172798.85
 STEP:  33 TIME =     0.03 SECS, INTEGRAL =      1.17 TIME LEFT: 172798.82
 STEP:  34 TIME =     0.04 SECS, INTEGRAL =      1.21 TIME LEFT: 172798.78
 STEP:  35 TIME =     0.04 SECS, INTEGRAL =      1.24 TIME LEFT: 172798.75
 STEP:  36 TIME =     0.03 SECS, INTEGRAL =      1.28 TIME LEFT: 172798.71
 STEP:  37 TIME =     0.04 SECS, INTEGRAL =      1.31 TIME LEFT: 172798.68
 STEP:  38 TIME =     0.03 SECS, INTEGRAL =      1.35 TIME LEFT: 172798.64
 STEP:  39 TIME =     0.04 SECS, INTEGRAL =      1.38 TIME LEFT: 172798.61
 STEP:  40 TIME =     0.03 SECS, INTEGRAL =      1.42 TIME LEFT: 172798.57
 STEP:  41 TIME =     0.04 SECS, INTEGRAL =      1.46 TIME LEFT: 172798.53
 STEP:  42 TIME =     0.04 SECS, INTEGRAL =      1.50 TIME LEFT: 172798.49
 STEP:  43 TIME =     0.04 SECS, INTEGRAL =      1.53 TIME LEFT: 172798.45
 STEP:  44 TIME =     0.04 SECS, INTEGRAL =      1.57 TIME LEFT: 172798.42
 STEP:  45 TIME =     0.03 SECS, INTEGRAL =      1.60 TIME LEFT: 172798.38
 STEP:  46 TIME =     0.04 SECS, INTEGRAL =      1.64 TIME LEFT: 172798.35
 STEP:  47 TIME =     0.04 SECS, INTEGRAL =      1.68 TIME LEFT: 172798.31
 STEP:  48 TIME =     0.04 SECS, INTEGRAL =      1.71 TIME LEFT: 172798.28
 STEP:  49 TIME =     0.04 SECS, INTEGRAL =      1.75 TIME LEFT: 172798.24
 STEP:  50 TIME =     0.03 SECS, INTEGRAL =      1.78 TIME LEFT: 172798.21
 STEP:  51 TIME =     0.04 SECS, INTEGRAL =      1.82 TIME LEFT: 172798.17
 STEP:  52 TIME =     0.03 SECS, INTEGRAL =      1.85 TIME LEFT: 172798.14
 STEP:  53 TIME =     0.04 SECS, INTEGRAL =      1.89 TIME LEFT: 172798.10
 STEP:  54 TIME =     0.04 SECS, INTEGRAL =      1.92 TIME LEFT: 172798.06
 STEP:  55 TIME =     0.04 SECS, INTEGRAL =      1.96 TIME LEFT: 172798.03
 STEP:  56 TIME =     0.04 SECS, INTEGRAL =      2.00 TIME LEFT: 172797.99
 STEP:  57 TIME =     0.03 SECS, INTEGRAL =      2.03 TIME LEFT: 172797.96
 STEP:  58 TIME =     0.04 SECS, INTEGRAL =      2.07 TIME LEFT: 172797.92
 STEP:  59 TIME =     0.04 SECS, INTEGRAL =      2.10 TIME LEFT: 172797.88
 STEP:  60 TIME =     0.03 SECS, INTEGRAL =      2.14 TIME LEFT: 172797.85
 STEP:  61 TIME =     0.04 SECS, INTEGRAL =      2.18 TIME LEFT: 172797.81
 STEP:  62 TIME =     0.04 SECS, INTEGRAL =      2.21 TIME LEFT: 172797.78
 STEP:  63 TIME =     0.03 SECS, INTEGRAL =      2.25 TIME LEFT: 172797.74
 STEP:  64 TIME =     0.04 SECS, INTEGRAL =      2.28 TIME LEFT: 172797.70
 STEP:  65 TIME =     0.04 SECS, INTEGRAL =      2.32 TIME LEFT: 172797.67
 STEP:  66 TIME =     0.03 SECS, INTEGRAL =      2.35 TIME LEFT: 172797.63
 STEP:  67 TIME =     0.04 SECS, INTEGRAL =      2.39 TIME LEFT: 172797.60
 STEP:  68 TIME =     0.04 SECS, INTEGRAL =      2.43 TIME LEFT: 172797.56
 STEP:  69 TIME =     0.03 SECS, INTEGRAL =      2.46 TIME LEFT: 172797.53
 STEP:  70 TIME =     0.04 SECS, INTEGRAL =      2.50 TIME LEFT: 172797.49
 STEP:  71 TIME =     0.04 SECS, INTEGRAL =      2.53 TIME LEFT: 172797.45
 STEP:  72 TIME =     0.03 SECS, INTEGRAL =      2.57 TIME LEFT: 172797.42

(To convert to Hartree/Bohr^2, multiply by (10^(-21) x N x a0^2)/(4.184 x 627.51) = 0.0642)


           FORCE MATRIX IN MILLIDYNES/ANGSTROM


                  C  1       C  2       C  3       C  4       C  5       C  6
 ------------------------------------------------------------------------------
     C    1  14.167734
     C    2   3.494789  14.629115
     C    3   3.969988   0.580491  14.679631
     C    4   3.478479   0.722149   0.593363  14.627940
     C    5   0.860864   4.758245   0.033351   1.186648  18.394706
     C    6   0.858438   1.186183   0.030930   4.761366  10.590089  18.398247
     C    7   0.676900   0.038969   4.964412   0.050414   0.002505   0.007295
     C    8   0.039225   0.008155   0.830421   0.007772   0.002181   0.002350
     C    9   0.020293   0.002065   0.146194   0.003176   0.001252   0.001115
     C   10   0.002960   0.000798   0.016738   0.001404   0.001003   0.001246
     H   11   4.297601   0.423654   0.432286   0.422373   0.025412   0.024767
     H   12   0.435562   4.528282   0.025914   0.029147   0.430387   0.038910
     H   13   0.447513   4.483826   0.058790   0.025343   0.428177   0.037446
     H   14   0.441162   0.046552   4.397479   0.033591   0.005085   0.001986
     H   15   0.444244   0.024412   4.421916   0.020080   0.001682   0.001874
     H   16   0.446167   0.025389   0.066040   4.478690   0.037497   0.427554
     H   17   0.435618   0.029584   0.026393   4.529785   0.038704   0.430694
     H   18   0.042664   0.412113   0.004069   0.115484   5.021886   0.449601
     H   19   0.027276   0.003181   0.429794   0.001978   0.000799   0.000997
     H   20   0.042327   0.114244   0.003927   0.412518   0.450435   5.023251
     H   21   0.007973   0.001118   0.082404   0.001492   0.001005   0.000661
     H   22   0.000686   0.000291   0.002871   0.000407   0.000435   0.000345
     H   23   0.000805   0.000364   0.005628   0.000382   0.000443   0.000403
     H   24   0.001464   0.000220   0.010721   0.000413   0.000298   0.000466


                  C  7       C  8       C  9       C 10       H 11       H 12
 ------------------------------------------------------------------------------
     C    7  18.028522
     C    8  10.397759  18.485982
     C    9   1.074279   5.600123  18.468167
     C   10   0.102886   1.072425  10.789601  17.898612
     H   11   0.041137   0.002112   0.000999   0.000296   4.758798
     H   12   0.002329   0.001023   0.000456   0.000334   0.028860   5.132375
     H   13   0.007122   0.004775   0.000948   0.000398   0.026681   0.570534
     H   14   0.405201   0.033994   0.020389   0.001969   0.025338   0.004076
     H   15   0.459088   0.049877   0.003080   0.001198   0.043260   0.001541
     H   16   0.002542   0.000952   0.000393   0.000331   0.027173   0.003504
     H   17   0.004684   0.001033   0.000499   0.000406   0.028954   0.001068
     H   18   0.000816   0.000628   0.000456   0.000451   0.002785   0.015149
     H   19   4.759129   0.466886   0.088417   0.006391   0.027094   0.000861
     H   20   0.001279   0.000714   0.000364   0.000341   0.002601   0.014921
     H   21   0.465560   4.749846   0.443731   0.038376   0.000693   0.000292
     H   22   0.041432   0.445470   4.772357   0.451526   0.000272   0.000184
     H   23   0.005450   0.100639   0.487879   5.076556   0.000185   0.000156
     H   24   0.008264   0.136015   0.460028   5.113811   0.000123   0.000123


                  H 13       H 14       H 15       H 16       H 17       H 18
 ------------------------------------------------------------------------------
     H   13   5.101296
     H   14   0.002779   4.994177
     H   15   0.028282   0.558932   5.035547
     H   16   0.001285   0.029368   0.019889   5.101741
     H   17   0.003604   0.001818   0.001298   0.570656   5.132311
     H   18   0.014260   0.001156   0.000581   0.015565   0.015427   5.418353
     H   19   0.001382   0.019120   0.037920   0.000666   0.000401   0.000335
     H   20   0.015129   0.000572   0.000546   0.014621   0.014957   0.047211
     H   21   0.001469   0.009537   0.029986   0.000347   0.000219   0.000287
     H   22   0.000313   0.000737   0.000702   0.000134   0.000144   0.000140
     H   23   0.000260   0.000855   0.000291   0.000103   0.000140   0.000175
     H   24   0.000165   0.001638   0.000286   0.000111   0.000075   0.000143


                  H 19       H 20       H 21       H 22       H 23       H 24
 ------------------------------------------------------------------------------
     H   19   5.142170
     H   20   0.000343   5.420001
     H   21   0.102673   0.000231   5.125567
     H   22   0.028595   0.000150   0.035575   5.141069
     H   23   0.002994   0.000111   0.025590   0.116200   5.470666
     H   24   0.004484   0.000168   0.002399   0.078180   0.420537   5.498573


          HEAT OF FORMATION =      31.391425 KCALS/MOLE

          ZERO POINT ENERGY     131.181 KCAL/MOL


           NORMAL COORDINATE ANALYSIS (Total motion = 1 Angstrom)


   Root No.       1         2         3         4         5         6         7         8

                 1 A       2 A       3 A       4 A       5 A       6 A       7 A       8 A   

                  43.8      71.4      97.9     106.2     152.1     230.8     283.1     329.2
  
           1   -0.0180    0.0133    0.0033   -0.0082    0.0092   -0.0126   -0.0219    0.0137
           2   -0.0053    0.0195   -0.0057    0.0076   -0.0010   -0.0136    0.0061    0.0142
           3    0.0040   -0.0051    0.0143    0.0008    0.0009   -0.0012   -0.0201    0.0195
           4   -0.0180    0.0134    0.0034   -0.0081    0.0091   -0.0133   -0.0227    0.0145
           5    0.0217    0.0422   -0.0176    0.0156   -0.0023    0.0109    0.0190    0.0202
           6    0.0231   -0.0323    0.0120    0.0021   -0.0099   -0.0031   -0.0028    0.0111
           7   -0.0412   -0.0098    0.0191   -0.0105    0.0023   -0.0207    0.0159    0.0164
           8   -0.0148    0.0101    0.0016    0.0068   -0.0049   -0.0176    0.0201    0.0050
           9    0.0065   -0.0148   -0.0156   -0.0148    0.0190    0.0163   -0.0189   -0.0098
          10    0.0112    0.0027   -0.0052   -0.0039    0.0013   -0.0026   -0.0057   -0.0126
          11   -0.0030   -0.0111   -0.0243   -0.0096    0.0190   -0.0071   -0.0259    0.0406
          12   -0.0067    0.0175    0.0284    0.0105   -0.0100   -0.0090   -0.0043    0.0201
          13    0.0109    0.0032   -0.0035   -0.0033    0.0005   -0.0024   -0.0039   -0.0103
          14    0.0415   -0.0078    0.0239    0.0139   -0.0094    0.0070    0.0233    0.0014
          15    0.0196   -0.0024   -0.0178    0.0051   -0.0085    0.0037    0.0026    0.0170
          16    0.0268   -0.0027   -0.0079   -0.0009   -0.0040    0.0038    0.0064   -0.0219
          17    0.0277   -0.0361    0.0196   -0.0005    0.0033   -0.0041   -0.0161    0.0285
          18    0.0035    0.0242   -0.0083    0.0102   -0.0093    0.0010    0.0109    0.0168
          19   -0.0299   -0.0283   -0.0085   -0.0141   -0.0247    0.0446    0.0325    0.0294
          20   -0.0084    0.0120    0.0100    0.0075   -0.0077    0.0021   -0.0231   -0.0255
          21    0.0011   -0.0124   -0.0154   -0.0147    0.0260   -0.0072    0.0058   -0.0078
          22   -0.0062   -0.0058    0.0080    0.0603    0.0320    0.0390    0.0058    0.0042
          23   -0.0176    0.0020    0.0027   -0.0240   -0.0308    0.0064   -0.0146   -0.0187
          24   -0.0094   -0.0012   -0.0076   -0.0053    0.0227   -0.0231    0.0293   -0.0223
          25    0.0166   -0.0137   -0.0203    0.0432   -0.0245   -0.0217   -0.0088   -0.0180
          26   -0.0140   -0.0078    0.0039   -0.0273    0.0181    0.0133    0.0033   -0.0339
          27   -0.0150    0.0054   -0.0036   -0.0007    0.0050   -0.0155    0.0219   -0.0170
          28    0.0469    0.0241    0.0093   -0.0478    0.0003   -0.0042    0.0012   -0.0145
          29   -0.0253   -0.0240   -0.0088    0.0084    0.0108    0.0027    0.0030   -0.0368
          30   -0.0264    0.0213    0.0097    0.0055   -0.0291    0.0303   -0.0201   -0.0239
          31   -0.0201    0.0389   -0.0027   -0.0071    0.0157   -0.0048   -0.0339    0.0201
          32   -0.0170    0.0273    0.0168    0.0174   -0.0136   -0.0269    0.0183    0.0165
          33   -0.0039    0.0103    0.0251    0.0070   -0.0042   -0.0060   -0.0174    0.0235
          34   -0.0216    0.0364    0.0007   -0.0067    0.0154   -0.0039   -0.0301    0.0261
          35    0.0187    0.0928   -0.0591    0.0201    0.0039    0.0289    0.0199    0.0423
          36    0.0233   -0.0180   -0.0067    0.0037   -0.0098    0.0013    0.0010    0.0163
          37   -0.0357   -0.0018    0.0118   -0.0131    0.0094   -0.0313   -0.0280    0.0132
          38    0.0299    0.0453   -0.0189    0.0177   -0.0029    0.0179    0.0220    0.0197
          39    0.0399   -0.0894    0.0540    0.0002   -0.0202   -0.0153    0.0061   -0.0167
          40   -0.0424   -0.0077    0.0227   -0.0093    0.0043   -0.0305    0.0169    0.0162
          41   -0.0327   -0.0075    0.0138    0.0065   -0.0104   -0.0280    0.0630    0.0163
          42    0.0213   -0.0226   -0.0439   -0.0217    0.0059    0.0836   -0.0344   -0.0124
          43   -0.0614   -0.0131    0.0487   -0.0046    0.0072   -0.0763    0.0464    0.0250
          44   -0.0116    0.0153   -0.0115    0.0024    0.0065   -0.0241    0.0224    0.0017
          45   -0.0010   -0.0127   -0.0103   -0.0149    0.0286   -0.0142   -0.0028   -0.0087
          46    0.0062    0.0057   -0.0515   -0.0146    0.0172    0.0054   -0.0156   -0.0015
          47   -0.0087   -0.0248   -0.0495   -0.0238    0.0372   -0.0015   -0.0500    0.0602
          48   -0.0076    0.0030    0.0445    0.0070   -0.0074   -0.0106   -0.0165    0.0266
          49    0.0260   -0.0038    0.0362    0.0079   -0.0167   -0.0064    0.0104   -0.0327
          50   -0.0179    0.0008   -0.0487   -0.0152    0.0288   -0.0073   -0.0330    0.0530
          51   -0.0208    0.0427    0.0511    0.0219   -0.0228   -0.0203    0.0133    0.0109
          52    0.0171    0.0012   -0.0044   -0.0021   -0.0015    0.0001    0.0009   -0.0162
          53    0.0637   -0.0162    0.0512    0.0231   -0.0225    0.0132    0.0506   -0.0287
          54    0.0297   -0.0049   -0.0426    0.0034   -0.0073    0.0099    0.0028    0.0145
          55   -0.0372   -0.0578   -0.0445   -0.0807   -0.1035    0.0668    0.0584    0.0650
          56    0.0024    0.0185    0.0215    0.0324    0.0220    0.0141   -0.0555   -0.0416
          57    0.0054   -0.0173   -0.0192   -0.0196    0.0193    0.0079   -0.0065   -0.0068
          58    0.0487   -0.0105   -0.0131    0.0029   -0.0108    0.0127    0.0226   -0.0346
          59    0.0363   -0.0718    0.0420   -0.0056    0.0034   -0.0097   -0.0358    0.0345
          60   -0.0019    0.0476   -0.0231    0.0136   -0.0095    0.0048    0.0240    0.0129
          61    0.0000    0.0230    0.0446    0.1266    0.1159    0.0465   -0.0153   -0.0224
          62   -0.0292   -0.0018   -0.0064   -0.0463   -0.0774    0.0045   -0.0013   -0.0065
          63   -0.0146    0.0056   -0.0015    0.0021    0.0200   -0.0208    0.0298   -0.0230
          64    0.0087   -0.0508   -0.0666    0.0996   -0.0934   -0.1020   -0.0296   -0.0416
          65   -0.0015   -0.0026    0.0148   -0.0579    0.0679    0.0230    0.0318   -0.0310
          66   -0.0098   -0.0025   -0.0109   -0.0024    0.0144   -0.0328    0.0321   -0.0226
          67    0.0555    0.0614    0.0553   -0.1075    0.0659    0.0803    0.0191    0.0059
          68   -0.0379   -0.0292   -0.0190    0.0401   -0.0408    0.0028   -0.0373   -0.0539
          69   -0.0320    0.0300    0.0178    0.0075   -0.0426    0.0583   -0.0420   -0.0289
          70    0.0656    0.0208   -0.0102   -0.0706   -0.0435   -0.0735   -0.0070   -0.0310
          71   -0.0230   -0.0335   -0.0102    0.0092    0.0563   -0.0079    0.0438   -0.0229
          72   -0.0306    0.0270    0.0136    0.0088   -0.0464    0.0473   -0.0409   -0.0293


   Root No.       9        10        11        12        13        14        15        16

                 9 A      10 A      11 A      12 A      13 A      14 A      15 A      16 A   

                 371.3     438.6     493.3     554.8     618.2     680.2     749.3     771.8
  
           1    0.0022   -0.0123   -0.0024   -0.0126    0.0076   -0.0293    0.0112   -0.0336
           2   -0.0052   -0.0348   -0.0317    0.0112    0.0047    0.0026    0.0072   -0.0179
           3    0.0068    0.0147    0.0211   -0.0057   -0.0142    0.0415   -0.0147   -0.0343
           4    0.0025   -0.0135   -0.0029   -0.0156    0.0063   -0.0275    0.0100    0.0157
           5   -0.0096    0.0219    0.0031   -0.0025    0.0051   -0.0214   -0.0073   -0.0301
           6    0.0088   -0.0067   -0.0007   -0.0101    0.0060   -0.0206    0.0172   -0.0417
           7    0.0079    0.0388    0.0037    0.0181    0.0035   -0.0240    0.0044   -0.0073
           8   -0.0044   -0.0161   -0.0231    0.0246   -0.0057    0.0214    0.0080   -0.0036
           9    0.0053    0.0062   -0.0056    0.0478   -0.0046   -0.0114    0.0000    0.0049
          10   -0.0009   -0.0081   -0.0016    0.0079   -0.0091    0.0345   -0.0068   -0.0651
          11    0.0212   -0.0038    0.0020   -0.0118   -0.0002    0.0134   -0.0189    0.0017
          12   -0.0081   -0.0102   -0.0043   -0.0057   -0.0045    0.0339   -0.0034    0.0033
          13   -0.0007   -0.0074   -0.0027    0.0036   -0.0047    0.0225   -0.0109    0.0946
          14    0.0434    0.0067    0.0027   -0.0029    0.0037   -0.0158   -0.0121   -0.0129
          15   -0.0277    0.0087    0.0002   -0.0047    0.0062   -0.0202    0.0163   -0.0096
          16   -0.0046   -0.0006   -0.0010    0.0116   -0.0057    0.0168   -0.0044    0.0043
          17   -0.0406    0.0063    0.0019   -0.0105    0.0035   -0.0068   -0.0175    0.0520
          18    0.0302   -0.0020   -0.0018   -0.0105    0.0057   -0.0092    0.0073    0.0879
          19   -0.0041   -0.0092    0.0090    0.0034    0.0177    0.0063   -0.0012   -0.0011
          20    0.0006   -0.0066    0.0333    0.0313   -0.0122   -0.0090    0.0013    0.0038
          21    0.0020    0.0109   -0.0384    0.0386   -0.0040   -0.0024    0.0061    0.0022
          22   -0.0022   -0.0084    0.0075    0.0094    0.0091    0.0070   -0.0011    0.0000
          23    0.0004   -0.0032    0.0288    0.0293   -0.0094   -0.0109    0.0014    0.0053
          24   -0.0090   -0.0083    0.0148   -0.0289    0.0036    0.0033   -0.0011   -0.0026
          25   -0.0002    0.0051   -0.0093   -0.0182   -0.0418   -0.0111    0.0005    0.0005
          26   -0.0033    0.0105   -0.0127   -0.0294    0.0202    0.0064   -0.0013   -0.0008
          27   -0.0085   -0.0184    0.0467   -0.0045   -0.0030   -0.0047   -0.0018    0.0024
          28   -0.0012    0.0046   -0.0024   -0.0122    0.0065    0.0011   -0.0005   -0.0001
          29   -0.0041    0.0088   -0.0105   -0.0368    0.0011    0.0014   -0.0016   -0.0005
          30    0.0017    0.0130   -0.0182   -0.0186    0.0023    0.0004   -0.0008    0.0006
          31   -0.0038   -0.0098    0.0043   -0.0212    0.0095   -0.0443    0.0026   -0.0068
          32   -0.0129   -0.0469   -0.0402    0.0072    0.0023    0.0382    0.0135   -0.0241
          33   -0.0007    0.0062    0.0169   -0.0114   -0.0141    0.0560   -0.0145   -0.0278
          34   -0.0046    0.0304    0.0334   -0.0250   -0.0090    0.0065    0.0155   -0.0220
          35   -0.0880    0.0922    0.0410   -0.0065   -0.0082    0.0161    0.0748   -0.0136
          36   -0.0248    0.0066    0.0007   -0.0079    0.0069   -0.0199    0.0529   -0.0194
          37    0.0102   -0.0560   -0.0364   -0.0068    0.0155   -0.0523    0.0087   -0.0101
          38   -0.0094    0.0381    0.0160   -0.0059    0.0020   -0.0137   -0.0094   -0.0216
          39    0.0933   -0.0700   -0.0355   -0.0073    0.0231   -0.0737   -0.0706   -0.0449
          40    0.0096    0.0486    0.0003    0.0192   -0.0037   -0.0223    0.0017   -0.0078
          41   -0.0003    0.0407   -0.0317    0.0585   -0.0225    0.0632   -0.0181    0.0433
          42   -0.0074   -0.0706    0.0177    0.0341    0.0427   -0.0323    0.0237   -0.0060
          43    0.0207    0.1247   -0.0110    0.0420   -0.0414    0.0108   -0.0302    0.0217
          44   -0.0073   -0.0354   -0.0577    0.0354    0.0020    0.0041    0.0303   -0.0074
          45    0.0088    0.0311   -0.0356    0.0653   -0.0197   -0.0072   -0.0005    0.0154
          46    0.0909    0.0114    0.0316   -0.0159   -0.0227    0.0887    0.0597   -0.0604
          47    0.0740    0.0233    0.0397   -0.0357   -0.0131    0.0567    0.0085   -0.0232
          48   -0.0397   -0.0033   -0.0003   -0.0046   -0.0043    0.0252   -0.0362   -0.0253
          49   -0.0896   -0.0228   -0.0321    0.0377   -0.0006   -0.0036   -0.0737   -0.0624
          50    0.0780   -0.0027    0.0135   -0.0288   -0.0025    0.0304    0.0305   -0.0124
          51   -0.0458   -0.0472   -0.0472    0.0145    0.0121   -0.0146   -0.0108   -0.0295
          52   -0.0001   -0.0053   -0.0022    0.0086   -0.0070    0.0309   -0.0082    0.0789
          53    0.1072    0.0046    0.0079    0.0055   -0.0076    0.0393    0.1855   -0.0073
          54   -0.0736    0.0196   -0.0015    0.0106    0.0048   -0.0244   -0.1225   -0.0858
          55   -0.0104   -0.0379   -0.0092   -0.0152   -0.0371    0.0320   -0.0080   -0.0060
          56    0.0078    0.0079    0.0431    0.0780    0.0041   -0.0306    0.0037    0.0146
          57    0.0044    0.0101   -0.0365    0.0608   -0.0106   -0.0077    0.0054    0.0071
          58   -0.0086    0.0119    0.0016    0.0161    0.0017   -0.0304    0.0198   -0.0258
          59   -0.1077    0.0101    0.0066   -0.0157   -0.0037    0.0372    0.1774    0.0828
          60    0.0743   -0.0044   -0.0049   -0.0070    0.0105   -0.0385   -0.1207    0.0677
          61    0.0010    0.0039    0.0353    0.0361    0.1002    0.0077    0.0008    0.0067
          62   -0.0043   -0.0228    0.0614    0.0178   -0.0482   -0.0150   -0.0025    0.0056
          63   -0.0106   -0.0164    0.0431   -0.0265    0.0085    0.0009   -0.0028   -0.0003
          64    0.0038    0.0233    0.0027   -0.0075    0.0344   -0.0032    0.0008    0.0015
          65   -0.0099   -0.0015   -0.0113   -0.0580   -0.0075    0.0061   -0.0032   -0.0038
          66   -0.0111   -0.0194    0.0491   -0.0193    0.0030   -0.0024   -0.0028    0.0007
          67   -0.0047   -0.0091   -0.0379   -0.0503   -0.1625   -0.0365    0.0028    0.0010
          68    0.0057    0.0456   -0.0673   -0.0506    0.0734    0.0260   -0.0015   -0.0081
          69    0.0073    0.0340   -0.0698   -0.0409   -0.0040    0.0050    0.0004   -0.0044
          70    0.0013    0.0172    0.0439    0.0363    0.2496    0.0601   -0.0063   -0.0024
          71   -0.0150   -0.0310    0.0516   -0.0316   -0.1003   -0.0327   -0.0019    0.0086
          72    0.0072    0.0329   -0.0603   -0.0309    0.0176    0.0094    0.0002   -0.0041


   Root No.      17        18        19        20        21        22        23        24

                17 A      18 A      19 A      20 A      21 A      22 A      23 A      24 A   

                 848.3     869.8     903.4     918.1     931.3     946.0     960.3     992.8
  
           1   -0.0004    0.0006    0.0035   -0.0036    0.0078    0.0044    0.0128    0.0081
           2    0.0027    0.0012    0.0074    0.0000   -0.0005    0.0023    0.0014    0.0056
           3   -0.0017   -0.0017   -0.0101    0.0013   -0.0031   -0.0052   -0.0054    0.0046
           4   -0.0240   -0.0107   -0.0264    0.0086   -0.0163   -0.0054   -0.0181   -0.0083
           5   -0.0128    0.0227    0.0167    0.0027   -0.0046   -0.0089   -0.0108    0.0044
           6   -0.0034   -0.0215   -0.0189    0.0034   -0.0061    0.0037   -0.0041   -0.0165
           7    0.0363    0.0104    0.0014   -0.0123    0.0215    0.0058    0.0141   -0.0053
           8    0.0023   -0.0004   -0.0329   -0.0008    0.0004    0.0005   -0.0023   -0.0019
           9   -0.0039   -0.0008    0.0087    0.0004   -0.0006   -0.0075   -0.0006   -0.0002
          10    0.0045   -0.0035    0.0134    0.0027   -0.0039   -0.0007   -0.0066   -0.0132
          11    0.0157   -0.0243    0.0345    0.0011   -0.0010   -0.0064   -0.0033   -0.0173
          12    0.0061    0.0165    0.0058   -0.0016    0.0041    0.0067    0.0044    0.0055
          13    0.0060    0.0019    0.0017   -0.0020    0.0030    0.0009    0.0029   -0.0027
          14    0.0005    0.0032   -0.0152   -0.0020    0.0039    0.0066    0.0066   -0.0226
          15   -0.0023   -0.0001    0.0079    0.0002   -0.0003   -0.0036   -0.0007    0.0231
          16    0.0029    0.0026    0.0005   -0.0012    0.0019    0.0001    0.0024    0.0066
          17    0.0026   -0.0029   -0.0138   -0.0015    0.0017    0.0062    0.0050    0.0292
          18    0.0015    0.0024    0.0076   -0.0008    0.0014   -0.0030   -0.0010   -0.0230
          19    0.0126    0.0077    0.0011    0.0025   -0.0259   -0.0046   -0.0250    0.0061
          20   -0.0086   -0.0035   -0.0029   -0.0018    0.0121   -0.0110    0.0122   -0.0027
          21   -0.0036    0.0009   -0.0089   -0.0009   -0.0008    0.0100    0.0017   -0.0001
          22   -0.0220   -0.0081    0.0015   -0.0303   -0.0139   -0.0015    0.0305   -0.0036
          23    0.0007    0.0019   -0.0003    0.0127    0.0057   -0.0029   -0.0100    0.0015
          24    0.0048    0.0008   -0.0050   -0.0036    0.0030   -0.0254    0.0031   -0.0002
          25    0.0025   -0.0002    0.0009   -0.0181    0.0200    0.0051   -0.0186    0.0002
          26   -0.0013   -0.0001    0.0021    0.0079   -0.0095    0.0076    0.0063   -0.0002
          27   -0.0043   -0.0010    0.0050   -0.0001    0.0000   -0.0008   -0.0006    0.0006
          28    0.0013    0.0004    0.0012   -0.0012    0.0062    0.0024   -0.0144    0.0028
          29   -0.0012   -0.0006    0.0039    0.0014   -0.0044    0.0100    0.0044   -0.0011
          30   -0.0034   -0.0010    0.0075    0.0024   -0.0054    0.0447   -0.0053   -0.0004
          31   -0.0340    0.0382    0.0313   -0.0005    0.0053   -0.0116    0.0159    0.0938
          32    0.0230    0.0232   -0.0368   -0.0116    0.0071    0.0278    0.0158    0.0365
          33   -0.0016    0.0273   -0.0221   -0.0048    0.0017    0.0040    0.0057    0.0582
          34   -0.0182   -0.0588   -0.1090    0.0104   -0.0215    0.0017   -0.0218   -0.0844
          35    0.0295   -0.0816   -0.0415   -0.0009    0.0000    0.0229    0.0125   -0.0264
          36    0.0129   -0.0478   -0.0087    0.0009   -0.0015    0.0151    0.0086    0.0041
          37   -0.0491    0.0242    0.0242    0.0149   -0.0259   -0.0210   -0.0295    0.0844
          38   -0.0033    0.0120   -0.0019   -0.0001   -0.0003   -0.0033   -0.0064   -0.0350
          39   -0.0430    0.0907    0.0468    0.0044   -0.0071   -0.0263   -0.0263   -0.0170
          40    0.0164    0.0049    0.0115   -0.0101    0.0200    0.0067    0.0213   -0.0028
          41   -0.0549   -0.0063   -0.0295    0.0394   -0.0710   -0.0387   -0.0986    0.0039
          42    0.1289    0.0361   -0.0549   -0.0222    0.0268   -0.0059   -0.0215   -0.0152
          43   -0.0896   -0.0172    0.0619    0.0230   -0.0319   -0.0228   -0.0183    0.0135
          44    0.0117    0.0011   -0.0559   -0.0102    0.0217    0.0273    0.0346   -0.0028
          45   -0.0542   -0.0121    0.0199    0.0097   -0.0102   -0.0029    0.0097    0.0079
          46   -0.0259    0.0907   -0.0500   -0.0028    0.0038    0.0259    0.0079    0.0141
          47   -0.0028    0.0403   -0.0327   -0.0036    0.0058    0.0111    0.0051    0.0545
          48    0.0158   -0.0079    0.0015   -0.0009    0.0032   -0.0010   -0.0010    0.0433
          49    0.0297   -0.0926    0.0625    0.0111   -0.0192   -0.0293   -0.0341   -0.0500
          50    0.0035    0.0304    0.0229   -0.0055    0.0126    0.0134    0.0217   -0.0082
          51    0.0318   -0.0347    0.1011   -0.0022    0.0109   -0.0011    0.0190   -0.0670
          52    0.0139    0.0044    0.0139   -0.0057    0.0107    0.0026    0.0138    0.0157
          53    0.0382   -0.0889    0.0886    0.0006    0.0006   -0.0188    0.0051    0.1449
          54    0.0047    0.0808   -0.0153   -0.0180    0.0362    0.0235    0.0483   -0.0262
          55   -0.1214   -0.0512    0.0070    0.1126    0.1737   -0.0004    0.0917   -0.0129
          56    0.0221    0.0169    0.0112   -0.0420   -0.0736   -0.0119   -0.0281    0.0124
          57   -0.0253   -0.0044    0.0016    0.0082    0.0080    0.0106    0.0126    0.0034
          58   -0.0173    0.0090   -0.0381   -0.0023    0.0020   -0.0039    0.0087    0.0549
          59   -0.0357    0.1066    0.0598   -0.0008    0.0044   -0.0193   -0.0111   -0.1304
          60    0.0269   -0.0693   -0.0406   -0.0016    0.0001    0.0139    0.0102    0.0831
          61    0.0211    0.0093   -0.0031    0.2296    0.1280   -0.0111   -0.0803    0.0117
          62   -0.0243   -0.0075    0.0071   -0.0947   -0.0499   -0.0568    0.0436   -0.0015
          63    0.0033    0.0006   -0.0021    0.0124    0.0138   -0.0615    0.0009    0.0028
          64    0.0505    0.0258   -0.0039    0.1969   -0.1326   -0.0286    0.0997   -0.0009
          65   -0.0148   -0.0095    0.0000   -0.0818    0.0593   -0.0451   -0.0354    0.0027
          66    0.0020    0.0011    0.0021    0.0097   -0.0038   -0.0440    0.0096    0.0020
          67    0.0406    0.0177   -0.0097    0.1141   -0.0881   -0.0627    0.1043   -0.0107
          68    0.0024   -0.0030   -0.0204   -0.0554    0.0566   -0.1466   -0.0261    0.0071
          69    0.0126    0.0033   -0.0134    0.0014    0.0058   -0.0873    0.0134    0.0007
          70   -0.0507   -0.0184    0.0157   -0.0367   -0.0282    0.0774    0.0591   -0.0137
          71   -0.0035    0.0011    0.0348    0.0282   -0.0185    0.1934   -0.0457    0.0030
          72    0.0066    0.0012   -0.0117   -0.0063    0.0080   -0.0685    0.0099    0.0001


   Root No.      25        26        27        28        29        30        31        32

                25 A      26 A      27 A      28 A      29 A      30 A      31 A      32 A   

                 995.1    1017.2    1033.3    1053.0    1064.0    1078.6    1101.1    1117.7
  
           1   -0.0065    0.0079   -0.0010   -0.0071   -0.0184   -0.0119   -0.0016    0.0117
           2   -0.0059    0.0087    0.0041    0.0022    0.0210    0.0026   -0.0002    0.0044
           3    0.0240    0.0114    0.0002    0.0008    0.0241    0.0022    0.0142    0.0147
           4    0.0050   -0.0057    0.0018    0.0066    0.0020    0.0047   -0.0006   -0.0174
           5    0.0123   -0.0230   -0.0069   -0.0029    0.0016    0.0086    0.0104   -0.0089
           6   -0.0148   -0.0084   -0.0001    0.0018   -0.0097   -0.0032    0.0094    0.0101
           7    0.0135   -0.0120   -0.0049    0.0074    0.0105    0.0059    0.0012   -0.0035
           8    0.0168   -0.0015   -0.0031    0.0012   -0.0150   -0.0032   -0.0026    0.0134
           9   -0.0039    0.0003    0.0030    0.0091    0.0020    0.0020   -0.0020   -0.0026
          10   -0.0086   -0.0207   -0.0044   -0.0023    0.0084    0.0017   -0.0150   -0.0014
          11    0.0091    0.0094    0.0011   -0.0004   -0.0020   -0.0062    0.0055   -0.0022
          12   -0.0188   -0.0123    0.0003    0.0035   -0.0137    0.0023   -0.0071   -0.0230
          13   -0.0028   -0.0042   -0.0017   -0.0007   -0.0107   -0.0006    0.0155    0.0062
          14   -0.0129    0.0176    0.0073    0.0118    0.0098   -0.0220   -0.0083   -0.0002
          15    0.0128    0.0034   -0.0010   -0.0063    0.0001    0.0142   -0.0161   -0.0072
          16    0.0031    0.0104    0.0036    0.0043   -0.0071    0.0022    0.0108   -0.0044
          17   -0.0116   -0.0126   -0.0018   -0.0033    0.0088    0.0258   -0.0124    0.0032
          18    0.0080    0.0018   -0.0032   -0.0055    0.0167   -0.0163   -0.0116    0.0061
          19   -0.0149    0.0119    0.0088   -0.0177    0.0018   -0.0038    0.0013    0.0037
          20    0.0043   -0.0053   -0.0041    0.0075   -0.0014    0.0025   -0.0011    0.0029
          21   -0.0005   -0.0005   -0.0030   -0.0099    0.0015    0.0015    0.0017    0.0064
          22    0.0060   -0.0040   -0.0185    0.0080   -0.0007    0.0018   -0.0007   -0.0003
          23   -0.0072    0.0017    0.0059   -0.0091   -0.0012   -0.0011   -0.0004    0.0027
          24    0.0007   -0.0007   -0.0005    0.0044   -0.0004    0.0012   -0.0005    0.0040
          25    0.0003   -0.0047    0.0358   -0.0072    0.0000   -0.0009    0.0000    0.0004
          26    0.0014    0.0017   -0.0141    0.0039   -0.0002    0.0004   -0.0002    0.0003
          27   -0.0047    0.0008    0.0020   -0.0038    0.0018   -0.0001    0.0007   -0.0018
          28   -0.0062    0.0103   -0.0464    0.0071   -0.0001    0.0004   -0.0001   -0.0004
          29    0.0032   -0.0039    0.0191   -0.0022    0.0000   -0.0006   -0.0002   -0.0009
          30    0.0064   -0.0001   -0.0020    0.0031   -0.0003   -0.0001    0.0001   -0.0009
          31    0.0101    0.0564    0.0185    0.0158   -0.0727   -0.0487   -0.0163    0.2253
          32   -0.0033    0.0298   -0.0005   -0.0475    0.0846    0.0025    0.0682   -0.0068
          33    0.0309    0.0438    0.0056   -0.0189    0.0410   -0.0124    0.0505    0.0954
          34    0.0590    0.0798   -0.0008   -0.0665   -0.0376    0.1067   -0.0972   -0.0344
          35   -0.0724   -0.0242    0.0057    0.0268   -0.0199   -0.0466    0.0612    0.0405
          36   -0.0787   -0.0473    0.0069    0.0486   -0.0047   -0.0758    0.0779    0.0439
          37   -0.0009   -0.0068    0.0295    0.0976    0.1247   -0.0702   -0.0493   -0.0738
          38    0.0169   -0.0251   -0.0202   -0.0441   -0.0548    0.0430    0.0347    0.0167
          39    0.0505   -0.0663   -0.0359   -0.0590   -0.0848    0.0605    0.0701    0.0328
          40    0.0014   -0.0040   -0.0086   -0.0131    0.0179    0.0028    0.0035   -0.0022
          41    0.0203   -0.0115    0.0466    0.1248   -0.1034    0.0074   -0.0252    0.0193
          42    0.0722   -0.0490    0.0147    0.1146   -0.0265    0.0200   -0.0142   -0.0031
          43   -0.0371    0.0170    0.0166    0.0179    0.0006    0.0009   -0.0022    0.0030
          44   -0.0079    0.0007   -0.0316   -0.1004   -0.0353   -0.0421   -0.0033   -0.0387
          45   -0.0430    0.0148   -0.0065   -0.0539   -0.0152   -0.0267   -0.0041   -0.0356
          46   -0.0699   -0.0541   -0.0029    0.0040    0.0609    0.0759   -0.0679    0.0336
          47    0.0058   -0.0236   -0.0092   -0.0121   -0.0657   -0.0913    0.0245   -0.0772
          48    0.0305   -0.0125   -0.0098   -0.0115   -0.1095   -0.1309    0.0516   -0.1142
          49    0.0595   -0.0277   -0.0224   -0.0316    0.0581   -0.0724   -0.0429    0.0364
          50   -0.0534    0.0377    0.0254    0.0354   -0.0454    0.0914    0.0420   -0.0261
          51   -0.0593    0.0702    0.0390    0.0548   -0.0455    0.1544    0.0508   -0.0133
          52    0.0001    0.0216    0.0052    0.0025   -0.0356   -0.0096   -0.0308   -0.0051
          53    0.0492    0.0189    0.0002   -0.0175   -0.0534    0.0240   -0.1001   -0.0298
          54   -0.0244    0.1097    0.0325    0.0282   -0.0570   -0.0606   -0.1501   -0.0304
          55    0.0294   -0.0259   -0.0280    0.0252    0.0127    0.0091    0.0065   -0.0133
          56   -0.0477    0.0212    0.0078   -0.0552    0.0198   -0.0068    0.0150   -0.0255
          57   -0.0183    0.0041   -0.0068   -0.0343    0.0182    0.0000    0.0133   -0.0158
          58    0.0549    0.1232    0.0361    0.0334    0.0371    0.0244    0.1651   -0.0884
          59    0.0324    0.0302   -0.0015   -0.0033    0.0166   -0.0508   -0.0041    0.0060
          60   -0.0203   -0.0237   -0.0027   -0.0050    0.0122    0.0343   -0.0160    0.0018
          61   -0.0296    0.0131    0.0470   -0.0390    0.0007   -0.0095    0.0013   -0.0060
          62   -0.0190    0.0014   -0.0230   -0.0140   -0.0046   -0.0086   -0.0036   -0.0268
          63   -0.0174    0.0043    0.0026   -0.0127   -0.0016   -0.0066   -0.0017   -0.0154
          64   -0.0007    0.0140   -0.1009    0.0182    0.0025    0.0021    0.0017   -0.0066
          65   -0.0140   -0.0019    0.0425   -0.0156    0.0082   -0.0018    0.0051   -0.0173
          66   -0.0146    0.0043   -0.0045   -0.0081    0.0078   -0.0005    0.0045   -0.0146
          67    0.0169   -0.0348    0.1521   -0.0253    0.0013   -0.0020    0.0003   -0.0010
          68   -0.0336    0.0177   -0.0612    0.0004    0.0024    0.0000    0.0003   -0.0038
          69   -0.0115   -0.0002    0.0085   -0.0059    0.0019   -0.0004    0.0005   -0.0028
          70    0.0389   -0.0437    0.1777   -0.0201   -0.0005   -0.0022   -0.0002   -0.0022
          71    0.0142    0.0149   -0.0694    0.0184   -0.0023   -0.0009   -0.0006   -0.0058
          72   -0.0073   -0.0014    0.0092   -0.0038    0.0012    0.0005    0.0004    0.0016


   Root No.      33        34        35        36        37        38        39        40

                33 A      34 A      35 A      36 A      37 A      38 A      39 A      40 A   

                1125.4    1148.2    1170.7    1182.9    1213.2    1230.3    1243.3    1256.9
  
           1    0.0083    0.0075    0.0043   -0.0086    0.0137    0.0162    0.0124    0.0298
           2   -0.0067    0.0083   -0.0069   -0.0189    0.0302    0.0255   -0.0054    0.0270
           3   -0.0122   -0.0285   -0.0052    0.0177    0.0068    0.0093    0.0076    0.0238
           4   -0.0186   -0.0078   -0.0010    0.0033   -0.0069   -0.0043    0.0146   -0.0279
           5   -0.0132   -0.0119   -0.0016    0.0056   -0.0025   -0.0034   -0.0049    0.0045
           6   -0.0119   -0.0009   -0.0040   -0.0010    0.0027    0.0000   -0.0118    0.0077
           7   -0.0024    0.0027   -0.0069    0.0063   -0.0030   -0.0023   -0.0015   -0.0009
           8    0.0103   -0.0206    0.0124    0.0178    0.0016    0.0084   -0.0018    0.0038
           9    0.0043   -0.0024   -0.0314   -0.0156    0.0312   -0.0006   -0.0021    0.0059
          10    0.0221    0.0118    0.0046   -0.0008   -0.0083   -0.0071   -0.0039   -0.0051
          11    0.0024    0.0022    0.0025    0.0035   -0.0096   -0.0049    0.0083   -0.0179
          12    0.0166    0.0059    0.0091   -0.0037    0.0007    0.0053    0.0099   -0.0164
          13   -0.0194   -0.0097   -0.0033    0.0011    0.0056    0.0039   -0.0047    0.0106
          14    0.0086    0.0050    0.0017    0.0002   -0.0059   -0.0075   -0.0096   -0.0005
          15    0.0121    0.0074    0.0018   -0.0009   -0.0072   -0.0103   -0.0139    0.0004
          16   -0.0088   -0.0048   -0.0020    0.0017   -0.0022   -0.0070   -0.0209    0.0078
          17    0.0134    0.0033    0.0007   -0.0004    0.0009    0.0014    0.0037    0.0025
          18    0.0174    0.0091    0.0024   -0.0023   -0.0006    0.0006    0.0035    0.0025
          19    0.0017   -0.0103    0.0084   -0.0039    0.0074   -0.0019   -0.0004    0.0023
          20   -0.0002   -0.0019    0.0118   -0.0092    0.0069   -0.0090    0.0001   -0.0025
          21   -0.0062   -0.0030    0.0416   -0.0034   -0.0221    0.0162   -0.0102   -0.0298
          22   -0.0001    0.0003    0.0048   -0.0035    0.0005   -0.0028   -0.0017   -0.0084
          23    0.0018   -0.0083    0.0166   -0.0109    0.0015   -0.0055   -0.0037   -0.0167
          24    0.0015   -0.0081    0.0006   -0.0205   -0.0121   -0.0023    0.0057    0.0199
          25    0.0006   -0.0015   -0.0008   -0.0017   -0.0015    0.0007    0.0002    0.0014
          26    0.0004   -0.0014    0.0000   -0.0046   -0.0027   -0.0016    0.0012    0.0027
          27   -0.0031    0.0052    0.0151   -0.0015    0.0074   -0.0228    0.0058   -0.0028
          28    0.0003   -0.0004   -0.0014   -0.0035   -0.0029   -0.0022    0.0016    0.0018
          29    0.0011   -0.0015   -0.0045   -0.0072   -0.0066   -0.0042    0.0035    0.0047
          30    0.0000    0.0029   -0.0078    0.0107    0.0043    0.0084   -0.0029   -0.0005
          31    0.0720    0.0297   -0.0055    0.0458   -0.0422   -0.0338   -0.0433   -0.0401
          32   -0.1276    0.1177   -0.0854   -0.1015   -0.0195   -0.0634   -0.0066   -0.0781
          33   -0.0580    0.0441   -0.0575   -0.0085   -0.0459   -0.0653   -0.0159   -0.0682
          34   -0.0003    0.0472   -0.0089   -0.0335    0.0143   -0.0041   -0.0634    0.0210
          35   -0.0344   -0.0079   -0.0090   -0.0014    0.0108    0.0167    0.0393   -0.0304
          36   -0.0322   -0.0246   -0.0045    0.0128   -0.0003    0.0099    0.0455   -0.0321
          37   -0.0233   -0.0701    0.0088    0.0536   -0.0474   -0.0480   -0.0499    0.0022
          38   -0.0150    0.0140   -0.0068   -0.0165    0.0166    0.0173    0.0266   -0.0105
          39   -0.0421   -0.0052   -0.0125   -0.0063    0.0186    0.0246    0.0545   -0.0353
          40   -0.0003   -0.0109    0.0012    0.0016    0.0062    0.0015   -0.0057   -0.0021
          41    0.0070    0.0977   -0.0549    0.0109   -0.0311   -0.0240    0.0464    0.0249
          42   -0.0041    0.0594   -0.0749    0.0178   -0.0145   -0.0151    0.0131    0.0196
          43   -0.0043    0.0293   -0.0304   -0.0499    0.0484    0.0155   -0.0095    0.0231
          44    0.0621   -0.0673   -0.1312    0.1013   -0.0255   -0.1269    0.0435    0.0067
          45    0.0381   -0.0226   -0.1434    0.0137    0.0374   -0.0841    0.0239    0.0182
          46    0.0507    0.0203   -0.0099   -0.0008    0.0049    0.0098    0.0544   -0.0371
          47    0.0162    0.0374    0.0209   -0.0344    0.0006   -0.0090   -0.0381   -0.0019
          48    0.0085    0.0295    0.0353   -0.0352   -0.0014   -0.0126   -0.0742    0.0222
          49    0.0392    0.0338   -0.0054   -0.0046   -0.0073   -0.0001    0.0494   -0.0478
          50   -0.0117   -0.0228    0.0056    0.0186   -0.0263   -0.0284   -0.0394    0.0107
          51    0.0053   -0.0340   -0.0030    0.0439   -0.0557   -0.0586   -0.0262   -0.0186
          52   -0.0638   -0.0238   -0.0034    0.0021    0.0114    0.0174    0.0300   -0.0067
          53   -0.0730   -0.0200    0.0013    0.0010    0.0051    0.0176    0.0571   -0.0335
          54   -0.1091   -0.0296    0.0026    0.0020    0.0086    0.0282    0.0867   -0.0506
          55   -0.0252    0.0511    0.0060    0.0333   -0.0384   -0.0066    0.0212    0.0526
          56   -0.0460    0.0889    0.0489    0.1040   -0.1000   -0.0047    0.0563    0.1508
          57   -0.0428    0.0711    0.0626    0.0749   -0.1032    0.0192    0.0299    0.0773
          58    0.1472    0.0236    0.0318   -0.0098    0.0178    0.0464    0.1004   -0.0518
          59    0.0078    0.0077    0.0018   -0.0016   -0.0023   -0.0012    0.0016    0.0009
          60    0.0258    0.0078    0.0030   -0.0019    0.0013    0.0028    0.0069    0.0022
          61    0.0083   -0.0111   -0.0454    0.0082   -0.0380    0.0633   -0.0184   -0.0240
          62    0.0195   -0.0043   -0.1405    0.0219   -0.1122    0.1644   -0.0456   -0.0599
          63    0.0141   -0.0087   -0.1087    0.0019   -0.0947    0.1213   -0.0241   -0.0084
          64   -0.0084    0.0266   -0.0005    0.0654    0.0507    0.0166   -0.0163   -0.0249
          65   -0.0213    0.0699    0.0014    0.1800    0.1403    0.0425   -0.0437   -0.0679
          66   -0.0194    0.0574    0.0175    0.1304    0.1095    0.0068   -0.0254   -0.0524
          67   -0.0001   -0.0006    0.0018   -0.0067   -0.0046   -0.0085    0.0042    0.0002
          68   -0.0012    0.0020    0.0042   -0.0165   -0.0115   -0.0229    0.0107   -0.0003
          69   -0.0021    0.0056    0.0015    0.0039    0.0025   -0.0078    0.0028   -0.0045
          70    0.0020    0.0015   -0.0191    0.0090   -0.0040    0.0133   -0.0022   -0.0005
          71    0.0042    0.0054   -0.0460    0.0224   -0.0087    0.0315   -0.0053   -0.0009
          72   -0.0021   -0.0002    0.0167   -0.0059    0.0063   -0.0136    0.0025    0.0025


   Root No.      41        42        43        44        45        46        47        48

                41 A      42 A      43 A      44 A      45 A      46 A      47 A      48 A   

                1272.1    1282.3    1343.9    1371.5    1371.9    1397.2    1405.2    1409.9
  
           1    0.0604   -0.0040   -0.0066   -0.0011   -0.0164    0.0244   -0.0053    0.0149
           2   -0.0277    0.0189   -0.0123   -0.0065    0.0163   -0.0329    0.0074   -0.0098
           3    0.0209    0.0073   -0.0028   -0.0042    0.0120   -0.0087    0.0037   -0.0013
           4   -0.0149   -0.0064    0.0232   -0.0310    0.0208   -0.0112   -0.0092   -0.0144
           5    0.0015    0.0020   -0.0125    0.0128   -0.0149    0.0043   -0.0164   -0.0182
           6   -0.0153    0.0076   -0.0209    0.0178   -0.0196   -0.0003   -0.0239   -0.0309
           7   -0.0147    0.0071   -0.0053   -0.0042    0.0003   -0.0280    0.0007    0.0005
           8   -0.0011   -0.0027    0.0295    0.0038    0.0104    0.0346   -0.0134    0.0130
           9   -0.0113   -0.0040    0.0198   -0.0067   -0.0006   -0.0248   -0.0097    0.0182
          10    0.0105   -0.0064    0.0135    0.0109    0.0180   -0.0134    0.0452   -0.0262
          11   -0.0126   -0.0010   -0.0091   -0.0155   -0.0191    0.0188   -0.0009    0.0066
          12   -0.0323    0.0039   -0.0147   -0.0248   -0.0252    0.0214    0.0012    0.0083
          13   -0.0028    0.0053   -0.0114    0.0139   -0.0080   -0.0001   -0.0090   -0.0052
          14    0.0050   -0.0034    0.0094   -0.0199    0.0047    0.0038    0.0017    0.0143
          15    0.0089   -0.0052    0.0141   -0.0302    0.0068    0.0065    0.0020    0.0217
          16   -0.0097    0.0037   -0.0035   -0.0303   -0.0091    0.0121   -0.0105    0.0226
          17    0.0115   -0.0024    0.0043    0.0119    0.0072   -0.0060    0.0081   -0.0057
          18    0.0172   -0.0040    0.0066    0.0177    0.0105   -0.0087    0.0115   -0.0078
          19   -0.0009   -0.0106    0.0069    0.0017   -0.0058    0.0011    0.0008   -0.0011
          20   -0.0005   -0.0216    0.0073    0.0036   -0.0169   -0.0039    0.0052   -0.0056
          21    0.0213    0.0074   -0.0156    0.0030   -0.0046    0.0044    0.0060   -0.0088
          22    0.0048    0.0015   -0.0056    0.0005   -0.0017   -0.0004    0.0022   -0.0029
          23    0.0107   -0.0049   -0.0087    0.0024   -0.0076    0.0006    0.0058   -0.0074
          24   -0.0142   -0.0532    0.0193    0.0058   -0.0277   -0.0055    0.0073   -0.0079
          25   -0.0013   -0.0099   -0.0039   -0.0007    0.0025   -0.0001   -0.0003    0.0003
          26   -0.0020   -0.0171   -0.0120   -0.0024    0.0100    0.0007   -0.0016    0.0018
          27    0.0064    0.0558   -0.0204   -0.0063    0.0288    0.0044   -0.0071    0.0078
          28   -0.0004    0.0066   -0.0052   -0.0019    0.0079    0.0008   -0.0022    0.0025
          29   -0.0012    0.0144   -0.0127   -0.0046    0.0194    0.0020   -0.0054    0.0063
          30   -0.0016   -0.0156    0.0035    0.0008   -0.0038   -0.0007    0.0006   -0.0006
          31   -0.1300    0.0196   -0.0064    0.0141    0.0142   -0.0390    0.0048   -0.0386
          32    0.0731   -0.0474    0.0220    0.0128   -0.0289    0.0345   -0.0010    0.0118
          33    0.0029   -0.0222    0.0165    0.0135   -0.0031    0.0055    0.0031   -0.0105
          34   -0.0857    0.0268   -0.0565    0.1051   -0.0345    0.0071    0.0617    0.0705
          35   -0.0408    0.0033    0.0032    0.0715    0.0235    0.0022    0.1225    0.1355
          36   -0.0074   -0.0059    0.0207   -0.0050    0.0238   -0.0080    0.0244    0.0213
          37   -0.0149    0.0053   -0.0489    0.1177   -0.0497    0.0307    0.0623    0.0895
          38   -0.0023   -0.0024    0.0176   -0.0381    0.0173   -0.0113   -0.0268   -0.0383
          39   -0.0400    0.0017    0.0103    0.0637    0.0303   -0.0009    0.1218    0.1337
          40   -0.0220    0.0023    0.0064   -0.0052   -0.0004   -0.0325   -0.0040    0.0066
          41    0.1147    0.0097   -0.0718   -0.0324   -0.0562   -0.1401    0.0149    0.0221
          42   -0.0066    0.0251   -0.0181    0.0347    0.0534    0.1995    0.0164   -0.0582
          43   -0.0349   -0.0035    0.0330    0.0419    0.0609    0.2448    0.0003   -0.0527
          44    0.0190   -0.0007   -0.0550   -0.0046   -0.0202   -0.0414    0.0259   -0.0225
          45   -0.0087   -0.0080   -0.0173    0.0145    0.0129    0.0796    0.0184   -0.0364
          46   -0.0174   -0.0051    0.0004    0.0591   -0.0034   -0.0094   -0.1465    0.0558
          47   -0.0052   -0.0098    0.0371    0.0984    0.0552   -0.0681   -0.1363    0.0357
          48   -0.0013   -0.0057    0.0380    0.0451    0.0593   -0.0604    0.0163   -0.0240
[...]
 T-DIPOLE    0.0879        C 10 --  H 24           +7.4% ( 37.4%)     1.1%
 TRAVEL      0.0831        C  1 --  C  4           +7.3% ( 37.2%)    40.4%
 RED. MASS   0.5837        C  4 --  H 16           +6.9% ( 36.2%)     0.2%
 EFF. MASS   7.1094

 VIBRATION   46   46A       ATOM PAIR        ENERGY CONTRIBUTION    RADIAL
 FREQ.      1397.19        C  3 --  H 15          +23.3% ( 56.6%)     4.4%
 T-DIPOLE    0.0513        C  3 --  H 14          +20.6% ( 53.2%)     5.8%
 TRAVEL      0.1054        C  1 --  C  3          +14.2% ( 44.1%)    89.7%
 RED. MASS   0.5859        C  1 --  C  4           +7.9% ( 32.8%)    33.2%
 EFF. MASS   4.3445

 VIBRATION   47   47A       ATOM PAIR        ENERGY CONTRIBUTION    RADIAL
 FREQ.      1405.24        C  4 --  H 16          +20.7% ( 51.8%)     5.3%
 T-DIPOLE    0.0567        C  4 --  H 17          +20.3% ( 51.3%)     5.4%
 TRAVEL      0.1106        C  4 --  C  6          +10.9% ( 37.6%)    91.3%
 RED. MASS   0.4506        C  2 --  H 13           +9.7% ( 35.5%)     5.4%
 EFF. MASS   3.9209

 VIBRATION   48   48A       ATOM PAIR        ENERGY CONTRIBUTION    RADIAL
 FREQ.      1409.94        C  2 --  H 13          +15.0% ( 48.9%)     5.1%
 T-DIPOLE    0.0664        C  2 --  H 12          +13.3% ( 46.0%)     7.2%
 TRAVEL      0.0936        C  2 --  C  5          +11.4% ( 42.6%)    83.8%
 RED. MASS   0.4683        C  4 --  C  6           +7.7% ( 35.1%)    97.9%
 EFF. MASS   5.4583

 VIBRATION   49   49A       ATOM PAIR        ENERGY CONTRIBUTION    RADIAL
 FREQ.      1421.35        C  1 --  C  3          +14.0% ( 55.2%)    52.9%
 T-DIPOLE    0.0574        C  3 --  C  7          +13.4% ( 54.1%)    95.4%
 TRAVEL      0.0752        C  3 --  H 15          +11.5% ( 50.1%)     1.0%
 RED. MASS   1.2615        C  3 --  H 14          +10.4% ( 47.7%)     1.3%
 EFF. MASS   8.3840

 VIBRATION   50   50A       ATOM PAIR        ENERGY CONTRIBUTION    RADIAL
 FREQ.      1830.22        C  5 --  C  6          +45.8% (100.0%)   100.0%
 T-DIPOLE    0.1063        C  4 --  C  6          +13.9% ( 55.2%)    25.6%
 TRAVEL      0.0557        C  2 --  C  5          +13.9% ( 55.1%)    25.6%
 RED. MASS   5.3836        C  6 --  H 20          +13.0% ( 53.2%)     9.7%
 EFF. MASS  11.8698        C  5 --  H 18          +13.0% ( 53.2%)     9.7%

 VIBRATION   51   51A       ATOM PAIR        ENERGY CONTRIBUTION    RADIAL
 FREQ.      1839.12        C  9 --  C 10          +36.2% ( 88.7%)    99.2%
 T-DIPOLE    0.0801        C  8 --  C  9          +12.6% ( 52.3%)    56.5%
 TRAVEL      0.0556        C  9 --  H 22          +11.8% ( 50.6%)     4.8%
 RED. MASS   3.5326        C  7 --  C  8          +10.0% ( 46.5%)    98.6%
 EFF. MASS  11.8399

 VIBRATION   52   52A       ATOM PAIR        ENERGY CONTRIBUTION    RADIAL
 FREQ.      1884.35        C  7 --  C  8          +33.9% ( 86.3%)    95.4%
 T-DIPOLE    0.4350        C  8 --  C  9          +18.4% ( 63.6%)    55.7%
 TRAVEL      0.0551        C  8 --  H 21          +11.8% ( 50.9%)     2.4%
 RED. MASS   3.7443        C  3 --  C  7           +9.8% ( 46.5%)    53.6%
 EFF. MASS  11.7791

 VIBRATION   53   53A       ATOM PAIR        ENERGY CONTRIBUTION    RADIAL
 FREQ.      2899.17        C  1 --  H 11          +94.5% ( 98.9%)   100.0%
 T-DIPOLE    0.0493        C  1 --  C  3           +1.1% ( 10.5%)     7.7%
 TRAVEL      0.1265        C  1 --  C  4           +1.1% ( 10.5%)     9.1%
 RED. MASS   0.8896        C  1 --  C  2           +1.1% ( 10.5%)     9.0%
 EFF. MASS   1.4544

 VIBRATION   54   54A       ATOM PAIR        ENERGY CONTRIBUTION    RADIAL
 FREQ.      2939.92        C  3 --  H 14          +53.1% ( 75.6%)    97.0%
 T-DIPOLE    0.0423        C  3 --  H 15          +43.3% ( 68.3%)    96.0%
 TRAVEL      0.1219        C  3 --  C  7           +1.2% ( 11.2%)     0.2%
 RED. MASS   0.5091        C  1 --  C  3           +1.1% ( 11.1%)     0.2%
 EFF. MASS   1.5423

 VIBRATION   55   55A       ATOM PAIR        ENERGY CONTRIBUTION    RADIAL
 FREQ.      2971.37        C  4 --  H 16          +37.8% ( 63.8%)    97.4%
 T-DIPOLE    0.0172        C  4 --  H 17          +27.7% ( 54.7%)    95.6%
 TRAVEL      0.1215        C  2 --  H 13          +18.4% ( 44.5%)    97.4%
 RED. MASS   0.2950        C  2 --  H 12          +13.8% ( 38.6%)    95.7%
 EFF. MASS   1.5380

 VIBRATION   56   56A       ATOM PAIR        ENERGY CONTRIBUTION    RADIAL
 FREQ.      2972.75        C  2 --  H 13          +37.3% ( 63.3%)    97.4%
 T-DIPOLE    0.0791        C  2 --  H 12          +27.8% ( 54.6%)    95.7%
 TRAVEL      0.1216        C  4 --  H 16          +18.4% ( 44.5%)    97.5%
 RED. MASS   0.2893        C  4 --  H 17          +13.3% ( 37.8%)    95.6%
 EFF. MASS   1.5343

 VIBRATION   57   57A       ATOM PAIR        ENERGY CONTRIBUTION    RADIAL
 FREQ.      3016.70        C  3 --  H 15          +53.6% ( 72.2%)    98.2%
 T-DIPOLE    0.0718        C  3 --  H 14          +43.9% ( 65.3%)    97.1%
 TRAVEL      0.1322        C  3 --  C  7           +0.6% (  7.9%)    30.2%
 RED. MASS   0.4765        C  7 --  H 19           +0.6% (  7.9%)    99.5%
 EFF. MASS   1.2791

 VIBRATION   58   58A       ATOM PAIR        ENERGY CONTRIBUTION    RADIAL
 FREQ.      3029.04        C  8 --  H 21          +73.3% ( 87.0%)   100.0%
 T-DIPOLE    0.1080        C  9 --  H 22          +23.0% ( 48.8%)   100.0%
 TRAVEL      0.1206        C  8 --  C  9           +1.6% ( 12.9%)    17.3%
 RED. MASS   0.5850        C  7 --  C  8           +1.1% ( 10.9%)    37.0%
 EFF. MASS   1.5301

 VIBRATION   59   59A       ATOM PAIR        ENERGY CONTRIBUTION    RADIAL
 FREQ.      3035.19        C  7 --  H 19          +83.0% ( 92.2%)   100.0%
 T-DIPOLE    0.3679        C  9 --  H 22          +10.7% ( 33.1%)   100.0%
 TRAVEL      0.1225        C  8 --  H 21           +3.2% ( 18.2%)    99.7%
 RED. MASS   0.6848        C  3 --  C  7           +1.1% ( 10.6%)    15.8%
 EFF. MASS   1.4809

 VIBRATION   60   60A       ATOM PAIR        ENERGY CONTRIBUTION    RADIAL
 FREQ.      3038.54        C  9 --  H 22          +62.7% ( 80.3%)   100.0%
 T-DIPOLE    0.1881        C  8 --  H 21          +19.8% ( 45.1%)   100.0%
 TRAVEL      0.1207        C  7 --  H 19          +13.7% ( 37.5%)    99.9%
 RED. MASS   0.4453        C  8 --  C  9           +1.0% ( 10.3%)    25.0%
 EFF. MASS   1.5239

 VIBRATION   61   61A       ATOM PAIR        ENERGY CONTRIBUTION    RADIAL
 FREQ.      3050.45        C  4 --  H 17          +43.7% ( 65.2%)    98.4%
 T-DIPOLE    0.1124        C  4 --  H 16          +31.1% ( 55.0%)    96.4%
 TRAVEL      0.1316        C  2 --  H 12          +13.7% ( 36.6%)    98.4%
 RED. MASS   0.3137        C  2 --  H 13          +10.1% ( 31.3%)    96.6%
 EFF. MASS   1.2772

 VIBRATION   62   62A       ATOM PAIR        ENERGY CONTRIBUTION    RADIAL
 FREQ.      3051.57        C  2 --  H 12          +43.1% ( 64.8%)    98.3%
 T-DIPOLE    0.0683        C  2 --  H 13          +31.5% ( 55.4%)    96.4%
 TRAVEL      0.1309        C  4 --  H 17          +13.9% ( 36.7%)    98.4%
 RED. MASS   0.3116        C  4 --  H 16           +9.8% ( 30.9%)    96.2%
 EFF. MASS   1.2902

 VIBRATION   63   63A       ATOM PAIR        ENERGY CONTRIBUTION    RADIAL
 FREQ.      3116.15        C  5 --  H 18          +49.7% ( 71.6%)   100.0%
 T-DIPOLE    0.3729        C  6 --  H 20          +47.7% ( 70.1%)   100.0%
 TRAVEL      0.1216        C  5 --  C  6           +1.1% ( 10.7%)     0.0%
 RED. MASS   0.4649        C  2 --  C  5           +0.7% (  8.7%)    27.3%
 EFF. MASS   1.4622

 VIBRATION   64   64A       ATOM PAIR        ENERGY CONTRIBUTION    RADIAL
 FREQ.      3135.26        C  6 --  H 20          +48.7% ( 71.1%)    99.9%
 T-DIPOLE    0.3525        C  5 --  H 18          +46.7% ( 69.6%)    99.9%
 TRAVEL      0.1141        C  5 --  C  6           +2.5% ( 16.1%)   100.0%
 RED. MASS   0.4656        C  4 --  C  6           +1.0% ( 10.0%)    20.6%
 EFF. MASS   1.6517

 VIBRATION   65   65A       ATOM PAIR        ENERGY CONTRIBUTION    RADIAL
 FREQ.      3136.60        C 10 --  H 23          +94.4% ( 98.7%)    99.9%
 T-DIPOLE    0.2242        C 10 --  H 24           +4.3% ( 21.0%)    60.2%
 TRAVEL      0.1188        C  9 --  C 10           +1.3% ( 11.7%)    27.0%
 RED. MASS   0.8894
 EFF. MASS   1.5244

 VIBRATION   66   66A       ATOM PAIR        ENERGY CONTRIBUTION    RADIAL
 FREQ.      3147.76        C 10 --  H 24          +94.2% ( 97.9%)    99.8%
 T-DIPOLE    0.2989        C 10 --  H 23           +3.5% ( 18.9%)    20.1%
 TRAVEL      0.1206        C  9 --  C 10           +1.5% ( 12.5%)    66.1%
 RED. MASS   0.8615        C  9 --  H 22           +0.7% (  8.2%)    94.8%
 EFF. MASS   1.4733

 SYMMETRY NUMBER FOR POINT-GROUP C1  =  1


          SYSTEM IS A GROUND STATE


    NULL



          MOLECULE IS NOT LINEAR

          THERE ARE 66 GENUINE VIBRATIONS IN THIS SYSTEM
          THIS THERMODYNAMICS CALCULATION IS LIMITED TO
          MOLECULES WHICH HAVE NO INTERNAL ROTATIONS




                    CALCULATED THERMODYNAMIC PROPERTIES
                                          *
   TEMP. (K)   PARTITION FUNCTION   H.O.F.    ENTHALPY  HEAT CAPACITY ENTROPY
                                   KCAL/MOL   CAL/MOLE    CAL/K/MOL  CAL/K/MOL


 298.00  VIB.     0.1284D+04                  4653.5456    32.6326    29.8401
         ROT.     0.8726D+06                   888.2813     2.9808    30.1643
         INT.     0.1121D+10                  5541.8269    35.6134    60.0043
         TRA.     0.1503D+28                  1480.4688     4.9680    40.5931
         TOT.                       31.391    7022.2957    40.5815   100.5974

 200.00  VIB.     0.9889D+02                  2082.1692    20.2932    19.5402
         ROT.     0.4798D+06                   596.1620     2.9808    28.9756
         INT.     0.4745D+08                  2678.3312    23.2740    48.5158
         TRA.     0.8266D+27                   993.6033     4.9680    38.6119
         TOT.                       28.041    3671.9344    28.2420    87.1277

 210.00  VIB.     0.1285D+03                  2290.6448    21.4088    20.5571
         ROT.     0.5162D+06                   625.9700     2.9808    29.1210
         INT.     0.6632D+08                  2916.6148    24.3896    49.6781
         TRA.     0.8893D+27                  1043.2834     4.9680    38.8543
         TOT.                       28.329    3959.8982    29.3576    88.5325

 220.00  VIB.     0.1668D+03                  2510.4796    22.5648    21.5796
         ROT.     0.5535D+06                   655.7781     2.9808    29.2597
         INT.     0.9233D+08                  3166.2577    25.5456    50.8393
         TRA.     0.9536D+27                  1092.9636     4.9680    39.0854
         TOT.                       28.628    4259.2213    30.5136    89.9247

 230.00  VIB.     0.2165D+03                  2742.0693    23.7594    22.6088
         ROT.     0.5917D+06                   685.5862     2.9808    29.3922
         INT.     0.1281D+09                  3427.6556    26.7402    52.0010
         TRA.     0.1019D+28                  1142.6437     4.9680    39.3063
         TOT.                       28.939    4570.2993    31.7082    91.3073

 240.00  VIB.     0.2811D+03                  2985.7862    24.9897    23.6459
         ROT.     0.6307D+06                   715.3943     2.9808    29.5191
         INT.     0.1773D+09                  3701.1806    27.9705    53.1649
         TRA.     0.1087D+28                  1192.3239     4.9680    39.5177
         TOT.                       29.263    4893.5045    32.9385    92.6827

 250.00  VIB.     0.3649D+03                  3241.9712    26.2524    24.6915
         ROT.     0.6705D+06                   745.2024     2.9808    29.6407
         INT.     0.2446D+09                  3987.1736    29.2332    54.3323
         TRA.     0.1155D+28                  1242.0041     4.9680    39.7205
         TOT.                       29.598    5229.1777    34.2012    94.0528

 260.00  VIB.     0.4738D+03                  3510.9279    27.5434    25.7462
         ROT.     0.7111D+06                   775.0105     2.9808    29.7576
         INT.     0.3369D+09                  4285.9385    30.5242    55.5039
         TRA.     0.1225D+28                  1291.6842     4.9680    39.9154
         TOT.                       29.947    5577.6227    35.4922    95.4192

 270.00  VIB.     0.6154D+03                  3792.9195    28.8586    26.8103
         ROT.     0.7525D+06                   804.8186     2.9808    29.8701
         INT.     0.4631D+09                  4597.7381    31.8394    56.6805
         TRA.     0.1297D+28                  1341.3644     4.9680    40.1029
         TOT.                       30.308    5939.1025    36.8074    96.7833

 280.00  VIB.     0.7998D+03                  4088.1658    30.1936    27.8839
         ROT.     0.7947D+06                   834.6267     2.9808    29.9785
         INT.     0.6357D+09                  4922.7925    33.1744    57.8624
         TRA.     0.1369D+28                  1391.0445     4.9680    40.2835
         TOT.                       30.683    6313.8371    38.1424    98.1460

 290.00  VIB.     0.1040D+04                  4396.8429    31.5440    28.9670
         ROT.     0.8377D+06                   864.4348     2.9808    30.0831
         INT.     0.8714D+09                  5261.2778    34.5249    59.0501
         TRA.     0.1443D+28                  1440.7247     4.9680    40.4579
         TOT.                       31.071    6702.0025    39.4929    99.5080

 300.00  VIB.     0.1354D+04                  4719.0838    32.9056    30.0593
         ROT.     0.8814D+06                   894.2429     2.9808    30.1842
         INT.     0.1193D+10                  5613.3267    35.8865    60.2435
         TRA.     0.1518D+28                  1490.4049     4.9680    40.6263
         TOT.                       31.473    7103.7316    40.8545   100.8698

 310.00  VIB.     0.1763D+04                  5054.9793    34.2743    31.1605
         ROT.     0.9258D+06                   924.0510     2.9808    30.2819
         INT.     0.1632D+10                  5979.0303    37.2551    61.4425
         TRA.     0.1595D+28                  1540.0850     4.9680    40.7892
         TOT.                       31.888    7519.1154    42.2231   102.2317

 320.00  VIB.     0.2299D+04                  5404.5806    35.6462    32.2704
         ROT.     0.9710D+06                   953.8591     2.9808    30.3766
         INT.     0.2232D+10                  6358.4397    38.6270    62.6469
         TRA.     0.1673D+28                  1589.7652     4.9680    40.9469
         TOT.                       32.317    7948.2049    43.5950   103.5939

 330.00  VIB.     0.2999D+04                  5767.9016    37.0177    33.3883
         ROT.     0.1017D+07                   983.6672     2.9808    30.4683
         INT.     0.3050D+10                  6751.5688    39.9985    63.8566
         TRA.     0.1752D+28                  1639.4454     4.9680    41.0998
         TOT.                       32.760    8391.0142    44.9665   104.9564

 340.00  VIB.     0.3917D+04                  6144.9218    38.3855    34.5137
         ROT.     0.1063D+07                  1013.4753     2.9808    30.5573
         INT.     0.4166D+10                  7158.3971    41.3663    65.0710
         TRA.     0.1832D+28                  1689.1255     4.9680    41.2481
         TOT.                       33.217    8847.5226    46.3343   106.3191

 350.00  VIB.     0.5121D+04                  6535.5895    39.7467    35.6460
         ROT.     0.1111D+07                  1043.2834     2.9808    30.6437
         INT.     0.5688D+10                  7578.8729    42.7275    66.2897
         TRA.     0.1914D+28                  1738.8057     4.9680    41.3921
         TOT.                       33.687    9317.6786    47.6955   107.6818

 360.00  VIB.     0.6701D+04                  6939.8251    41.0987    36.7847
         ROT.     0.1159D+07                  1073.0915     2.9808    30.7277
         INT.     0.7764D+10                  8012.9167    44.0795    67.5124
         TRA.     0.1996D+28                  1788.4859     4.9680    41.5321
         TOT.                       34.171    9801.4025    49.0475   109.0445

 370.00  VIB.     0.8778D+04                  7357.5241    42.4390    37.9291
         ROT.     0.1207D+07                  1102.8996     2.9808    30.8093
         INT.     0.1060D+11                  8460.4237    45.4198    68.7384
         TRA.     0.2080D+28                  1838.1660     4.9680    41.6682
         TOT.                       34.668   10298.5897    50.3878   110.4066

 380.00  VIB.     0.1151D+05                  7788.5601    43.7658    39.0785
         ROT.     0.1257D+07                  1132.7077     2.9808    30.8888
         INT.     0.1446D+11                  8921.2678    46.7466    69.9673
         TRA.     0.2165D+28                  1887.8462     4.9680    41.8007
         TOT.                       35.178   10809.1140    51.7146   111.7680

 390.00  VIB.     0.1511D+05                  8232.7881    45.0771    40.2323
         ROT.     0.1306D+07                  1162.5158     2.9808    30.9663
         INT.     0.1974D+11                  9395.3039    48.0580    71.1986
         TRA.     0.2251D+28                  1937.5263     4.9680    41.9297
         TOT.                       35.702   11332.8302    53.0260   113.1283

 400.00  VIB.     0.1985D+05                  8690.0469    46.3717    41.3899
         ROT.     0.1357D+07                  1192.3239     2.9808    31.0417
         INT.     0.2693D+11                  9882.3708    49.3525    72.4317
         TRA.     0.2338D+28                  1987.2065     4.9680    42.0555
         TOT.                       36.239   11869.5773    54.3205   114.4872

   *: NOTE: HEATS OF FORMATION ARE RELATIVE TO THE
            ELEMENTS IN THEIR STANDARD STATE AT 298K
              (=  Standard Enthalpy of Formation).

            Hvib:  Zero-point energy is not included.
                   frequencies of less than zero cm-1 are not included.
            Hrot = (3/2)RT
            Htra = (3/2)RT + pV = (5/2)RT

            Heat capacity is Cp, not Cv

           For more information, see: HTTP://OpenMOPAC.net/Manual/thermochemistry.html


           FORCE CONSTANT IN CARTESIAN COORDINATES (Millidynes/A)

    ATOM   CHEMICAL       X               Y               Z
   NUMBER   SYMBOL  FORCE CONSTANT  FORCE CONSTANT  FORCE CONSTANT

      1       C        7.725407        8.289623        8.412755
      2       C        7.650010        8.534539        8.997120
      3       C        8.072563        8.324791        8.983790
      4       C        9.633391        7.989808        7.557226
      5       C       14.569300        4.788437        8.128096
      6       C       11.930723        5.577942        9.980337
      7       C        4.255761       13.427317        9.330076
      8       C        4.126403       13.448453       10.002363
      9       C        4.070971       13.617921        9.822958
     10       C        3.812390       13.440171        9.086989
     11       H        1.144700        1.659478        3.296522
     12       H        1.269228        1.442071        3.682934
     13       H        1.339682        4.395661        0.663489
     14       H        4.822701        0.705579        0.731923
     15       H        1.334335        1.897436        3.166150
     16       H        1.765741        2.145575        2.508294
     17       H        2.042313        3.407886        0.945341
     18       H        4.995364        0.594311        0.834753
     19       H        0.690800        1.814370        3.718376
     20       H        0.712544        1.867782        3.849636
     21       H        0.702921        1.796800        3.706638
     22       H        0.680032        1.805700        3.729444
     23       H        0.709781        2.013447        3.742355
     24       H        0.476476        1.663021        4.336852



 TOTAL CPU TIME:             3.63 SECONDS

 == MOPAC DONE ==
