 *******************************************************************************
 ** Site#: 14399           For non-commercial use only        Version 13.159M **
 *******************************************************************************
 ** Cite this work as: MOPAC2012, James J. P. Stewart, Stewart Computational  **
 ** Chemistry, Version 13.159M web: HTTP://OpenMOPAC.net  Days remaining:   6 **
 *******************************************************************************
 **                                                                           **
 **                                MOPAC2012                                  **
 **                                                                           **
 *******************************************************************************

                            PM3 CALCULATION RESULTS


 *******************************************************************************
 *  CALCULATION DONE:                                Mon Jun  2 14:11:20 2014  *
 *  PM3      - The PM3 Hamiltonian to be used
 *  PRECISE  - CRITERIA TO BE INCREASED BY 100 TIMES
 *  NOSYM    - POINT-GROUP SYMMETRY SET TO C1
 *  T=       - A TIME OF 172800.0 SECONDS REQUESTED
 *  DUMP=N   - RESTART FILE WRITTEN EVERY  7200.000 SECONDS
 *******************************************************************************
pm3  precise nosym
 InChI=1S/C7H12O/c1-2-3-4-7-5-8-6-7/h3-4,7H,2,5-6H2,1H3

   ATOM   CHEMICAL          X               Y               Z
  NUMBER   SYMBOL      (ANGSTROMS)     (ANGSTROMS)     (ANGSTROMS)
 
     1       C          1.59850000  *   0.25360000  *   0.41660000  *
     2       C         -2.27980000  *   0.28950000  *   0.23960000  *
     3       C          2.13160000  *  -0.88300000  *  -0.43760000  *
     4       C          2.70030000  *   1.06200000  *  -0.33360000  *
     5       C         -2.97000000  *  -0.76760000  *  -0.61260000  *
     6       C          0.18310000  *   0.66280000  *   0.11520000  *
     7       C         -0.85190000  *  -0.08660000  *   0.51620000  *
     8       O          3.13490000  *  -0.10440000  *  -1.06040000  *
     9       H          1.81910000  *   0.13860000  *   1.50370000  *
    10       H         -2.81290000  *   0.38240000  *   1.21310000  *
    11       H         -2.36690000  *   1.27480000  *  -0.27560000  *
    12       H          1.41890000  *  -1.28260000  *  -1.19780000  *
    13       H          2.58480000  *  -1.70100000  *   0.16950000  *
    14       H          3.50450000  *   1.43300000  *   0.34360000  *
    15       H          2.33350000  *   1.84910000  *  -1.03360000  *
    16       H         -2.46650000  *  -0.86710000  *  -1.60160000  *
    17       H         -2.96720000  *  -1.75780000  *  -0.10180000  *
    18       H         -4.02980000  *  -0.47580000  *  -0.79090000  *
    19       H         -0.66720000  *  -1.01070000  *   1.06460000  *
    20       H          0.00290000  *   1.59110000  *  -0.42620000  *
 


          CARTESIAN COORDINATES 

    NO.       ATOM         X         Y         Z

     1         C        1.5985    0.2536    0.4166
     2         C       -2.2798    0.2895    0.2396
     3         C        2.1316   -0.8830   -0.4376
     4         C        2.7003    1.0620   -0.3336
     5         C       -2.9700   -0.7676   -0.6126
     6         C        0.1831    0.6628    0.1152
     7         C       -0.8519   -0.0866    0.5162
     8         O        3.1349   -0.1044   -1.0604
     9         H        1.8191    0.1386    1.5037
    10         H       -2.8129    0.3824    1.2131
    11         H       -2.3669    1.2748   -0.2756
    12         H        1.4189   -1.2826   -1.1978
    13         H        2.5848   -1.7010    0.1695
    14         H        3.5045    1.4330    0.3436
    15         H        2.3335    1.8491   -1.0336
    16         H       -2.4665   -0.8671   -1.6016
    17         H       -2.9672   -1.7578   -0.1018
    18         H       -4.0298   -0.4758   -0.7909
    19         H       -0.6672   -1.0107    1.0646
    20         H        0.0029    1.5911   -0.4262

  H: (PM3): J. J. P. STEWART, J. COMP. CHEM. 10, 209 (1989).
  C: (PM3): J. J. P. STEWART, J. COMP. CHEM. 10, 209 (1989).
  O: (PM3): J. J. P. STEWART, J. COMP. CHEM. 10, 209 (1989).

           Empirical Formula: C7 H12 O  =    20 atoms



      MOLECULAR POINT GROUP   :   C1  


      RHF CALCULATION, NO. OF DOUBLY OCCUPIED LEVELS =   23

      Geometry optimization using EF

          DIAGONAL MATRIX USED AS START HESSIAN

 CYCLE:     1 TIME:   0.008 TIME LEFT:  2.00D  GRAD.:   100.108 HEAT:-18.46787
 CYCLE:     2 TIME:   0.014 TIME LEFT:  2.00D  GRAD.:   107.289 HEAT:-19.13781
 CYCLE:     3 TIME:   0.006 TIME LEFT:  2.00D  GRAD.:   102.659 HEAT:-19.93351
 CYCLE:     4 TIME:   0.010 TIME LEFT:  2.00D  GRAD.:    49.549 HEAT:-21.69538
 CYCLE:     5 TIME:   0.010 TIME LEFT:  2.00D  GRAD.:    23.977 HEAT:-22.30820
 CYCLE:     6 TIME:   0.010 TIME LEFT:  2.00D  GRAD.:    18.972 HEAT:-22.49618
 CYCLE:     7 TIME:   0.005 TIME LEFT:  2.00D  GRAD.:    18.537 HEAT:-22.65394
 CYCLE:     8 TIME:   0.005 TIME LEFT:  2.00D  GRAD.:    27.186 HEAT:-22.68834
 CYCLE:     9 TIME:   0.005 TIME LEFT:  2.00D  GRAD.:    19.168 HEAT:-22.82055
 CYCLE:    10 TIME:   0.009 TIME LEFT:  2.00D  GRAD.:     9.032 HEAT:-22.92412
 CYCLE:    11 TIME:   0.005 TIME LEFT:  2.00D  GRAD.:    10.079 HEAT:-22.93644
 CYCLE:    12 TIME:   0.010 TIME LEFT:  2.00D  GRAD.:     9.308 HEAT:-22.95238
 CYCLE:    13 TIME:   0.005 TIME LEFT:  2.00D  GRAD.:     8.619 HEAT:-22.96275
 CYCLE:    14 TIME:   0.005 TIME LEFT:  2.00D  GRAD.:     7.359 HEAT:-22.97762
 CYCLE:    15 TIME:   0.006 TIME LEFT:  2.00D  GRAD.:     7.591 HEAT:-22.98536
 CYCLE:    16 TIME:   0.005 TIME LEFT:  2.00D  GRAD.:     7.125 HEAT:-22.99263
 CYCLE:    17 TIME:   0.005 TIME LEFT:  2.00D  GRAD.:     6.726 HEAT:-23.00070
 CYCLE:    18 TIME:   0.005 TIME LEFT:  2.00D  GRAD.:     5.327 HEAT:-23.00902
 CYCLE:    19 TIME:   0.009 TIME LEFT:  2.00D  GRAD.:     3.159 HEAT:-23.01675
 CYCLE:    20 TIME:   0.005 TIME LEFT:  2.00D  GRAD.:     3.247 HEAT:-23.01983
 CYCLE:    21 TIME:   0.005 TIME LEFT:  2.00D  GRAD.:     2.764 HEAT:-23.02425
 CYCLE:    22 TIME:   0.005 TIME LEFT:  2.00D  GRAD.:     2.499 HEAT:-23.02746
 CYCLE:    23 TIME:   0.005 TIME LEFT:  2.00D  GRAD.:     1.934 HEAT:-23.03064
 CYCLE:    24 TIME:   0.005 TIME LEFT:  2.00D  GRAD.:     1.450 HEAT:-23.03318
 CYCLE:    25 TIME:   0.005 TIME LEFT:  2.00D  GRAD.:     1.810 HEAT:-23.03476
 CYCLE:    26 TIME:   0.005 TIME LEFT:  2.00D  GRAD.:     1.026 HEAT:-23.03656
 CYCLE:    27 TIME:   0.005 TIME LEFT:  2.00D  GRAD.:     0.950 HEAT:-23.03734
 CYCLE:    28 TIME:   0.005 TIME LEFT:  2.00D  GRAD.:     0.651 HEAT:-23.03811
 CYCLE:    29 TIME:   0.005 TIME LEFT:  2.00D  GRAD.:     0.711 HEAT:-23.03911
 CYCLE:    30 TIME:   0.005 TIME LEFT:  2.00D  GRAD.:     0.973 HEAT:-23.04033
 CYCLE:    31 TIME:   0.005 TIME LEFT:  2.00D  GRAD.:     0.947 HEAT:-23.04166
 CYCLE:    32 TIME:   0.005 TIME LEFT:  2.00D  GRAD.:     0.916 HEAT:-23.04331
 CYCLE:    33 TIME:   0.005 TIME LEFT:  2.00D  GRAD.:     0.820 HEAT:-23.04488
 CYCLE:    34 TIME:   0.005 TIME LEFT:  2.00D  GRAD.:     0.783 HEAT:-23.04625
 CYCLE:    35 TIME:   0.005 TIME LEFT:  2.00D  GRAD.:     0.742 HEAT:-23.04733
 CYCLE:    36 TIME:   0.005 TIME LEFT:  2.00D  GRAD.:     0.706 HEAT:-23.04837
 CYCLE:    37 TIME:   0.005 TIME LEFT:  2.00D  GRAD.:     0.741 HEAT:-23.04979
 CYCLE:    38 TIME:   0.005 TIME LEFT:  2.00D  GRAD.:     0.740 HEAT:-23.05113
 CYCLE:    39 TIME:   0.005 TIME LEFT:  2.00D  GRAD.:     0.732 HEAT:-23.05222
 CYCLE:    40 TIME:   0.005 TIME LEFT:  2.00D  GRAD.:     0.791 HEAT:-23.05342
 CYCLE:    41 TIME:   0.005 TIME LEFT:  2.00D  GRAD.:     0.878 HEAT:-23.05506
 CYCLE:    42 TIME:   0.005 TIME LEFT:  2.00D  GRAD.:     0.990 HEAT:-23.05732
 CYCLE:    43 TIME:   0.005 TIME LEFT:  2.00D  GRAD.:     0.924 HEAT:-23.05991
 CYCLE:    44 TIME:   0.005 TIME LEFT:  2.00D  GRAD.:     0.816 HEAT:-23.06207
 CYCLE:    45 TIME:   0.005 TIME LEFT:  2.00D  GRAD.:     0.780 HEAT:-23.06363
 CYCLE:    46 TIME:   0.005 TIME LEFT:  2.00D  GRAD.:     0.811 HEAT:-23.06512
 CYCLE:    47 TIME:   0.005 TIME LEFT:  2.00D  GRAD.:     0.891 HEAT:-23.06691
 CYCLE:    48 TIME:   0.005 TIME LEFT:  2.00D  GRAD.:     0.943 HEAT:-23.06902
 CYCLE:    49 TIME:   0.005 TIME LEFT:  2.00D  GRAD.:     0.918 HEAT:-23.07117
 CYCLE:    50 TIME:   0.005 TIME LEFT:  2.00D  GRAD.:     0.824 HEAT:-23.07283
 CYCLE:    51 TIME:   0.005 TIME LEFT:  2.00D  GRAD.:     0.819 HEAT:-23.07441
 CYCLE:    52 TIME:   0.005 TIME LEFT:  2.00D  GRAD.:     0.899 HEAT:-23.07633
 CYCLE:    53 TIME:   0.006 TIME LEFT:  2.00D  GRAD.:     1.059 HEAT:-23.07854
 CYCLE:    54 TIME:   0.005 TIME LEFT:  2.00D  GRAD.:     0.919 HEAT:-23.08034
 CYCLE:    55 TIME:   0.005 TIME LEFT:  2.00D  GRAD.:     0.636 HEAT:-23.08150
 CYCLE:    56 TIME:   0.005 TIME LEFT:  2.00D  GRAD.:     0.521 HEAT:-23.08230
 CYCLE:    57 TIME:   0.005 TIME LEFT:  2.00D  GRAD.:     0.509 HEAT:-23.08294
 CYCLE:    58 TIME:   0.005 TIME LEFT:  2.00D  GRAD.:     0.464 HEAT:-23.08369
 CYCLE:    59 TIME:   0.005 TIME LEFT:  2.00D  GRAD.:     0.357 HEAT:-23.08406
 CYCLE:    60 TIME:   0.005 TIME LEFT:  2.00D  GRAD.:     0.303 HEAT:-23.08431
 CYCLE:    61 TIME:   0.005 TIME LEFT:  2.00D  GRAD.:     0.328 HEAT:-23.08454
 CYCLE:    62 TIME:   0.005 TIME LEFT:  2.00D  GRAD.:     0.413 HEAT:-23.08488
 CYCLE:    63 TIME:   0.005 TIME LEFT:  2.00D  GRAD.:     0.443 HEAT:-23.08525
 CYCLE:    64 TIME:   0.005 TIME LEFT:  2.00D  GRAD.:     0.434 HEAT:-23.08579
 CYCLE:    65 TIME:   0.005 TIME LEFT:  2.00D  GRAD.:     0.352 HEAT:-23.08607
 CYCLE:    66 TIME:   0.005 TIME LEFT:  2.00D  GRAD.:     0.384 HEAT:-23.08640
 CYCLE:    67 TIME:   0.005 TIME LEFT:  2.00D  GRAD.:     0.267 HEAT:-23.08663
 CYCLE:    68 TIME:   0.005 TIME LEFT:  2.00D  GRAD.:     0.228 HEAT:-23.08679
 CYCLE:    69 TIME:   0.005 TIME LEFT:  2.00D  GRAD.:     0.206 HEAT:-23.08695
 CYCLE:    70 TIME:   0.005 TIME LEFT:  2.00D  GRAD.:     0.196 HEAT:-23.08709
 CYCLE:    71 TIME:   0.005 TIME LEFT:  2.00D  GRAD.:     0.233 HEAT:-23.08722
 CYCLE:    72 TIME:   0.005 TIME LEFT:  2.00D  GRAD.:     0.282 HEAT:-23.08737
 CYCLE:    73 TIME:   0.005 TIME LEFT:  2.00D  GRAD.:     0.435 HEAT:-23.08772
 CYCLE:    74 TIME:   0.005 TIME LEFT:  2.00D  GRAD.:     0.486 HEAT:-23.08818
 CYCLE:    75 TIME:   0.005 TIME LEFT:  2.00D  GRAD.:     0.946 HEAT:-23.08993
 CYCLE:    76 TIME:   0.005 TIME LEFT:  2.00D  GRAD.:     0.533 HEAT:-23.09073
 CYCLE:    77 TIME:   0.005 TIME LEFT:  2.00D  GRAD.:     0.535 HEAT:-23.09174
 CYCLE:    78 TIME:   0.005 TIME LEFT:  2.00D  GRAD.:     0.406 HEAT:-23.09212
 CYCLE:    79 TIME:   0.005 TIME LEFT:  2.00D  GRAD.:     0.743 HEAT:-23.09277
 CYCLE:    80 TIME:   0.005 TIME LEFT:  2.00D  GRAD.:     0.375 HEAT:-23.09319
 CYCLE:    81 TIME:   0.005 TIME LEFT:  2.00D  GRAD.:     0.268 HEAT:-23.09343
 CYCLE:    82 TIME:   0.005 TIME LEFT:  2.00D  GRAD.:     0.274 HEAT:-23.09363
 CYCLE:    83 TIME:   0.005 TIME LEFT:  2.00D  GRAD.:     0.323 HEAT:-23.09386
 CYCLE:    84 TIME:   0.005 TIME LEFT:  2.00D  GRAD.:     0.352 HEAT:-23.09417
 CYCLE:    85 TIME:   0.005 TIME LEFT:  2.00D  GRAD.:     0.374 HEAT:-23.09452
 CYCLE:    86 TIME:   0.005 TIME LEFT:  2.00D  GRAD.:     0.428 HEAT:-23.09490
 CYCLE:    87 TIME:   0.005 TIME LEFT:  2.00D  GRAD.:     0.517 HEAT:-23.09542
 CYCLE:    88 TIME:   0.005 TIME LEFT:  2.00D  GRAD.:     0.655 HEAT:-23.09620
 CYCLE:    89 TIME:   0.005 TIME LEFT:  2.00D  GRAD.:     1.051 HEAT:-23.09707
 CYCLE:    90 TIME:   0.005 TIME LEFT:  2.00D  GRAD.:     1.139 HEAT:-23.09819
 CYCLE:    91 TIME:   0.005 TIME LEFT:  2.00D  GRAD.:     1.044 HEAT:-23.10043
 CYCLE:    92 TIME:   0.005 TIME LEFT:  2.00D  GRAD.:     1.534 HEAT:-23.10615
 CYCLE:    93 TIME:   0.005 TIME LEFT:  2.00D  GRAD.:     1.885 HEAT:-23.11299
 CYCLE:    94 TIME:   0.005 TIME LEFT:  2.00D  GRAD.:     3.124 HEAT:-23.12373
 CYCLE:    95 TIME:   0.005 TIME LEFT:  2.00D  GRAD.:     1.500 HEAT:-23.13180
 CYCLE:    96 TIME:   0.005 TIME LEFT:  2.00D  GRAD.:     3.692 HEAT:-23.13244
 CYCLE:    97 TIME:   0.005 TIME LEFT:  2.00D  GRAD.:     2.664 HEAT:-23.13779
 CYCLE:    98 TIME:   0.005 TIME LEFT:  2.00D  GRAD.:     1.150 HEAT:-23.14158
 CYCLE:    99 TIME:   0.005 TIME LEFT:  2.00D  GRAD.:     2.141 HEAT:-23.14430
 CYCLE:   100 TIME:   0.005 TIME LEFT:  2.00D  GRAD.:     1.376 HEAT:-23.14684
 CYCLE:   101 TIME:   0.005 TIME LEFT:  2.00D  GRAD.:     0.947 HEAT:-23.14953
 CYCLE:   102 TIME:   0.005 TIME LEFT:  2.00D  GRAD.:     1.309 HEAT:-23.15225
 CYCLE:   103 TIME:   0.005 TIME LEFT:  2.00D  GRAD.:     1.275 HEAT:-23.15474
 CYCLE:   104 TIME:   0.005 TIME LEFT:  2.00D  GRAD.:     1.349 HEAT:-23.15607
 CYCLE:   105 TIME:   0.005 TIME LEFT:  2.00D  GRAD.:     1.687 HEAT:-23.15770
 CYCLE:   106 TIME:   0.005 TIME LEFT:  2.00D  GRAD.:     1.025 HEAT:-23.15940
 CYCLE:   107 TIME:   0.005 TIME LEFT:  2.00D  GRAD.:     0.899 HEAT:-23.16073
 CYCLE:   108 TIME:   0.005 TIME LEFT:  2.00D  GRAD.:     0.841 HEAT:-23.16163
 CYCLE:   109 TIME:   0.005 TIME LEFT:  2.00D  GRAD.:     0.745 HEAT:-23.16240
 CYCLE:   110 TIME:   0.005 TIME LEFT:  2.00D  GRAD.:     0.384 HEAT:-23.16278
 CYCLE:   111 TIME:   0.005 TIME LEFT:  2.00D  GRAD.:     0.287 HEAT:-23.16296
 CYCLE:   112 TIME:   0.005 TIME LEFT:  2.00D  GRAD.:     0.279 HEAT:-23.16314
 CYCLE:   113 TIME:   0.005 TIME LEFT:  2.00D  GRAD.:     0.362 HEAT:-23.16332
 CYCLE:   114 TIME:   0.005 TIME LEFT:  2.00D  GRAD.:     0.358 HEAT:-23.16359
 CYCLE:   115 TIME:   0.005 TIME LEFT:  2.00D  GRAD.:     0.627 HEAT:-23.16432
 CYCLE:   116 TIME:   0.005 TIME LEFT:  2.00D  GRAD.:     0.508 HEAT:-23.16475
 CYCLE:   117 TIME:   0.005 TIME LEFT:  2.00D  GRAD.:     0.557 HEAT:-23.16605
 CYCLE:   118 TIME:   0.005 TIME LEFT:  2.00D  GRAD.:     0.628 HEAT:-23.16690
 CYCLE:   119 TIME:   0.005 TIME LEFT:  2.00D  GRAD.:     0.513 HEAT:-23.16790
 CYCLE:   120 TIME:   0.005 TIME LEFT:  2.00D  GRAD.:     0.365 HEAT:-23.16849
 CYCLE:   121 TIME:   0.005 TIME LEFT:  2.00D  GRAD.:     0.172 HEAT:-23.16867
 CYCLE:   122 TIME:   0.005 TIME LEFT:  2.00D  GRAD.:     0.128 HEAT:-23.16870
 CYCLE:   123 TIME:   0.005 TIME LEFT:  2.00D  GRAD.:     0.100 HEAT:-23.16871
 CYCLE:   124 TIME:   0.005 TIME LEFT:  2.00D  GRAD.:     0.075 HEAT:-23.16872
 CYCLE:   125 TIME:   0.005 TIME LEFT:  2.00D  GRAD.:     0.048 HEAT:-23.16872

     RMS GRADIENT =  0.04771  IS LESS THAN CUTOFF =  0.05000



 -------------------------------------------------------------------------------
pm3  precise nosym
 InChI=1S/C7H12O/c1-2-3-4-7-5-8-6-7/h3-4,7H,2,5-6H2,1H3



     GEOMETRY OPTIMISED USING EIGENVECTOR FOLLOWING (EF).     
     SCF FIELD WAS ACHIEVED                                   


                              PM3 CALCULATION
                                                       MOPAC2012 (Version: 13.159M)
                                                       Mon Jun  2 14:11:21 2014
                                                       No. of days left =   6




          FINAL HEAT OF FORMATION =        -23.16872 KCAL/MOL =     -96.93794 KJ/MOL


          TOTAL ENERGY            =      -1307.40468 EV
          ELECTRONIC ENERGY       =      -6069.19522 EV  POINT GROUP:     C1  
          CORE-CORE REPULSION     =       4761.79054 EV
          COSMO AREA              =        167.23 SQUARE ANGSTROMS
          COSMO VOLUME            =        159.57 CUBIC ANGSTROMS

          GRADIENT NORM           =          0.04771
          IONIZATION POTENTIAL    =          9.954923 EV
          HOMO LUMO ENERGIES (EV) =         -9.955  0.870
          NO. OF FILLED LEVELS    =         23
          MOLECULAR WEIGHT        =        112.171

          MOLECULAR DIMENSIONS (Angstroms)

            Atom       Atom       Distance
            H    18    H    14     7.80484
            H    13    H    11     4.14437
            H    15    H    10     2.98663


          SCF CALCULATIONS        =        133
          COMPUTATION TIME        =          0.701 SECONDS




   ATOM   CHEMICAL          X               Y               Z
  NUMBER   SYMBOL      (ANGSTROMS)     (ANGSTROMS)     (ANGSTROMS)
 
     1       C          1.62388401  *   0.33528257  *   0.44582703  *
     2       C         -2.22966306  *   0.23202030  *   0.25425203  *
     3       C          2.12071182  *  -0.94901787  *  -0.27085506  *
     4       C          2.63041747  *   1.08077393  *  -0.47084896  *
     5       C         -2.97022345  *  -0.69769780  *  -0.68299387  *
     6       C          0.20278976  *   0.71079906  *   0.27325504  *
     7       C         -0.80074279  *  -0.16016037  *   0.38670064  *
     8       O          3.04763830  *  -0.17206231  *  -1.07227831  *
     9       H          1.87610743  *   0.37862185  *   1.52614706  *
    10       H         -2.69134623  *   0.20754856  *   1.26209438  *
    11       H         -2.32730601  *   1.27964599  *  -0.09477870  *
    12       H          1.38762312  *  -1.47293902  *  -0.90240205  *
    13       H          2.65449145  *  -1.68062545  *   0.35222398  *
    14       H          3.47273206  *   1.57889187  *   0.02997766  *
    15       H          2.19957710  *   1.75985753  *  -1.22165912  *
    16       H         -2.54957397  *  -0.66798036  *  -1.69644241  *
    17       H         -2.92479240  *  -1.74043584  *  -0.34156876  *
    18       H         -4.02987031  *  -0.42235175  *  -0.75837841  *
    19       H         -0.60920458  *  -1.22190023  *   0.58928835  *
    20       H          0.01675653  *   1.77171959  *   0.06095609  *

           Empirical Formula: C7 H12 O  =    20 atoms



      MOLECULAR POINT GROUP   :   C1  


                  EIGENVALUES  
 -40.92551 -36.80514 -31.69058 -27.25376 -26.28875 -22.85159 -20.43813 -19.12890
 -17.58099 -17.35819 -16.55668 -15.48524 -15.24012 -14.47693 -13.65744 -13.54901
 -13.27292 -12.88616 -12.32192 -12.09715 -12.02183 -10.53403  -9.95492   0.87032
   2.80107   2.87576   3.11184   3.36592   3.55892   3.69366   3.75631   3.85392
   3.91672   4.09971   4.18183   4.24210   4.49641   4.62840   4.73510   4.79983
   4.83458   5.06577   5.53009   5.73999


              NET ATOMIC CHARGES AND DIPOLE CONTRIBUTIONS

  ATOM NO.   TYPE          CHARGE      No. of ELECS.   s-Pop       p-Pop       
    1          C          -0.112815        4.1128     1.18847     2.92434
    2          C          -0.061140        4.0611     1.14563     2.91551
    3          C           0.059634        3.9404     1.16903     2.77133
    4          C           0.059809        3.9402     1.16977     2.77042
    5          C          -0.106359        4.1064     1.13762     2.96874
    6          C          -0.144849        4.1448     1.19149     2.95336
    7          C          -0.141295        4.1413     1.19566     2.94564
    8          O          -0.275357        6.2754     1.88191     4.39344
    9          H           0.086593        0.9134     0.91341
   10          H           0.054070        0.9459     0.94593
   11          H           0.052178        0.9478     0.94782
   12          H           0.054811        0.9452     0.94519
   13          H           0.047734        0.9523     0.95227
   14          H           0.047677        0.9523     0.95232
   15          H           0.052386        0.9476     0.94761
   16          H           0.041391        0.9586     0.95861
   17          H           0.038203        0.9618     0.96180
   18          H           0.038132        0.9619     0.96187
   19          H           0.102643        0.8974     0.89736
   20          H           0.106555        0.8934     0.89345
 DIPOLE           X         Y         Z       TOTAL
 POINT-CHG.    -1.226     0.325     1.050     1.646
 HYBRID        -0.118     0.045     0.179     0.220
 SUM           -1.344     0.370     1.229     1.859


          ATOMIC ORBITAL ELECTRON POPULATIONS

    Atom      s        px        py        pz   
    1  C   1.18847   0.94794   0.97532   1.00108
    2  C   1.14563   0.93428   0.98872   0.99251
    3  C   1.16903   0.91995   0.92579   0.92559
    4  C   1.16977   0.94741   0.88560   0.93741
    5  C   1.13762   0.99169   0.98706   0.98999
    6  C   1.19149   0.93937   0.99205   1.02195
    7  C   1.19566   0.95269   0.99078   1.00217
    8  O   1.88191   1.60026   1.17835   1.61483
    9  H   0.91341
   10  H   0.94593
   11  H   0.94782
   12  H   0.94519
   13  H   0.95227
   14  H   0.95232
   15  H   0.94761
   16  H   0.95861
   17  H   0.96180
   18  H   0.96187
   19  H   0.89736
   20  H   0.89345
 *******************************************************************************
 ** Site#: 14399           For non-commercial use only        Version 13.159M **
 *******************************************************************************
 ** Cite this work as: MOPAC2012, James J. P. Stewart, Stewart Computational  **
 ** Chemistry, Version 13.159M web: HTTP://OpenMOPAC.net  Days remaining:   6 **
 *******************************************************************************
 **                                                                           **
 **                                MOPAC2012                                  **
 **                                                                           **
 *******************************************************************************

                            PM3 CALCULATION RESULTS


 *******************************************************************************
 *  CALCULATION DONE:                                Mon Jun  2 14:11:21 2014  *
 *  PM3      - The PM3 Hamiltonian to be used
 *  OLDGEO   - PREVIOUS GEOMETRY TO BE USED
 *  PRECISE  - CRITERIA TO BE INCREASED BY 100 TIMES
 *  NOSYM    - POINT-GROUP SYMMETRY SET TO C1
 *  T=       - A TIME OF 172800.0 SECONDS REQUESTED
 *  DUMP=N   - RESTART FILE WRITTEN EVERY  7200.000 SECONDS
 *  THERMO   - THERMODYNAMIC QUANTITIES TO BE CALCULATED
 *******************************************************************************
oldgeo thermo nosym precise  pm3

   ATOM   CHEMICAL          X               Y               Z
  NUMBER   SYMBOL      (ANGSTROMS)     (ANGSTROMS)     (ANGSTROMS)
 
     1       C          1.62388401  *   0.33528257  *   0.44582703  *
     2       C         -2.22966306  *   0.23202030  *   0.25425203  *
     3       C          2.12071182  *  -0.94901787  *  -0.27085506  *
     4       C          2.63041747  *   1.08077393  *  -0.47084896  *
     5       C         -2.97022345  *  -0.69769780  *  -0.68299387  *
     6       C          0.20278976  *   0.71079906  *   0.27325504  *
     7       C         -0.80074279  *  -0.16016037  *   0.38670064  *
     8       O          3.04763830  *  -0.17206231  *  -1.07227831  *
     9       H          1.87610743  *   0.37862185  *   1.52614706  *
    10       H         -2.69134623  *   0.20754856  *   1.26209438  *
    11       H         -2.32730601  *   1.27964599  *  -0.09477870  *
    12       H          1.38762312  *  -1.47293902  *  -0.90240205  *
    13       H          2.65449145  *  -1.68062545  *   0.35222398  *
    14       H          3.47273206  *   1.57889187  *   0.02997766  *
    15       H          2.19957710  *   1.75985753  *  -1.22165912  *
    16       H         -2.54957397  *  -0.66798036  *  -1.69644241  *
    17       H         -2.92479240  *  -1.74043584  *  -0.34156876  *
    18       H         -4.02987031  *  -0.42235175  *  -0.75837841  *
    19       H         -0.60920458  *  -1.22190023  *   0.58928835  *
    20       H          0.01675653  *   1.77171959  *   0.06095609  *
 


          CARTESIAN COORDINATES 

    NO.       ATOM         X         Y         Z

     1         C        1.6239    0.3353    0.4458
     2         C       -2.2297    0.2320    0.2543
     3         C        2.1207   -0.9490   -0.2709
     4         C        2.6304    1.0808   -0.4708
     5         C       -2.9702   -0.6977   -0.6830
     6         C        0.2028    0.7108    0.2733
     7         C       -0.8007   -0.1602    0.3867
     8         O        3.0476   -0.1721   -1.0723
     9         H        1.8761    0.3786    1.5261
    10         H       -2.6913    0.2075    1.2621
    11         H       -2.3273    1.2796   -0.0948
    12         H        1.3876   -1.4729   -0.9024
    13         H        2.6545   -1.6806    0.3522
    14         H        3.4727    1.5789    0.0300
    15         H        2.1996    1.7599   -1.2217
    16         H       -2.5496   -0.6680   -1.6964
    17         H       -2.9248   -1.7404   -0.3416
    18         H       -4.0299   -0.4224   -0.7584
    19         H       -0.6092   -1.2219    0.5893
    20         H        0.0168    1.7717    0.0610

  H: (PM3): J. J. P. STEWART, J. COMP. CHEM. 10, 209 (1989).
  C: (PM3): J. J. P. STEWART, J. COMP. CHEM. 10, 209 (1989).
  O: (PM3): J. J. P. STEWART, J. COMP. CHEM. 10, 209 (1989).

           Empirical Formula: C7 H12 O  =    20 atoms



      MOLECULAR POINT GROUP   :   C1  


      RHF CALCULATION, NO. OF DOUBLY OCCUPIED LEVELS =   23



          HEAT OF FORMATION =     -23.168725 KCALS/MOLE


          INTERNAL COORDINATE DERIVATIVES

   NUMBER  ATOM       BOND         ANGLE      DIHEDRAL

     1       C      0.002516     0.002348    -0.001697
     2       C     -0.011336     0.000071    -0.000131
     3       C     -0.000208     0.003566     0.000161
     4       C     -0.008664     0.000782     0.003692
     5       C      0.009308     0.004273     0.004809
     6       C     -0.004189    -0.005635    -0.009712
     7       C      0.009976     0.003381    -0.003767
     8       O     -0.002992     0.007258     0.003269
     9       H      0.006876     0.000756     0.005700
    10       H      0.008161    -0.006908     0.008708
    11       H     -0.001263    -0.007634    -0.008656
    12       H     -0.004118    -0.004228     0.000891
    13       H     -0.001830    -0.001003    -0.004159
    14       H     -0.013316    -0.002603    -0.004704
    15       H      0.004509    -0.006705    -0.009973
    16       H     -0.008787     0.003255    -0.008935
    17       H      0.002547     0.007069     0.005788
    18       H      0.003376    -0.004993     0.000619
    19       H      0.003149     0.008709     0.014248
    20       H      0.006284    -0.001759     0.003847


          GRADIENT NORM =   0.04678


          TIME FOR SCF CALCULATION =    0.00

          TIME FOR DERIVATIVES     =    0.00

          MOLECULAR WEIGHT =  112.17



          ROTATIONAL CONSTANTS IN CM(-1)

          A =    0.17697434   B =    0.02919236   C =    0.02756759



           PRINCIPAL MOMENTS OF INERTIA IN UNITS OF 10**(-40)*GRAM-CM**2

          A =      158.1742   B =      958.9075   C =     1015.4232


          ORIENTATION OF MOLECULE IN FORCE CALCULATION

    NO.       ATOM         X         Y         Z

     1          C      -1.1959   -0.5121    0.3502
     2          C       2.6638   -0.5121    0.3502
     3          C      -1.6220    0.9807    0.3502
     4          C      -2.1753   -0.6579   -0.8450
     5          C       3.4746    0.7228    0.0199
     6          C       0.2214   -0.8207    0.0567
     7          C       1.2410   -0.1688    0.6170
     8          O      -2.5285    0.7468   -0.7582
     9          H      -1.5025   -1.0716    1.2588
    10          H       3.0754   -1.0110    1.2509
    11          H       2.7506   -1.2535   -0.4692
    12          H      -0.8447    1.7126    0.0838
    13          H      -2.1663    1.3333    1.2378
    14          H      -3.0544   -1.2975   -0.6825
    15          H      -1.7260   -0.8968   -1.8205
    16          H       3.1041    1.2180   -0.8869
    17          H       3.4401    1.4613    0.8320
    18          H       4.5289    0.4703   -0.1504
    19          H       1.0682    0.6618    1.3136
    20          H       0.3893   -1.6455   -0.6481


    FIRST DERIVATIVES WILL BE USED IN THE CALCULATION OF SECOND DERIVATIVES

          ESTIMATED TIME TO COMPLETE CALCULATION =        1.69 SECONDS

    FOR POINT-GROUP C1   THERE ARE   1 UNIQUE SYMMETRY FUNCTIONS.

 STEP:   1 TIME =     0.02 SECS, INTEGRAL =      0.02 TIME LEFT: 172799.97
 STEP:   2 TIME =     0.02 SECS, INTEGRAL =      0.05 TIME LEFT: 172799.95
 STEP:   3 TIME =     0.02 SECS, INTEGRAL =      0.07 TIME LEFT: 172799.92
 STEP:   4 TIME =     0.02 SECS, INTEGRAL =      0.09 TIME LEFT: 172799.90
 STEP:   5 TIME =     0.02 SECS, INTEGRAL =      0.12 TIME LEFT: 172799.88
 STEP:   6 TIME =     0.02 SECS, INTEGRAL =      0.14 TIME LEFT: 172799.85
 STEP:   7 TIME =     0.02 SECS, INTEGRAL =      0.17 TIME LEFT: 172799.83
 STEP:   8 TIME =     0.02 SECS, INTEGRAL =      0.19 TIME LEFT: 172799.80
 STEP:   9 TIME =     0.02 SECS, INTEGRAL =      0.21 TIME LEFT: 172799.78
 STEP:  10 TIME =     0.02 SECS, INTEGRAL =      0.24 TIME LEFT: 172799.76
 STEP:  11 TIME =     0.02 SECS, INTEGRAL =      0.26 TIME LEFT: 172799.73
 STEP:  12 TIME =     0.02 SECS, INTEGRAL =      0.28 TIME LEFT: 172799.71
 STEP:  13 TIME =     0.03 SECS, INTEGRAL =      0.31 TIME LEFT: 172799.68
 STEP:  14 TIME =     0.03 SECS, INTEGRAL =      0.34 TIME LEFT: 172799.65
 STEP:  15 TIME =     0.02 SECS, INTEGRAL =      0.36 TIME LEFT: 172799.63
 STEP:  16 TIME =     0.03 SECS, INTEGRAL =      0.39 TIME LEFT: 172799.60
 STEP:  17 TIME =     0.03 SECS, INTEGRAL =      0.42 TIME LEFT: 172799.57
 STEP:  18 TIME =     0.02 SECS, INTEGRAL =      0.45 TIME LEFT: 172799.55
 STEP:  19 TIME =     0.02 SECS, INTEGRAL =      0.47 TIME LEFT: 172799.52
 STEP:  20 TIME =     0.02 SECS, INTEGRAL =      0.49 TIME LEFT: 172799.50
 STEP:  21 TIME =     0.02 SECS, INTEGRAL =      0.52 TIME LEFT: 172799.48
 STEP:  22 TIME =     0.02 SECS, INTEGRAL =      0.54 TIME LEFT: 172799.45
 STEP:  23 TIME =     0.02 SECS, INTEGRAL =      0.57 TIME LEFT: 172799.43
 STEP:  24 TIME =     0.02 SECS, INTEGRAL =      0.59 TIME LEFT: 172799.40
 STEP:  25 TIME =     0.02 SECS, INTEGRAL =      0.61 TIME LEFT: 172799.38
 STEP:  26 TIME =     0.02 SECS, INTEGRAL =      0.64 TIME LEFT: 172799.36
 STEP:  27 TIME =     0.03 SECS, INTEGRAL =      0.66 TIME LEFT: 172799.33
 STEP:  28 TIME =     0.02 SECS, INTEGRAL =      0.69 TIME LEFT: 172799.31
 STEP:  29 TIME =     0.02 SECS, INTEGRAL =      0.71 TIME LEFT: 172799.28
 STEP:  30 TIME =     0.02 SECS, INTEGRAL =      0.73 TIME LEFT: 172799.26
 STEP:  31 TIME =     0.02 SECS, INTEGRAL =      0.76 TIME LEFT: 172799.24
 STEP:  32 TIME =     0.02 SECS, INTEGRAL =      0.78 TIME LEFT: 172799.21
 STEP:  33 TIME =     0.02 SECS, INTEGRAL =      0.80 TIME LEFT: 172799.19
 STEP:  34 TIME =     0.02 SECS, INTEGRAL =      0.83 TIME LEFT: 172799.17
 STEP:  35 TIME =     0.02 SECS, INTEGRAL =      0.85 TIME LEFT: 172799.14
 STEP:  36 TIME =     0.02 SECS, INTEGRAL =      0.87 TIME LEFT: 172799.12
 STEP:  37 TIME =     0.02 SECS, INTEGRAL =      0.90 TIME LEFT: 172799.10
 STEP:  38 TIME =     0.02 SECS, INTEGRAL =      0.92 TIME LEFT: 172799.07
 STEP:  39 TIME =     0.02 SECS, INTEGRAL =      0.94 TIME LEFT: 172799.05
 STEP:  40 TIME =     0.02 SECS, INTEGRAL =      0.97 TIME LEFT: 172799.03
 STEP:  41 TIME =     0.02 SECS, INTEGRAL =      0.99 TIME LEFT: 172799.00
 STEP:  42 TIME =     0.02 SECS, INTEGRAL =      1.01 TIME LEFT: 172798.98
 STEP:  43 TIME =     0.02 SECS, INTEGRAL =      1.04 TIME LEFT: 172798.95
 STEP:  44 TIME =     0.02 SECS, INTEGRAL =      1.06 TIME LEFT: 172798.93
 STEP:  45 TIME =     0.02 SECS, INTEGRAL =      1.08 TIME LEFT: 172798.91
 STEP:  46 TIME =     0.02 SECS, INTEGRAL =      1.11 TIME LEFT: 172798.88
 STEP:  47 TIME =     0.02 SECS, INTEGRAL =      1.13 TIME LEFT: 172798.86
 STEP:  48 TIME =     0.02 SECS, INTEGRAL =      1.15 TIME LEFT: 172798.84
 STEP:  49 TIME =     0.02 SECS, INTEGRAL =      1.18 TIME LEFT: 172798.81
 STEP:  50 TIME =     0.02 SECS, INTEGRAL =      1.20 TIME LEFT: 172798.79
 STEP:  51 TIME =     0.02 SECS, INTEGRAL =      1.22 TIME LEFT: 172798.77
 STEP:  52 TIME =     0.02 SECS, INTEGRAL =      1.25 TIME LEFT: 172798.75
 STEP:  53 TIME =     0.02 SECS, INTEGRAL =      1.27 TIME LEFT: 172798.72
 STEP:  54 TIME =     0.02 SECS, INTEGRAL =      1.29 TIME LEFT: 172798.70
 STEP:  55 TIME =     0.03 SECS, INTEGRAL =      1.32 TIME LEFT: 172798.67
 STEP:  56 TIME =     0.02 SECS, INTEGRAL =      1.35 TIME LEFT: 172798.65
 STEP:  57 TIME =     0.02 SECS, INTEGRAL =      1.37 TIME LEFT: 172798.62
 STEP:  58 TIME =     0.02 SECS, INTEGRAL =      1.39 TIME LEFT: 172798.60
 STEP:  59 TIME =     0.02 SECS, INTEGRAL =      1.42 TIME LEFT: 172798.57
 STEP:  60 TIME =     0.02 SECS, INTEGRAL =      1.44 TIME LEFT: 172798.55

(To convert to Hartree/Bohr^2, multiply by (10^(-21) x N x a0^2)/(4.184 x 627.51) = 0.0642)


           FORCE MATRIX IN MILLIDYNES/ANGSTROM


                  C  1       C  2       C  3       C  4       C  5       C  6
 ------------------------------------------------------------------------------
     C    1  14.944250
     C    2   0.140326  14.694918
     C    3   3.316749   0.008936  14.566289
     C    4   3.346367   0.012305   2.325780  14.594497
     C    5   0.017960   4.407770   0.002058   0.002456  14.349745
     C    6   5.173059   0.824479   0.534428   0.557375   0.040439  18.323793
     C    7   0.829465   4.968646   0.049374   0.049617   0.717724  10.685428
     O    8   2.107537   0.003881   4.344535   4.343503   0.001584   0.057199
     H    9   4.426925   0.017869   0.427989   0.427473   0.001961   0.391445
     H   10   0.019564   4.419960   0.001781   0.001713   0.446056   0.032613
     H   11   0.003530   4.441548   0.000768   0.000757   0.434887   0.050292
     H   12   0.437185   0.001339   4.651406   0.056918   0.000460   0.010989
     H   13   0.426720   0.000700   4.682595   0.058458   0.000368   0.035664
     H   14   0.425677   0.001625   0.058128   4.682913   0.000717   0.035888
     H   15   0.438903   0.000736   0.057090   4.655837   0.000599   0.018738
     H   16   0.000716   0.461077   0.000641   0.000296   4.746824   0.002555
     H   17   0.000776   0.464626   0.000638   0.000526   4.725317   0.002107
     H   18   0.003097   0.449306   0.000634   0.000628   4.752524   0.006995
     H   19   0.084852   0.431097   0.018436   0.004123   0.026387   0.470548
     H   20   0.432501   0.084850   0.035694   0.031213   0.008613   4.759290


                  C  7       O  8       H  9       H 10       H 11       H 12
 ------------------------------------------------------------------------------
     C    7  18.191674
     O    8   0.008934   8.904351
     H    9   0.023717   0.043958   4.912583
     H   10   0.407236   0.000567   0.003090   5.017011
     H   11   0.459673   0.001060   0.000771   0.566485   5.051708
     H   12   0.011401   0.357351   0.033215   0.000219   0.000249   5.117817
     H   13   0.003739   0.356371   0.022447   0.000172   0.000195   0.487526
     H   14   0.005731   0.356428   0.022163   0.000162   0.000172   0.010998
     H   15   0.002890   0.358581   0.033786   0.000211   0.000184   0.002363
     H   16   0.016378   0.000586   0.000233   0.049178   0.024419   0.000249
     H   17   0.027436   0.000612   0.000238   0.023822   0.047913   0.000128
     H   18   0.051968   0.000654   0.000277   0.028509   0.030382   0.000155
     H   19   4.763867   0.004761   0.010470   0.017027   0.039203   0.020041
     H   20   0.471382   0.004056   0.013762   0.010507   0.030074   0.003078


                  H 13       H 14       H 15       H 16       H 17       H 18
 ------------------------------------------------------------------------------
     H   13   5.145195
     H   14   0.002183   5.145649
     H   15   0.010912   0.489540   5.123809
     H   16   0.000123   0.000114   0.000103   5.483707
     H   17   0.000098   0.000092   0.000116   0.578038   5.469822
     H   18   0.000187   0.000159   0.000147   0.573652   0.573878   5.488424
     H   19   0.002000   0.000944   0.000645   0.002615   0.020164   0.002020
     H   20   0.004693   0.002404   0.021323   0.000509   0.000627   0.001738


                  H 19       H 20
 ------------------------------
     H   19   5.142091
     H   20   0.107586   5.130651


          HEAT OF FORMATION =     -23.168725 KCALS/MOLE

          ZERO POINT ENERGY     108.787 KCAL/MOL


           NORMAL COORDINATE ANALYSIS (Total motion = 1 Angstrom)


   Root No.       1         2         3         4         5         6         7         8

                 1 A       2 A       3 A       4 A       5 A       6 A       7 A       8 A   

                  33.9      94.8     101.9     152.5     189.2     225.6     334.5     384.7
  
           1    0.0023   -0.0084   -0.0162    0.0017   -0.0052   -0.0005   -0.0094    0.0182
           2    0.0130   -0.0058   -0.0147   -0.0096    0.0046   -0.0149   -0.0281    0.0113
           3    0.0057    0.0013    0.0249   -0.0062    0.0158   -0.0028   -0.0063    0.0190
           4    0.0015   -0.0060   -0.0151   -0.0004   -0.0022   -0.0044   -0.0337   -0.0374
           5   -0.0041    0.0075    0.0084    0.0081   -0.0055    0.0116    0.0258   -0.0199
           6   -0.0327   -0.0028   -0.0369    0.0075   -0.0244    0.0242   -0.0119    0.0002
           7    0.0026   -0.0272    0.0157    0.0289   -0.0273   -0.0017    0.0395    0.0192
           8    0.0132   -0.0120   -0.0053   -0.0015   -0.0019   -0.0161   -0.0176    0.0099
           9   -0.0237    0.0224    0.0096   -0.0057    0.0159    0.0175   -0.0130    0.0068
          10   -0.0191    0.0134    0.0079   -0.0189    0.0060   -0.0320   -0.0076    0.0513
          11   -0.0164    0.0040    0.0025    0.0032   -0.0074   -0.0109   -0.0044   -0.0104
          12    0.0269   -0.0182    0.0024    0.0101    0.0077    0.0235   -0.0120    0.0086
          13    0.0276    0.0433   -0.0210   -0.0051    0.0054    0.0120    0.0194   -0.0461
          14    0.0008   -0.0238    0.0243    0.0130   -0.0052   -0.0063   -0.0112   -0.0192
          15    0.0502    0.0038    0.0061    0.0128   -0.0029    0.0004   -0.0097    0.0112
          16   -0.0023   -0.0043   -0.0181   -0.0025   -0.0037    0.0001   -0.0014   -0.0023
          17    0.0079   -0.0022   -0.0376   -0.0258    0.0264    0.0149    0.0153    0.0236
          18   -0.0112    0.0198    0.0392   -0.0126   -0.0010   -0.0375    0.0084   -0.0373
          19    0.0056   -0.0037   -0.0127   -0.0084    0.0051   -0.0104   -0.0236   -0.0204
          20    0.0033    0.0446   -0.0015   -0.0033   -0.0038    0.0164    0.0269    0.0317
          21   -0.0201   -0.0358   -0.0132   -0.0278    0.0174   -0.0184    0.0396   -0.0272
          22   -0.0180   -0.0102    0.0531    0.0041    0.0202    0.0347    0.0045    0.0161
          23   -0.0144   -0.0036    0.0154    0.0091   -0.0024    0.0088   -0.0020   -0.0200
          24   -0.0011    0.0066   -0.0249    0.0130   -0.0234   -0.0168    0.0139    0.0149
          25    0.0183   -0.0184   -0.0414    0.0036    0.0059    0.0340   -0.0221    0.0389
          26    0.0355   -0.0247   -0.0070   -0.0015   -0.0035   -0.0276   -0.0318    0.0156
          27    0.0249   -0.0134    0.0206   -0.0004    0.0139    0.0007   -0.0138    0.0276
          28   -0.0139   -0.0426   -0.0056   -0.0190    0.0099   -0.0288   -0.0233   -0.0652
          29   -0.0679    0.0046   -0.0279    0.0266   -0.0366    0.0424   -0.0148   -0.0238
          30   -0.0609    0.0127   -0.0615    0.0266   -0.0471    0.0527   -0.0389    0.0105
          31   -0.0070   -0.0084   -0.0224    0.0283   -0.0233    0.0130   -0.0785   -0.0382
          32    0.0453   -0.0044    0.0423   -0.0033    0.0184   -0.0187    0.0456   -0.0263
          33   -0.0783    0.0076   -0.0684    0.0214   -0.0484    0.0534   -0.0364    0.0058
          34   -0.0015   -0.0349    0.0392    0.0367   -0.0289    0.0019    0.0650    0.0153
          35    0.0057    0.0045   -0.0195   -0.0171    0.0150   -0.0045   -0.0570    0.0080
          36   -0.0562    0.0451    0.0387   -0.0265    0.0591    0.0616   -0.0520   -0.0121
          37    0.0192   -0.0437   -0.0103    0.0536   -0.0704   -0.0317    0.0828    0.0242
          38    0.0358   -0.0356    0.0044    0.0145   -0.0247   -0.0429    0.0258    0.0252
          39   -0.0226    0.0218   -0.0101    0.0030   -0.0011    0.0104   -0.0048    0.0034
          40   -0.0161    0.0210   -0.0174   -0.0268   -0.0021   -0.0585   -0.0142    0.0680
          41   -0.0125   -0.0139    0.0341    0.0180    0.0046    0.0373    0.0013   -0.0413
          42    0.0587   -0.0477   -0.0098    0.0263    0.0127    0.0745   -0.0266   -0.0276
          43   -0.0369    0.0348    0.0231   -0.0384    0.0111   -0.0729   -0.0062    0.0885
          44   -0.0405    0.0326   -0.0255   -0.0067   -0.0311   -0.0693    0.0090    0.0157
          45    0.0246   -0.0153    0.0164    0.0037    0.0159    0.0197   -0.0147    0.0176
          46    0.0426    0.0875   -0.0462    0.0882    0.0888   -0.0205    0.0597   -0.0528
          47    0.0658   -0.0250    0.0746   -0.0699   -0.0581    0.0166   -0.0016   -0.0175
          48    0.0796   -0.0148    0.0438   -0.0705   -0.0658    0.0262   -0.0206    0.0145
          49    0.0382    0.0433    0.0048   -0.1312   -0.0924    0.0742    0.0435   -0.0586
          50   -0.0500   -0.0106   -0.0196    0.0745    0.0352   -0.0171   -0.0027   -0.0256
          51    0.0969   -0.0082    0.0472   -0.0482   -0.0436    0.0125   -0.0170    0.0171
          52    0.0235    0.0402   -0.0266    0.0250    0.0280   -0.0038    0.0100   -0.0433
          53   -0.0095   -0.0612    0.0309    0.0387    0.0077   -0.0342   -0.0659   -0.0048
          54    0.0399    0.0396   -0.0383    0.1616    0.1178   -0.0572    0.0090    0.0121
          55    0.0146    0.0007   -0.0054   -0.0248    0.0203   -0.0250   -0.0232   -0.0226
          56    0.0023    0.1019    0.0305    0.0154   -0.0377    0.0082   -0.0101    0.0370
          57   -0.0167   -0.1031   -0.0492   -0.0529    0.0611   -0.0120    0.0817   -0.0342
          58   -0.0123   -0.0011   -0.0250   -0.0050   -0.0065    0.0080    0.0333   -0.0027
          59    0.0088   -0.0571   -0.0770   -0.0453    0.0613    0.0336    0.0543    0.0330
          60   -0.0147    0.0844    0.0836    0.0108   -0.0434   -0.0570   -0.0293   -0.0482


   Root No.       9        10        11        12        13        14        15        16

                 9 A      10 A      11 A      12 A      13 A      14 A      15 A      16 A   

                 456.3     546.6     801.4     813.7     903.3     907.5     920.1     927.4
  
           1    0.0166   -0.0417    0.0129    0.0122   -0.0021    0.0018    0.0011    0.0007
           2   -0.0050   -0.0232   -0.0353   -0.0089    0.0033   -0.0052    0.0080   -0.0130
           3   -0.0318    0.0286    0.0377    0.0050   -0.0026   -0.0026   -0.0021    0.0033
           4    0.0012    0.0321    0.0021   -0.0139   -0.0033   -0.0004    0.0003    0.0030
           5   -0.0304   -0.0218    0.0016   -0.0008   -0.0003    0.0020    0.0024    0.0000
           6   -0.0058    0.0025    0.0125   -0.0346   -0.0016    0.0015    0.0013   -0.0017
           7    0.0036    0.0102   -0.0216   -0.0037   -0.0117   -0.0199    0.0135   -0.0230
           8   -0.0137   -0.0165   -0.0217   -0.0071   -0.0113    0.0090   -0.0144    0.0311
           9   -0.0013   -0.0038   -0.0205   -0.0089    0.0148    0.0148   -0.0034    0.0034
          10   -0.0248   -0.0122    0.0035    0.0044    0.0164    0.0316    0.0064   -0.0168
          11   -0.0011   -0.0022    0.0320    0.0110    0.0035    0.0112   -0.0008    0.0016
          12   -0.0037   -0.0126    0.0303    0.0067    0.0067   -0.0095    0.0024   -0.0095
          13   -0.0329   -0.0014   -0.0031   -0.0087   -0.0028   -0.0002    0.0027    0.0028
          14   -0.0101    0.0045   -0.0052   -0.0051    0.0044   -0.0016   -0.0023   -0.0062
          15    0.0060    0.0040    0.0033   -0.0054   -0.0060    0.0049    0.0087   -0.0010
          16    0.0284   -0.0214    0.0309    0.0130   -0.0049    0.0002   -0.0075    0.0192
          17    0.0203    0.0461   -0.0229   -0.0109    0.0278   -0.0137    0.0073   -0.0073
          18    0.0221    0.0101   -0.0145    0.0178   -0.0293    0.0166    0.0055   -0.0164
          19    0.0207    0.0239    0.0033    0.0051   -0.0023    0.0013    0.0015    0.0007
          20    0.0383    0.0082    0.0143    0.0100   -0.0172    0.0043    0.0167    0.0191
          21    0.0143   -0.0242   -0.0008   -0.0023    0.0157   -0.0126   -0.0278   -0.0064
          22   -0.0006    0.0006   -0.0272   -0.0101   -0.0080   -0.0021   -0.0131    0.0235
          23    0.0063   -0.0002    0.0285    0.0091    0.0079   -0.0031    0.0092   -0.0221
          24   -0.0014    0.0015   -0.0246   -0.0074   -0.0110   -0.0011   -0.0091    0.0222
          25    0.0250   -0.0569    0.0585    0.0071    0.0533   -0.0584   -0.0044    0.0039
          26   -0.0248   -0.0370   -0.0380   -0.0067   -0.0733   -0.0805    0.0216   -0.0267
          27   -0.0394    0.0124    0.0487    0.0048   -0.0316   -0.0684    0.0062   -0.0077
          28    0.0151    0.0157    0.0049   -0.0529    0.0527   -0.0397   -0.0753   -0.0084
          29   -0.0657    0.0131   -0.0679    0.1523    0.0351   -0.0231   -0.0345   -0.0030
          30   -0.0330    0.0297   -0.0294    0.0733   -0.0066    0.0049    0.0145    0.0019
          31   -0.0324    0.0629   -0.0289    0.0421   -0.0178    0.0154    0.0341   -0.0035
          32   -0.0078   -0.0458    0.0505   -0.1286   -0.0186    0.0188    0.0260   -0.0062
          33   -0.0305    0.0297   -0.0381    0.0923    0.0142   -0.0126   -0.0169    0.0031
          34   -0.0076    0.0633    0.0127   -0.0067    0.0508    0.0057    0.0268   -0.0222
          35    0.0031   -0.0834   -0.0678   -0.0036   -0.0951   -0.0485   -0.0084    0.0099
          36    0.0130   -0.0412   -0.0437   -0.0042   -0.0438   -0.0733    0.0509   -0.0521
          37    0.0062    0.0399   -0.0242   -0.0076    0.0528    0.0327    0.0206   -0.0841
          38   -0.0444    0.0638    0.0184   -0.0221    0.0750    0.1005   -0.0692    0.1366
          39    0.0130   -0.0196   -0.0417   -0.0059    0.0177    0.0080    0.0244   -0.0798
          40   -0.0310   -0.0276   -0.0050    0.0076    0.0246    0.0272    0.0375   -0.0881
          41    0.0202    0.0052    0.0334    0.0114    0.0018    0.0515   -0.0359    0.0846
          42    0.0535   -0.0738   -0.0332    0.0238    0.0497    0.1466    0.0389   -0.0828
          43   -0.0795    0.0344    0.0819   -0.0036    0.0152   -0.0960    0.0017   -0.0074
          44   -0.0264    0.0166    0.0567    0.0091   -0.0479   -0.0803   -0.0155    0.0262
          45   -0.0208    0.0033    0.0603    0.0045    0.0187   -0.0427    0.0041   -0.0110
          46   -0.0533   -0.0331   -0.0351    0.0627    0.0503   -0.0281   -0.0545   -0.0191
          47   -0.0207   -0.0036   -0.0444    0.0949    0.0514   -0.0353   -0.0637   -0.0072
          48    0.0078    0.0123   -0.0066    0.0236   -0.0001   -0.0033   -0.0036    0.0071
          49   -0.0708   -0.0293    0.0053   -0.0475    0.0016    0.0107    0.0144   -0.0262
          50   -0.0158   -0.0031    0.0234   -0.0877   -0.0233    0.0239    0.0407   -0.0185
          51    0.0105    0.0107   -0.0238    0.0721    0.0205   -0.0191   -0.0322    0.0095
          52   -0.0218    0.0086   -0.0052   -0.0012   -0.0050   -0.0030   -0.0002    0.0106
          53    0.0385    0.0564    0.0016   -0.0101   -0.0290    0.0011    0.0141    0.0330
          54    0.0099   -0.0061   -0.0175    0.0493    0.0236   -0.0146   -0.0285   -0.0049
          55    0.0483    0.0686   -0.0275    0.0271   -0.0016   -0.0003    0.0170   -0.0234
          56    0.0850    0.0079    0.0148   -0.0469    0.0069   -0.0140   -0.1515   -0.0907
          57   -0.0357   -0.0112   -0.0100    0.0712   -0.0129    0.0087    0.1765    0.1174
          58    0.0584   -0.0309    0.0599    0.0357   -0.0218   -0.0046   -0.0241    0.0545
          59   -0.0200    0.0734    0.0096    0.0335   -0.1298    0.0635   -0.0702   -0.0872
          60    0.0759   -0.0253   -0.0460   -0.0286    0.1510   -0.0754    0.0928    0.0854


   Root No.      17        18        19        20        21        22        23        24

                17 A      18 A      19 A      20 A      21 A      22 A      23 A      24 A   

                 960.7     964.9     969.4     997.5    1011.8    1023.4    1029.5    1096.9
  
           1    0.0032   -0.0096   -0.0059   -0.0182   -0.0027    0.0089   -0.0086    0.0182
           2   -0.0014   -0.0050   -0.0007   -0.0138    0.0247    0.0324   -0.0073    0.0222
           3    0.0011   -0.0103   -0.0055   -0.0323   -0.0157    0.0038    0.0031   -0.0141
           4   -0.0038    0.0092    0.0027    0.0003   -0.0003    0.0011    0.0167   -0.0033
           5    0.0030   -0.0078   -0.0028   -0.0006    0.0032    0.0059    0.0022    0.0051
           6   -0.0005    0.0032    0.0023   -0.0075   -0.0028    0.0049    0.0255    0.0112
           7    0.0029   -0.0040    0.0190   -0.0154    0.0186   -0.0235    0.0051    0.0016
           8    0.0017    0.0084    0.0048    0.0268    0.0280   -0.0289    0.0083   -0.0052
           9   -0.0064    0.0048   -0.0136   -0.0004    0.0575    0.0184   -0.0016   -0.0067
          10   -0.0085    0.0009    0.0221   -0.0009   -0.0279   -0.0133    0.0035   -0.0127
          11    0.0000   -0.0099   -0.0005   -0.0393    0.0137   -0.0276   -0.0007   -0.0054
          12    0.0044    0.0147   -0.0071    0.0201    0.0115   -0.0376    0.0029    0.0053
          13   -0.0115    0.0316    0.0098   -0.0106   -0.0040   -0.0041   -0.0234    0.0017
          14    0.0029   -0.0072   -0.0016    0.0027   -0.0035   -0.0062   -0.0057   -0.0002
          15    0.0039   -0.0123   -0.0051    0.0069    0.0015   -0.0025   -0.0083   -0.0040
          16    0.0026   -0.0056   -0.0024    0.0079    0.0178    0.0146    0.0024   -0.0135
          17    0.0025   -0.0101   -0.0021   -0.0065   -0.0224   -0.0183   -0.0070   -0.0035
          18    0.0016   -0.0053   -0.0050    0.0032    0.0044    0.0047    0.0014    0.0336
          19    0.0072   -0.0208   -0.0078    0.0061    0.0046    0.0053    0.0061    0.0058
          20   -0.0060    0.0149    0.0025   -0.0003    0.0083    0.0095    0.0202   -0.0002
          21   -0.0017    0.0080    0.0050   -0.0009   -0.0010   -0.0062   -0.0261   -0.0172
          22    0.0039    0.0039   -0.0241    0.0043   -0.0240    0.0042   -0.0027    0.0047
          23   -0.0015    0.0111    0.0026    0.0360   -0.0434    0.0243    0.0008    0.0031
          24    0.0028   -0.0062    0.0147    0.0119   -0.0479    0.0093   -0.0025    0.0058
          25    0.0087   -0.0257   -0.0260   -0.0363   -0.0069    0.0641   -0.0870    0.1999
          26   -0.0190   -0.0150    0.0031   -0.0439   -0.0174    0.1824   -0.0040   -0.1843
          27   -0.0084   -0.0208   -0.0101   -0.0572   -0.0444    0.1135   -0.0196   -0.0848
          28   -0.0077    0.0362    0.0241   -0.0336   -0.0169    0.0229    0.1989    0.0066
          29    0.0045   -0.0102   -0.0020    0.0038    0.0017   -0.0006   -0.0038   -0.0118
          30    0.0026   -0.0113   -0.0073    0.0109    0.0041   -0.0085   -0.0596   -0.0032
          31    0.0145   -0.0542   -0.0236    0.0591    0.0089   -0.0332   -0.0754   -0.0739
          32    0.0099   -0.0285   -0.0096    0.0065    0.0026    0.0062    0.0218    0.0042
          33   -0.0052    0.0163    0.0059   -0.0083   -0.0016    0.0005   -0.0045    0.0053
          34    0.1063    0.0083    0.1102    0.0008    0.1451    0.0592   -0.0148    0.0014
          35   -0.0646   -0.0060   -0.0218    0.0107   -0.0656   -0.1263    0.0339   -0.0119
          36    0.0989   -0.0010    0.1655   -0.0007    0.1370   -0.0224    0.0136   -0.0273
          37   -0.1334    0.0187   -0.1266    0.0036    0.1054    0.0226    0.0117   -0.0342
          38    0.0757    0.0198   -0.0047    0.0471    0.0916    0.0903   -0.0265    0.0061
          39   -0.1244    0.0146   -0.1017    0.0035    0.0900   -0.0004    0.0179   -0.0371
          40    0.0907    0.0820   -0.0414    0.0343   -0.0424   -0.0018    0.0168   -0.0213
          41   -0.1289   -0.1223    0.0965   -0.1117    0.0081   -0.0425   -0.0173   -0.0079
          42    0.0546    0.0325    0.0259   -0.0547   -0.0939   -0.0270    0.0190   -0.0616
          43   -0.0964   -0.0148    0.0448    0.1126    0.0621   -0.0094   -0.0093    0.0617
          44    0.1489    0.0594   -0.1632   -0.0889    0.0369   -0.0856   -0.0060   -0.0110
          45   -0.0679   -0.0088    0.0400    0.0780    0.0446   -0.0242   -0.0015    0.0378
          46    0.0202   -0.0472   -0.0082    0.0066   -0.0046    0.0038    0.0745    0.0032
          47    0.0012    0.0068    0.0096   -0.0154   -0.0062    0.0095    0.0675    0.0131
          48   -0.0095    0.0267    0.0083   -0.0101    0.0002    0.0034   -0.0049    0.0029
          49    0.0338   -0.0954   -0.0306    0.0395   -0.0015   -0.0188   -0.0040   -0.0165
          50    0.0213   -0.0643   -0.0236    0.0330   -0.0024   -0.0244   -0.0492   -0.0155
          51   -0.0122    0.0382    0.0148   -0.0204    0.0004    0.0140    0.0331    0.0099
          52   -0.0260    0.0723    0.0229   -0.0258   -0.0058   -0.0021   -0.0340    0.0052
          53   -0.0668    0.1834    0.0563   -0.0631   -0.0107   -0.0035   -0.0947    0.0134
          54    0.0100   -0.0232   -0.0045    0.0030    0.0018    0.0081    0.0456    0.0027
          55    0.0306   -0.0721   -0.0184    0.0428    0.0094   -0.0268   -0.0407   -0.0166
          56    0.0095   -0.0002    0.0180    0.0018    0.0009   -0.0157   -0.0576   -0.0353
          57   -0.0137    0.0125   -0.0160    0.0052    0.0091    0.0159    0.0540    0.0193
          58   -0.0090    0.0112    0.0091    0.0946    0.0549   -0.0153   -0.0139   -0.1641
          59    0.0003   -0.0010    0.0036    0.0194    0.0293    0.0197    0.0053    0.0374
          60    0.0018   -0.0122   -0.0096   -0.0078   -0.0473   -0.0463   -0.0174   -0.0507


   Root No.      25        26        27        28        29        30        31        32

                25 A      26 A      27 A      28 A      29 A      30 A      31 A      32 A   

                1116.1    1128.1    1146.0    1168.3    1181.6    1200.3    1227.9    1244.2
  
           1    0.0003    0.0019   -0.0142   -0.0030   -0.0059    0.0029    0.0134    0.0069
           2    0.0031    0.0085   -0.0213   -0.0236   -0.0230    0.0160    0.0122    0.0440
           3    0.0005    0.0115   -0.0149    0.0555   -0.0136    0.0105    0.0202    0.0276
           4    0.0054    0.0137    0.0118   -0.0035   -0.0136   -0.0118   -0.0042   -0.0099
           5    0.0400    0.0477   -0.0029    0.0022    0.0317    0.0046   -0.0132    0.0027
           6   -0.0472    0.0086    0.0071   -0.0036    0.0137    0.0126    0.0010    0.0054
           7    0.0019    0.0058   -0.0045    0.0170   -0.0155    0.0193   -0.0136   -0.0130
           8   -0.0014   -0.0048    0.0181    0.0389    0.0166   -0.0156    0.0064   -0.0076
           9   -0.0011   -0.0012   -0.0031    0.0039   -0.0092    0.0162   -0.0157   -0.0223
          10   -0.0007   -0.0072    0.0161   -0.0150    0.0150   -0.0175    0.0040    0.0034
          11    0.0003   -0.0019    0.0008   -0.0135   -0.0108    0.0219   -0.0223   -0.0229
          12   -0.0008   -0.0031   -0.0031   -0.0476    0.0102   -0.0132   -0.0007   -0.0010
          13   -0.0037   -0.0160   -0.0047    0.0008    0.0022    0.0041    0.0008    0.0043
          14   -0.0456   -0.0438   -0.0087    0.0037   -0.0126   -0.0056   -0.0007    0.0009
          15    0.0513   -0.0185   -0.0082    0.0029   -0.0017   -0.0039   -0.0025    0.0001
          16   -0.0029    0.0096   -0.0277    0.0160    0.0002   -0.0102    0.0081   -0.0107
          17    0.0023    0.0114    0.0004   -0.0009    0.0008   -0.0122   -0.0176    0.0036
          18    0.0004   -0.0013    0.0147   -0.0096   -0.0023   -0.0081   -0.0164    0.0053
          19   -0.0045    0.0157   -0.0232    0.0132    0.0200   -0.0154   -0.0228   -0.0004
          20    0.0010   -0.0145    0.0052   -0.0045   -0.0177   -0.0006    0.0227   -0.0198
          21    0.0053    0.0052   -0.0040    0.0035   -0.0114   -0.0051    0.0169   -0.0186
          22    0.0001   -0.0008   -0.0011   -0.0165    0.0008   -0.0002   -0.0002    0.0047
          23   -0.0001    0.0023   -0.0034    0.0124    0.0023   -0.0058    0.0087    0.0057
          24    0.0005    0.0001   -0.0003   -0.0099    0.0015   -0.0025    0.0028    0.0073
          25    0.0256   -0.0640    0.2257    0.1004    0.0103    0.0004   -0.0440   -0.0213
          26   -0.0216   -0.0365    0.0213   -0.1034    0.0466   -0.0251   -0.0557   -0.0966
          27   -0.0067   -0.0375    0.0887    0.0386    0.0347   -0.0158   -0.0406   -0.0685
          28    0.2381   -0.1011    0.0552   -0.0367   -0.0229    0.0549    0.0489    0.0179
          29    0.2304   -0.0072   -0.0090   -0.0011    0.0225    0.0131    0.0038    0.0034
          30   -0.0467    0.0288   -0.0154    0.0094    0.0112   -0.0131   -0.0125   -0.0074
          31    0.0227    0.1359    0.1477   -0.0684   -0.1502    0.0178    0.1341   -0.0547
          32   -0.0241    0.1527    0.0607   -0.0274    0.0290    0.0365    0.0236   -0.0031
          33    0.0131   -0.0717   -0.0365    0.0161    0.0049   -0.0117   -0.0169    0.0047
          34   -0.0006   -0.0102    0.0194   -0.0255    0.0302   -0.0577    0.0370    0.0498
          35    0.0013    0.0107    0.0073    0.1121   -0.0116    0.0295   -0.0224   -0.0540
          36   -0.0016   -0.0041    0.0313    0.0679    0.0408   -0.0708    0.0430    0.0262
          37   -0.0046   -0.0094    0.0304    0.0461    0.0453   -0.0638    0.0463    0.0369
          38   -0.0032   -0.0100    0.0001    0.0115   -0.0073    0.0168   -0.0290   -0.0686
          39   -0.0047   -0.0085    0.0267    0.0387    0.0399   -0.0511    0.0378    0.0335
          40    0.0008    0.0049   -0.0015    0.0411   -0.0265    0.0497   -0.0385   -0.0466
          41   -0.0015   -0.0217    0.0364   -0.0912    0.0447   -0.0643    0.0241    0.0412
          42   -0.0008   -0.0085    0.0307   -0.0082   -0.0061    0.0270   -0.0499   -0.0322
          43    0.0026    0.0040   -0.0300   -0.0756   -0.0239    0.0394   -0.0471   -0.0468
          44   -0.0022   -0.0157    0.0267   -0.1050    0.0437   -0.0668    0.0219    0.0513
          45    0.0011    0.0051   -0.0297   -0.0575   -0.0195    0.0321   -0.0342   -0.0381
          46   -0.1609   -0.0186    0.0214   -0.0078   -0.0335    0.0003    0.0186   -0.0035
          47   -0.2150    0.0099    0.0219   -0.0075   -0.0151    0.0081    0.0159   -0.0004
          48    0.0217    0.0133   -0.0016    0.0003    0.0122    0.0050   -0.0015    0.0023
          49    0.0004   -0.1079   -0.0114    0.0033   -0.0472   -0.0132    0.0142   -0.0041
          50    0.0418   -0.1402   -0.0331    0.0115   -0.0386   -0.0160    0.0049    0.0023
          51   -0.0312    0.0660    0.0139   -0.0044    0.0218    0.0069   -0.0058   -0.0012
          52   -0.0110   -0.0021   -0.0002   -0.0021    0.0102    0.0148    0.0082    0.0066
          53   -0.0133   -0.0059   -0.0084   -0.0018    0.0287    0.0347    0.0199    0.0156
          54   -0.0352    0.0238    0.0093   -0.0024    0.0041    0.0008   -0.0009   -0.0047
          55   -0.0432   -0.0739    0.0094   -0.0214    0.2045    0.2093    0.1142   -0.0268
          56    0.0131    0.0059   -0.0032    0.0021    0.0104    0.0198    0.0399   -0.0274
          57   -0.0186   -0.0398    0.0143   -0.0135    0.0022    0.0275    0.0341   -0.0197
          58   -0.0221   -0.0237    0.1042    0.0039   -0.0374    0.0937   -0.1183    0.2502
          59   -0.0026   -0.0092    0.0336   -0.0233   -0.0109    0.0034   -0.0330    0.0373
          60    0.0020    0.0168    0.0088    0.0133   -0.0006   -0.0029   -0.0299    0.0305


   Root No.      33        34        35        36        37        38        39        40

                33 A      34 A      35 A      36 A      37 A      38 A      39 A      40 A   

                1314.5    1340.8    1369.2    1386.4    1404.4    1406.5    1411.1    1419.1
  
           1   -0.0064   -0.0227    0.0027    0.0324    0.0049   -0.0004   -0.0009    0.0138
           2   -0.0005    0.0178    0.0054   -0.0131    0.0043   -0.0023    0.0012   -0.0083
           3    0.0069    0.0023    0.0037   -0.0029   -0.0022    0.0010   -0.0003    0.0027
           4    0.0102    0.0488    0.0013   -0.0173    0.0316   -0.0137    0.0075   -0.0197
           5    0.0030    0.0201    0.0027    0.0139   -0.0197   -0.0003   -0.0048   -0.0311
           6   -0.0037   -0.0134   -0.0004    0.0034   -0.0038    0.0017   -0.0009    0.0082
           7   -0.0434    0.0086   -0.0054   -0.0102   -0.0078    0.0029   -0.0008    0.0023
           8    0.0228   -0.0035   -0.0293   -0.0079   -0.0200    0.0084   -0.0027    0.0138
           9   -0.0442    0.0046   -0.0162   -0.0089   -0.0142    0.0058   -0.0018    0.0087
          10   -0.0333    0.0091   -0.0128   -0.0015    0.0059   -0.0027    0.0010   -0.0066
          11    0.0535   -0.0084   -0.0176    0.0174    0.0191   -0.0077    0.0023   -0.0112
          12   -0.0222    0.0021   -0.0201    0.0105    0.0143   -0.0059    0.0018   -0.0096
          13   -0.0018   -0.0018    0.0012    0.0106    0.0009    0.0011   -0.0328    0.0295
          14    0.0016    0.0142    0.0027    0.0146    0.0017   -0.0016    0.0169    0.0414
          15    0.0002   -0.0023   -0.0009   -0.0056   -0.0058   -0.0315   -0.0001   -0.0083
          16    0.0047   -0.0062   -0.0008   -0.0115   -0.0118    0.0045   -0.0010    0.0009
          17   -0.0064   -0.0177   -0.0016    0.0130   -0.0038    0.0020   -0.0009    0.0047
          18   -0.0055   -0.0140   -0.0009    0.0096   -0.0024    0.0015   -0.0005    0.0036
          19    0.0001   -0.0164   -0.0029   -0.0050   -0.0143    0.0053   -0.0015   -0.0002
          20    0.0050    0.0136    0.0005   -0.0098    0.0064   -0.0021    0.0012   -0.0009
          21    0.0059    0.0157    0.0003   -0.0080    0.0049   -0.0023    0.0006   -0.0037
          22    0.0317   -0.0016    0.0024    0.0019    0.0044   -0.0019    0.0006   -0.0034
          23   -0.0299    0.0016    0.0035   -0.0018   -0.0038    0.0016   -0.0005    0.0032
          24    0.0261   -0.0006    0.0039    0.0005    0.0035   -0.0015    0.0006   -0.0030
          25    0.0098    0.0340   -0.0070   -0.0323    0.0005   -0.0019    0.0017   -0.0170
          26   -0.0106   -0.0261   -0.0180    0.0209   -0.0010    0.0011   -0.0010    0.0068
          27    0.0030   -0.0061   -0.0140   -0.0028   -0.0067    0.0026   -0.0008    0.0019
          28   -0.0190   -0.0624    0.0017    0.0401   -0.0434    0.0189   -0.0186    0.0226
          29   -0.0140   -0.0974   -0.0178   -0.0981    0.1043   -0.0132    0.0386    0.0891
          30    0.0010   -0.0205   -0.0101   -0.0730    0.0850   -0.0186    0.0296    0.0459
          31   -0.0103   -0.0427    0.0060    0.0671   -0.0869    0.0246   -0.0357    0.0021
          32   -0.0158   -0.0911   -0.0141   -0.0707    0.0753   -0.0084    0.0285    0.0745
          33    0.0101    0.0694    0.0133    0.0761   -0.0875    0.0100   -0.0300   -0.0745
          34    0.1089   -0.0045   -0.0746   -0.0114   -0.0303    0.0129   -0.0040    0.0214
          35   -0.1058   -0.0087    0.1211    0.0244    0.0429   -0.0177    0.0054   -0.0263
          36    0.0449   -0.0379    0.1476    0.0593    0.0719   -0.0286    0.0085   -0.0356
          37    0.0678   -0.0282    0.1082    0.0445    0.0562   -0.0225    0.0068   -0.0289
          38   -0.1287   -0.0354    0.1738    0.0668    0.0745   -0.0295    0.0084   -0.0336
          39    0.0845   -0.0078   -0.0129   -0.0007   -0.0064    0.0027   -0.0009    0.0051
          40    0.0880   -0.0099   -0.0200    0.0151    0.0188   -0.0077    0.0024   -0.0123
          41   -0.0813    0.0212    0.0613   -0.0413   -0.0331    0.0128   -0.0034    0.0145
          42    0.1100    0.0092    0.1785   -0.0959   -0.0880    0.0346   -0.0094    0.0420
          43    0.1144   -0.0150    0.1527   -0.0568   -0.0699    0.0284   -0.0084    0.0425
          44   -0.0720    0.0238    0.1126   -0.0686   -0.0610    0.0239   -0.0065    0.0292
          45    0.0751   -0.0154    0.0362   -0.0002   -0.0067    0.0029   -0.0010    0.0059
          46   -0.0077   -0.0624   -0.0095   -0.0444   -0.0547   -0.1943    0.1187   -0.0766
          47   -0.0090   -0.0695   -0.0104   -0.0558    0.0221    0.0220   -0.2099   -0.0967
          48   -0.0019   -0.0142   -0.0022   -0.0145    0.0317    0.0821   -0.1698   -0.0288
          49   -0.0043   -0.0397   -0.0054   -0.0245    0.0067    0.1673    0.2380   -0.0987
          50   -0.0067   -0.0601   -0.0093   -0.0507    0.0160    0.0040   -0.1620   -0.0820
          51    0.0065    0.0550    0.0085    0.0457   -0.0141   -0.0064    0.1622    0.0805
          52   -0.0073   -0.0353   -0.0024   -0.0023   -0.0028    0.0590    0.0276   -0.0221
          53   -0.0215   -0.1242   -0.0125   -0.0386   -0.0458    0.0276    0.1547   -0.1276
          54    0.0053    0.0336    0.0044    0.0153    0.0651    0.3008    0.0167   -0.0119
          55    0.0015    0.0494    0.0100    0.0001    0.0079   -0.0134   -0.0023   -0.0101
          56    0.0099    0.0279    0.0013   -0.0086    0.0080   -0.0057   -0.0003   -0.0047
          57    0.0012    0.0176    0.0027   -0.0094    0.0093   -0.0037    0.0018   -0.0020
          58   -0.0116    0.0105    0.0015    0.0050    0.0156   -0.0056    0.0037   -0.0070
          59   -0.0086   -0.0164    0.0001    0.0135    0.0001    0.0010   -0.0002    0.0051
          60   -0.0083   -0.0137   -0.0026    0.0150   -0.0010    0.0006   -0.0003    0.0018


   Root No.      41        42        43        44        45        46        47        48

                41 A      42 A      43 A      44 A      45 A      46 A      47 A      48 A   

                1454.2    1891.1    2944.8    2952.1    3002.2    3006.3    3024.0    3033.6
  
           1    0.0937   -0.0443   -0.0001    0.0156   -0.0002    0.0015    0.0000   -0.0002
           2   -0.0346    0.0049    0.0000    0.0301   -0.0003    0.0025    0.0000   -0.0003
           3    0.0065    0.0009    0.0001   -0.0485    0.0003   -0.0042   -0.0001   -0.0002
           4    0.0534    0.0370   -0.0108    0.0000    0.0000    0.0000   -0.0128   -0.0013
           5    0.0089   -0.0011   -0.0064    0.0000    0.0000    0.0000    0.0325    0.0022
           6   -0.0085   -0.0021   -0.0549   -0.0002   -0.0001    0.0001   -0.0003    0.0000
           7   -0.0035    0.0028    0.0000   -0.0055   -0.0252    0.0201    0.0003   -0.0008
           8    0.0290    0.0001    0.0000   -0.0010   -0.0093    0.0076    0.0000   -0.0007
           9    0.0170   -0.0010    0.0000    0.0040    0.0204   -0.0163   -0.0003   -0.0002
          10   -0.0212   -0.0013    0.0000   -0.0055    0.0204    0.0229    0.0000   -0.0015
          11   -0.0203    0.0021    0.0000   -0.0011    0.0052    0.0057    0.0001   -0.0021
          12   -0.0198    0.0007    0.0000    0.0039   -0.0191   -0.0217    0.0000   -0.0011
          13   -0.0161    0.0022    0.0005    0.0000    0.0000    0.0000    0.0030    0.0003
          14   -0.0167    0.0004    0.0004    0.0000    0.0000    0.0000   -0.0015   -0.0003
          15    0.0053   -0.0005    0.0026    0.0000    0.0000    0.0000   -0.0007   -0.0003
          16   -0.0476    0.2198    0.0006    0.0006   -0.0001   -0.0002    0.0000    0.0057
          17    0.0182    0.0904   -0.0004    0.0002    0.0000   -0.0004    0.0035   -0.0412
          18    0.0102    0.0780   -0.0005    0.0002    0.0000   -0.0005    0.0029   -0.0352
          19   -0.0431   -0.2155   -0.0007   -0.0004    0.0001    0.0000   -0.0001    0.0050
          20   -0.0058   -0.0926    0.0017    0.0001   -0.0006    0.0004   -0.0046   -0.0078
          21   -0.0017   -0.0786    0.0014   -0.0001   -0.0005    0.0003   -0.0038   -0.0065
          22   -0.0093    0.0013    0.0000    0.0007    0.0000   -0.0004    0.0000    0.0000
          23    0.0098   -0.0016    0.0000   -0.0004    0.0000   -0.0001    0.0000    0.0000
          24   -0.0091    0.0013    0.0000    0.0002    0.0000    0.0003    0.0000    0.0000
          25   -0.0797    0.0052    0.0004   -0.1897    0.0021   -0.0133   -0.0001   -0.0006
          26    0.0313    0.0063    0.0006   -0.3663    0.0055   -0.0316   -0.0003   -0.0010
          27   -0.0090    0.0126   -0.0011    0.5906   -0.0027    0.0501    0.0005   -0.0004
          28   -0.0414    0.0090    0.1657    0.0002    0.0004   -0.0003    0.1324    0.0093
          29   -0.0058   -0.0097   -0.2057   -0.0004   -0.0005    0.0004   -0.1462   -0.0102
          30    0.0240   -0.0024    0.3614    0.0008    0.0009   -0.0008    0.3160    0.0218
          31   -0.0714   -0.0465   -0.0357   -0.0001    0.0000    0.0000    0.0208   -0.0011
          32   -0.0095   -0.0094    0.2792    0.0008   -0.0001    0.0001   -0.2494   -0.0188
          33   -0.0025   -0.0053    0.2989    0.0009   -0.0002    0.0002   -0.3108   -0.0230
          34    0.0472   -0.0030   -0.0004    0.0377    0.1904   -0.1510   -0.0009    0.0096
          35   -0.0495    0.0056   -0.0004    0.0327    0.1876   -0.1489   -0.0009    0.0092
          36   -0.0415   -0.0020    0.0002   -0.0133   -0.0695    0.0551    0.0002   -0.0041
          37   -0.0383    0.0001   -0.0001    0.0232    0.1097   -0.0859   -0.0021   -0.0041
          38   -0.0189   -0.0106    0.0001   -0.0130   -0.0763    0.0600    0.0013    0.0021
          39    0.0097    0.0020    0.0002   -0.0392   -0.1754    0.1375    0.0033    0.0058
          40   -0.0291    0.0001    0.0000    0.0371   -0.1538   -0.1707   -0.0007    0.0304
          41    0.0120   -0.0026    0.0000    0.0281   -0.1093   -0.1214   -0.0005    0.0205
          42    0.0356    0.0045    0.0000   -0.0092    0.0234    0.0258    0.0001   -0.0062
          43    0.0775   -0.0045   -0.0001    0.0228   -0.0897   -0.0999    0.0001   -0.0087
          44    0.0308    0.0013    0.0000   -0.0106    0.0474    0.0529    0.0000    0.0028
          45    0.0161    0.0013    0.0002   -0.0444    0.2063    0.2301   -0.0004    0.0200
          46    0.0343    0.0013   -0.0101    0.0000    0.0000    0.0000   -0.0033    0.0000
          47    0.0352    0.0009    0.0069    0.0000    0.0001   -0.0001    0.0042    0.0000
          48    0.0085    0.0010   -0.0176    0.0000   -0.0001    0.0001   -0.0099   -0.0005
          49    0.0294    0.0016    0.0032    0.0000    0.0000    0.0000    0.0001    0.0002
          50    0.0295    0.0011   -0.0117   -0.0001    0.0001    0.0000    0.0094    0.0029
          51   -0.0293   -0.0020   -0.0175   -0.0001    0.0000    0.0000    0.0121    0.0031
          52   -0.0050    0.0030   -0.0005    0.0001    0.0000    0.0000   -0.0288   -0.0034
          53    0.0161   -0.0057    0.0002    0.0000    0.0000    0.0000    0.0105    0.0011
          54    0.0008    0.0002    0.0005    0.0000    0.0000    0.0000    0.0040    0.0004
          55    0.0229    0.0977    0.0014    0.0005   -0.0012    0.0007   -0.0097   -0.0212
          56    0.0083   -0.0863   -0.0194   -0.0023    0.0065   -0.0036    0.0504    0.1138
          57   -0.0026   -0.0739   -0.0178   -0.0010    0.0058   -0.0032    0.0418    0.0958
          58    0.0146   -0.0923    0.0001   -0.0001    0.0002   -0.0019    0.0067   -0.0968
          59    0.0193    0.0863    0.0053    0.0001   -0.0018    0.0061   -0.0364    0.4744
          60    0.0258    0.0728    0.0049   -0.0022   -0.0020    0.0044   -0.0307    0.4047


   Root No.      49        50        51        52        53        54

                49 A      50 A      51 A      52 A      53 A      54 A   

                3037.1    3043.1    3046.7    3081.2    3086.1    3183.0
  
           1   -0.0003   -0.0001   -0.0003    0.0000    0.0000    0.0000
           2    0.0000   -0.0005   -0.0001    0.0000    0.0000    0.0000
           3   -0.0003   -0.0004    0.0001    0.0000    0.0000    0.0000
           4    0.0015    0.0000    0.0001   -0.0001   -0.0011   -0.0004
           5   -0.0055    0.0001   -0.0002   -0.0012    0.0022   -0.0002
           6   -0.0024    0.0001   -0.0001   -0.0023   -0.0008    0.0001
           7    0.0008   -0.0011    0.0012    0.0000    0.0000    0.0000
           8   -0.0026   -0.0186    0.0157    0.0000    0.0000    0.0000
           9   -0.0029   -0.0130    0.0110    0.0000    0.0000    0.0000
          10   -0.0002   -0.0079   -0.0107    0.0000    0.0000    0.0000
          11    0.0000   -0.0123   -0.0170    0.0000    0.0000    0.0000
          12    0.0000   -0.0098   -0.0134    0.0000    0.0000    0.0000
          13   -0.0007    0.0000    0.0000    0.0031   -0.0425   -0.0137
          14    0.0003    0.0000    0.0000   -0.0158    0.0254   -0.0195
          15   -0.0002    0.0000    0.0000   -0.0483   -0.0111    0.0064
          16    0.0025   -0.0004    0.0000    0.0000    0.0000    0.0000
          17    0.0105    0.0010    0.0015    0.0001   -0.0002    0.0000
          18    0.0090    0.0009    0.0013    0.0001   -0.0002    0.0000
          19    0.0038   -0.0004    0.0000   -0.0002    0.0003    0.0001
          20   -0.0388    0.0024   -0.0013    0.0002    0.0005    0.0001
          21   -0.0326    0.0021   -0.0011    0.0002    0.0002    0.0001
          22    0.0000    0.0001   -0.0001    0.0000    0.0000    0.0000
          23    0.0000    0.0003    0.0001    0.0000    0.0000    0.0000
          24    0.0000    0.0002   -0.0001    0.0000    0.0000    0.0000
          25   -0.0008   -0.0003    0.0008    0.0000    0.0000    0.0000
          26   -0.0016   -0.0010    0.0022    0.0000    0.0001    0.0000
          27    0.0026    0.0001   -0.0034    0.0000   -0.0001    0.0000
          28   -0.0122    0.0001   -0.0003    0.0023    0.0087    0.0003
          29    0.0128    0.0000    0.0003   -0.0070   -0.0144   -0.0014
          30   -0.0344    0.0004   -0.0009    0.0065    0.0265    0.0020
          31   -0.0076    0.0004   -0.0002    0.0000   -0.0005   -0.0004
          32    0.0509   -0.0015    0.0016    0.0210   -0.0132   -0.0026
          33    0.0614   -0.0018    0.0019    0.0194   -0.0167   -0.0019
          34    0.0166    0.1581   -0.1255    0.0001    0.0004   -0.0001
          35    0.0149    0.1430   -0.1135    0.0000    0.0003   -0.0001
          36   -0.0080   -0.0667    0.0531    0.0000   -0.0001    0.0000
          37   -0.0272   -0.1470    0.1169    0.0001   -0.0002    0.0000
          38    0.0154    0.0805   -0.0639    0.0000    0.0001    0.0000
          39    0.0411    0.2194   -0.1742   -0.0001    0.0003    0.0000
          40    0.0023    0.1748    0.2258    0.0000    0.0001    0.0000
          41    0.0016    0.1175    0.1516    0.0000    0.0000    0.0000
          42   -0.0005   -0.0389   -0.0502    0.0000    0.0000    0.0000
          43   -0.0008   -0.0785   -0.1005    0.0000    0.0000    0.0000
          44    0.0003    0.0296    0.0375    0.0000    0.0000    0.0000
          45    0.0011    0.1594    0.2038   -0.0001    0.0001   -0.0001
          46    0.0012   -0.0001    0.0001    0.1160    0.1068   -0.1234
          47   -0.0019    0.0002   -0.0001   -0.1476   -0.1433    0.1341
          48    0.0035   -0.0004    0.0002    0.2414    0.2938   -0.2709
          49    0.0009    0.0000    0.0000   -0.0202   -0.0171   -0.0202
          50    0.0005   -0.0001    0.0000    0.3106   -0.0571    0.1978
          51   -0.0007    0.0000   -0.0001    0.3403   -0.0862    0.2396
          52    0.0090   -0.0006    0.0005   -0.1315    0.4176    0.3114
          53   -0.0027    0.0001   -0.0001    0.0272   -0.1038   -0.0932
          54   -0.0016    0.0001   -0.0001   -0.0041   -0.0749   -0.0471
          55   -0.0942    0.0062   -0.0033   -0.0005    0.0012    0.0000
          56    0.4358   -0.0285    0.0142   -0.0031   -0.0029   -0.0018
          57    0.3671   -0.0238    0.0119   -0.0023   -0.0029   -0.0013
          58    0.0230    0.0021    0.0030    0.0004   -0.0004    0.0000
          59   -0.0969   -0.0130   -0.0161   -0.0014    0.0016   -0.0001
          60   -0.0826   -0.0113   -0.0140   -0.0012    0.0013   -0.0001


           MASS-WEIGHTED COORDINATE ANALYSIS (NORMAL COORDINATES)


   Root No.       1         2         3         4         5         6         7         8

                 1 A       2 A       3 A       4 A       5 A       6 A       7 A       8 A   

                  33.9      94.8     101.9     152.5     189.2     225.6     334.5     384.7
  
           1    0.0201   -0.0710   -0.1236    0.0160   -0.0504   -0.0047   -0.0797    0.1378
           2    0.1136   -0.0496   -0.1124   -0.0902    0.0451   -0.1336   -0.2388    0.0854
           3    0.0495    0.0111    0.1897   -0.0578    0.1543   -0.0252   -0.0534    0.1439
           4    0.0127   -0.0510   -0.1149   -0.0034   -0.0219   -0.0394   -0.2867   -0.2834
           5   -0.0356    0.0633    0.0639    0.0756   -0.0537    0.1036    0.2194   -0.1509
           6   -0.2849   -0.0236   -0.2815    0.0705   -0.2376    0.2162   -0.1014    0.0016
           7    0.0230   -0.2310    0.1197    0.2705   -0.2658   -0.0153    0.3366    0.1456
           8    0.1148   -0.1014   -0.0402   -0.0140   -0.0181   -0.1442   -0.1495    0.0748
           9   -0.2069    0.1902    0.0730   -0.0533    0.1546    0.1569   -0.1107    0.0514
          10   -0.1669    0.1133    0.0604   -0.1770    0.0582   -0.2861   -0.0648    0.3882
          11   -0.1435    0.0338    0.0192    0.0295   -0.0723   -0.0972   -0.0378   -0.0784
          12    0.2350   -0.1542    0.0186    0.0943    0.0752    0.2103   -0.1019    0.0651
          13    0.2409    0.3671   -0.1603   -0.0479    0.0527    0.1075    0.1654   -0.3487
          14    0.0068   -0.2020    0.1850    0.1220   -0.0504   -0.0564   -0.0949   -0.1450
          15    0.4383    0.0322    0.0465    0.1199   -0.0284    0.0033   -0.0822    0.0850
          16   -0.0199   -0.0367   -0.1379   -0.0231   -0.0362    0.0011   -0.0116   -0.0171
          17    0.0686   -0.0184   -0.2868   -0.2409    0.2575    0.1337    0.1302    0.1784
          18   -0.0980    0.1678    0.2989   -0.1183   -0.0097   -0.3357    0.0716   -0.2826
          19    0.0491   -0.0312   -0.0971   -0.0785    0.0494   -0.0934   -0.2005   -0.1542
          20    0.0291    0.3782   -0.0111   -0.0304   -0.0369    0.1468    0.2287    0.2400
          21   -0.1757   -0.3039   -0.1003   -0.2598    0.1697   -0.1647    0.3367   -0.2062
          22   -0.1814   -0.0999    0.4669    0.0442    0.2276    0.3579    0.0439    0.1409
          23   -0.1453   -0.0353    0.1358    0.0987   -0.0265    0.0904   -0.0198   -0.1743
          24   -0.0107    0.0643   -0.2195    0.1399   -0.2629   -0.1737    0.1369    0.1303
          25    0.0462   -0.0453   -0.0914    0.0096    0.0166    0.0880   -0.0545    0.0853
          26    0.0896   -0.0607   -0.0154   -0.0039   -0.0099   -0.0715   -0.0785    0.0342
          27    0.0628   -0.0328    0.0455   -0.0010    0.0394    0.0018   -0.0339    0.0604
          28   -0.0351   -0.1047   -0.0123   -0.0516    0.0280   -0.0745   -0.0576   -0.1430
          29   -0.1716    0.0114   -0.0615    0.0720   -0.1035    0.1100   -0.0364   -0.0523
          30   -0.1539    0.0313   -0.1357    0.0720   -0.1331    0.1367   -0.0958    0.0230
          31   -0.0176   -0.0207   -0.0494    0.0768   -0.0657    0.0337   -0.1936   -0.0837
          32    0.1146   -0.0108    0.0934   -0.0090    0.0520   -0.0484    0.1124   -0.0577
          33   -0.1978    0.0186   -0.1509    0.0579   -0.1368    0.1383   -0.0897    0.0126
          34   -0.0037   -0.0858    0.0865    0.0996   -0.0817    0.0050    0.1602    0.0336
          35    0.0143    0.0111   -0.0431   -0.0463    0.0425   -0.0116   -0.1405    0.0175
          36   -0.1420    0.1108    0.0855   -0.0717    0.1670    0.1596   -0.1283   -0.0264
          37    0.0486   -0.1073   -0.0228    0.1453   -0.1989   -0.0821    0.2041    0.0532
          38    0.0906   -0.0874    0.0098    0.0393   -0.0698   -0.1113    0.0637    0.0552
[...]
 TRAVEL      0.0833        C  3 --  C  4          +11.7% ( 47.9%)   100.0%
 RED. MASS   1.4567        C  3 --  H 13          +11.3% ( 47.2%)     0.2%
 EFF. MASS   7.3923        C  4 --  H 14          +11.3% ( 47.0%)     0.3%
                           C  4 --  H 15          +10.9% ( 46.3%)     0.2%
                           C  3 --  H 12          +10.8% ( 46.1%)     0.1%

 VIBRATION   34   34A       ATOM PAIR        ENERGY CONTRIBUTION    RADIAL
 FREQ.      1340.79        C  2 --  H 11          +15.3% ( 53.3%)     0.0%
 T-DIPOLE    0.1492        C  2 --  H 10          +14.7% ( 52.3%)     0.1%
 TRAVEL      0.0933        C  2 --  C  7          +14.7% ( 52.2%)    84.9%
 RED. MASS   0.9369        C  2 --  C  5           +8.7% ( 40.1%)    43.4%
 EFF. MASS   5.7835

 VIBRATION   35   35A       ATOM PAIR        ENERGY CONTRIBUTION    RADIAL
 FREQ.      1369.24        C  3 --  H 12          +19.7% ( 47.3%)     3.7%
 T-DIPOLE    0.2542        C  3 --  H 13          +19.6% ( 47.3%)     3.9%
 TRAVEL      0.1467        C  4 --  H 15          +16.9% ( 43.9%)     3.2%
 RED. MASS   0.2874        C  4 --  H 14          +16.2% ( 43.0%)     3.7%
 EFF. MASS   2.2884

 VIBRATION   36   36A       ATOM PAIR        ENERGY CONTRIBUTION    RADIAL
 FREQ.      1386.43        C  1 --  C  6          +10.2% ( 40.5%)    90.3%
 T-DIPOLE    0.0532        C  2 --  H 10           +8.5% ( 37.2%)     3.0%
 TRAVEL      0.1034        C  2 --  H 11           +7.9% ( 35.8%)     5.0%
 RED. MASS   0.3563        C  1 --  C  4           +7.6% ( 35.1%)     3.0%
 EFF. MASS   4.5451

 VIBRATION   37   37A       ATOM PAIR        ENERGY CONTRIBUTION    RADIAL
 FREQ.      1404.39        C  2 --  H 11          +14.3% ( 45.8%)     4.9%
 T-DIPOLE    0.0646        C  2 --  H 10          +13.8% ( 44.9%)     4.7%
 TRAVEL      0.1066        C  2 --  C  7           +9.6% ( 37.5%)    92.5%
 RED. MASS   0.3849        C  3 --  C  4           +7.3% ( 32.6%)   100.0%
 EFF. MASS   4.2217

 VIBRATION   38   38A       ATOM PAIR        ENERGY CONTRIBUTION    RADIAL
 FREQ.      1406.51        C  5 --  H 18          +44.5% ( 60.6%)     0.2%
 T-DIPOLE    0.0498        C  5 --  H 16          +21.8% ( 42.4%)     8.1%
 TRAVEL      0.1605        C  5 --  H 17          +13.9% ( 33.8%)    15.9%
 RED. MASS   0.3681        C  2 --  C  5           +5.5% ( 21.4%)    15.0%
 EFF. MASS   1.8608

 VIBRATION   39   39A       ATOM PAIR        ENERGY CONTRIBUTION    RADIAL
 FREQ.      1411.07        C  5 --  H 17          +44.0% ( 58.1%)     0.8%
 T-DIPOLE    0.0630        C  5 --  H 16          +35.4% ( 52.1%)     2.3%
 TRAVEL      0.1705        C  5 --  H 18          +10.8% ( 28.8%)    41.5%
 RED. MASS   0.3912        C  2 --  C  5           +5.8% ( 21.1%)     0.8%
 EFF. MASS   1.6435

 VIBRATION   40   40A       ATOM PAIR        ENERGY CONTRIBUTION    RADIAL
 FREQ.      1419.11        C  2 --  C  5          +17.2% ( 53.3%)    99.9%
 T-DIPOLE    0.0279        C  5 --  H 17          +16.0% ( 51.4%)     4.0%
 TRAVEL      0.0958        C  5 --  H 16          +14.0% ( 47.9%)     2.6%
 RED. MASS   0.7979        C  5 --  H 18          +13.9% ( 47.8%)     4.0%
 EFF. MASS   5.1801

 VIBRATION   41   41A       ATOM PAIR        ENERGY CONTRIBUTION    RADIAL
 FREQ.      1454.25        C  1 --  C  6          +17.0% ( 70.7%)    95.0%
 T-DIPOLE    0.0734        C  1 --  C  4          +11.9% ( 59.1%)    59.3%
 TRAVEL      0.0665        C  1 --  C  3          +11.7% ( 58.6%)    56.8%
 RED. MASS   2.5217        C  1 --  H  9          +11.1% ( 57.1%)     0.0%
 EFF. MASS  10.4973        C  1 --  O  8          +10.4% ( 55.3%)    76.4%

 VIBRATION   42   42A       ATOM PAIR        ENERGY CONTRIBUTION    RADIAL
 FREQ.      1891.15        C  6 --  C  7          +43.5% ( 97.5%)    96.2%
 T-DIPOLE    0.1009        C  1 --  C  6          +14.6% ( 56.5%)    58.2%
 TRAVEL      0.0549        C  2 --  C  7          +13.9% ( 55.1%)    54.8%
 RED. MASS   5.3597        C  6 --  H 20          +13.3% ( 54.0%)     3.4%
 EFF. MASS  11.8216        C  7 --  H 19          +13.0% ( 53.3%)     3.6%

 VIBRATION   43   43A       ATOM PAIR        ENERGY CONTRIBUTION    RADIAL
 FREQ.      2944.81        C  2 --  H 10          +52.5% ( 75.2%)    96.9%
 T-DIPOLE    0.0224        C  2 --  H 11          +44.8% ( 69.5%)    96.1%
 TRAVEL      0.1218        C  2 --  C  5           +1.2% ( 11.2%)     0.0%
 RED. MASS   0.5168        C  2 --  C  7           +1.2% ( 11.1%)     0.2%
 EFF. MASS   1.5436

 VIBRATION   44   44A       ATOM PAIR        ENERGY CONTRIBUTION    RADIAL
 FREQ.      2952.10        C  1 --  H  9          +93.9% ( 99.1%)   100.0%
 T-DIPOLE    0.1844        C  1 --  C  3           +1.0% ( 10.4%)    13.9%
 TRAVEL      0.1257        C  1 --  C  4           +1.0% ( 10.4%)    14.0%
 RED. MASS   0.8949        C  1 --  O  8           +1.0% ( 10.2%)    32.7%
 EFF. MASS   1.4462

 VIBRATION   45   45A       ATOM PAIR        ENERGY CONTRIBUTION    RADIAL
 FREQ.      3002.21        C  3 --  H 12          +33.9% ( 60.6%)    97.6%
 T-DIPOLE    0.0253        C  4 --  H 15          +23.5% ( 50.5%)    97.5%
 TRAVEL      0.1197        C  3 --  H 13          +22.4% ( 49.3%)    95.1%
 RED. MASS   0.2791        C  4 --  H 14          +16.6% ( 42.4%)    95.4%
 EFF. MASS   1.5688

 VIBRATION   46   46A       ATOM PAIR        ENERGY CONTRIBUTION    RADIAL
 FREQ.      3006.34        C  4 --  H 15          +32.6% ( 59.4%)    97.5%
 T-DIPOLE    0.0260        C  3 --  H 12          +23.8% ( 50.7%)    97.6%
 TRAVEL      0.1191        C  4 --  H 14          +22.8% ( 49.7%)    95.3%
 RED. MASS   0.2706        C  3 --  H 13          +15.4% ( 40.8%)    94.9%
 EFF. MASS   1.5803

 VIBRATION   47   47A       ATOM PAIR        ENERGY CONTRIBUTION    RADIAL
 FREQ.      3024.04        C  2 --  H 11          +51.4% ( 70.7%)    98.1%
 T-DIPOLE    0.0446        C  2 --  H 10          +44.4% ( 65.7%)    97.3%
 TRAVEL      0.1317        C  7 --  H 19           +1.5% ( 12.3%)    99.7%
 RED. MASS   0.4602        C  6 --  H 20           +0.8% (  9.0%)    99.7%
 EFF. MASS   1.2862

 VIBRATION   48   48A       ATOM PAIR        ENERGY CONTRIBUTION    RADIAL
 FREQ.      3033.65        C  6 --  H 20          +91.6% ( 96.9%)   100.0%
 T-DIPOLE    0.3297        C  7 --  H 19           +5.1% ( 22.8%)    99.8%
 TRAVEL      0.1226        C  1 --  C  6           +1.3% ( 11.4%)    15.2%
 RED. MASS   0.8233        C  6 --  C  7           +1.2% ( 11.0%)    40.0%
 EFF. MASS   1.4787

 VIBRATION   49   49A       ATOM PAIR        ENERGY CONTRIBUTION    RADIAL
 FREQ.      3037.10        C  7 --  H 19          +89.4% ( 95.9%)   100.0%
 T-DIPOLE    0.1835        C  6 --  H 20           +4.6% ( 21.8%)    99.5%
 TRAVEL      0.1201        C  6 --  C  7           +1.8% ( 13.5%)    39.6%
 RED. MASS   0.7927        C  2 --  H 11           +1.6% ( 12.9%)    99.5%
 EFF. MASS   1.5385

 VIBRATION   50   50A       ATOM PAIR        ENERGY CONTRIBUTION    RADIAL
 FREQ.      3043.12        C  3 --  H 13          +36.6% ( 60.2%)    98.3%
 T-DIPOLE    0.0188        C  3 --  H 12          +23.4% ( 48.1%)    95.2%
 TRAVEL      0.1321        C  4 --  H 14          +21.9% ( 46.6%)    98.2%
 RED. MASS   0.2604        C  4 --  H 15          +15.2% ( 38.8%)    95.8%
 EFF. MASS   1.2696

 VIBRATION   51   51A       ATOM PAIR        ENERGY CONTRIBUTION    RADIAL
 FREQ.      3046.75        C  4 --  H 14          +35.7% ( 59.6%)    97.9%
 T-DIPOLE    0.0355        C  4 --  H 15          +24.3% ( 49.2%)    95.1%
 TRAVEL      0.1294        C  3 --  H 13          +22.5% ( 47.3%)    98.0%
 RED. MASS   0.2628        C  3 --  H 12          +14.4% ( 37.9%)    94.6%
 EFF. MASS   1.3223

 VIBRATION   52   52A       ATOM PAIR        ENERGY CONTRIBUTION    RADIAL
 FREQ.      3081.23        C  5 --  H 17          +63.9% ( 82.4%)    98.7%
 T-DIPOLE    0.0100        C  5 --  H 16          +28.7% ( 55.3%)    92.3%
 TRAVEL      0.1207        C  5 --  H 18           +6.2% ( 25.6%)    61.2%
 RED. MASS   0.5219        C  2 --  C  5           +1.0% ( 10.2%)     0.0%
 EFF. MASS   1.5013

 VIBRATION   53   53A       ATOM PAIR        ENERGY CONTRIBUTION    RADIAL
 FREQ.      3086.14        C  5 --  H 18          +58.3% ( 78.7%)    98.3%
 T-DIPOLE    0.0136        C  5 --  H 16          +36.3% ( 62.2%)    94.5%
 TRAVEL      0.1205        C  5 --  H 17           +4.0% ( 20.7%)    46.8%
 RED. MASS   0.5013        C  2 --  C  5           +1.0% ( 10.3%)     0.0%
 EFF. MASS   1.5044

 VIBRATION   54   54A       ATOM PAIR        ENERGY CONTRIBUTION    RADIAL
 FREQ.      3182.97        C  5 --  H 18          +34.7% ( 56.6%)    97.3%
 T-DIPOLE    0.0288        C  5 --  H 16          +34.2% ( 56.3%)    97.3%
 TRAVEL      0.1366        C  5 --  H 17          +30.8% ( 53.4%)    96.7%
 RED. MASS   0.3277        C  2 --  C  5           +0.3% (  5.1%)    99.8%
 EFF. MASS   1.1361

 SYMMETRY NUMBER FOR POINT-GROUP C1  =  1


          SYSTEM IS A GROUND STATE


    NULL



          MOLECULE IS NOT LINEAR

          THERE ARE 54 GENUINE VIBRATIONS IN THIS SYSTEM
          THIS THERMODYNAMICS CALCULATION IS LIMITED TO
          MOLECULES WHICH HAVE NO INTERNAL ROTATIONS




                    CALCULATED THERMODYNAMIC PROPERTIES
                                          *
   TEMP. (K)   PARTITION FUNCTION   H.O.F.    ENTHALPY  HEAT CAPACITY ENTROPY
                                   KCAL/MOL   CAL/MOLE    CAL/K/MOL  CAL/K/MOL


 298.00  VIB.     0.4870D+03                  3827.5528    25.9988    25.1415
         ROT.     0.4427D+06                   888.2813     2.9808    28.8158
         INT.     0.2156D+09                  4715.8341    28.9796    53.9573
         TRA.     0.1149D+28                  1480.4688     4.9680    40.0581
         TOT.                      -23.169    6196.3029    33.9476    94.0155

 200.00  VIB.     0.5741D+02                  1764.8635    16.5607    16.8730
         ROT.     0.2434D+06                   596.1620     2.9808    27.6272
         INT.     0.1397D+08                  2361.0254    19.5416    44.5001
         TRA.     0.6315D+27                   993.6033     4.9680    38.0770
         TOT.                      -26.010    3354.6287    24.5096    82.5771

 210.00  VIB.     0.7164D+02                  1934.5430    17.3814    17.7007
         ROT.     0.2619D+06                   625.9700     2.9808    27.7726
         INT.     0.1876D+08                  2560.5131    20.3622    45.4733
         TRA.     0.6794D+27                  1043.2834     4.9680    38.3194
         TOT.                      -25.761    3603.7965    25.3302    83.7927

 220.00  VIB.     0.8928D+02                  2112.6160    18.2394    18.5289
         ROT.     0.2808D+06                   655.7781     2.9808    27.9113
         INT.     0.2507D+08                  2768.3942    21.2202    46.4402
         TRA.     0.7285D+27                  1092.9636     4.9680    38.5505
         TOT.                      -25.504    3861.3577    26.1883    84.9907

 230.00  VIB.     0.1112D+03                  2299.4546    19.1343    19.3593
         ROT.     0.3002D+06                   685.5862     2.9808    28.0438
         INT.     0.3337D+08                  2985.0409    22.1151    47.4031
         TRA.     0.7788D+27                  1142.6437     4.9680    38.7713
         TOT.                      -25.237    4127.6846    27.0832    86.1744

 240.00  VIB.     0.1383D+03                  2495.4201    20.0645    20.1932
         ROT.     0.3200D+06                   715.3943     2.9808    28.1706
         INT.     0.4425D+08                  3210.8145    23.0453    48.3638
         TRA.     0.8301D+27                  1192.3239     4.9680    38.9828
         TOT.                      -24.962    4403.1384    28.0133    87.3466

 250.00  VIB.     0.1719D+03                  2700.8531    21.0274    21.0317
         ROT.     0.3402D+06                   745.2024     2.9808    28.2923
         INT.     0.5848D+08                  3446.0555    24.0082    49.3240
         TRA.     0.8825D+27                  1242.0041     4.9680    39.1856
         TOT.                      -24.677    4688.0596    28.9762    88.5096

 260.00  VIB.     0.2136D+03                  2916.0663    22.0200    21.8756
         ROT.     0.3608D+06                   775.0105     2.9808    28.4092
         INT.     0.7708D+08                  3691.0768    25.0008    50.2848
         TRA.     0.9360D+27                  1291.6842     4.9680    39.3804
         TOT.                      -24.382    4982.7610    29.9688    89.6653

 270.00  VIB.     0.2654D+03                  3141.3396    23.0388    22.7257
         ROT.     0.3818D+06                   804.8186     2.9808    28.5217
         INT.     0.1013D+09                  3946.1583    26.0196    51.2474
         TRA.     0.9905D+27                  1341.3644     4.9680    39.5679
         TOT.                      -24.078    5287.5226    30.9876    90.8153

 280.00  VIB.     0.3297D+03                  3376.9167    24.0801    23.5823
         ROT.     0.4032D+06                   834.6267     2.9808    28.6301
         INT.     0.1329D+09                  4211.5435    27.0609    52.2124
         TRA.     0.1046D+28                  1391.0445     4.9680    39.7486
         TOT.                      -23.762    5602.5880    32.0289    91.9610

 290.00  VIB.     0.4094D+03                  3623.0032    25.1400    24.4458
         ROT.     0.4250D+06                   864.4348     2.9808    28.7347
         INT.     0.1740D+09                  4487.4380    28.1208    53.1805
         TRA.     0.1103D+28                  1440.7247     4.9680    39.9229
         TOT.                      -23.437    5928.1628    33.0888    93.1034

 300.00  VIB.     0.5086D+03                  3879.7662    26.2147    25.3161
         ROT.     0.4472D+06                   894.2429     2.9808    28.8358
         INT.     0.2274D+09                  4774.0092    29.1956    54.1519
         TRA.     0.1160D+28                  1490.4049     4.9680    40.0914
         TOT.                      -23.101    6264.4140    34.1636    94.2433

 310.00  VIB.     0.6319D+03                  4147.3351    27.3006    26.1934
         ROT.     0.4697D+06                   924.0510     2.9808    28.9335
         INT.     0.2968D+09                  5071.3861    30.2814    55.1269
         TRA.     0.1219D+28                  1540.0850     4.9680    40.2543
         TOT.                      -22.754    6611.4712    35.2494    95.3812

 320.00  VIB.     0.7853D+03                  4425.8026    28.3939    27.0774
         ROT.     0.4926D+06                   953.8591     2.9808    29.0281
         INT.     0.3868D+09                  5379.6617    31.3747    56.1055
         TRA.     0.1278D+28                  1589.7652     4.9680    40.4120
         TOT.                      -22.396    6969.4269    36.3427    96.5175

 330.00  VIB.     0.9762D+03                  4715.2269    29.4914    27.9679
         ROT.     0.5159D+06                   983.6672     2.9808    29.1199
         INT.     0.5036D+09                  5698.8941    32.4722    57.0878
         TRA.     0.1338D+28                  1639.4454     4.9680    40.5649
         TOT.                      -22.027    7338.3395    37.4402    97.6526

 340.00  VIB.     0.1214D+04                  5015.6340    30.5900    28.8646
         ROT.     0.5395D+06                  1013.4753     2.9808    29.2089
         INT.     0.6551D+09                  6029.1093    33.5708    58.0735
         TRA.     0.1400D+28                  1689.1255     4.9680    40.7132
         TOT.                      -21.647    7718.2348    38.5388    98.7867

 350.00  VIB.     0.1511D+04                  5327.0202    31.6868    29.7672
         ROT.     0.5635D+06                  1043.2834     2.9808    29.2953
         INT.     0.8513D+09                  6370.3036    34.6676    59.0624
         TRA.     0.1462D+28                  1738.8057     4.9680    40.8572
         TOT.                      -21.256    8109.1093    39.6356    99.9196

 360.00  VIB.     0.1881D+04                  5649.3551    32.7793    30.6752
         ROT.     0.5878D+06                  1073.0915     2.9808    29.3792
         INT.     0.1106D+10                  6722.4466    35.7601    60.0544
         TRA.     0.1525D+28                  1788.4859     4.9680    40.9971
         TOT.                      -20.854    8510.9324    40.7281   101.0515

 370.00  VIB.     0.2343D+04                  5982.5840    33.8652    31.5881
         ROT.     0.6125D+06                  1102.8996     2.9808    29.4609
         INT.     0.1435D+10                  7085.4836    36.8460    61.0490
         TRA.     0.1589D+28                  1838.1660     4.9680    41.1333
         TOT.                      -20.441    8923.6496    41.8141   102.1823

 380.00  VIB.     0.2920D+04                  6326.6311    34.9426    32.5055
         ROT.     0.6375D+06                  1132.7077     2.9808    29.5404
         INT.     0.1861D+10                  7459.3388    37.9234    62.0459
         TRA.     0.1654D+28                  1887.8462     4.9680    41.2658
         TOT.                      -20.018    9347.1850    42.8914   103.3117

 390.00  VIB.     0.3641D+04                  6681.4018    36.0097    33.4270
         ROT.     0.6628D+06                  1162.5158     2.9808    29.6178
         INT.     0.2413D+10                  7843.9176    38.9905    63.0448
         TRA.     0.1720D+28                  1937.5263     4.9680    41.3948
         TOT.                      -19.584    9781.4440    43.9585   104.4397

 400.00  VIB.     0.4543D+04                  7046.7856    37.0650    34.3520
         ROT.     0.6885D+06                  1192.3239     2.9808    29.6933
         INT.     0.3128D+10                  8239.1095    40.0458    64.0453
         TRA.     0.1786D+28                  1987.2065     4.9680    41.5206
         TOT.                      -19.139   10226.3160    45.0138   105.5659

   *: NOTE: HEATS OF FORMATION ARE RELATIVE TO THE
            ELEMENTS IN THEIR STANDARD STATE AT 298K
              (=  Standard Enthalpy of Formation).

            Hvib:  Zero-point energy is not included.
                   frequencies of less than zero cm-1 are not included.
            Hrot = (3/2)RT
            Htra = (3/2)RT + pV = (5/2)RT

            Heat capacity is Cp, not Cv

           For more information, see: HTTP://OpenMOPAC.net/Manual/thermochemistry.html


           FORCE CONSTANT IN CARTESIAN COORDINATES (Millidynes/A)

    ATOM   CHEMICAL       X               Y               Z
   NUMBER   SYMBOL  FORCE CONSTANT  FORCE CONSTANT  FORCE CONSTANT

      1       C        9.804909        7.484096        8.046116
      2       C        8.901930        8.381248        8.140760
      3       C        7.698356        8.849480        8.206385
      4       C        7.873862        8.432577        8.501082
      5       C        8.432590        8.205190        8.214335
      6       C       13.337517        7.760264        6.328382
      7       C       13.156035        7.844335        6.225593
      8       O        3.753459        5.580369        3.918731
      9       H        0.979437        1.721354        3.447249
     10       H        1.225657        1.474779        3.572095
     11       H        0.779424        2.505143        3.111041
     12       H        2.771185        2.611797        0.956543
     13       H        1.807380        1.126479        3.425795
     14       H        3.548614        2.011597        0.801184
     15       H        1.412783        0.789863        4.149878
     16       H        1.276343        1.593059        3.911039
     17       H        0.704085        2.740001        3.337359
     18       H        4.997845        1.017376        0.775365
     19       H        0.887071        3.050164        2.267901
     20       H        0.880249        3.014633        2.289211



 TOTAL CPU TIME:             2.17 SECONDS

 == MOPAC DONE ==
