 *******************************************************************************
 ** Site#: 14399           For non-commercial use only        Version 13.159M **
 *******************************************************************************
 ** Cite this work as: MOPAC2012, James J. P. Stewart, Stewart Computational  **
 ** Chemistry, Version 13.159M web: HTTP://OpenMOPAC.net  Days remaining:  93 **
 *******************************************************************************
 **                                                                           **
 **                                MOPAC2012                                  **
 **                                                                           **
 *******************************************************************************

                            PM3 CALCULATION RESULTS


 *******************************************************************************
 *  CALCULATION DONE:                                Fri Mar  7 16:08:53 2014  *
 *  PM3      - The PM3 Hamiltonian to be used
 *  PRECISE  - CRITERIA TO BE INCREASED BY 100 TIMES
 *  NOSYM    - POINT-GROUP SYMMETRY SET TO C1
 *  T=       - A TIME OF 172800.0 SECONDS REQUESTED
 *  DUMP=N   - RESTART FILE WRITTEN EVERY  7200.000 SECONDS
 *******************************************************************************
pm3  precise nosym
 InChI=1S/C12H20/c1-3-5-7-12-9-6-8-11(4-2)10-12/h5-8,11-12H,3-4,9-10H2,1-2H3

   ATOM   CHEMICAL          X               Y               Z
  NUMBER   SYMBOL      (ANGSTROMS)     (ANGSTROMS)     (ANGSTROMS)
 
     1       C          2.21900000  *  -0.28860000  *   0.11530000  *
     2       C         -0.26840000  *  -0.83860000  *  -0.03740000  *
     3       C          0.80590000  *   0.24340000  *  -0.21100000  *
     4       C          3.33140000  *   0.65560000  *  -0.37700000  *
     5       C          0.03840000  *  -2.04180000  *  -0.94320000  *
     6       C         -3.98260000  *   0.30950000  *   0.27030000  *
     7       C          3.31390000  *   2.04280000  *   0.26120000  *
     8       C         -4.29840000  *   1.50550000  *   1.15900000  *
     9       C         -1.63860000  *  -0.28550000  *  -0.33870000  *
    10       C          2.45700000  *  -1.68790000  *  -0.41450000  *
    11       C         -2.61990000  *  -0.24570000  *   0.57350000  *
    12       C          1.47850000  *  -2.47570000  *  -0.88560000  *
    13       H         -0.21470000  *  -1.19210000  *   1.02140000  *
    14       H          2.31110000  *  -0.37350000  *   1.22390000  *
    15       H          0.56920000  *   1.10430000  *   0.45760000  *
    16       H          0.77610000  *   0.62300000  *  -1.26070000  *
    17       H          3.28310000  *   0.76600000  *  -1.48580000  *
    18       H          4.32760000  *   0.21040000  *  -0.14390000  *
    19       H         -4.08720000  *   0.62080000  *  -0.79560000  *
    20       H         -4.73550000  *  -0.49130000  *   0.45070000  *
    21       H         -0.60230000  *  -2.89940000  *  -0.63240000  *
    22       H         -0.19690000  *  -1.82210000  *  -2.01080000  *
    23       H         -4.27390000  *   1.22130000  *   2.23610000  *
    24       H         -3.57010000  *   2.33020000  *   0.98360000  *
    25       H         -5.31820000  *   1.88880000  *   0.92790000  *
    26       H          4.20420000  *   2.62270000  *  -0.07260000  *
    27       H          2.41170000  *   2.61860000  *  -0.04440000  *
    28       H          3.34500000  *   1.97030000  *   1.37220000  *
    29       H         -2.44430000  *  -0.62670000  *   1.57940000  *
    30       H         -1.82020000  *   0.09880000  *  -1.34270000  *
    31       H          1.73340000  *  -3.46490000  *  -1.26300000  *
    32       H          3.46570000  *  -2.09810000  *  -0.37270000  *
 


          CARTESIAN COORDINATES 

    NO.       ATOM         X         Y         Z

     1         C        2.2190   -0.2886    0.1153
     2         C       -0.2684   -0.8386   -0.0374
     3         C        0.8059    0.2434   -0.2110
     4         C        3.3314    0.6556   -0.3770
     5         C        0.0384   -2.0418   -0.9432
     6         C       -3.9826    0.3095    0.2703
     7         C        3.3139    2.0428    0.2612
     8         C       -4.2984    1.5055    1.1590
     9         C       -1.6386   -0.2855   -0.3387
    10         C        2.4570   -1.6879   -0.4145
    11         C       -2.6199   -0.2457    0.5735
    12         C        1.4785   -2.4757   -0.8856
    13         H       -0.2147   -1.1921    1.0214
    14         H        2.3111   -0.3735    1.2239
    15         H        0.5692    1.1043    0.4576
    16         H        0.7761    0.6230   -1.2607
    17         H        3.2831    0.7660   -1.4858
    18         H        4.3276    0.2104   -0.1439
    19         H       -4.0872    0.6208   -0.7956
    20         H       -4.7355   -0.4913    0.4507
    21         H       -0.6023   -2.8994   -0.6324
    22         H       -0.1969   -1.8221   -2.0108
    23         H       -4.2739    1.2213    2.2361
    24         H       -3.5701    2.3302    0.9836
    25         H       -5.3182    1.8888    0.9279
    26         H        4.2042    2.6227   -0.0726
    27         H        2.4117    2.6186   -0.0444
    28         H        3.3450    1.9703    1.3722
    29         H       -2.4443   -0.6267    1.5794
    30         H       -1.8202    0.0988   -1.3427
    31         H        1.7334   -3.4649   -1.2630
    32         H        3.4657   -2.0981   -0.3727

  H: (PM3): J. J. P. STEWART, J. COMP. CHEM. 10, 209 (1989).
  C: (PM3): J. J. P. STEWART, J. COMP. CHEM. 10, 209 (1989).

           Empirical Formula: C12 H20  =    32 atoms



      MOLECULAR POINT GROUP   :   C1  


      RHF CALCULATION, NO. OF DOUBLY OCCUPIED LEVELS =   34

      Geometry optimization using EF

          DIAGONAL MATRIX USED AS START HESSIAN

 CYCLE:     1 TIME:   0.019 TIME LEFT:  2.00D  GRAD.:    61.426 HEAT:-6.919993
 CYCLE:     2 TIME:   0.036 TIME LEFT:  2.00D  GRAD.:    59.093 HEAT:-8.016015
 CYCLE:     3 TIME:   0.014 TIME LEFT:  2.00D  GRAD.:    55.172 HEAT:-8.505501
 CYCLE:     4 TIME:   0.013 TIME LEFT:  2.00D  GRAD.:    59.940 HEAT:-8.568915
 CYCLE:     5 TIME:   0.025 TIME LEFT:  2.00D  GRAD.:    31.535 HEAT:-9.185825
 CYCLE:     6 TIME:   0.014 TIME LEFT:  2.00D  GRAD.:    34.635 HEAT:-9.225545
 CYCLE:     7 TIME:   0.014 TIME LEFT:  2.00D  GRAD.:    24.277 HEAT:-9.513566
 CYCLE:     8 TIME:   0.024 TIME LEFT:  2.00D  GRAD.:    20.933 HEAT:-9.635297
 CYCLE:     9 TIME:   0.013 TIME LEFT:  2.00D  GRAD.:    19.687 HEAT:-9.743485
 CYCLE:    10 TIME:   0.024 TIME LEFT:  2.00D  GRAD.:    14.236 HEAT:-9.838634
 CYCLE:    11 TIME:   0.013 TIME LEFT:  2.00D  GRAD.:    13.163 HEAT:-9.908675
 CYCLE:    12 TIME:   0.013 TIME LEFT:  2.00D  GRAD.:    13.830 HEAT:-9.973014
 CYCLE:    13 TIME:   0.014 TIME LEFT:  2.00D  GRAD.:    16.427 HEAT:-10.01898
 CYCLE:    14 TIME:   0.024 TIME LEFT:  2.00D  GRAD.:     9.015 HEAT:-10.08010
 CYCLE:    15 TIME:   0.024 TIME LEFT:  2.00D  GRAD.:     7.241 HEAT:-10.10530
 CYCLE:    16 TIME:   0.013 TIME LEFT:  2.00D  GRAD.:     6.743 HEAT:-10.13287
 CYCLE:    17 TIME:   0.013 TIME LEFT:  2.00D  GRAD.:    11.037 HEAT:-10.14458
 CYCLE:    18 TIME:   0.013 TIME LEFT:  2.00D  GRAD.:     8.836 HEAT:-10.18163
 CYCLE:    19 TIME:   0.024 TIME LEFT:  2.00D  GRAD.:    10.778 HEAT:-10.18539
 CYCLE:    20 TIME:   0.013 TIME LEFT:  2.00D  GRAD.:     8.000 HEAT:-10.21111
 CYCLE:    21 TIME:   0.024 TIME LEFT:  2.00D  GRAD.:     7.238 HEAT:-10.22242
 CYCLE:    22 TIME:   0.013 TIME LEFT:  2.00D  GRAD.:     4.571 HEAT:-10.24003
 CYCLE:    23 TIME:   0.023 TIME LEFT:  2.00D  GRAD.:     4.766 HEAT:-10.24618
 CYCLE:    24 TIME:   0.013 TIME LEFT:  2.00D  GRAD.:     3.006 HEAT:-10.25642
 CYCLE:    25 TIME:   0.013 TIME LEFT:  2.00D  GRAD.:     6.451 HEAT:-10.25974
 CYCLE:    26 TIME:   0.013 TIME LEFT:  2.00D  GRAD.:     3.943 HEAT:-10.27739
 CYCLE:    27 TIME:   0.013 TIME LEFT:  2.00D  GRAD.:     7.671 HEAT:-10.27867
 CYCLE:    28 TIME:   0.013 TIME LEFT:  2.00D  GRAD.:     3.780 HEAT:-10.29511
 CYCLE:    29 TIME:   0.029 TIME LEFT:  2.00D  GRAD.:     3.251 HEAT:-10.29916
 CYCLE:    30 TIME:   0.014 TIME LEFT:  2.00D  GRAD.:     3.200 HEAT:-10.30298
 CYCLE:    31 TIME:   0.013 TIME LEFT:  2.00D  GRAD.:     3.549 HEAT:-10.31008
 CYCLE:    32 TIME:   0.014 TIME LEFT:  2.00D  GRAD.:     3.518 HEAT:-10.31682
 CYCLE:    33 TIME:   0.015 TIME LEFT:  2.00D  GRAD.:     2.598 HEAT:-10.32855
 CYCLE:    34 TIME:   0.013 TIME LEFT:  2.00D  GRAD.:     2.768 HEAT:-10.33477
 CYCLE:    35 TIME:   0.013 TIME LEFT:  2.00D  GRAD.:     1.868 HEAT:-10.34049
 CYCLE:    36 TIME:   0.013 TIME LEFT:  2.00D  GRAD.:     2.904 HEAT:-10.34534
 CYCLE:    37 TIME:   0.013 TIME LEFT:  2.00D  GRAD.:     2.731 HEAT:-10.35142
 CYCLE:    38 TIME:   0.014 TIME LEFT:  2.00D  GRAD.:     2.384 HEAT:-10.35729
 CYCLE:    39 TIME:   0.013 TIME LEFT:  2.00D  GRAD.:     2.509 HEAT:-10.36240
 CYCLE:    40 TIME:   0.013 TIME LEFT:  2.00D  GRAD.:     3.003 HEAT:-10.36860
 CYCLE:    41 TIME:   0.013 TIME LEFT:  2.00D  GRAD.:     1.767 HEAT:-10.37438
 CYCLE:    42 TIME:   0.013 TIME LEFT:  2.00D  GRAD.:     2.019 HEAT:-10.38186
 CYCLE:    43 TIME:   0.014 TIME LEFT:  2.00D  GRAD.:     2.097 HEAT:-10.38741
 CYCLE:    44 TIME:   0.013 TIME LEFT:  2.00D  GRAD.:     1.679 HEAT:-10.39365
 CYCLE:    45 TIME:   0.013 TIME LEFT:  2.00D  GRAD.:     1.726 HEAT:-10.39851
 CYCLE:    46 TIME:   0.014 TIME LEFT:  2.00D  GRAD.:     1.756 HEAT:-10.40314
 CYCLE:    47 TIME:   0.013 TIME LEFT:  2.00D  GRAD.:     1.819 HEAT:-10.40931
 CYCLE:    48 TIME:   0.014 TIME LEFT:  2.00D  GRAD.:     1.674 HEAT:-10.41548
 CYCLE:    49 TIME:   0.013 TIME LEFT:  2.00D  GRAD.:     1.703 HEAT:-10.41991
 CYCLE:    50 TIME:   0.013 TIME LEFT:  2.00D  GRAD.:     1.821 HEAT:-10.42520
 CYCLE:    51 TIME:   0.013 TIME LEFT:  2.00D  GRAD.:     1.957 HEAT:-10.43285
 CYCLE:    52 TIME:   0.014 TIME LEFT:  2.00D  GRAD.:     1.996 HEAT:-10.44034
 CYCLE:    53 TIME:   0.013 TIME LEFT:  2.00D  GRAD.:     1.460 HEAT:-10.44579
 CYCLE:    54 TIME:   0.014 TIME LEFT:  2.00D  GRAD.:     1.314 HEAT:-10.44940
 CYCLE:    55 TIME:   0.013 TIME LEFT:  2.00D  GRAD.:     1.226 HEAT:-10.45223
 CYCLE:    56 TIME:   0.013 TIME LEFT:  2.00D  GRAD.:     0.943 HEAT:-10.45472
 CYCLE:    57 TIME:   0.013 TIME LEFT:  2.00D  GRAD.:     0.708 HEAT:-10.45651
 CYCLE:    58 TIME:   0.013 TIME LEFT:  2.00D  GRAD.:     0.628 HEAT:-10.45727
 CYCLE:    59 TIME:   0.013 TIME LEFT:  2.00D  GRAD.:     0.544 HEAT:-10.45783
 CYCLE:    60 TIME:   0.013 TIME LEFT:  2.00D  GRAD.:     0.571 HEAT:-10.45867
 CYCLE:    61 TIME:   0.013 TIME LEFT:  2.00D  GRAD.:     0.671 HEAT:-10.45967
 CYCLE:    62 TIME:   0.014 TIME LEFT:  2.00D  GRAD.:     0.669 HEAT:-10.46077
 CYCLE:    63 TIME:   0.014 TIME LEFT:  2.00D  GRAD.:     0.735 HEAT:-10.46202
 CYCLE:    64 TIME:   0.014 TIME LEFT:  2.00D  GRAD.:     0.797 HEAT:-10.46329
 CYCLE:    65 TIME:   0.015 TIME LEFT:  2.00D  GRAD.:     1.007 HEAT:-10.46529
 CYCLE:    66 TIME:   0.017 TIME LEFT:  2.00D  GRAD.:     1.103 HEAT:-10.46757
 CYCLE:    67 TIME:   0.014 TIME LEFT:  2.00D  GRAD.:     1.079 HEAT:-10.47027
 CYCLE:    68 TIME:   0.014 TIME LEFT:  2.00D  GRAD.:     1.083 HEAT:-10.47288
 CYCLE:    69 TIME:   0.014 TIME LEFT:  2.00D  GRAD.:     1.042 HEAT:-10.47502
 CYCLE:    70 TIME:   0.014 TIME LEFT:  2.00D  GRAD.:     0.958 HEAT:-10.47696
 CYCLE:    71 TIME:   0.014 TIME LEFT:  2.00D  GRAD.:     0.840 HEAT:-10.47892
 CYCLE:    72 TIME:   0.014 TIME LEFT:  2.00D  GRAD.:     0.756 HEAT:-10.48065
 CYCLE:    73 TIME:   0.014 TIME LEFT:  2.00D  GRAD.:     0.730 HEAT:-10.48191
 CYCLE:    74 TIME:   0.014 TIME LEFT:  2.00D  GRAD.:     0.605 HEAT:-10.48296
 CYCLE:    75 TIME:   0.013 TIME LEFT:  2.00D  GRAD.:     0.553 HEAT:-10.48384
 CYCLE:    76 TIME:   0.013 TIME LEFT:  2.00D  GRAD.:     0.533 HEAT:-10.48467
 CYCLE:    77 TIME:   0.013 TIME LEFT:  2.00D  GRAD.:     0.462 HEAT:-10.48531
 CYCLE:    78 TIME:   0.013 TIME LEFT:  2.00D  GRAD.:     0.451 HEAT:-10.48576
 CYCLE:    79 TIME:   0.014 TIME LEFT:  2.00D  GRAD.:     0.346 HEAT:-10.48601
 CYCLE:    80 TIME:   0.013 TIME LEFT:  2.00D  GRAD.:     0.258 HEAT:-10.48620
 CYCLE:    81 TIME:   0.013 TIME LEFT:  2.00D  GRAD.:     0.205 HEAT:-10.48632
 CYCLE:    82 TIME:   0.013 TIME LEFT:  2.00D  GRAD.:     0.191 HEAT:-10.48640
 CYCLE:    83 TIME:   0.013 TIME LEFT:  2.00D  GRAD.:     0.180 HEAT:-10.48646
 CYCLE:    84 TIME:   0.013 TIME LEFT:  2.00D  GRAD.:     0.206 HEAT:-10.48657
 CYCLE:    85 TIME:   0.013 TIME LEFT:  2.00D  GRAD.:     0.201 HEAT:-10.48668
 CYCLE:    86 TIME:   0.013 TIME LEFT:  2.00D  GRAD.:     0.191 HEAT:-10.48679
 CYCLE:    87 TIME:   0.013 TIME LEFT:  2.00D  GRAD.:     0.209 HEAT:-10.48692
 CYCLE:    88 TIME:   0.013 TIME LEFT:  2.00D  GRAD.:     0.214 HEAT:-10.48701
 CYCLE:    89 TIME:   0.013 TIME LEFT:  2.00D  GRAD.:     0.239 HEAT:-10.48719
 CYCLE:    90 TIME:   0.013 TIME LEFT:  2.00D  GRAD.:     0.199 HEAT:-10.48727
 CYCLE:    91 TIME:   0.015 TIME LEFT:  2.00D  GRAD.:     0.350 HEAT:-10.48751
 CYCLE:    92 TIME:   0.014 TIME LEFT:  2.00D  GRAD.:     0.250 HEAT:-10.48763
 CYCLE:    93 TIME:   0.014 TIME LEFT:  2.00D  GRAD.:     0.219 HEAT:-10.48794
 CYCLE:    94 TIME:   0.013 TIME LEFT:  2.00D  GRAD.:     0.237 HEAT:-10.48813
 CYCLE:    95 TIME:   0.013 TIME LEFT:  2.00D  GRAD.:     0.234 HEAT:-10.48836
 CYCLE:    96 TIME:   0.013 TIME LEFT:  2.00D  GRAD.:     0.238 HEAT:-10.48863
 CYCLE:    97 TIME:   0.013 TIME LEFT:  2.00D  GRAD.:     0.209 HEAT:-10.48876
 CYCLE:    98 TIME:   0.014 TIME LEFT:  2.00D  GRAD.:     0.229 HEAT:-10.48893
 CYCLE:    99 TIME:   0.013 TIME LEFT:  2.00D  GRAD.:     0.165 HEAT:-10.48902
 CYCLE:   100 TIME:   0.013 TIME LEFT:  2.00D  GRAD.:     0.124 HEAT:-10.48914
 CYCLE:   101 TIME:   0.013 TIME LEFT:  2.00D  GRAD.:     0.141 HEAT:-10.48926
 CYCLE:   102 TIME:   0.013 TIME LEFT:  2.00D  GRAD.:     0.146 HEAT:-10.48932
 CYCLE:   103 TIME:   0.014 TIME LEFT:  2.00D  GRAD.:     0.142 HEAT:-10.48941
 CYCLE:   104 TIME:   0.012 TIME LEFT:  2.00D  GRAD.:     0.120 HEAT:-10.48945
 CYCLE:   105 TIME:   0.013 TIME LEFT:  2.00D  GRAD.:     0.323 HEAT:-10.48938
 CYCLE:   106 TIME:   0.013 TIME LEFT:  2.00D  GRAD.:     0.126 HEAT:-10.48954
 CYCLE:   107 TIME:   0.013 TIME LEFT:  2.00D  GRAD.:     0.108 HEAT:-10.48956
 CYCLE:   108 TIME:   0.013 TIME LEFT:  2.00D  GRAD.:     0.150 HEAT:-10.48968
 CYCLE:   109 TIME:   0.013 TIME LEFT:  2.00D  GRAD.:     0.128 HEAT:-10.48973
 CYCLE:   110 TIME:   0.013 TIME LEFT:  2.00D  GRAD.:     0.130 HEAT:-10.48979
 CYCLE:   111 TIME:   0.013 TIME LEFT:  2.00D  GRAD.:     0.166 HEAT:-10.48989
 CYCLE:   112 TIME:   0.013 TIME LEFT:  2.00D  GRAD.:     0.184 HEAT:-10.48998
 CYCLE:   113 TIME:   0.014 TIME LEFT:  2.00D  GRAD.:     0.371 HEAT:-10.49019
 CYCLE:   114 TIME:   0.013 TIME LEFT:  2.00D  GRAD.:     0.270 HEAT:-10.49040
 CYCLE:   115 TIME:   0.014 TIME LEFT:  2.00D  GRAD.:     0.202 HEAT:-10.49075
 CYCLE:   116 TIME:   0.014 TIME LEFT:  2.00D  GRAD.:     0.219 HEAT:-10.49097
 CYCLE:   117 TIME:   0.014 TIME LEFT:  2.00D  GRAD.:     0.261 HEAT:-10.49127
 CYCLE:   118 TIME:   0.014 TIME LEFT:  2.00D  GRAD.:     0.278 HEAT:-10.49156
 CYCLE:   119 TIME:   0.014 TIME LEFT:  2.00D  GRAD.:     0.229 HEAT:-10.49182
 CYCLE:   120 TIME:   0.013 TIME LEFT:  2.00D  GRAD.:     0.176 HEAT:-10.49194
 CYCLE:   121 TIME:   0.014 TIME LEFT:  2.00D  GRAD.:     0.158 HEAT:-10.49204
 CYCLE:   122 TIME:   0.013 TIME LEFT:  2.00D  GRAD.:     0.172 HEAT:-10.49210
 CYCLE:   123 TIME:   0.013 TIME LEFT:  2.00D  GRAD.:     0.165 HEAT:-10.49216
 CYCLE:   124 TIME:   0.013 TIME LEFT:  2.00D  GRAD.:     0.172 HEAT:-10.49223
 CYCLE:   125 TIME:   0.012 TIME LEFT:  2.00D  GRAD.:     0.153 HEAT:-10.49229
 CYCLE:   126 TIME:   0.014 TIME LEFT:  2.00D  GRAD.:     0.197 HEAT:-10.49239
 CYCLE:   127 TIME:   0.013 TIME LEFT:  2.00D  GRAD.:     0.180 HEAT:-10.49246
 CYCLE:   128 TIME:   0.013 TIME LEFT:  2.00D  GRAD.:     0.179 HEAT:-10.49263
 CYCLE:   129 TIME:   0.013 TIME LEFT:  2.00D  GRAD.:     0.210 HEAT:-10.49276
 CYCLE:   130 TIME:   0.014 TIME LEFT:  2.00D  GRAD.:     0.264 HEAT:-10.49304
 CYCLE:   131 TIME:   0.014 TIME LEFT:  2.00D  GRAD.:     0.268 HEAT:-10.49323
 CYCLE:   132 TIME:   0.014 TIME LEFT:  2.00D  GRAD.:     0.303 HEAT:-10.49355
 CYCLE:   133 TIME:   0.013 TIME LEFT:  2.00D  GRAD.:     0.272 HEAT:-10.49370
 CYCLE:   134 TIME:   0.014 TIME LEFT:  2.00D  GRAD.:     0.226 HEAT:-10.49406
 CYCLE:   135 TIME:   0.013 TIME LEFT:  2.00D  GRAD.:     0.158 HEAT:-10.49414
 CYCLE:   136 TIME:   0.014 TIME LEFT:  2.00D  GRAD.:     0.114 HEAT:-10.49422
 CYCLE:   137 TIME:   0.013 TIME LEFT:  2.00D  GRAD.:     0.091 HEAT:-10.49424
 CYCLE:   138 TIME:   0.014 TIME LEFT:  2.00D  GRAD.:     0.121 HEAT:-10.49426
 CYCLE:   139 TIME:   0.013 TIME LEFT:  2.00D  GRAD.:     0.066 HEAT:-10.49429
 CYCLE:   140 TIME:   0.013 TIME LEFT:  2.00D  GRAD.:     0.055 HEAT:-10.49430
 CYCLE:   141 TIME:   0.013 TIME LEFT:  2.00D  GRAD.:     0.088 HEAT:-10.49432
 CYCLE:   142 TIME:   0.013 TIME LEFT:  2.00D  GRAD.:     0.070 HEAT:-10.49433
 CYCLE:   143 TIME:   0.013 TIME LEFT:  2.00D  GRAD.:     0.096 HEAT:-10.49437
 CYCLE:   144 TIME:   0.013 TIME LEFT:  2.00D  GRAD.:     0.104 HEAT:-10.49440
 CYCLE:   145 TIME:   0.014 TIME LEFT:  2.00D  GRAD.:     0.135 HEAT:-10.49449
 CYCLE:   146 TIME:   0.013 TIME LEFT:  2.00D  GRAD.:     0.151 HEAT:-10.49456
 CYCLE:   147 TIME:   0.014 TIME LEFT:  2.00D  GRAD.:     0.285 HEAT:-10.49477
 CYCLE:   148 TIME:   0.013 TIME LEFT:  2.00D  GRAD.:     0.257 HEAT:-10.49490
 CYCLE:   149 TIME:   0.014 TIME LEFT:  2.00D  GRAD.:     0.267 HEAT:-10.49532
 CYCLE:   150 TIME:   0.014 TIME LEFT:  2.00D  GRAD.:     0.257 HEAT:-10.49549
 CYCLE:   151 TIME:   0.013 TIME LEFT:  2.00D  GRAD.:     0.220 HEAT:-10.49570
 CYCLE:   152 TIME:   0.014 TIME LEFT:  2.00D  GRAD.:     0.202 HEAT:-10.49592
 CYCLE:   153 TIME:   0.014 TIME LEFT:  2.00D  GRAD.:     0.144 HEAT:-10.49611
 CYCLE:   154 TIME:   0.013 TIME LEFT:  2.00D  GRAD.:     0.088 HEAT:-10.49616
 CYCLE:   155 TIME:   0.013 TIME LEFT:  2.00D  GRAD.:     0.073 HEAT:-10.49619
 CYCLE:   156 TIME:   0.013 TIME LEFT:  2.00D  GRAD.:     0.058 HEAT:-10.49620
 CYCLE:   157 TIME:   0.013 TIME LEFT:  2.00D  GRAD.:     0.048 HEAT:-10.49621

     RMS GRADIENT =  0.04828  IS LESS THAN CUTOFF =  0.05000



 -------------------------------------------------------------------------------
pm3  precise nosym
 InChI=1S/C12H20/c1-3-5-7-12-9-6-8-11(4-2)10-12/h5-8,11-12H,3-4,9-10H2,1-2H3



     GEOMETRY OPTIMISED USING EIGENVECTOR FOLLOWING (EF).     
     SCF FIELD WAS ACHIEVED                                   


                              PM3 CALCULATION
                                                       MOPAC2012 (Version: 13.159M)
                                                       Fri Mar  7 16:08:55 2014
                                                       No. of days left =  93




          FINAL HEAT OF FORMATION =        -10.49621 KCAL/MOL =     -43.91612 KJ/MOL


          TOTAL ENERGY            =      -1730.79372 EV
          ELECTRONIC ENERGY       =     -10825.31196 EV  POINT GROUP:     C1  
          CORE-CORE REPULSION     =       9094.51823 EV
          COSMO AREA              =        236.59 SQUARE ANGSTROMS
          COSMO VOLUME            =        243.98 CUBIC ANGSTROMS

          GRADIENT NORM           =          0.04828
          IONIZATION POTENTIAL    =          9.633995 EV
          HOMO LUMO ENERGIES (EV) =         -9.634  1.054
          NO. OF FILLED LEVELS    =         34
          MOLECULAR WEIGHT        =        164.290

          MOLECULAR DIMENSIONS (Angstroms)

            Atom       Atom       Distance
            H    25    H    31     9.05013
            H    26    H    20     7.82503
            H    14    H    30     3.02172


          SCF CALCULATIONS        =        169
          COMPUTATION TIME        =          2.249 SECONDS




   ATOM   CHEMICAL          X               Y               Z
  NUMBER   SYMBOL      (ANGSTROMS)     (ANGSTROMS)     (ANGSTROMS)
 
     1       C          2.20863269  *  -0.26505509  *   0.07044528  *
     2       C         -0.24567065  *  -0.79704241  *  -0.02204390  *
     3       C          0.82531355  *   0.24850988  *  -0.33054250  *
     4       C          3.31415061  *   0.66711123  *  -0.43292560  *
     5       C          0.01625920  *  -2.07089057  *  -0.82836539  *
     6       C         -3.93417955  *   0.35741511  *   0.20659298  *
     7       C          3.36544080  *   1.96932528  *   0.33499892  *
     8       C         -4.38238541  *   1.39588844  *   1.21253188  *
     9       C         -1.59835502  *  -0.25367979  *  -0.35651148  *
    10       C          2.43459482  *  -1.65751833  *  -0.42571809  *
    11       C         -2.58220099  *  -0.16805397  *   0.53916887  *
    12       C          1.44814674  *  -2.46759900  *  -0.81178872  *
    13       H         -0.19216795  *  -1.04648989  *   1.06712635  *
    14       H          2.26429482  *  -0.31437414  *   1.18783610  *
    15       H          0.60005413  *   1.19142957  *   0.20560278  *
    16       H          0.80570726  *   0.50211635  *  -1.40977590  *
    17       H          3.17523907  *   0.86803120  *  -1.51384894  *
    18       H          4.29495996  *   0.15621763  *  -0.35006377  *
    19       H         -3.95791853  *   0.78477858  *  -0.81595353  *
    20       H         -4.64489368  *  -0.49345423  *   0.19222856  *
    21       H         -0.60572451  *  -2.89867745  *  -0.43505716  *
    22       H         -0.29420235  *  -1.93359670  *  -1.88481743  *
    23       H         -4.40786081  *   0.98961487  *   2.23243988  *
    24       H         -3.70939435  *   2.26296893  *   1.22410914  *
    25       H         -5.38963627  *   1.76434711  *   0.98013064  *
    26       H          4.18307516  *   2.60774865  *  -0.02368847  *
    27       H          2.43411594  *   2.54286998  *   0.23156475  *
    28       H          3.52660178  *   1.80189759  *   1.40845631  *
    29       H         -2.43604899  *  -0.49105770  *   1.57821921  *
    30       H         -1.73996435  *   0.07483109  *  -1.39461242  *
    31       H          1.66628349  *  -3.48523514  *  -1.15546495  *
    32       H          3.47547406  *  -2.00266960  *  -0.44079853  *

           Empirical Formula: C12 H20  =    32 atoms



      MOLECULAR POINT GROUP   :   C1  


                  EIGENVALUES  
 -41.73683 -37.22630 -34.76730 -31.59205 -28.64815 -27.57164 -23.36760 -23.03585
 -20.86147 -20.49239 -19.62986 -17.86654 -17.13203 -16.12629 -15.91524 -15.52629
 -15.00688 -14.86466 -14.46179 -14.10872 -14.08553 -13.58230 -13.44392 -13.10118
 -12.93808 -12.54944 -12.34464 -12.01842 -11.86399 -11.78733 -11.61381 -11.26382
  -9.84799  -9.63400   1.05434   1.16848   3.17647   3.40033   3.56103   3.62382
   3.71307   3.74044   3.78138   3.87546   3.91554   3.93655   3.99525   4.05468
   4.07969   4.15211   4.21411   4.33702   4.37257   4.48544   4.57286   4.62317
   4.68926   4.76553   4.83556   4.90008   4.92933   5.01073   5.09004   5.20378
   5.64916   5.83705   5.97531   6.00663


              NET ATOMIC CHARGES AND DIPOLE CONTRIBUTIONS

  ATOM NO.   TYPE          CHARGE      No. of ELECS.   s-Pop       p-Pop       
    1          C          -0.040519        4.0405     1.16558     2.87494
    2          C          -0.043282        4.0433     1.16596     2.87732
    3          C          -0.097331        4.0973     1.16524     2.93209
    4          C          -0.093878        4.0939     1.16126     2.93262
    5          C          -0.057049        4.0570     1.14882     2.90823
    6          C          -0.062479        4.0625     1.14592     2.91656
    7          C          -0.113159        4.1132     1.13913     2.97402
    8          C          -0.105851        4.1059     1.13764     2.96821
    9          C          -0.151718        4.1517     1.19916     2.95256
   10          C          -0.149878        4.1499     1.19787     2.95201
   11          C          -0.145203        4.1452     1.19775     2.94745
   12          C          -0.146406        4.1464     1.19391     2.95249
   13          H           0.068543        0.9315     0.93146
   14          H           0.069510        0.9305     0.93049
   15          H           0.056832        0.9432     0.94317
   16          H           0.057133        0.9429     0.94287
   17          H           0.052846        0.9472     0.94715
   18          H           0.049467        0.9505     0.95053
   19          H           0.051410        0.9486     0.94859
   20          H           0.053169        0.9468     0.94683
   21          H           0.055761        0.9442     0.94424
   22          H           0.058856        0.9411     0.94114
   23          H           0.037936        0.9621     0.96206
   24          H           0.040041        0.9600     0.95996
   25          H           0.036907        0.9631     0.96309
   26          H           0.037526        0.9625     0.96247
   27          H           0.040462        0.9595     0.95954
   28          H           0.038279        0.9617     0.96172
   29          H           0.102194        0.8978     0.89781
   30          H           0.103736        0.8963     0.89626
   31          H           0.096373        0.9036     0.90363
   32          H           0.099773        0.9002     0.90023
 DIPOLE           X         Y         Z       TOTAL
 POINT-CHG.    -0.217     0.174     0.065     0.285
 HYBRID         0.019    -0.037    -0.024     0.048
 SUM           -0.198     0.137     0.041     0.244


          ATOMIC ORBITAL ELECTRON POPULATIONS

    Atom      s        px        py        pz   
    1  C   1.16558   0.94759   0.92992   0.99743
    2  C   1.16596   0.92899   0.94969   0.99864
    3  C   1.16524   0.93942   0.97578   1.01689
    4  C   1.16126   0.97907   0.95803   0.99551
    5  C   1.14882   0.94348   0.96722   0.99753
    6  C   1.14592   0.95012   0.98021   0.98624
    7  C   1.13913   1.01004   0.96849   0.99549
    8  C   1.13764   1.00131   0.98308   0.98383
    9  C   1.19916   0.95363   1.00929   0.98964
   10  C   1.19787   0.98126   0.96105   1.00970
   11  C   1.19775   0.95691   1.00116   0.98938
   12  C   1.19391   0.95560   0.98580   1.01109
   13  H   0.93146
   14  H   0.93049
   15  H   0.94317
   16  H   0.94287
   17  H   0.94715
   18  H   0.95053
   19  H   0.94859
   20  H   0.94683
   21  H   0.94424
   22  H   0.94114
   23  H   0.96206
   24  H   0.95996
   25  H   0.96309
   26  H   0.96247
   27  H   0.95954
   28  H   0.96172
   29  H   0.89781
   30  H   0.89626
   31  H   0.90363
   32  H   0.90023
 *******************************************************************************
 ** Site#: 14399           For non-commercial use only        Version 13.159M **
 *******************************************************************************
 ** Cite this work as: MOPAC2012, James J. P. Stewart, Stewart Computational  **
 ** Chemistry, Version 13.159M web: HTTP://OpenMOPAC.net  Days remaining:  93 **
 *******************************************************************************
 **                                                                           **
 **                                MOPAC2012                                  **
 **                                                                           **
 *******************************************************************************

                            PM3 CALCULATION RESULTS


 *******************************************************************************
 *  CALCULATION DONE:                                Fri Mar  7 16:08:55 2014  *
 *  PM3      - The PM3 Hamiltonian to be used
 *  OLDGEO   - PREVIOUS GEOMETRY TO BE USED
 *  PRECISE  - CRITERIA TO BE INCREASED BY 100 TIMES
 *  NOSYM    - POINT-GROUP SYMMETRY SET TO C1
 *  T=       - A TIME OF 172800.0 SECONDS REQUESTED
 *  DUMP=N   - RESTART FILE WRITTEN EVERY  7200.000 SECONDS
 *  THERMO   - THERMODYNAMIC QUANTITIES TO BE CALCULATED
 *******************************************************************************
oldgeo thermo nosym precise  pm3

   ATOM   CHEMICAL          X               Y               Z
  NUMBER   SYMBOL      (ANGSTROMS)     (ANGSTROMS)     (ANGSTROMS)
 
     1       C          2.20863269  *  -0.26505509  *   0.07044528  *
     2       C         -0.24567065  *  -0.79704241  *  -0.02204390  *
     3       C          0.82531355  *   0.24850988  *  -0.33054250  *
     4       C          3.31415061  *   0.66711123  *  -0.43292560  *
     5       C          0.01625920  *  -2.07089057  *  -0.82836539  *
     6       C         -3.93417955  *   0.35741511  *   0.20659298  *
     7       C          3.36544080  *   1.96932528  *   0.33499892  *
     8       C         -4.38238541  *   1.39588844  *   1.21253188  *
     9       C         -1.59835502  *  -0.25367979  *  -0.35651148  *
    10       C          2.43459482  *  -1.65751833  *  -0.42571809  *
    11       C         -2.58220099  *  -0.16805397  *   0.53916887  *
    12       C          1.44814674  *  -2.46759900  *  -0.81178872  *
    13       H         -0.19216795  *  -1.04648989  *   1.06712635  *
    14       H          2.26429482  *  -0.31437414  *   1.18783610  *
    15       H          0.60005413  *   1.19142957  *   0.20560278  *
    16       H          0.80570726  *   0.50211635  *  -1.40977590  *
    17       H          3.17523907  *   0.86803120  *  -1.51384894  *
    18       H          4.29495996  *   0.15621763  *  -0.35006377  *
    19       H         -3.95791853  *   0.78477858  *  -0.81595353  *
    20       H         -4.64489368  *  -0.49345423  *   0.19222856  *
    21       H         -0.60572451  *  -2.89867745  *  -0.43505716  *
    22       H         -0.29420235  *  -1.93359670  *  -1.88481743  *
    23       H         -4.40786081  *   0.98961487  *   2.23243988  *
    24       H         -3.70939435  *   2.26296893  *   1.22410914  *
    25       H         -5.38963627  *   1.76434711  *   0.98013064  *
    26       H          4.18307516  *   2.60774865  *  -0.02368847  *
    27       H          2.43411594  *   2.54286998  *   0.23156475  *
    28       H          3.52660178  *   1.80189759  *   1.40845631  *
    29       H         -2.43604899  *  -0.49105770  *   1.57821921  *
    30       H         -1.73996435  *   0.07483109  *  -1.39461242  *
    31       H          1.66628349  *  -3.48523514  *  -1.15546495  *
    32       H          3.47547406  *  -2.00266960  *  -0.44079853  *
 


          CARTESIAN COORDINATES 

    NO.       ATOM         X         Y         Z

     1         C        2.2086   -0.2651    0.0704
     2         C       -0.2457   -0.7970   -0.0220
     3         C        0.8253    0.2485   -0.3305
     4         C        3.3142    0.6671   -0.4329
     5         C        0.0163   -2.0709   -0.8284
     6         C       -3.9342    0.3574    0.2066
     7         C        3.3654    1.9693    0.3350
     8         C       -4.3824    1.3959    1.2125
     9         C       -1.5984   -0.2537   -0.3565
    10         C        2.4346   -1.6575   -0.4257
    11         C       -2.5822   -0.1681    0.5392
    12         C        1.4481   -2.4676   -0.8118
    13         H       -0.1922   -1.0465    1.0671
    14         H        2.2643   -0.3144    1.1878
    15         H        0.6001    1.1914    0.2056
    16         H        0.8057    0.5021   -1.4098
    17         H        3.1752    0.8680   -1.5138
    18         H        4.2950    0.1562   -0.3501
    19         H       -3.9579    0.7848   -0.8160
    20         H       -4.6449   -0.4935    0.1922
    21         H       -0.6057   -2.8987   -0.4351
    22         H       -0.2942   -1.9336   -1.8848
    23         H       -4.4079    0.9896    2.2324
    24         H       -3.7094    2.2630    1.2241
    25         H       -5.3896    1.7643    0.9801
    26         H        4.1831    2.6077   -0.0237
    27         H        2.4341    2.5429    0.2316
    28         H        3.5266    1.8019    1.4085
    29         H       -2.4360   -0.4911    1.5782
    30         H       -1.7400    0.0748   -1.3946
    31         H        1.6663   -3.4852   -1.1555
    32         H        3.4755   -2.0027   -0.4408

  H: (PM3): J. J. P. STEWART, J. COMP. CHEM. 10, 209 (1989).
  C: (PM3): J. J. P. STEWART, J. COMP. CHEM. 10, 209 (1989).

           Empirical Formula: C12 H20  =    32 atoms



      MOLECULAR POINT GROUP   :   C1  


      RHF CALCULATION, NO. OF DOUBLY OCCUPIED LEVELS =   34



          HEAT OF FORMATION =     -10.496205 KCALS/MOLE


          INTERNAL COORDINATE DERIVATIVES

   NUMBER  ATOM       BOND         ANGLE      DIHEDRAL

     1       C      0.002040     0.003323    -0.001757
     2       C      0.005895     0.001511    -0.001784
     3       C      0.004571     0.001266    -0.000025
     4       C      0.002586     0.005212     0.000367
     5       C      0.004161    -0.001721     0.000026
     6       C      0.004209    -0.002245     0.002934
     7       C     -0.004250    -0.000226     0.000638
     8       C      0.005322    -0.001792     0.000010
     9       C      0.006364     0.000780    -0.002355
    10       C      0.006036     0.000761    -0.003170
    11       C      0.008388    -0.003830     0.001759
    12       C      0.004459     0.001375    -0.003195
    13       H     -0.000027    -0.000631     0.001335
    14       H     -0.000135     0.005982    -0.002809
    15       H      0.003334     0.003832     0.002607
    16       H      0.002868     0.000366     0.001183
    17       H      0.010328     0.008284    -0.007062
    18       H     -0.001617     0.002625     0.001077
    19       H     -0.001719     0.001567     0.002907
    20       H      0.003291    -0.005302     0.003078
    21       H     -0.003968    -0.005143     0.003037
    22       H     -0.009802    -0.006001     0.004369
    23       H      0.003374    -0.002425    -0.005457
    24       H     -0.020961    -0.003939     0.002259
    25       H     -0.008726     0.003688    -0.000126
    26       H     -0.018890    -0.007579     0.001360
    27       H     -0.016247     0.003318    -0.000607
    28       H      0.008625    -0.002384    -0.000473
    29       H      0.000900    -0.000092     0.001686
    30       H     -0.003626    -0.003345     0.000770
    31       H     -0.000724     0.001130    -0.001180
    32       H      0.003940     0.001633    -0.001402


          GRADIENT NORM =   0.04940


          TIME FOR SCF CALCULATION =    0.01

          TIME FOR DERIVATIVES     =    0.01

          MOLECULAR WEIGHT =  164.29



          ROTATIONAL CONSTANTS IN CM(-1)

          A =    0.04873872   B =    0.01393383   C =    0.01128501



           PRINCIPAL MOMENTS OF INERTIA IN UNITS OF 10**(-40)*GRAM-CM**2

          A =      574.3436   B =     2008.9794   C =     2480.5268


          ORIENTATION OF MOLECULE IN FORCE CALCULATION

    NO.       ATOM         X         Y         Z

     1          C      -2.0925   -0.4902    0.1644
     2          C       0.4205   -0.4902    0.1644
     3          C      -0.8355    0.3804    0.1644
     4          C      -3.3510    0.3521    0.3907
     5          C       0.4640   -1.3493    1.4299
     6          C       3.7700    1.1099   -0.9358
     7          C      -3.7051    1.1962   -0.8135
     8          C       3.9509    1.7102   -2.3135
     9          C       1.6388    0.3745    0.0957
    10          C      -2.0002   -1.5755    1.1890
    11          C       2.5486    0.2621   -0.8724
    12          C      -0.8511   -1.9673    1.7407
    13          H       0.3809   -1.1669   -0.7255
    14          H      -2.1776   -0.9996   -0.8293
    15          H      -0.8348    1.0467   -0.7207
    16          H      -0.8303    1.0508    1.0476
    17          H      -3.2181    0.9973    1.2818
    18          H      -4.2038   -0.3146    0.6320
    19          H       3.7404    1.9135   -0.1728
    20          H       4.6448    0.4808   -0.6744
    21          H       1.2322   -2.1397    1.3208
    22          H       0.7770   -0.7404    2.3032
    23          H       4.0242    0.9353   -3.0882
    24          H       3.1096    2.3617   -2.5832
    25          H       4.8652    2.3149   -2.3657
    26          H      -4.6255    1.7680   -0.6386
    27          H      -2.9131    1.9185   -1.0546
    28          H      -3.8665    0.5801   -1.7083
    29          H       2.4360   -0.4766   -1.6767
    30          H       1.7458    1.1170    0.8975
    31          H      -0.8360   -2.7776    2.4786
    32          H      -2.9431   -2.0645    1.4619


    FIRST DERIVATIVES WILL BE USED IN THE CALCULATION OF SECOND DERIVATIVES

          ESTIMATED TIME TO COMPLETE CALCULATION =        7.31 SECONDS

    FOR POINT-GROUP C1   THERE ARE   1 UNIQUE SYMMETRY FUNCTIONS.

 STEP:   1 TIME =     0.06 SECS, INTEGRAL =      0.06 TIME LEFT: 172799.92
 STEP:   2 TIME =     0.06 SECS, INTEGRAL =      0.12 TIME LEFT: 172799.86
 STEP:   3 TIME =     0.06 SECS, INTEGRAL =      0.18 TIME LEFT: 172799.80
 STEP:   4 TIME =     0.06 SECS, INTEGRAL =      0.24 TIME LEFT: 172799.74
 STEP:   5 TIME =     0.06 SECS, INTEGRAL =      0.30 TIME LEFT: 172799.68
 STEP:   6 TIME =     0.06 SECS, INTEGRAL =      0.36 TIME LEFT: 172799.62
 STEP:   7 TIME =     0.06 SECS, INTEGRAL =      0.41 TIME LEFT: 172799.57
 STEP:   8 TIME =     0.06 SECS, INTEGRAL =      0.47 TIME LEFT: 172799.51
 STEP:   9 TIME =     0.06 SECS, INTEGRAL =      0.53 TIME LEFT: 172799.45
 STEP:  10 TIME =     0.06 SECS, INTEGRAL =      0.59 TIME LEFT: 172799.39
 STEP:  11 TIME =     0.06 SECS, INTEGRAL =      0.65 TIME LEFT: 172799.33
 STEP:  12 TIME =     0.06 SECS, INTEGRAL =      0.71 TIME LEFT: 172799.28
 STEP:  13 TIME =     0.06 SECS, INTEGRAL =      0.77 TIME LEFT: 172799.22
 STEP:  14 TIME =     0.06 SECS, INTEGRAL =      0.82 TIME LEFT: 172799.16
 STEP:  15 TIME =     0.06 SECS, INTEGRAL =      0.88 TIME LEFT: 172799.10
 STEP:  16 TIME =     0.06 SECS, INTEGRAL =      0.94 TIME LEFT: 172799.04
 STEP:  17 TIME =     0.06 SECS, INTEGRAL =      1.00 TIME LEFT: 172798.98
 STEP:  18 TIME =     0.06 SECS, INTEGRAL =      1.06 TIME LEFT: 172798.92
 STEP:  19 TIME =     0.06 SECS, INTEGRAL =      1.12 TIME LEFT: 172798.86
 STEP:  20 TIME =     0.06 SECS, INTEGRAL =      1.18 TIME LEFT: 172798.80
 STEP:  21 TIME =     0.06 SECS, INTEGRAL =      1.24 TIME LEFT: 172798.74
 STEP:  22 TIME =     0.06 SECS, INTEGRAL =      1.29 TIME LEFT: 172798.69
 STEP:  23 TIME =     0.06 SECS, INTEGRAL =      1.36 TIME LEFT: 172798.62
 STEP:  24 TIME =     0.06 SECS, INTEGRAL =      1.41 TIME LEFT: 172798.57
 STEP:  25 TIME =     0.06 SECS, INTEGRAL =      1.47 TIME LEFT: 172798.51
 STEP:  26 TIME =     0.06 SECS, INTEGRAL =      1.53 TIME LEFT: 172798.45
 STEP:  27 TIME =     0.06 SECS, INTEGRAL =      1.59 TIME LEFT: 172798.39
 STEP:  28 TIME =     0.06 SECS, INTEGRAL =      1.65 TIME LEFT: 172798.33
 STEP:  29 TIME =     0.06 SECS, INTEGRAL =      1.71 TIME LEFT: 172798.27
 STEP:  30 TIME =     0.06 SECS, INTEGRAL =      1.77 TIME LEFT: 172798.21
 STEP:  31 TIME =     0.06 SECS, INTEGRAL =      1.83 TIME LEFT: 172798.15
 STEP:  32 TIME =     0.06 SECS, INTEGRAL =      1.89 TIME LEFT: 172798.09
 STEP:  33 TIME =     0.06 SECS, INTEGRAL =      1.95 TIME LEFT: 172798.03
 STEP:  34 TIME =     0.06 SECS, INTEGRAL =      2.01 TIME LEFT: 172797.97
 STEP:  35 TIME =     0.06 SECS, INTEGRAL =      2.07 TIME LEFT: 172797.91
 STEP:  36 TIME =     0.06 SECS, INTEGRAL =      2.13 TIME LEFT: 172797.85
 STEP:  37 TIME =     0.06 SECS, INTEGRAL =      2.19 TIME LEFT: 172797.79
 STEP:  38 TIME =     0.06 SECS, INTEGRAL =      2.25 TIME LEFT: 172797.73
 STEP:  39 TIME =     0.06 SECS, INTEGRAL =      2.31 TIME LEFT: 172797.67
 STEP:  40 TIME =     0.06 SECS, INTEGRAL =      2.37 TIME LEFT: 172797.61
 STEP:  41 TIME =     0.06 SECS, INTEGRAL =      2.43 TIME LEFT: 172797.55
 STEP:  42 TIME =     0.06 SECS, INTEGRAL =      2.49 TIME LEFT: 172797.49
 STEP:  43 TIME =     0.06 SECS, INTEGRAL =      2.55 TIME LEFT: 172797.43
 STEP:  44 TIME =     0.06 SECS, INTEGRAL =      2.61 TIME LEFT: 172797.37
 STEP:  45 TIME =     0.06 SECS, INTEGRAL =      2.67 TIME LEFT: 172797.31
 STEP:  46 TIME =     0.06 SECS, INTEGRAL =      2.73 TIME LEFT: 172797.25
 STEP:  47 TIME =     0.06 SECS, INTEGRAL =      2.79 TIME LEFT: 172797.19
 STEP:  48 TIME =     0.06 SECS, INTEGRAL =      2.85 TIME LEFT: 172797.13
 STEP:  49 TIME =     0.06 SECS, INTEGRAL =      2.91 TIME LEFT: 172797.07
 STEP:  50 TIME =     0.06 SECS, INTEGRAL =      2.97 TIME LEFT: 172797.01
 STEP:  51 TIME =     0.06 SECS, INTEGRAL =      3.03 TIME LEFT: 172796.95
 STEP:  52 TIME =     0.06 SECS, INTEGRAL =      3.09 TIME LEFT: 172796.89
 STEP:  53 TIME =     0.06 SECS, INTEGRAL =      3.15 TIME LEFT: 172796.83
 STEP:  54 TIME =     0.06 SECS, INTEGRAL =      3.21 TIME LEFT: 172796.77
 STEP:  55 TIME =     0.07 SECS, INTEGRAL =      3.28 TIME LEFT: 172796.70
 STEP:  56 TIME =     0.06 SECS, INTEGRAL =      3.34 TIME LEFT: 172796.64
 STEP:  57 TIME =     0.06 SECS, INTEGRAL =      3.40 TIME LEFT: 172796.58
 STEP:  58 TIME =     0.06 SECS, INTEGRAL =      3.45 TIME LEFT: 172796.53
 STEP:  59 TIME =     0.06 SECS, INTEGRAL =      3.51 TIME LEFT: 172796.47
 STEP:  60 TIME =     0.06 SECS, INTEGRAL =      3.57 TIME LEFT: 172796.41
 STEP:  61 TIME =     0.06 SECS, INTEGRAL =      3.63 TIME LEFT: 172796.35
 STEP:  62 TIME =     0.06 SECS, INTEGRAL =      3.69 TIME LEFT: 172796.29
 STEP:  63 TIME =     0.06 SECS, INTEGRAL =      3.75 TIME LEFT: 172796.23
 STEP:  64 TIME =     0.06 SECS, INTEGRAL =      3.81 TIME LEFT: 172796.17
 STEP:  65 TIME =     0.06 SECS, INTEGRAL =      3.87 TIME LEFT: 172796.11
 STEP:  66 TIME =     0.06 SECS, INTEGRAL =      3.93 TIME LEFT: 172796.05
 STEP:  67 TIME =     0.06 SECS, INTEGRAL =      3.99 TIME LEFT: 172795.99
 STEP:  68 TIME =     0.06 SECS, INTEGRAL =      4.05 TIME LEFT: 172795.93
 STEP:  69 TIME =     0.06 SECS, INTEGRAL =      4.11 TIME LEFT: 172795.88
 STEP:  70 TIME =     0.06 SECS, INTEGRAL =      4.16 TIME LEFT: 172795.82
 STEP:  71 TIME =     0.06 SECS, INTEGRAL =      4.22 TIME LEFT: 172795.76
 STEP:  72 TIME =     0.06 SECS, INTEGRAL =      4.28 TIME LEFT: 172795.70
 STEP:  73 TIME =     0.06 SECS, INTEGRAL =      4.35 TIME LEFT: 172795.63
 STEP:  74 TIME =     0.06 SECS, INTEGRAL =      4.41 TIME LEFT: 172795.58
 STEP:  75 TIME =     0.06 SECS, INTEGRAL =      4.47 TIME LEFT: 172795.51
 STEP:  76 TIME =     0.06 SECS, INTEGRAL =      4.52 TIME LEFT: 172795.46
 STEP:  77 TIME =     0.06 SECS, INTEGRAL =      4.58 TIME LEFT: 172795.40
 STEP:  78 TIME =     0.06 SECS, INTEGRAL =      4.64 TIME LEFT: 172795.34
 STEP:  79 TIME =     0.06 SECS, INTEGRAL =      4.70 TIME LEFT: 172795.28
 STEP:  80 TIME =     0.07 SECS, INTEGRAL =      4.77 TIME LEFT: 172795.21
 STEP:  81 TIME =     0.06 SECS, INTEGRAL =      4.83 TIME LEFT: 172795.15
 STEP:  82 TIME =     0.06 SECS, INTEGRAL =      4.89 TIME LEFT: 172795.09
 STEP:  83 TIME =     0.06 SECS, INTEGRAL =      4.95 TIME LEFT: 172795.03
 STEP:  84 TIME =     0.06 SECS, INTEGRAL =      5.01 TIME LEFT: 172794.97
 STEP:  85 TIME =     0.06 SECS, INTEGRAL =      5.07 TIME LEFT: 172794.91
 STEP:  86 TIME =     0.06 SECS, INTEGRAL =      5.13 TIME LEFT: 172794.85
 STEP:  87 TIME =     0.06 SECS, INTEGRAL =      5.19 TIME LEFT: 172794.79
 STEP:  88 TIME =     0.06 SECS, INTEGRAL =      5.25 TIME LEFT: 172794.73
 STEP:  89 TIME =     0.06 SECS, INTEGRAL =      5.31 TIME LEFT: 172794.67
 STEP:  90 TIME =     0.06 SECS, INTEGRAL =      5.37 TIME LEFT: 172794.61
 STEP:  91 TIME =     0.06 SECS, INTEGRAL =      5.43 TIME LEFT: 172794.55
 STEP:  92 TIME =     0.06 SECS, INTEGRAL =      5.49 TIME LEFT: 172794.49
 STEP:  93 TIME =     0.06 SECS, INTEGRAL =      5.55 TIME LEFT: 172794.43
 STEP:  94 TIME =     0.06 SECS, INTEGRAL =      5.61 TIME LEFT: 172794.37
 STEP:  95 TIME =     0.06 SECS, INTEGRAL =      5.67 TIME LEFT: 172794.31
 STEP:  96 TIME =     0.06 SECS, INTEGRAL =      5.74 TIME LEFT: 172794.25

(To convert to Hartree/Bohr^2, multiply by (10^(-21) x N x a0^2)/(4.184 x 627.51) = 0.0642)


           FORCE MATRIX IN MILLIDYNES/ANGSTROM


                  C  1       C  2       C  3       C  4       C  5       C  6
 ------------------------------------------------------------------------------
     C    1  14.603687
     C    2   0.646855  14.723199
     C    3   3.887057   3.897047  14.336188
     C    4   3.814839   0.050929   0.612490  14.291368
     C    5   0.098737   3.846495   0.663512   0.008415  14.687353
     C    6   0.003560   0.139370   0.018618   0.000954   0.020372  14.697530
     C    7   0.621370   0.003154   0.050113   4.448466   0.001511   0.000907
     C    8   0.000974   0.018455   0.003673   0.000657   0.001831   4.409058
     C    9   0.052801   4.709774   0.691954   0.011430   0.688238   0.822055
     C   10   4.688432   0.066163   0.681285   0.691958   0.831251   0.000873
     C   11   0.006206   0.802974   0.038846   0.001763   0.034786   4.963769
     C   12   0.803380   0.674955   0.070640   0.044133   5.013335   0.003936
     H   13   0.033295   4.184026   0.424777   0.001317   0.421738   0.001917
     H   14   4.130077   0.020308   0.428617   0.432867   0.013233   0.000192
     H   15   0.436894   0.441447   4.465044   0.016801   0.049793   0.000765
     H   16   0.449521   0.449458   4.434403   0.037351   0.022770   0.000592
     H   17   0.447737   0.002397   0.035199   4.454019   0.000744   0.000164
     H   18   0.440688   0.008170   0.045244   4.427929   0.001027   0.000108
     H   19   0.000110   0.002964   0.000514   0.000143   0.000864   4.441970
     H   20   0.000276   0.018294   0.001885   0.000155   0.003398   4.422492
     H   21   0.009546   0.434078   0.048225   0.000680   4.466836   0.000621
     H   22   0.014103   0.453243   0.011760   0.000852   4.391232   0.000950
     H   23   0.000217   0.000751   0.000307   0.000204   0.000251   0.463944
     H   24   0.000195   0.000718   0.000267   0.000202   0.000324   0.460845
     H   25   0.000209   0.003259   0.000785   0.000233   0.000283   0.449571
     H   26   0.050295   0.000307   0.002326   0.449147   0.000296   0.000177
     H   27   0.016545   0.000815   0.019695   0.463801   0.000604   0.000282
     H   28   0.024506   0.000326   0.002371   0.463068   0.000151   0.000156
     H   29   0.002066   0.082686   0.008886   0.000505   0.009276   0.429766
     H   30   0.001820   0.433016   0.022098   0.000872   0.020584   0.081788
     H   31   0.118907   0.042173   0.004469   0.013526   0.425176   0.000853
     H   32   0.430772   0.003839   0.040406   0.045880   0.121241   0.000376


                  C  7       C  8       C  9       C 10       C 11       C 12
 ------------------------------------------------------------------------------
     C    7  14.339428
     C    8   0.000538  14.348428
     C    9   0.000703   0.041616  18.221146
     C   10   0.052584   0.000751   0.005047  18.236446
     C   11   0.000869   0.717324  10.726130   0.002019  18.215479
     C   12   0.010300   0.000449   0.051543  10.705904   0.005982  18.220770
     H   13   0.000399   0.000766   0.441441   0.007107   0.058219   0.011855
     H   14   0.037742   0.000221   0.001054   0.384434   0.000577   0.029634
     H   15   0.017765   0.000395   0.028071   0.049140   0.002826   0.003891
     H   16   0.003251   0.000275   0.028694   0.010408   0.001688   0.006936
     H   17   0.437420   0.000156   0.001078   0.010785   0.000469   0.001694
     H   18   0.434943   0.000253   0.002128   0.066187   0.000466   0.002782
     H   19   0.000147   0.434498   0.050264   0.000289   0.459586   0.000399
     H   20   0.000192   0.446005   0.031735   0.000311   0.408559   0.000946
     H   21   0.000287   0.000232   0.013730   0.042562   0.002296   0.430653
     H   22   0.000421   0.000257   0.048645   0.030509   0.002235   0.411415
     H   23   0.000150   4.725472   0.001803   0.000356   0.027234   0.000334
     H   24   0.000336   4.745620   0.002569   0.000434   0.016194   0.000203
     H   25   0.000243   4.751105   0.007174   0.000517   0.052327   0.000349
     H   26   4.746338   0.000187   0.000137   0.008915   0.000462   0.002095
     H   27   4.703650   0.000222   0.000567   0.000839   0.000276   0.000847
     H   28   4.718915   0.000226   0.000401   0.001977   0.000278   0.000803
     H   29   0.000250   0.026168   0.468584   0.000671   4.758875   0.002029
     H   30   0.000295   0.007975   4.752770   0.001087   0.467941   0.001950
     H   31   0.002068   0.000187   0.008422   0.442947   0.000951   4.815258
     H   32   0.002497   0.000286   0.001481   4.788806   0.000407   0.441267


                  H 13       H 14       H 15       H 16       H 17       H 18
 ------------------------------------------------------------------------------
     H   13   4.661938
     H   14   0.018134   4.598292
     H   15   0.026661   0.033928   5.076318
     H   16   0.042536   0.042220   0.562448   5.056433
     H   17   0.000544   0.042347   0.001574   0.029891   5.072725
     H   18   0.000436   0.019886   0.001138   0.002137   0.572246   5.045298
     H   19   0.000553   0.000118   0.000187   0.000179   0.000114   0.000118
     H   20   0.000489   0.000108   0.000286   0.000145   0.000040   0.000055
     H   21   0.036166   0.001051   0.008129   0.002406   0.000290   0.000285
     H   22   0.040755   0.001946   0.001341   0.008046   0.000299   0.000295
     H   23   0.000205   0.000065   0.000097   0.000082   0.000071   0.000045
     H   24   0.000173   0.000046   0.000115   0.000063   0.000048   0.000063
     H   25   0.000180   0.000065   0.000088   0.000092   0.000061   0.000078
     H   26   0.000126   0.002395   0.000629   0.000288   0.029695   0.032553
     H   27   0.000198   0.002116   0.021626   0.001268   0.024487   0.048256
     H   28   0.000160   0.026196   0.000722   0.000455   0.047130   0.025180
     H   29   0.029528   0.000262   0.000571   0.000684   0.000155   0.000147
     H   30   0.036496   0.000690   0.002700   0.017058   0.000314   0.000221
     H   31   0.001039   0.015401   0.000968   0.000554   0.000436   0.000702
     H   32   0.000504   0.017014   0.006759   0.001431   0.002290   0.025759


                  H 19       H 20       H 21       H 22       H 23       H 24
 ------------------------------------------------------------------------------
     H   19   5.053254
     H   20   0.566037   5.021132
     H   21   0.000138   0.000250   5.062329
     H   22   0.000168   0.000249   0.566296   4.998652
     H   23   0.047161   0.023983   0.000073   0.000095   5.470522
     H   24   0.024440   0.048812   0.000094   0.000057   0.578227   5.484187
     H   25   0.030292   0.028510   0.000104   0.000113   0.573049   0.572779
     H   26   0.000067   0.000087   0.000055   0.000114   0.000072   0.000065
     H   27   0.000128   0.000068   0.000201   0.000108   0.000050   0.000065
     H   28   0.000075   0.000081   0.000103   0.000113   0.000085   0.000063
     H   29   0.038889   0.017774   0.000595   0.000782   0.019843   0.002627
     H   30   0.029962   0.009221   0.002013   0.022749   0.000595   0.000522
     H   31   0.000149   0.000258   0.035100   0.020279   0.000067   0.000116
     H   32   0.000083   0.000100   0.014097   0.016756   0.000076   0.000076


                  H 25       H 26       H 27       H 28       H 29       H 30
 ------------------------------------------------------------------------------
     H   25   5.488551
     H   26   0.000064   5.485506
     H   27   0.000081   0.574267   5.443345
     H   28   0.000046   0.573574   0.577187   5.463431
     H   29   0.002011   0.000079   0.000164   0.000133   5.138633
     H   30   0.001630   0.000188   0.000224   0.000086   0.101909   5.137552
     H   31   0.000101   0.000528   0.000202   0.000235   0.000465   0.000574
     H   32   0.000104   0.000532   0.000658   0.000733   0.000161   0.000580


                  H 31       H 32
 ------------------------------
     H   31   5.189342
     H   32   0.068932   5.167503


          HEAT OF FORMATION =     -10.496205 KCALS/MOLE

          ZERO POINT ENERGY     180.697 KCAL/MOL


           NORMAL COORDINATE ANALYSIS (Total motion = 1 Angstrom)


   Root No.       1         2         3         4         5         6         7         8

                 1 A       2 A       3 A       4 A       5 A       6 A       7 A       8 A   

                  35.4      62.9      81.5      94.8     102.5     129.3     183.1     188.6
  
           1   -0.0068    0.0022   -0.0045   -0.0093   -0.0006    0.0019    0.0037   -0.0021
           2    0.0001   -0.0112   -0.0100   -0.0125   -0.0007   -0.0013    0.0082   -0.0032
           3    0.0023   -0.0088   -0.0115    0.0094    0.0080    0.0007   -0.0001    0.0041
           4   -0.0067    0.0025   -0.0019   -0.0061   -0.0078   -0.0014    0.0010   -0.0060
           5    0.0144   -0.0049    0.0048   -0.0157    0.0189    0.0015   -0.0019    0.0055
           6   -0.0100    0.0122   -0.0065   -0.0203   -0.0013    0.0131    0.0025    0.0008
           7   -0.0116    0.0001   -0.0080   -0.0068   -0.0108   -0.0003    0.0052   -0.0065
           8    0.0073   -0.0085   -0.0043   -0.0170    0.0142    0.0029    0.0063    0.0035
           9    0.0018   -0.0019   -0.0284   -0.0206    0.0281    0.0116    0.0078    0.0128
          10   -0.0107    0.0001   -0.0056   -0.0039   -0.0164   -0.0034   -0.0025   -0.0022
          11   -0.0088   -0.0141   -0.0157   -0.0018   -0.0198   -0.0084   -0.0006   -0.0032
          12    0.0141   -0.0107    0.0055   -0.0009   -0.0149   -0.0035   -0.0011   -0.0006
          13    0.0040   -0.0052   -0.0014    0.0039    0.0085   -0.0056   -0.0015   -0.0002
          14    0.0053    0.0041    0.0310   -0.0122   -0.0024    0.0105    0.0024    0.0111
          15   -0.0165    0.0182    0.0113   -0.0177   -0.0162    0.0198    0.0058    0.0046
          16    0.0017   -0.0166    0.0140   -0.0070    0.0081   -0.0018    0.0008   -0.0019
          17    0.0116    0.0221   -0.0212    0.0098   -0.0180   -0.0181   -0.0062   -0.0089
          18    0.0117   -0.0054    0.0036    0.0088   -0.0025   -0.0156   -0.0032   -0.0016
          19   -0.0256    0.0338   -0.0072    0.0196    0.0161   -0.0011   -0.0140    0.0173
          20   -0.0081    0.0317    0.0122    0.0105    0.0035   -0.0067   -0.0023    0.0014
          21    0.0190    0.0116    0.0259    0.0008   -0.0084   -0.0029    0.0012   -0.0035
          22    0.0498   -0.0032   -0.0016    0.0202   -0.0068    0.0376    0.0035    0.0030
          23   -0.0390   -0.0167    0.0064    0.0155   -0.0047    0.0131    0.0074    0.0052
          24   -0.0039   -0.0206    0.0137    0.0152    0.0013    0.0038    0.0034    0.0056
          25   -0.0100   -0.0016   -0.0041   -0.0105   -0.0065    0.0047    0.0076   -0.0060
          26    0.0194    0.0007    0.0073   -0.0089    0.0164   -0.0081   -0.0128    0.0031
          27   -0.0073    0.0113   -0.0141   -0.0189   -0.0044    0.0033   -0.0051   -0.0113
          28    0.0041   -0.0010    0.0059   -0.0044    0.0045   -0.0009   -0.0001    0.0019
          29   -0.0058   -0.0128   -0.0079    0.0127    0.0016   -0.0061    0.0045   -0.0084
          30   -0.0049   -0.0100   -0.0099    0.0352    0.0102   -0.0038   -0.0032   -0.0017
          31    0.0000   -0.0091    0.0099   -0.0046    0.0000   -0.0322    0.0015   -0.0050
          32    0.0134    0.0120   -0.0155    0.0039   -0.0054    0.0239   -0.0088   -0.0055
          33    0.0028    0.0030    0.0017   -0.0148    0.0041   -0.0357   -0.0116   -0.0095
          34    0.0088   -0.0045    0.0063    0.0019    0.0102   -0.0038   -0.0028    0.0043
          35   -0.0031   -0.0057    0.0108    0.0126    0.0009   -0.0008    0.0027   -0.0030
          36   -0.0131    0.0027    0.0021    0.0216   -0.0015    0.0060    0.0010   -0.0020
          37   -0.0070    0.0102    0.0064   -0.0043   -0.0188   -0.0062   -0.0075   -0.0131
          38    0.0210   -0.0116   -0.0130   -0.0165    0.0330   -0.0052   -0.0040    0.0028
          39   -0.0150    0.0169    0.0067   -0.0194   -0.0119    0.0183    0.0046    0.0032
          40   -0.0087    0.0067   -0.0145   -0.0193    0.0219    0.0101    0.0096    0.0026
          41    0.0059   -0.0084   -0.0110   -0.0357   -0.0020    0.0030    0.0113    0.0017
          42   -0.0005   -0.0105   -0.0099    0.0222    0.0065   -0.0022   -0.0024    0.0012
          43   -0.0198    0.0060   -0.0100   -0.0157   -0.0191    0.0029    0.0085   -0.0105
          44    0.0130   -0.0122   -0.0238   -0.0322    0.0384    0.0073    0.0123    0.0151
          45    0.0061   -0.0048   -0.0431   -0.0323    0.0463    0.0150    0.0128    0.0213
          46   -0.0112   -0.0091   -0.0133    0.0032   -0.0144   -0.0047    0.0068   -0.0073
          47    0.0017   -0.0045    0.0156   -0.0016   -0.0106   -0.0017   -0.0005   -0.0077
          48    0.0060   -0.0048   -0.0434   -0.0323    0.0467    0.0150    0.0127    0.0214
          49   -0.0081   -0.0190   -0.0065   -0.0085   -0.0528   -0.0115   -0.0099   -0.0055
          50   -0.0101   -0.0469   -0.0362   -0.0094   -0.0383   -0.0106   -0.0009   -0.0059
          51    0.0147    0.0159    0.0205    0.0052    0.0037   -0.0008    0.0001    0.0019
          52   -0.0045   -0.0079   -0.0047   -0.0126   -0.0168   -0.0013    0.0042   -0.0076
          53   -0.0149   -0.0200   -0.0226    0.0040   -0.0351   -0.0135   -0.0102    0.0012
          54    0.0190   -0.0560   -0.0100   -0.0162   -0.0587   -0.0104   -0.0031   -0.0091
          55   -0.0240   -0.0350    0.0289   -0.0247    0.0278    0.0270   -0.0061   -0.0025
          56    0.0394    0.0439   -0.0366    0.0075   -0.0264   -0.0374   -0.0121   -0.0158
          57   -0.0185   -0.0291    0.0205    0.0106    0.0071    0.0060    0.0030    0.0059
          58   -0.0073   -0.0140    0.0138   -0.0099    0.0052   -0.0294    0.0032   -0.0034
          59    0.0208    0.0381   -0.0315    0.0121   -0.0304   -0.0616   -0.0032   -0.0123
          60    0.0645    0.0248   -0.0208    0.0246   -0.0225   -0.0268   -0.0046   -0.0050
          61    0.0070    0.0036    0.0169   -0.0139    0.0008    0.0042   -0.0004    0.0105
          62    0.0095    0.0106    0.0451   -0.0276   -0.0063    0.0181    0.0028    0.0206
          63   -0.0266    0.0336    0.0381   -0.0326   -0.0431    0.0345    0.0115    0.0123
          64    0.0063   -0.0229   -0.0271    0.0367    0.0290   -0.0232   -0.0057   -0.0132
          65    0.0004    0.0127    0.0550   -0.0151   -0.0187    0.0196    0.0058    0.0192
          66   -0.0139    0.0185    0.0038   -0.0272   -0.0123    0.0198    0.0049    0.0036
          67    0.0778    0.0163   -0.0202    0.0415   -0.0312   -0.0046    0.1378    0.0965
          68   -0.0672   -0.0386    0.0220    0.0187    0.0031    0.0330    0.0114    0.0106
          69    0.0270    0.0032   -0.0037    0.0140   -0.0088   -0.0200    0.0124    0.0092
          70    0.0587   -0.0061   -0.0001    0.0229   -0.0023    0.0771   -0.0595   -0.0393
          71   -0.0496   -0.0335    0.0193    0.0122    0.0102    0.0709   -0.0943   -0.0633
          72   -0.0574   -0.0520    0.0403   -0.0011    0.0233    0.0207   -0.0461   -0.0277
          73    0.0511   -0.0088    0.0029    0.0183    0.0008    0.0733   -0.0656   -0.0440
          74   -0.0401   -0.0085   -0.0004    0.0204   -0.0170   -0.0388    0.1159    0.0794
          75    0.0061   -0.0253    0.0127    0.0379   -0.0075    0.0264    0.0498    0.0418
          76   -0.0267    0.0266   -0.0120    0.0169   -0.0007   -0.0057   -0.0712    0.0860
          77   -0.0127    0.0218    0.0010    0.0096   -0.0168   -0.0129   -0.0846    0.1011
          78    0.0285    0.0062    0.0372   -0.0109   -0.0307   -0.0066   -0.0303    0.0315
          79   -0.0311    0.0385   -0.0117    0.0247    0.0130   -0.0040   -0.0640    0.0793
          80   -0.0040    0.0440    0.0243    0.0125    0.0234   -0.0011    0.0710   -0.0874
          81    0.0133    0.0638    0.0475    0.0231    0.0407    0.0044    0.0580   -0.0673
          82   -0.0309    0.0630    0.0009    0.0363    0.0624    0.0081    0.0821   -0.0953
          83   -0.0070    0.0660    0.0338    0.0196    0.0227   -0.0047    0.0060   -0.0069
          84    0.0192   -0.0172    0.0096   -0.0084   -0.0299   -0.0059   -0.0219    0.0226
          85    0.0091   -0.0107    0.0200    0.0057   -0.0008   -0.0784   -0.0022   -0.0034
          86    0.0070    0.0140   -0.0313    0.0110   -0.0169    0.0718    0.0006   -0.0070
          87    0.0074    0.0013    0.0149   -0.0225    0.0146   -0.0731   -0.0192   -0.0079
          88   -0.0195   -0.0004   -0.0148   -0.0164   -0.0093    0.0471    0.0190   -0.0036
          89    0.0258   -0.0031    0.0255   -0.0121    0.0273   -0.0489   -0.0189    0.0089
          90   -0.0120    0.0147   -0.0294   -0.0147   -0.0144    0.0354   -0.0006   -0.0168
          91    0.0168   -0.0075    0.0120    0.0067    0.0170   -0.0052   -0.0062    0.0098
          92   -0.0070   -0.0064    0.0132    0.0296    0.0021   -0.0036    0.0014   -0.0077
          93   -0.0176    0.0020    0.0045    0.0404   -0.0004    0.0030   -0.0004   -0.0073
          94    0.0079   -0.0008    0.0110   -0.0050    0.0063   -0.0005   -0.0012    0.0046
          95   -0.0121   -0.0195   -0.0223    0.0311    0.0045   -0.0136    0.0036   -0.0165
          96   -0.0029   -0.0213   -0.0178    0.0659    0.0211   -0.0157   -0.0086   -0.0073


   Root No.       9        10        11        12        13        14        15        16

                 9 A      10 A      11 A      12 A      13 A      14 A      15 A      16 A   

                 224.1     245.2     307.7     328.0     363.9     400.3     444.6     470.0
  
           1   -0.0055   -0.0047   -0.0196   -0.0012   -0.0033    0.0121    0.0271    0.0126
           2    0.0015   -0.0069   -0.0052   -0.0170   -0.0052    0.0147    0.0044   -0.0270
           3    0.0179    0.0037    0.0198   -0.0178    0.0017    0.0007   -0.0038   -0.0077
           4   -0.0082    0.0002    0.0064    0.0013    0.0098    0.0001    0.0042   -0.0093
           5   -0.0009    0.0111    0.0031   -0.0002   -0.0127    0.0093   -0.0129    0.0262
           6   -0.0035   -0.0005    0.0018    0.0033    0.0187    0.0201   -0.0142   -0.0040
           7   -0.0058   -0.0069   -0.0090   -0.0042    0.0034    0.0077    0.0213   -0.0117
           8   -0.0005   -0.0043   -0.0113   -0.0140   -0.0210    0.0193    0.0046    0.0106
           9    0.0058   -0.0262    0.0020    0.0151    0.0050   -0.0179    0.0033    0.0008
          10    0.0097    0.0070   -0.0226    0.0201    0.0005   -0.0006    0.0225    0.0344
          11    0.0227    0.0087   -0.0034    0.0074    0.0149   -0.0124   -0.0163   -0.0019
          12    0.0169    0.0091    0.0056    0.0085   -0.0252    0.0095   -0.0046   -0.0166
          13   -0.0040    0.0021   -0.0248   -0.0057    0.0184   -0.0061   -0.0215   -0.0177
          14    0.0152   -0.0023   -0.0005   -0.0098   -0.0146   -0.0165   -0.0001    0.0127
          15    0.0071   -0.0107    0.0031   -0.0007    0.0170    0.0035   -0.0006   -0.0148
          16   -0.0102    0.0097    0.0401    0.0081   -0.0044   -0.0184    0.0097   -0.0138
          17    0.0031   -0.0189    0.0116   -0.0036   -0.0069   -0.0050   -0.0007   -0.0018
          18    0.0035   -0.0004   -0.0227   -0.0101   -0.0106   -0.0154    0.0107   -0.0086
          19    0.0265    0.0134    0.0014    0.0084   -0.0280    0.0112    0.0033   -0.0045
          20   -0.0091   -0.0051   -0.0029   -0.0035    0.0281   -0.0150   -0.0103    0.0077
          21   -0.0120   -0.0029   -0.0013    0.0052   -0.0120    0.0079    0.0114    0.0021
          22    0.0024   -0.0093    0.0210    0.0092    0.0097    0.0130   -0.0083    0.0053
          23    0.0021   -0.0117    0.0189    0.0069    0.0069    0.0126   -0.0099    0.0071
          24    0.0052    0.0001   -0.0261   -0.0062   -0.0027   -0.0035    0.0056   -0.0025
          25   -0.0146   -0.0039    0.0210   -0.0128   -0.0169   -0.0050   -0.0173    0.0125
          26    0.0044    0.0212    0.0011    0.0236    0.0243    0.0129    0.0161   -0.0051
          27   -0.0199    0.0260    0.0026   -0.0083   -0.0048    0.0045   -0.0200    0.0165
          28    0.0003    0.0021   -0.0307   -0.0114    0.0086   -0.0009   -0.0141   -0.0073
          29   -0.0139   -0.0029   -0.0047   -0.0187    0.0030    0.0123    0.0202   -0.0075
          30   -0.0001    0.0060    0.0190   -0.0199    0.0150   -0.0045    0.0153    0.0212
          31   -0.0017   -0.0189    0.0369    0.0004   -0.0086   -0.0066   -0.0055    0.0008
          32   -0.0103    0.0270    0.0095    0.0072    0.0012   -0.0195    0.0219   -0.0205
          33   -0.0059    0.0119    0.0120    0.0046    0.0048    0.0050   -0.0073    0.0058
          34    0.0061    0.0067   -0.0228   -0.0180    0.0135   -0.0109   -0.0185   -0.0008
          35   -0.0196   -0.0084   -0.0179    0.0216   -0.0209   -0.0078   -0.0141   -0.0130
          36   -0.0150   -0.0082   -0.0082    0.0224   -0.0068   -0.0018   -0.0048    0.0020
          37   -0.0136    0.0208    0.0154    0.0064    0.0206    0.0035    0.0074   -0.0103
          38   -0.0096    0.0158    0.0051    0.0043   -0.0218    0.0085   -0.0168    0.0405
          39    0.0038   -0.0057    0.0005   -0.0004    0.0249    0.0190   -0.0104   -0.0156
          40   -0.0155   -0.0207   -0.0217   -0.0036   -0.0040    0.0140    0.0458    0.0266
          41    0.0036   -0.0177   -0.0143    0.0023   -0.0188    0.0131   -0.0045   -0.0450
          42    0.0169    0.0104    0.0243   -0.0264    0.0092    0.0004   -0.0008    0.0015
          43   -0.0143   -0.0122   -0.0205   -0.0029    0.0138    0.0196    0.0207   -0.0316
          44   -0.0014   -0.0352   -0.0210    0.0156   -0.0265   -0.0229    0.0235    0.0205
          45    0.0049   -0.0501   -0.0052    0.0376    0.0008   -0.0508    0.0177    0.0084
          46    0.0034   -0.0098   -0.0055   -0.0139   -0.0018    0.0009    0.0332   -0.0265
          47    0.0012    0.0275   -0.0016   -0.0429   -0.0157    0.0622   -0.0135    0.0015
          48    0.0049   -0.0504   -0.0056    0.0381    0.0013   -0.0515    0.0178    0.0082
          49    0.0257    0.0223   -0.0362    0.0590    0.0052   -0.0205    0.0131    0.0716
          50    0.0470    0.0199   -0.0053    0.0186    0.0180   -0.0216   -0.0281    0.0051
          51   -0.0032   -0.0012    0.0086   -0.0048   -0.0277    0.0187    0.0056   -0.0256
          52    0.0012    0.0009   -0.0275    0.0128   -0.0006    0.0067    0.0313    0.0277
          53    0.0437    0.0230   -0.0029    0.0304    0.0182   -0.0290   -0.0328    0.0185
          54    0.0421    0.0259   -0.0101    0.0445   -0.0199   -0.0087   -0.0147    0.0159
          55   -0.0273    0.0583    0.0613    0.0278    0.0107   -0.0302    0.0323   -0.0369
          56    0.0057   -0.0295    0.0096   -0.0095   -0.0129   -0.0049   -0.0065    0.0037
          57    0.0004    0.0121   -0.0205   -0.0034   -0.0037   -0.0150    0.0168   -0.0144
          58   -0.0071   -0.0073    0.0456    0.0023   -0.0116   -0.0155   -0.0020   -0.0038
          59    0.0129   -0.0559    0.0088   -0.0182   -0.0215    0.0017   -0.0219    0.0178
          60    0.0168   -0.0324   -0.0471   -0.0249   -0.0199   -0.0076   -0.0011    0.0050
          61    0.0256    0.0037   -0.0130   -0.0409    0.0293   -0.0222   -0.0002   -0.0010
          62    0.0406    0.0008    0.0084   -0.0412   -0.0047   -0.0287    0.0162    0.0299
          63    0.0341   -0.0234    0.0250   -0.0242    0.0233   -0.0266    0.0420   -0.0196
          64   -0.0447    0.0044   -0.0542    0.0404    0.0013    0.0156   -0.0658   -0.0332
          65    0.0377   -0.0128    0.0065   -0.0281   -0.0145   -0.0461    0.0284    0.0137
          66    0.0061   -0.0041    0.0089   -0.0053    0.0228    0.0153   -0.0040   -0.0093
          67   -0.0161    0.0298    0.0252    0.0199    0.0237    0.0290   -0.0155    0.0136
          68    0.0024   -0.0097    0.0230    0.0132    0.0161    0.0261   -0.0180    0.0154
          69    0.0032    0.0017   -0.0297   -0.0114   -0.0102   -0.0149    0.0126   -0.0096
          70    0.0177   -0.0385    0.0114    0.0058    0.0125    0.0270   -0.0191    0.0164
          71    0.0226   -0.0512    0.0097    0.0024    0.0081    0.0253   -0.0205    0.0178
          72    0.0074   -0.0047   -0.0177   -0.0063   -0.0078   -0.0155    0.0128   -0.0106
          73    0.0166   -0.0370    0.0132    0.0048    0.0091    0.0199   -0.0145    0.0115
          74   -0.0192    0.0302    0.0308    0.0147    0.0102    0.0065   -0.0034    0.0007
          75    0.0065    0.0035   -0.0313    0.0035    0.0185    0.0337   -0.0165    0.0211
          76   -0.0039    0.0041    0.0068   -0.0030   -0.0301    0.0152    0.0029   -0.0106
          77   -0.0431   -0.0146    0.0101   -0.0203    0.0164   -0.0062   -0.0177   -0.0138
          78   -0.0629   -0.0219   -0.0160    0.0000    0.0202   -0.0019    0.0344    0.0442
          79    0.0083    0.0084    0.0146   -0.0047   -0.0430    0.0203   -0.0051   -0.0286
          80    0.0188    0.0025   -0.0146    0.0106    0.0410   -0.0240   -0.0035    0.0292
          81    0.0113    0.0026    0.0066    0.0045   -0.0204    0.0104    0.0049   -0.0112
          82    0.0910    0.0343    0.0054    0.0226   -0.0447    0.0127   -0.0089   -0.0222
          83   -0.0296   -0.0147   -0.0042   -0.0102    0.0408   -0.0185   -0.0033    0.0201
          84   -0.0098   -0.0002   -0.0012    0.0071   -0.0172    0.0097    0.0089   -0.0026
          85    0.0196   -0.0555    0.0435    0.0120    0.0060    0.0067    0.0040   -0.0092
          86   -0.0286    0.0476   -0.0009   -0.0180   -0.0337   -0.0567    0.0196   -0.0220
          87    0.0084   -0.0029    0.0200    0.0259    0.0348    0.0379   -0.0071    0.0091
          88   -0.0284    0.0071    0.0119   -0.0363   -0.0460   -0.0170   -0.0411    0.0334
          89    0.0265   -0.0031    0.0047    0.0506    0.0630    0.0476    0.0290   -0.0156
          90   -0.0381    0.0460    0.0003   -0.0306   -0.0372   -0.0264   -0.0287    0.0232
          91    0.0179    0.0136   -0.0128   -0.0275    0.0101   -0.0242   -0.0206    0.0209
          92   -0.0426   -0.0140   -0.0346    0.0579   -0.0407   -0.0145   -0.0232   -0.0091
          93   -0.0408   -0.0144   -0.0266    0.0628   -0.0281   -0.0091   -0.0153    0.0056
          94    0.0037    0.0033   -0.0324   -0.0105    0.0088   -0.0091   -0.0313   -0.0136
          95   -0.0261   -0.0001    0.0031   -0.0305    0.0132    0.0230    0.0629    0.0199
          96   -0.0111    0.0152    0.0270   -0.0379    0.0337   -0.0122    0.0329    0.0474


   Root No.      17        18        19        20        21        22        23        24

                17 A      18 A      19 A      20 A      21 A      22 A      23 A      24 A   

                 514.5     541.2     591.4     719.8     776.7     816.5     826.6     888.8
  
           1   -0.0055    0.0173    0.0087    0.0037    0.0021    0.0010    0.0005    0.0065
           2    0.0047    0.0141    0.0078   -0.0033   -0.0015    0.0028   -0.0005   -0.0013
           3   -0.0144    0.0214    0.0375    0.0152    0.0128    0.0026    0.0033   -0.0012
           4    0.0008   -0.0296    0.0329   -0.0098   -0.0029   -0.0068    0.0016   -0.0005
           5   -0.0217   -0.0189    0.0000   -0.0073   -0.0032   -0.0030   -0.0061   -0.0014
           6   -0.0230   -0.0209   -0.0234    0.0069    0.0115   -0.0005   -0.0024   -0.0003
           7    0.0044    0.0025    0.0288   -0.0017    0.0022   -0.0048    0.0084    0.0195
           8   -0.0141    0.0253   -0.0146   -0.0023    0.0072   -0.0058    0.0105    0.0045
           9    0.0054   -0.0058    0.0019    0.0091    0.0169    0.0015    0.0061   -0.0167
          10   -0.0061    0.0062   -0.0056    0.0213    0.0054    0.0109   -0.0179   -0.0087
          11   -0.0034    0.0041    0.0032   -0.0081    0.0007    0.0067   -0.0197    0.0020
          12    0.0088   -0.0090   -0.0038   -0.0103   -0.0012    0.0021   -0.0096    0.0046
          13    0.0068   -0.0125   -0.0102    0.0173    0.0146    0.0039    0.0031   -0.0113
          14    0.0109   -0.0018    0.0121    0.0158   -0.0063   -0.0027   -0.0037    0.0343
          15   -0.0086   -0.0035   -0.0203    0.0077   -0.0087    0.0026   -0.0015    0.0161
          16   -0.0148    0.0092   -0.0201    0.0014   -0.0009    0.0199    0.0066    0.0006
          17   -0.0060    0.0031   -0.0086    0.0032    0.0039   -0.0200   -0.0082   -0.0020
          18   -0.0162   -0.0084   -0.0021    0.0003    0.0015   -0.0066   -0.0029   -0.0007
          19    0.0063   -0.0064   -0.0080    0.0047    0.0005    0.0035   -0.0057   -0.0069
          20   -0.0086    0.0088    0.0061   -0.0048    0.0009    0.0003   -0.0043    0.0039
          21    0.0054   -0.0077   -0.0062    0.0038   -0.0013    0.0009   -0.0018   -0.0022
          22    0.0100    0.0086   -0.0040    0.0016    0.0002    0.0061    0.0022    0.0007
          23    0.0095    0.0071   -0.0032    0.0016    0.0008   -0.0016   -0.0014   -0.0012
          24   -0.0089   -0.0127    0.0078   -0.0036   -0.0008   -0.0053   -0.0015   -0.0014
          25   -0.0088   -0.0256    0.0163   -0.0129   -0.0051   -0.0114   -0.0038   -0.0058
          26   -0.0064   -0.0198    0.0245   -0.0169   -0.0093    0.0102    0.0033   -0.0057
          27    0.0285    0.0049    0.0126   -0.0022   -0.0021   -0.0006    0.0006   -0.0015
          28    0.0030    0.0218   -0.0202   -0.0307   -0.0161   -0.0009   -0.0035   -0.0057
          29    0.0217   -0.0209   -0.0285    0.0037   -0.0252    0.0003   -0.0002   -0.0277
          30   -0.0025   -0.0047    0.0022    0.0098   -0.0140   -0.0030    0.0016   -0.0037
          31   -0.0083    0.0011   -0.0087   -0.0005   -0.0010   -0.0003   -0.0013   -0.0012
          32   -0.0058    0.0117   -0.0088    0.0034    0.0026   -0.0028    0.0014    0.0032
          33    0.0304    0.0271   -0.0048    0.0092    0.0020    0.0065    0.0025    0.0044
          34    0.0073    0.0059   -0.0084   -0.0020    0.0037   -0.0004   -0.0007    0.0038
          35    0.0152   -0.0152    0.0122    0.0387    0.0080    0.0015    0.0036   -0.0105
          36   -0.0168    0.0338    0.0052   -0.0295   -0.0300   -0.0032   -0.0018   -0.0083
          37    0.0109   -0.0481    0.0643   -0.0318   -0.0289   -0.0067   -0.0047    0.0065
          38   -0.0166   -0.0169    0.0135   -0.0248    0.0008   -0.0075   -0.0036   -0.0508
          39   -0.0258   -0.0204   -0.0347    0.0205    0.0090    0.0030   -0.0038    0.0363
          40   -0.0115    0.0265    0.0133    0.0269    0.0208   -0.0065    0.0338    0.0019
          41    0.0093    0.0188    0.0132   -0.0249    0.0292    0.0058   -0.0006    0.0201
          42   -0.0157    0.0168    0.0331    0.0231   -0.0049    0.0010    0.0012   -0.0106
          43    0.0110   -0.0068    0.0006   -0.0085    0.0037   -0.0071    0.0135    0.0307
          44    0.0343    0.0094   -0.0252   -0.0394   -0.0662   -0.0113   -0.0124    0.0573
          45    0.0432   -0.0186   -0.0064   -0.0197   -0.0407   -0.0029   -0.0121    0.0244
          46    0.0151    0.0308    0.0658    0.0055    0.0046   -0.0045    0.0265    0.0395
          47   -0.0637    0.0433   -0.0038    0.0336    0.0831   -0.0011    0.0359   -0.0477
          48    0.0445   -0.0201   -0.0066   -0.0191   -0.0431   -0.0021   -0.0141    0.0244
          49   -0.0037   -0.0204   -0.0506    0.0186   -0.0086   -0.0319    0.0807   -0.0102
          50   -0.0082    0.0052   -0.0005   -0.0122   -0.0021   -0.0251    0.0636    0.0071
          51    0.0116   -0.0062    0.0043   -0.0061    0.0028    0.0298   -0.0801    0.0005
          52   -0.0046    0.0137    0.0004    0.0216    0.0032    0.0126   -0.0180   -0.0053
          53   -0.0058   -0.0118   -0.0188   -0.0117   -0.0027   -0.0185    0.0364    0.0001
          54    0.0083   -0.0264   -0.0407   -0.0161   -0.0166   -0.0550    0.1301    0.0092
          55    0.0000    0.0458   -0.0393    0.0229    0.0217   -0.0910   -0.0340   -0.0026
          56   -0.0069   -0.0012   -0.0064   -0.0024   -0.0058    0.0490    0.0192    0.0075
          57   -0.0147   -0.0039   -0.0038    0.0059    0.0116   -0.0788   -0.0314   -0.0106
          58   -0.0169    0.0038   -0.0207   -0.0024   -0.0068    0.0476    0.0137   -0.0027
          59   -0.0147   -0.0173   -0.0020   -0.0105   -0.0136    0.0730    0.0236   -0.0011
          60   -0.0278   -0.0371    0.0155   -0.0181   -0.0185    0.1100    0.0440    0.0116
          61    0.0318   -0.0056   -0.0219   -0.0276    0.0515    0.0078    0.0074   -0.0737
          62    0.0295    0.0053   -0.0024   -0.0245    0.0244    0.0006   -0.0017   -0.0145
          63    0.0413   -0.0047    0.0036   -0.0370    0.0354    0.0079    0.0170   -0.1007
          64   -0.0346   -0.0010   -0.0078    0.0852   -0.0498   -0.0017   -0.0080    0.1031
          65    0.0518    0.0213    0.0293   -0.0248    0.0149    0.0000    0.0092   -0.0528
          66   -0.0203   -0.0235   -0.0326    0.0103    0.0019    0.0029   -0.0061    0.0326
          67    0.0286    0.0145    0.0037    0.0036    0.0019   -0.0132   -0.0050    0.0003
          68    0.0232    0.0096    0.0038   -0.0023   -0.0081    0.0637    0.0262    0.0119
          69   -0.0202   -0.0146    0.0019    0.0003    0.0078   -0.0690   -0.0284   -0.0139
          70    0.0240    0.0096    0.0046    0.0038    0.0033   -0.0278   -0.0115   -0.0030
          71    0.0213    0.0066    0.0053    0.0012   -0.0004   -0.0025   -0.0014    0.0004
          72   -0.0225   -0.0160    0.0015   -0.0103   -0.0118    0.0889    0.0373    0.0126
          73    0.0163    0.0079    0.0010    0.0028    0.0024   -0.0180   -0.0076   -0.0024
          74    0.0047    0.0093   -0.0085    0.0001   -0.0028    0.0351    0.0136    0.0041
          75    0.0294   -0.0076    0.0304   -0.0047   -0.0041   -0.0040    0.0012    0.0048
          76    0.0074   -0.0072   -0.0077    0.0006   -0.0027   -0.0074    0.0205   -0.0012
          77   -0.0025    0.0031    0.0053   -0.0226   -0.0072   -0.0189    0.0351    0.0225
          78   -0.0116    0.0095    0.0010    0.0438    0.0107    0.0081    0.0062   -0.0360
          79    0.0149   -0.0153   -0.0113   -0.0149   -0.0098   -0.0207    0.0456    0.0135
          80   -0.0157    0.0152    0.0075    0.0121    0.0080    0.0122   -0.0244   -0.0124
          81    0.0114   -0.0163   -0.0111   -0.0079   -0.0118   -0.0380    0.0942    0.0134
          82    0.0157   -0.0176   -0.0148   -0.0140   -0.0069   -0.0058    0.0057    0.0094
          83   -0.0143    0.0133    0.0080    0.0060   -0.0005   -0.0274    0.0777    0.0006
          84    0.0073   -0.0086   -0.0062    0.0002    0.0009    0.0205   -0.0570   -0.0031
          85   -0.0147    0.0113   -0.0229    0.0083    0.0123   -0.0568   -0.0200   -0.0001
          86   -0.0254    0.0049   -0.0225    0.0053   -0.0033    0.0402    0.0120    0.0024
          87    0.0488    0.0310    0.0101    0.0060    0.0055   -0.0246   -0.0045    0.0051
          88   -0.0356   -0.0588    0.0148   -0.0235   -0.0126   -0.0040   -0.0121   -0.0184
          89   -0.0104   -0.0274    0.0334   -0.0235   -0.0025   -0.0185    0.0006   -0.0094
          90    0.0352    0.0169    0.0036    0.0059   -0.0071    0.0252    0.0044    0.0039
          91    0.0039    0.0121    0.0210    0.0226   -0.0085   -0.0087   -0.0010    0.0456
          92    0.0188   -0.0082    0.0173   -0.0467    0.1430    0.0112    0.0031    0.0017
          93   -0.0131    0.0409    0.0103   -0.1240    0.1186    0.0075   -0.0023    0.0051
          94    0.0032    0.0225   -0.0107   -0.0094   -0.0265   -0.0029   -0.0004   -0.0223
          95    0.0398   -0.0553   -0.0766   -0.0698    0.0659    0.0081   -0.0121    0.0757
          96    0.0304   -0.0647   -0.0531   -0.0487    0.1125    0.0041   -0.0083    0.1232


[...]
 EFF. MASS  11.7988        C  9 --  H 30          +13.2% ( 53.6%)     3.8%

 VIBRATION   71   71A       ATOM PAIR        ENERGY CONTRIBUTION    RADIAL
 FREQ.      2849.15        C  1 --  H 14          +96.3% ( 99.7%)   100.0%
 T-DIPOLE    0.0536        C  1 --  C  3           +1.0% ( 10.2%)     8.8%
 TRAVEL      0.1283        C  1 --  C  4           +1.0% ( 10.1%)     8.9%
 RED. MASS   0.9168        C  1 --  C 10           +1.0% ( 10.1%)     7.1%
 EFF. MASS   1.4369

 VIBRATION   72   72A       ATOM PAIR        ENERGY CONTRIBUTION    RADIAL
 FREQ.      2865.85        C  2 --  H 13          +95.7% ( 99.5%)   100.0%
 T-DIPOLE    0.0319        C  2 --  C  5           +1.1% ( 10.6%)     8.2%
 TRAVEL      0.1274        C  2 --  C  3           +1.1% ( 10.5%)     8.4%
 RED. MASS   0.9100        C  2 --  C  9           +1.1% ( 10.5%)    12.3%
 EFF. MASS   1.4491

 VIBRATION   73   73A       ATOM PAIR        ENERGY CONTRIBUTION    RADIAL
 FREQ.      2944.75        C  5 --  H 22          +60.1% ( 80.4%)    97.7%
 T-DIPOLE    0.0323        C  5 --  H 21          +36.8% ( 62.9%)    94.9%
 TRAVEL      0.1222        C  5 --  C 12           +1.1% ( 10.9%)     0.1%
 RED. MASS   0.5358        C  2 --  C  5           +1.1% ( 10.8%)     0.1%
 EFF. MASS   1.5322

 VIBRATION   74   74A       ATOM PAIR        ENERGY CONTRIBUTION    RADIAL
 FREQ.      2945.37        C  6 --  H 20          +52.1% ( 74.9%)    96.8%
 T-DIPOLE    0.0204        C  6 --  H 19          +45.2% ( 69.8%)    96.1%
 TRAVEL      0.1218        C  6 --  C  8           +1.2% ( 11.2%)     0.0%
 RED. MASS   0.5160        C  6 --  C 11           +1.2% ( 11.1%)     0.2%
 EFF. MASS   1.5438

 VIBRATION   75   75A       ATOM PAIR        ENERGY CONTRIBUTION    RADIAL
 FREQ.      2949.18        C  4 --  H 18          +53.2% ( 75.8%)    97.0%
 T-DIPOLE    0.0107        C  4 --  H 17          +43.3% ( 68.4%)    95.9%
 TRAVEL      0.1217        C  4 --  C  7           +1.2% ( 11.2%)     0.0%
 RED. MASS   0.5116        C  1 --  C  4           +1.1% ( 11.1%)     0.1%
 EFF. MASS   1.5435

 VIBRATION   76   76A       ATOM PAIR        ENERGY CONTRIBUTION    RADIAL
 FREQ.      2955.04        C  3 --  H 16          +53.2% ( 75.7%)    97.1%
 T-DIPOLE    0.0338        C  3 --  H 15          +43.0% ( 68.1%)    95.9%
 TRAVEL      0.1217        C  1 --  C  3           +1.1% ( 11.1%)     0.0%
 RED. MASS   0.5072        C  2 --  C  3           +1.1% ( 11.1%)     0.0%
 EFF. MASS   1.5419

 VIBRATION   77   77A       ATOM PAIR        ENERGY CONTRIBUTION    RADIAL
 FREQ.      3024.61        C  5 --  H 21          +59.1% ( 75.9%)    98.8%
 T-DIPOLE    0.0523        C  5 --  H 22          +34.6% ( 58.1%)    95.6%
 TRAVEL      0.1316        C 12 --  H 31           +2.5% ( 15.7%)   100.0%
 RED. MASS   0.4641        C  6 --  H 19           +1.0% ( 10.1%)    98.0%
 EFF. MASS   1.2877

 VIBRATION   78   78A       ATOM PAIR        ENERGY CONTRIBUTION    RADIAL
 FREQ.      3024.69        C  6 --  H 19          +49.7% ( 69.5%)    98.1%
 T-DIPOLE    0.0407        C  6 --  H 20          +43.8% ( 65.3%)    97.3%
 TRAVEL      0.1316        C 11 --  H 29           +1.9% ( 13.7%)    99.8%
 RED. MASS   0.4385        C  5 --  H 21           +1.3% ( 11.1%)    98.8%
 EFF. MASS   1.2868

 VIBRATION   79   79A       ATOM PAIR        ENERGY CONTRIBUTION    RADIAL
 FREQ.      3029.51        C  4 --  H 17          +41.1% ( 63.2%)    98.3%
 T-DIPOLE    0.0599        C  4 --  H 18          +32.4% ( 56.1%)    97.0%
 TRAVEL      0.1321        C  3 --  H 15          +13.8% ( 36.6%)    98.4%
 RED. MASS   0.3014        C  3 --  H 16          +10.2% ( 31.5%)    96.6%
 EFF. MASS   1.2756

 VIBRATION   80   80A       ATOM PAIR        ENERGY CONTRIBUTION    RADIAL
 FREQ.      3031.94        C  3 --  H 15          +40.2% ( 62.5%)    98.2%
 T-DIPOLE    0.0574        C  3 --  H 16          +32.7% ( 56.4%)    97.0%
 TRAVEL      0.1319        C  4 --  H 17          +12.9% ( 35.3%)    98.3%
 RED. MASS   0.2934        C  4 --  H 18          +10.3% ( 31.6%)    97.1%
 EFF. MASS   1.2774

 VIBRATION   81   81A       ATOM PAIR        ENERGY CONTRIBUTION    RADIAL
 FREQ.      3033.91        C  9 --  H 30          +67.9% ( 83.2%)   100.0%
 T-DIPOLE    0.3318        C 11 --  H 29          +28.3% ( 53.8%)   100.0%
 TRAVEL      0.1244        C  2 --  C  9           +0.9% (  9.5%)    17.9%
 RED. MASS   0.5243        C  9 --  C 11           +0.8% (  9.1%)    41.0%
 EFF. MASS   1.4366

 VIBRATION   82   82A       ATOM PAIR        ENERGY CONTRIBUTION    RADIAL
 FREQ.      3036.14        C 11 --  H 29          +66.2% ( 82.7%)   100.0%
 T-DIPOLE    0.0752        C  9 --  H 30          +27.6% ( 53.4%)    99.9%
 TRAVEL      0.1186        C  9 --  C 11           +2.1% ( 14.8%)    40.3%
 RED. MASS   0.5141        C  6 --  H 19           +2.0% ( 14.3%)    99.4%
 EFF. MASS   1.5778

 VIBRATION   83   83A       ATOM PAIR        ENERGY CONTRIBUTION    RADIAL
 FREQ.      3038.38        C 10 --  H 32          +65.0% ( 81.8%)   100.0%
 T-DIPOLE    0.2838        C 12 --  H 31          +30.2% ( 55.7%)   100.0%
 TRAVEL      0.1235        C 10 --  C 12           +1.1% ( 10.6%)     2.1%
 RED. MASS   0.5003        C  1 --  C 10           +0.9% (  9.5%)    17.7%
 EFF. MASS   1.4555

 VIBRATION   84   84A       ATOM PAIR        ENERGY CONTRIBUTION    RADIAL
 FREQ.      3059.83        C 12 --  H 31          +64.3% ( 81.3%)    99.9%
 T-DIPOLE    0.2729        C 10 --  H 32          +30.9% ( 56.4%)    99.9%
 TRAVEL      0.1181        C 10 --  C 12           +2.0% ( 14.2%)    94.9%
 RED. MASS   0.5081        C  5 --  C 12           +1.0% ( 10.3%)    17.7%
 EFF. MASS   1.5792

 VIBRATION   85   85A       ATOM PAIR        ENERGY CONTRIBUTION    RADIAL
 FREQ.      3074.25        C  7 --  H 27          +61.4% ( 80.8%)    98.5%
 T-DIPOLE    0.0108        C  7 --  H 28          +33.4% ( 59.6%)    93.9%
 TRAVEL      0.1209        C  7 --  H 26           +3.8% ( 20.0%)    45.3%
 RED. MASS   0.5166        C  4 --  C  7           +1.0% ( 10.2%)     0.0%
 EFF. MASS   1.5003

 VIBRATION   86   86A       ATOM PAIR        ENERGY CONTRIBUTION    RADIAL
 FREQ.      3081.23        C  8 --  H 23          +63.3% ( 82.1%)    98.6%
 T-DIPOLE    0.0083        C  8 --  H 24          +29.9% ( 56.4%)    92.8%
 TRAVEL      0.1207        C  8 --  H 25           +5.5% ( 24.2%)    57.8%
 RED. MASS   0.5209        C  6 --  C  8           +1.0% ( 10.2%)     0.0%
 EFF. MASS   1.5012

 VIBRATION   87   87A       ATOM PAIR        ENERGY CONTRIBUTION    RADIAL
 FREQ.      3082.28        C  7 --  H 26          +58.0% ( 78.5%)    98.4%
 T-DIPOLE    0.0033        C  7 --  H 28          +33.2% ( 59.4%)    93.5%
 TRAVEL      0.1207        C  7 --  H 27           +7.3% ( 27.8%)    65.0%
 RED. MASS   0.4795        C  4 --  C  7           +1.0% ( 10.3%)     0.0%
 EFF. MASS   1.5022

 VIBRATION   88   88A       ATOM PAIR        ENERGY CONTRIBUTION    RADIAL
 FREQ.      3086.02        C  8 --  H 25          +59.0% ( 79.2%)    98.4%
 T-DIPOLE    0.0095        C  8 --  H 24          +35.0% ( 61.1%)    94.2%
 TRAVEL      0.1205        C  8 --  H 23           +4.6% ( 22.0%)    51.0%
 RED. MASS   0.5011        C  6 --  C  8           +1.0% ( 10.3%)     0.0%
 EFF. MASS   1.5041

 VIBRATION   89   89A       ATOM PAIR        ENERGY CONTRIBUTION    RADIAL
 FREQ.      3178.89        C  7 --  H 26          +37.7% ( 59.0%)    97.7%
 T-DIPOLE    0.0175        C  7 --  H 28          +32.3% ( 54.7%)    96.9%
 TRAVEL      0.1366        C  7 --  H 27          +29.7% ( 52.5%)    96.5%
 RED. MASS   0.3295        C  4 --  C  7           +0.3% (  5.1%)    99.1%
 EFF. MASS   1.1375

 VIBRATION   90   90A       ATOM PAIR        ENERGY CONTRIBUTION    RADIAL
 FREQ.      3183.04        C  8 --  H 25          +34.6% ( 56.5%)    97.3%
 T-DIPOLE    0.0205        C  8 --  H 24          +34.3% ( 56.3%)    97.3%
 TRAVEL      0.1366        C  8 --  H 23          +30.9% ( 53.5%)    96.7%
 RED. MASS   0.3277        C  6 --  C  8           +0.3% (  5.1%)    99.8%
 EFF. MASS   1.1360

 SYMMETRY NUMBER FOR POINT-GROUP C1  =  1


          SYSTEM IS A GROUND STATE


    NULL



          MOLECULE IS NOT LINEAR

          THERE ARE 90 GENUINE VIBRATIONS IN THIS SYSTEM
          THIS THERMODYNAMICS CALCULATION IS LIMITED TO
          MOLECULES WHICH HAVE NO INTERNAL ROTATIONS




                    CALCULATED THERMODYNAMIC PROPERTIES
                                          *
   TEMP. (K)   PARTITION FUNCTION   H.O.F.    ENTHALPY  HEAT CAPACITY ENTROPY
                                   KCAL/MOL   CAL/MOLE    CAL/K/MOL  CAL/K/MOL


 298.00  VIB.     0.3384D+05                  6658.5445    44.8187    43.0698
         ROT.     0.1908D+07                   888.2813     2.9808    31.7194
         INT.     0.6459D+11                  7546.8258    47.7996    74.7892
         TRA.     0.2036D+28                  1480.4688     4.9680    41.1956
         TOT.                      -10.496    9027.2946    52.7676   115.9848

 200.00  VIB.     0.8207D+03                  3057.9910    29.2501    28.6244
         ROT.     0.1049D+07                   596.1620     2.9808    30.5307
         INT.     0.8612D+09                  3654.1529    32.2309    59.1551
         TRA.     0.1119D+28                   993.6033     4.9680    39.2145
         TOT.                      -14.876    4647.7562    37.1990    98.3696

 210.00  VIB.     0.1205D+04                  3357.5182    30.6625    30.0855
         ROT.     0.1129D+07                   625.9700     2.9808    30.6762
         INT.     0.1360D+10                  3983.4882    33.6433    60.7617
         TRA.     0.1204D+28                  1043.2834     4.9680    39.4569
         TOT.                      -14.497    5026.7716    38.6113   100.2186

 220.00  VIB.     0.1766D+04                  3671.3872    32.1187    31.5454
         ROT.     0.1211D+07                   655.7781     2.9808    30.8148
         INT.     0.2138D+10                  4327.1653    35.0996    62.3602
         TRA.     0.1291D+28                  1092.9636     4.9680    39.6880
         TOT.                      -14.103    5420.1289    40.0676   102.0482

 230.00  VIB.     0.2585D+04                  4000.0417    33.6195    33.0060
         ROT.     0.1294D+07                   685.5862     2.9808    30.9473
         INT.     0.3345D+10                  4685.6280    36.6004    63.9534
         TRA.     0.1380D+28                  1142.6437     4.9680    39.9088
         TOT.                      -13.695    5828.2717    41.5684   103.8622

 240.00  VIB.     0.3780D+04                  4343.9237    35.1640    34.4693
         ROT.     0.1379D+07                   715.3943     2.9808    31.0742
         INT.     0.5214D+10                  5059.3180    38.1448    65.5436
         TRA.     0.1471D+28                  1192.3239     4.9680    40.1203
         TOT.                      -13.272    6251.6419    43.1128   105.6638

 250.00  VIB.     0.5523D+04                  4703.4593    36.7498    35.9368
         ROT.     0.1466D+07                   745.2024     2.9808    31.1959
         INT.     0.8099D+10                  5448.6617    39.7306    67.1327
         TRA.     0.1564D+28                  1242.0041     4.9680    40.3231
         TOT.                      -12.833    6690.6658    44.6986   107.4558

 260.00  VIB.     0.8063D+04                  5079.0476    38.3739    37.4097
         ROT.     0.1555D+07                   775.0105     2.9808    31.3128
         INT.     0.1254D+11                  5854.0581    41.3547    68.7225
         TRA.     0.1659D+28                  1291.6842     4.9680    40.5179
         TOT.                      -12.378    7145.7423    46.3227   109.2404

 270.00  VIB.     0.1176D+05                  5471.0516    40.0323    38.8889
         ROT.     0.1646D+07                   804.8186     2.9808    31.4253
         INT.     0.1936D+11                  6275.8702    43.0131    70.3142
         TRA.     0.1756D+28                  1341.3644     4.9680    40.7054
         TOT.                      -11.906    7617.2346    47.9811   111.0197

 280.00  VIB.     0.1716D+05                  5879.7920    41.7204    40.3752
         ROT.     0.1738D+07                   834.6267     2.9808    31.5337
         INT.     0.2983D+11                  6714.4188    44.7012    71.9089
         TRA.     0.1854D+28                  1391.0445     4.9680    40.8861
         TOT.                      -11.418    8105.4633    49.6692   112.7951

 290.00  VIB.     0.2503D+05                  6305.5430    43.4336    41.8691
         ROT.     0.1832D+07                   864.4348     2.9808    31.6383
         INT.     0.4585D+11                  7169.9779    46.4144    73.5074
         TRA.     0.1954D+28                  1440.7247     4.9680    41.0604
         TOT.                      -10.913    8610.7026    51.3824   114.5678

 300.00  VIB.     0.3650D+05                  6748.5299    45.1668    43.3707
         ROT.     0.1928D+07                   894.2429     2.9808    31.7394
         INT.     0.7036D+11                  7642.7728    48.1476    75.1101
         TRA.     0.2056D+28                  1490.4049     4.9680    41.2289
         TOT.                      -10.390    9133.1777    53.1156   116.3389

 310.00  VIB.     0.5323D+05                  7208.9284    46.9151    44.8802
         ROT.     0.2025D+07                   924.0510     2.9808    31.8371
         INT.     0.1078D+12                  8132.9794    49.8959    76.7173
         TRA.     0.2160D+28                  1540.0850     4.9680    41.3918
         TOT.                       -9.850    9673.0645    54.8639   118.1091

 320.00  VIB.     0.7765D+05                  7686.8655    48.6737    46.3974
         ROT.     0.2124D+07                   953.8591     2.9808    31.9317
         INT.     0.1649D+12                  8640.7246    51.6545    78.3292
         TRA.     0.2265D+28                  1589.7652     4.9680    41.5495
         TOT.                       -9.293   10230.4898    56.6225   119.8787

 330.00  VIB.     0.1133D+06                  8182.4207    50.4380    47.9222
         ROT.     0.2224D+07                   983.6672     2.9808    32.0235
         INT.     0.2520D+12                  9166.0879    53.4188    79.9457
         TRA.     0.2372D+28                  1639.4454     4.9680    41.7024
         TOT.                       -8.718   10805.5333    58.3868   121.6480

 340.00  VIB.     0.1654D+06                  8695.6290    52.2036    49.4541
         ROT.     0.2326D+07                  1013.4753     2.9808    32.1124
         INT.     0.3847D+12                  9709.1043    55.1844    81.5666
         TRA.     0.2481D+28                  1689.1255     4.9680    41.8507
         TOT.                       -8.125   11398.2298    60.1524   123.4173

 350.00  VIB.     0.2416D+06                  9226.4831    53.9665    50.9928
         ROT.     0.2429D+07                  1043.2834     2.9808    32.1989
         INT.     0.5869D+12                 10269.7665    56.9473    83.1917
         TRA.     0.2591D+28                  1738.8057     4.9680    41.9947
         TOT.                       -7.515   12008.5722    61.9153   125.1864

 360.00  VIB.     0.3530D+06                  9774.9375    55.7230    52.5378
         ROT.     0.2534D+07                  1073.0915     2.9808    32.2828
         INT.     0.8946D+12                 10848.0290    58.7038    84.8206
         TRA.     0.2703D+28                  1788.4859     4.9680    42.1347
         TOT.                       -6.887   12636.5148    63.6719   126.9552

 370.00  VIB.     0.5161D+06                 10340.9113    57.4699    54.0884
         ROT.     0.2640D+07                  1102.8996     2.9808    32.3645
         INT.     0.1363D+13                 11443.8109    60.4507    86.4529
         TRA.     0.2817D+28                  1838.1660     4.9680    42.2708
         TOT.                       -6.242   13281.9770    65.4187   128.7236

 380.00  VIB.     0.7550D+06                 10924.2926    59.2040    55.6440
         ROT.     0.2748D+07                  1132.7077     2.9808    32.4440
         INT.     0.2075D+13                 12057.0003    62.1849    88.0880
         TRA.     0.2932D+28                  1887.8462     4.9680    42.4033
         TOT.                       -5.579   13944.8465    67.1529   130.4913

 390.00  VIB.     0.1105D+07                 11524.9413    60.9229    57.2042
         ROT.     0.2857D+07                  1162.5158     2.9808    32.5214
         INT.     0.3158D+13                 12687.4571    63.9038    89.7256
         TRA.     0.3048D+28                  1937.5263     4.9680    42.5323
         TOT.                       -4.899   14624.9834    68.8718   132.2579

 400.00  VIB.     0.1619D+07                 12142.6930    62.6243    58.7681
         ROT.     0.2968D+07                  1192.3239     2.9808    32.5969
         INT.     0.4804D+13                 13335.0169    65.6051    91.3650
         TRA.     0.3166D+28                  1987.2065     4.9680    42.6581
         TOT.                       -4.201   15322.2234    70.5731   134.0231

   *: NOTE: HEATS OF FORMATION ARE RELATIVE TO THE
            ELEMENTS IN THEIR STANDARD STATE AT 298K
              (=  Standard Enthalpy of Formation).

            Hvib:  Zero-point energy is not included.
                   frequencies of less than zero cm-1 are not included.
            Hrot = (3/2)RT
            Htra = (3/2)RT + pV = (5/2)RT

            Heat capacity is Cp, not Cv

           For more information, see: HTTP://OpenMOPAC.net/Manual/thermochemistry.html


           FORCE CONSTANT IN CARTESIAN COORDINATES (Millidynes/A)

    ATOM   CHEMICAL       X               Y               Z
   NUMBER   SYMBOL  FORCE CONSTANT  FORCE CONSTANT  FORCE CONSTANT

      1       C        8.350138        8.545944        8.360514
      2       C        8.878517        8.345067        8.198980
      3       C        8.018953        8.431684        8.367522
      4       C        8.095534        8.248184        8.400198
      5       C        9.163185        8.257837        7.964547
      6       C        8.609729        8.423656        8.395722
      7       C        8.340447        8.277086        8.217044
      8       C        8.336964        8.296741        8.216122
      9       C       10.644066        6.286587       10.395608
     10       C       13.976677        6.817732        6.484596
     11       C       10.552953        6.247279       10.442252
     12       C       13.596746        6.929039        6.766674
     13       H        0.769009        2.124599        3.137033
     14       H        0.745012        1.483203        3.659203
     15       H        0.717708        2.154712        3.523238
     16       H        0.763361        2.159299        3.483211
     17       H        0.814720        2.208574        3.391391
     18       H        3.237112        2.305202        0.857730
     19       H        0.735461        3.005300        2.659834
     20       H        3.270422        2.116829        0.895597
     21       H        2.653161        2.923561        0.768653
     22       H        0.932336        2.022452        3.320288
     23       H        0.693011        3.140952        2.950254
     24       H        3.518599        2.312967        0.952269
     25       H        3.985807        2.082823        0.724756
     26       H        4.006601        1.919008        0.868130
     27       H        3.182146        2.661135        0.893679
     28       H        0.773079        2.283084        3.723844
     29       H        0.721923        2.545764        2.946848
     30       H        0.722540        2.568829        2.928713
     31       H        0.765769        2.970079        2.512026
     32       H        3.933807        1.478265        0.817751



 TOTAL CPU TIME:             8.04 SECONDS

 == MOPAC DONE ==
