 *******************************************************************************
 ** Site#: 14399           For non-commercial use only        Version 13.159M **
 *******************************************************************************
 ** Cite this work as: MOPAC2012, James J. P. Stewart, Stewart Computational  **
 ** Chemistry, Version 13.159M web: HTTP://OpenMOPAC.net  Days remaining:   6 **
 *******************************************************************************
 **                                                                           **
 **                                MOPAC2012                                  **
 **                                                                           **
 *******************************************************************************

                            PM3 CALCULATION RESULTS


 *******************************************************************************
 *  CALCULATION DONE:                                Mon Jun  2 11:08:49 2014  *
 *  PM3      - The PM3 Hamiltonian to be used
 *  PRECISE  - CRITERIA TO BE INCREASED BY 100 TIMES
 *  NOSYM    - POINT-GROUP SYMMETRY SET TO C1
 *  T=       - A TIME OF 172800.0 SECONDS REQUESTED
 *  DUMP=N   - RESTART FILE WRITTEN EVERY  7200.000 SECONDS
 *******************************************************************************
pm3  precise nosym
 InChI=1S/C5H8/c1-2-5-3-4(1)5/h4-5H,1-3H2

   ATOM   CHEMICAL          X               Y               Z
  NUMBER   SYMBOL      (ANGSTROMS)     (ANGSTROMS)     (ANGSTROMS)
 
     1       C         -0.62510000  *   0.74120000  *   0.15040000  *
     2       C         -0.12640000  *  -0.22140000  *  -0.85210000  *
     3       C         -1.41220000  *  -0.60030000  *  -0.25950000  *
     4       C          0.67210000  *   0.53370000  *   0.98110000  *
     5       C          1.11680000  *  -0.45700000  *  -0.07450000  *
     6       H         -0.08510000  *   0.20460000  *  -1.88260000  *
     7       H         -0.83450000  *   1.71740000  *  -0.34670000  *
     8       H          2.02540000  *  -0.12130000  *  -0.62620000  *
     9       H          1.20210000  *  -1.50300000  *   0.30280000  *
    10       H          0.46760000  *   0.06580000  *   1.97180000  *
    11       H          1.29670000  *   1.45580000  *   1.02630000  *
    12       H         -1.39730000  *  -1.40330000  *   0.51280000  *
    13       H         -2.30020000  *  -0.41210000  *  -0.90360000  *
 


          CARTESIAN COORDINATES 

    NO.       ATOM         X         Y         Z

     1         C       -0.6251    0.7412    0.1504
     2         C       -0.1264   -0.2214   -0.8521
     3         C       -1.4122   -0.6003   -0.2595
     4         C        0.6721    0.5337    0.9811
     5         C        1.1168   -0.4570   -0.0745
     6         H       -0.0851    0.2046   -1.8826
     7         H       -0.8345    1.7174   -0.3467
     8         H        2.0254   -0.1213   -0.6262
     9         H        1.2021   -1.5030    0.3028
    10         H        0.4676    0.0658    1.9718
    11         H        1.2967    1.4558    1.0263
    12         H       -1.3973   -1.4033    0.5128
    13         H       -2.3002   -0.4121   -0.9036

  H: (PM3): J. J. P. STEWART, J. COMP. CHEM. 10, 209 (1989).
  C: (PM3): J. J. P. STEWART, J. COMP. CHEM. 10, 209 (1989).

           Empirical Formula: C5 H8  =    13 atoms



      MOLECULAR POINT GROUP   :   C1  


      RHF CALCULATION, NO. OF DOUBLY OCCUPIED LEVELS =   14

      Geometry optimization using EF

          DIAGONAL MATRIX USED AS START HESSIAN

 CYCLE:     1 TIME:   0.003 TIME LEFT:  2.00D  GRAD.:   143.859 HEAT: 61.99260
 CYCLE:     2 TIME:   0.004 TIME LEFT:  2.00D  GRAD.:   114.240 HEAT: 56.09245
 CYCLE:     3 TIME:   0.002 TIME LEFT:  2.00D  GRAD.:    73.037 HEAT: 50.26901
 CYCLE:     4 TIME:   0.002 TIME LEFT:  2.00D  GRAD.:    98.619 HEAT: 47.13309
 CYCLE:     5 TIME:   0.004 TIME LEFT:  2.00D  GRAD.:    77.044 HEAT: 44.05405
 CYCLE:     6 TIME:   0.002 TIME LEFT:  2.00D  GRAD.:   113.041 HEAT: 43.43803
 CYCLE:     7 TIME:   0.002 TIME LEFT:  2.00D  GRAD.:    68.896 HEAT: 40.53889
 CYCLE:     8 TIME:   0.004 TIME LEFT:  2.00D  GRAD.:    38.770 HEAT: 39.28891
 CYCLE:     9 TIME:   0.002 TIME LEFT:  2.00D  GRAD.:    41.967 HEAT: 38.95737
 CYCLE:    10 TIME:   0.002 TIME LEFT:  2.00D  GRAD.:    42.896 HEAT: 38.67059
 CYCLE:    11 TIME:   0.002 TIME LEFT:  2.00D  GRAD.:    23.252 HEAT: 38.24689
 CYCLE:    12 TIME:   0.002 TIME LEFT:  2.00D  GRAD.:    28.917 HEAT: 38.23039
 CYCLE:    13 TIME:   0.002 TIME LEFT:  2.00D  GRAD.:    11.937 HEAT: 37.96197
 CYCLE:    14 TIME:   0.002 TIME LEFT:  2.00D  GRAD.:    12.086 HEAT: 37.91704
 CYCLE:    15 TIME:   0.002 TIME LEFT:  2.00D  GRAD.:    14.214 HEAT: 37.88584
 CYCLE:    16 TIME:   0.002 TIME LEFT:  2.00D  GRAD.:    11.710 HEAT: 37.83724
 CYCLE:    17 TIME:   0.002 TIME LEFT:  2.00D  GRAD.:    10.656 HEAT: 37.82396
 CYCLE:    18 TIME:   0.002 TIME LEFT:  2.00D  GRAD.:     2.871 HEAT: 37.78187
 CYCLE:    19 TIME:   0.002 TIME LEFT:  2.00D  GRAD.:     2.018 HEAT: 37.77433
 CYCLE:    20 TIME:   0.002 TIME LEFT:  2.00D  GRAD.:     2.338 HEAT: 37.76574
 CYCLE:    21 TIME:   0.002 TIME LEFT:  2.00D  GRAD.:     1.920 HEAT: 37.75728
 CYCLE:    22 TIME:   0.002 TIME LEFT:  2.00D  GRAD.:     1.969 HEAT: 37.74988
 CYCLE:    23 TIME:   0.002 TIME LEFT:  2.00D  GRAD.:     1.868 HEAT: 37.74599
 CYCLE:    24 TIME:   0.002 TIME LEFT:  2.00D  GRAD.:     0.825 HEAT: 37.74363
 CYCLE:    25 TIME:   0.002 TIME LEFT:  2.00D  GRAD.:     0.544 HEAT: 37.74276
 CYCLE:    26 TIME:   0.002 TIME LEFT:  2.00D  GRAD.:     0.506 HEAT: 37.74196
 CYCLE:    27 TIME:   0.002 TIME LEFT:  2.00D  GRAD.:     0.483 HEAT: 37.74145
 CYCLE:    28 TIME:   0.002 TIME LEFT:  2.00D  GRAD.:     0.387 HEAT: 37.74108
 CYCLE:    29 TIME:   0.002 TIME LEFT:  2.00D  GRAD.:     0.253 HEAT: 37.74084
 CYCLE:    30 TIME:   0.002 TIME LEFT:  2.00D  GRAD.:     0.160 HEAT: 37.74072
 CYCLE:    31 TIME:   0.002 TIME LEFT:  2.00D  GRAD.:     0.141 HEAT: 37.74067
 CYCLE:    32 TIME:   0.002 TIME LEFT:  2.00D  GRAD.:     0.140 HEAT: 37.74063
 CYCLE:    33 TIME:   0.002 TIME LEFT:  2.00D  GRAD.:     0.156 HEAT: 37.74057
 CYCLE:    34 TIME:   0.002 TIME LEFT:  2.00D  GRAD.:     0.139 HEAT: 37.74051
 CYCLE:    35 TIME:   0.002 TIME LEFT:  2.00D  GRAD.:     0.129 HEAT: 37.74045
 CYCLE:    36 TIME:   0.002 TIME LEFT:  2.00D  GRAD.:     0.080 HEAT: 37.74042
 CYCLE:    37 TIME:   0.002 TIME LEFT:  2.00D  GRAD.:     0.055 HEAT: 37.74041
 CYCLE:    38 TIME:   0.002 TIME LEFT:  2.00D  GRAD.:     0.038 HEAT: 37.74040

     RMS GRADIENT =  0.03753  IS LESS THAN CUTOFF =  0.05000



 -------------------------------------------------------------------------------
pm3  precise nosym
 InChI=1S/C5H8/c1-2-5-3-4(1)5/h4-5H,1-3H2



     GEOMETRY OPTIMISED USING EIGENVECTOR FOLLOWING (EF).     
     SCF FIELD WAS ACHIEVED                                   


                              PM3 CALCULATION
                                                       MOPAC2012 (Version: 13.159M)
                                                       Mon Jun  2 11:08:49 2014
                                                       No. of days left =   6




          FINAL HEAT OF FORMATION =         37.74040 KCAL/MOL =     157.90584 KJ/MOL


          TOTAL ENERGY            =       -714.22693 EV
          ELECTRONIC ENERGY       =      -2890.25560 EV  POINT GROUP:     C1  
          CORE-CORE REPULSION     =       2176.02867 EV
          COSMO AREA              =        113.50 SQUARE ANGSTROMS
          COSMO VOLUME            =        101.40 CUBIC ANGSTROMS

          GRADIENT NORM           =          0.03753
          IONIZATION POTENTIAL    =         10.653893 EV
          HOMO LUMO ENERGIES (EV) =        -10.654  2.667
          NO. OF FILLED LEVELS    =         14
          MOLECULAR WEIGHT        =         68.118

          MOLECULAR DIMENSIONS (Angstroms)

            Atom       Atom       Distance
            H    13    H     8     4.41319
            H    10    H     6     3.98960
            H     9    H     7     3.43449


          SCF CALCULATIONS        =         42
          COMPUTATION TIME        =          0.095 SECONDS




   ATOM   CHEMICAL          X               Y               Z
  NUMBER   SYMBOL      (ANGSTROMS)     (ANGSTROMS)     (ANGSTROMS)
 
     1       C         -0.62217654  *   0.77424424  *   0.08805174  *
     2       C         -0.09168289  *  -0.19915384  *  -0.95886174  *
     3       C         -1.35334100  *  -0.50850351  *  -0.20014786  *
     4       C          0.60359179  *   0.51318256  *   0.97618557  *
     5       C          1.14562682  *  -0.48168392  *  -0.09357956  *
     6       H         -0.03448376  *  -0.11725465  *  -2.04505030  *
     7       H         -1.06147792  *   1.76695978  *  -0.01839607  *
     8       H          2.09250270  *  -0.17621664  *  -0.56081678  *
     9       H          1.25552632  *  -1.52324845  *   0.24187340  *
    10       H          0.38469855  *   0.07558325  *   1.96108354  *
    11       H          1.23366316  *   1.39998484  *   1.13363980  *
    12       H         -1.38339738  *  -1.31869409  *   0.53800661  *
    13       H         -2.30847258  *  -0.45493106  *  -0.73401807  *

           Empirical Formula: C5 H8  =    13 atoms



      MOLECULAR POINT GROUP   :   C1  


                  EIGENVALUES  
 -41.54026 -28.74054 -24.81328 -21.33649 -18.27967 -17.97143 -15.69753 -15.22795
 -13.43270 -13.04905 -12.20968 -12.08560 -11.08819 -10.65389   2.66716   3.01571
   3.23036   3.56756   3.63938   3.78802   4.18052   4.29228   4.29377   4.57924
   4.90610   5.06191   5.09119   5.55249


              NET ATOMIC CHARGES AND DIPOLE CONTRIBUTIONS

  ATOM NO.   TYPE          CHARGE      No. of ELECS.   s-Pop       p-Pop       
    1          C          -0.163011        4.1630     1.19663     2.96638
    2          C          -0.162981        4.1630     1.19663     2.96635
    3          C          -0.121954        4.1220     1.16173     2.96023
    4          C          -0.081146        4.0811     1.16960     2.91155
    5          C          -0.081158        4.0812     1.16960     2.91156
    6          H           0.112624        0.8874     0.88738
    7          H           0.112625        0.8874     0.88738
    8          H           0.058442        0.9416     0.94156
    9          H           0.057245        0.9428     0.94275
   10          H           0.057245        0.9428     0.94275
   11          H           0.058440        0.9416     0.94156
   12          H           0.077336        0.9227     0.92266
   13          H           0.076291        0.9237     0.92371
 DIPOLE           X         Y         Z       TOTAL
 POINT-CHG.     0.102     0.017     0.036     0.109
 HYBRID        -0.053     0.050    -0.073     0.103
 SUM            0.049     0.067    -0.037     0.091


          ATOMIC ORBITAL ELECTRON POPULATIONS

    Atom      s        px        py        pz   
    1  C   1.19663   1.00535   0.95924   1.00179
    2  C   1.19663   0.94241   1.05346   0.97049
    3  C   1.16173   0.95303   0.98350   1.02370
    4  C   1.16960   0.95758   0.98950   0.96447
    5  C   1.16960   0.95966   0.98991   0.96199
    6  H   0.88738
    7  H   0.88738
    8  H   0.94156
    9  H   0.94275
   10  H   0.94275
   11  H   0.94156
   12  H   0.92266
   13  H   0.92371
 *******************************************************************************
 ** Site#: 14399           For non-commercial use only        Version 13.159M **
 *******************************************************************************
 ** Cite this work as: MOPAC2012, James J. P. Stewart, Stewart Computational  **
 ** Chemistry, Version 13.159M web: HTTP://OpenMOPAC.net  Days remaining:   6 **
 *******************************************************************************
 **                                                                           **
 **                                MOPAC2012                                  **
 **                                                                           **
 *******************************************************************************

                            PM3 CALCULATION RESULTS


 *******************************************************************************
 *  CALCULATION DONE:                                Mon Jun  2 11:08:49 2014  *
 *  PM3      - The PM3 Hamiltonian to be used
 *  OLDGEO   - PREVIOUS GEOMETRY TO BE USED
 *  PRECISE  - CRITERIA TO BE INCREASED BY 100 TIMES
 *  NOSYM    - POINT-GROUP SYMMETRY SET TO C1
 *  T=       - A TIME OF 172800.0 SECONDS REQUESTED
 *  DUMP=N   - RESTART FILE WRITTEN EVERY  7200.000 SECONDS
 *  THERMO   - THERMODYNAMIC QUANTITIES TO BE CALCULATED
 *******************************************************************************
oldgeo thermo nosym precise  pm3

   ATOM   CHEMICAL          X               Y               Z
  NUMBER   SYMBOL      (ANGSTROMS)     (ANGSTROMS)     (ANGSTROMS)
 
     1       C         -0.62217654  *   0.77424424  *   0.08805174  *
     2       C         -0.09168289  *  -0.19915384  *  -0.95886174  *
     3       C         -1.35334100  *  -0.50850351  *  -0.20014786  *
     4       C          0.60359179  *   0.51318256  *   0.97618557  *
     5       C          1.14562682  *  -0.48168392  *  -0.09357956  *
     6       H         -0.03448376  *  -0.11725465  *  -2.04505030  *
     7       H         -1.06147792  *   1.76695978  *  -0.01839607  *
     8       H          2.09250270  *  -0.17621664  *  -0.56081678  *
     9       H          1.25552632  *  -1.52324845  *   0.24187340  *
    10       H          0.38469855  *   0.07558325  *   1.96108354  *
    11       H          1.23366316  *   1.39998484  *   1.13363980  *
    12       H         -1.38339738  *  -1.31869409  *   0.53800661  *
    13       H         -2.30847258  *  -0.45493106  *  -0.73401807  *
 


          CARTESIAN COORDINATES 

    NO.       ATOM         X         Y         Z

     1         C       -0.6222    0.7742    0.0881
     2         C       -0.0917   -0.1992   -0.9589
     3         C       -1.3533   -0.5085   -0.2001
     4         C        0.6036    0.5132    0.9762
     5         C        1.1456   -0.4817   -0.0936
     6         H       -0.0345   -0.1173   -2.0451
     7         H       -1.0615    1.7670   -0.0184
     8         H        2.0925   -0.1762   -0.5608
     9         H        1.2555   -1.5232    0.2419
    10         H        0.3847    0.0756    1.9611
    11         H        1.2337    1.4000    1.1336
    12         H       -1.3834   -1.3187    0.5380
    13         H       -2.3085   -0.4549   -0.7340

  H: (PM3): J. J. P. STEWART, J. COMP. CHEM. 10, 209 (1989).
  C: (PM3): J. J. P. STEWART, J. COMP. CHEM. 10, 209 (1989).

           Empirical Formula: C5 H8  =    13 atoms



      MOLECULAR POINT GROUP   :   C1  


      RHF CALCULATION, NO. OF DOUBLY OCCUPIED LEVELS =   14



          HEAT OF FORMATION =      37.740401 KCALS/MOLE


          INTERNAL COORDINATE DERIVATIVES

   NUMBER  ATOM       BOND         ANGLE      DIHEDRAL

     1       C      0.005240     0.001355    -0.005912
     2       C     -0.004416    -0.001522    -0.002203
     3       C     -0.003450    -0.001929    -0.009363
     4       C     -0.001016    -0.008330     0.005067
     5       C      0.008506    -0.005697    -0.001229
     6       H     -0.002726    -0.006845     0.004508
     7       H     -0.007328    -0.001402     0.004263
     8       H     -0.004709     0.003246    -0.004466
     9       H     -0.003199     0.011488     0.004623
    10       H      0.010365     0.006804     0.006807
    11       H      0.002727     0.004700     0.010594
    12       H     -0.004438     0.005394     0.000538
    13       H      0.004443    -0.007263    -0.013226


          GRADIENT NORM =   0.03741


          TIME FOR SCF CALCULATION =    0.00

          TIME FOR DERIVATIVES     =    0.00

          MOLECULAR WEIGHT =   68.12



          ROTATIONAL CONSTANTS IN CM(-1)

          A =    0.30484091   B =    0.20172260   C =    0.15814187



           PRINCIPAL MOMENTS OF INERTIA IN UNITS OF 10**(-40)*GRAM-CM**2

          A =       91.8275   B =      138.7687   C =      177.0105


          ORIENTATION OF MOLECULE IN FORCE CALCULATION

    NO.       ATOM         X         Y         Z

     1          C      -0.7624   -0.0102    0.5795
     2          C       0.7624   -0.0102    0.5795
     3          C       0.0000    1.2867    0.5795
     4          C      -0.7791   -0.6306   -0.8256
     5          C       0.7791   -0.6305   -0.8257
     6          H       1.4758   -0.3015    1.3515
     7          H      -1.4759   -0.3013    1.3515
     8          H       1.2343   -1.6302   -0.8636
     9          H       1.2520   -0.0147   -1.6046
    10          H      -1.2521   -0.0152   -1.6046
    11          H      -1.2341   -1.6305   -0.8631
    12          H      -0.0001    1.9410   -0.3003
    13          H       0.0000    1.8908    1.4934


    FIRST DERIVATIVES WILL BE USED IN THE CALCULATION OF SECOND DERIVATIVES

          ESTIMATED TIME TO COMPLETE CALCULATION =        0.46 SECONDS

    FOR POINT-GROUP C1   THERE ARE   1 UNIQUE SYMMETRY FUNCTIONS.

 STEP:   1 TIME =     0.01 SECS, INTEGRAL =      0.01 TIME LEFT: 172799.98
 STEP:   2 TIME =     0.01 SECS, INTEGRAL =      0.02 TIME LEFT: 172799.98
 STEP:   3 TIME =     0.01 SECS, INTEGRAL =      0.03 TIME LEFT: 172799.97
 STEP:   4 TIME =     0.01 SECS, INTEGRAL =      0.04 TIME LEFT: 172799.96
 STEP:   5 TIME =     0.01 SECS, INTEGRAL =      0.05 TIME LEFT: 172799.95
 STEP:   6 TIME =     0.01 SECS, INTEGRAL =      0.06 TIME LEFT: 172799.94
 STEP:   7 TIME =     0.01 SECS, INTEGRAL =      0.07 TIME LEFT: 172799.93
 STEP:   8 TIME =     0.01 SECS, INTEGRAL =      0.08 TIME LEFT: 172799.92
 STEP:   9 TIME =     0.01 SECS, INTEGRAL =      0.09 TIME LEFT: 172799.91
 STEP:  10 TIME =     0.01 SECS, INTEGRAL =      0.10 TIME LEFT: 172799.90
 STEP:  11 TIME =     0.01 SECS, INTEGRAL =      0.11 TIME LEFT: 172799.89
 STEP:  12 TIME =     0.01 SECS, INTEGRAL =      0.12 TIME LEFT: 172799.88
 STEP:  13 TIME =     0.01 SECS, INTEGRAL =      0.13 TIME LEFT: 172799.87
 STEP:  14 TIME =     0.01 SECS, INTEGRAL =      0.13 TIME LEFT: 172799.86
 STEP:  15 TIME =     0.01 SECS, INTEGRAL =      0.14 TIME LEFT: 172799.85
 STEP:  16 TIME =     0.01 SECS, INTEGRAL =      0.15 TIME LEFT: 172799.84
 STEP:  17 TIME =     0.01 SECS, INTEGRAL =      0.16 TIME LEFT: 172799.83
 STEP:  18 TIME =     0.01 SECS, INTEGRAL =      0.17 TIME LEFT: 172799.82
 STEP:  19 TIME =     0.01 SECS, INTEGRAL =      0.18 TIME LEFT: 172799.82
 STEP:  20 TIME =     0.01 SECS, INTEGRAL =      0.19 TIME LEFT: 172799.81
 STEP:  21 TIME =     0.01 SECS, INTEGRAL =      0.20 TIME LEFT: 172799.80
 STEP:  22 TIME =     0.01 SECS, INTEGRAL =      0.21 TIME LEFT: 172799.79
 STEP:  23 TIME =     0.01 SECS, INTEGRAL =      0.22 TIME LEFT: 172799.78
 STEP:  24 TIME =     0.01 SECS, INTEGRAL =      0.23 TIME LEFT: 172799.77
 STEP:  25 TIME =     0.01 SECS, INTEGRAL =      0.24 TIME LEFT: 172799.76
 STEP:  26 TIME =     0.01 SECS, INTEGRAL =      0.25 TIME LEFT: 172799.75
 STEP:  27 TIME =     0.01 SECS, INTEGRAL =      0.26 TIME LEFT: 172799.74
 STEP:  28 TIME =     0.01 SECS, INTEGRAL =      0.27 TIME LEFT: 172799.73
 STEP:  29 TIME =     0.01 SECS, INTEGRAL =      0.28 TIME LEFT: 172799.72
 STEP:  30 TIME =     0.01 SECS, INTEGRAL =      0.29 TIME LEFT: 172799.71
 STEP:  31 TIME =     0.01 SECS, INTEGRAL =      0.30 TIME LEFT: 172799.70
 STEP:  32 TIME =     0.01 SECS, INTEGRAL =      0.31 TIME LEFT: 172799.69
 STEP:  33 TIME =     0.01 SECS, INTEGRAL =      0.31 TIME LEFT: 172799.68
 STEP:  34 TIME =     0.01 SECS, INTEGRAL =      0.32 TIME LEFT: 172799.67
 STEP:  35 TIME =     0.01 SECS, INTEGRAL =      0.33 TIME LEFT: 172799.66
 STEP:  36 TIME =     0.01 SECS, INTEGRAL =      0.35 TIME LEFT: 172799.65
 STEP:  37 TIME =     0.01 SECS, INTEGRAL =      0.36 TIME LEFT: 172799.63
 STEP:  38 TIME =     0.01 SECS, INTEGRAL =      0.37 TIME LEFT: 172799.62
 STEP:  39 TIME =     0.01 SECS, INTEGRAL =      0.38 TIME LEFT: 172799.61

(To convert to Hartree/Bohr^2, multiply by (10^(-21) x N x a0^2)/(4.184 x 627.51) = 0.0642)


           FORCE MATRIX IN MILLIDYNES/ANGSTROM


                  C  1       C  2       C  3       C  4       C  5       H  6
 ------------------------------------------------------------------------------
     C    1  15.430993
     C    2   4.221574  15.431094
     C    3   4.850319   4.849802  15.395899
     C    4   3.736138   1.886833   0.651506  14.434345
     C    5   1.886465   3.735939   0.651439   3.267172  14.434029
     H    6   0.363387   4.997126   0.413419   0.039602   0.387400   5.526718
     H    7   4.996966   0.363363   0.413453   0.387350   0.039605   0.015594
     H    8   0.027779   0.449115   0.049332   0.445847   4.730525   0.014491
     H    9   0.042332   0.445175   0.021753   0.429094   4.700057   0.016740
     H   10   0.445083   0.042332   0.021779   4.700413   0.429081   0.005413
     H   11   0.449174   0.027671   0.049220   4.730467   0.445853   0.002184
     H   12   0.460370   0.460294   4.793127   0.028697   0.028660   0.030413
     H   13   0.456891   0.456888   4.837156   0.051272   0.051191   0.015383


                  H  7       H  8       H  9       H 10       H 11       H 12
 ------------------------------------------------------------------------------
     H    7   5.526524
     H    8   0.002175   5.337073
     H    9   0.005421   0.538982   5.324652
     H   10   0.016734   0.031563   0.020119   5.325001
     H   11   0.014521   0.023420   0.031593   0.538900   5.336924
     H   12   0.030429   0.004370   0.011981   0.011949   0.004374   5.415704
     H   13   0.015448   0.008012   0.004291   0.004321   0.008038   0.487002


                  H 13
 ------------------
     H   13   5.428283


          HEAT OF FORMATION =      37.740401 KCALS/MOLE

          ZERO POINT ENERGY      73.157 KCAL/MOL


           NORMAL COORDINATE ANALYSIS (Total motion = 1 Angstrom)


   Root No.       1         2         3         4         5         6         7         8

                 1 A       2 A       3 A       4 A       5 A       6 A       7 A       8 A   

                 320.5     447.3     764.8     839.8     848.5     855.0     904.9     944.8
  
           1    0.0163   -0.0029   -0.0333   -0.0029   -0.0191   -0.0314   -0.0197    0.0010
           2   -0.0237    0.0285    0.0267   -0.0041   -0.0199   -0.0002   -0.0103    0.0040
           3    0.0168   -0.0330    0.0387    0.0000    0.0095   -0.0026    0.0143    0.0214
           4    0.0163    0.0029   -0.0333    0.0028   -0.0194    0.0310   -0.0197   -0.0010
           5    0.0237    0.0285   -0.0267   -0.0040    0.0199    0.0001    0.0103    0.0040
           6   -0.0168   -0.0330   -0.0387    0.0000   -0.0095   -0.0028   -0.0143    0.0213
           7   -0.0323    0.0000   -0.0177    0.0000    0.0407    0.0003    0.0100    0.0000
           8    0.0000    0.0241    0.0000   -0.0128    0.0003   -0.0473    0.0000    0.0118
           9    0.0000    0.0616    0.0000    0.0020    0.0001   -0.0134    0.0000    0.0372
          10    0.0012    0.0032    0.0377   -0.0044   -0.0157    0.0035    0.0124    0.0389
          11    0.0386   -0.0318    0.0171    0.0281   -0.0273    0.0118   -0.0145   -0.0081
          12   -0.0122   -0.0075    0.0228   -0.0064   -0.0339    0.0130    0.0229   -0.0220
          13    0.0012   -0.0032    0.0377    0.0044   -0.0157   -0.0037    0.0125   -0.0389
          14   -0.0386   -0.0319   -0.0170    0.0282    0.0272    0.0122    0.0145   -0.0081
          15    0.0122   -0.0075   -0.0229   -0.0063    0.0338    0.0134   -0.0229   -0.0220
          16    0.0456    0.0001   -0.0494   -0.0125    0.0278    0.2117   -0.0429    0.0774
          17    0.0712    0.0067   -0.0351   -0.0425    0.0703    0.1876   -0.0639    0.0096
          18   -0.0251   -0.0366   -0.0264    0.0000   -0.0313   -0.1011   -0.0206   -0.0515
          19    0.0456    0.0000   -0.0493    0.0127    0.0303   -0.2113   -0.0427   -0.0774
          20   -0.0712    0.0066    0.0350   -0.0427   -0.0724    0.1866    0.0638    0.0096
          21    0.0252   -0.0366    0.0265    0.0001    0.0326   -0.1006    0.0206   -0.0515
          22   -0.0623   -0.0076    0.0438   -0.1397    0.0246   -0.0299    0.0276   -0.0438
          23   -0.0719   -0.0385   -0.0141   -0.0479    0.0414   -0.0003    0.0128   -0.0122
          24    0.0896    0.0653   -0.0598    0.1083    0.1246    0.0093    0.1132   -0.0230
          25    0.0564    0.0010    0.0535    0.1487    0.0067    0.0096    0.0026   -0.0775
          26   -0.1219   -0.0916    0.0020   -0.1079    0.0060    0.0027   -0.0946   -0.0400
          27   -0.0180   -0.0501   -0.0006   -0.0173    0.0315    0.0134   -0.1115   -0.0721
          28    0.0564   -0.0010    0.0533   -0.1487    0.0071   -0.0095    0.0026    0.0775
          29    0.1219   -0.0915   -0.0021   -0.1079   -0.0059    0.0027    0.0947   -0.0399
          30    0.0180   -0.0501    0.0007   -0.0173   -0.0317    0.0130    0.1115   -0.0720
          31   -0.0624    0.0076    0.0440    0.1398    0.0240    0.0302    0.0275    0.0438
          32    0.0719   -0.0384    0.0140   -0.0479   -0.0413   -0.0009   -0.0128   -0.0122
          33   -0.0896    0.0652    0.0599    0.1081   -0.1248    0.0075   -0.1132   -0.0230
          34   -0.0896    0.0000   -0.1859    0.0001   -0.0405   -0.0002    0.1351    0.0000
          35    0.0000    0.1230   -0.0001   -0.0512   -0.0001    0.0140    0.0000   -0.1185
          36    0.0000    0.1396    0.0000   -0.0287   -0.0002    0.0348    0.0000   -0.0669
          37   -0.0216    0.0000    0.1966    0.0000    0.2680    0.0018   -0.0563    0.0000
          38    0.0000   -0.0827    0.0000    0.0254    0.0006   -0.1141    0.0000    0.1621
          39    0.0000    0.1361    0.0000   -0.0256   -0.0002    0.0340    0.0000   -0.0673


   Root No.       9        10        11        12        13        14        15        16

                 9 A      10 A      11 A      12 A      13 A      14 A      15 A      16 A   

                 978.8     985.2    1040.6    1041.8    1085.9    1090.6    1114.8    1150.1
  
           1    0.0226   -0.0272    0.0079    0.0176    0.0333    0.0008   -0.0209    0.0098
           2   -0.0083    0.0078    0.0159   -0.0091   -0.0233    0.0204    0.0124   -0.0421
           3    0.0141    0.0169    0.0183   -0.0042    0.0239    0.0024    0.0029    0.0300
           4   -0.0228   -0.0271    0.0075   -0.0177   -0.0333    0.0009    0.0210    0.0098
           5   -0.0084   -0.0078   -0.0161   -0.0088   -0.0234   -0.0203    0.0124    0.0421
           6    0.0141   -0.0169   -0.0184   -0.0038    0.0239   -0.0025    0.0029   -0.0300
           7    0.0000   -0.0022   -0.0058    0.0001    0.0000   -0.0045    0.0000   -0.0156
           8    0.0342   -0.0001    0.0002    0.0167    0.0114    0.0000   -0.0279    0.0000
           9   -0.0082    0.0000    0.0003    0.0339   -0.0214    0.0000    0.0205    0.0000
          10    0.0131    0.0073   -0.0081   -0.0412    0.0044   -0.0012   -0.0194   -0.0052
          11   -0.0150    0.0091   -0.0162   -0.0097    0.0115    0.0306   -0.0042    0.0243
          12   -0.0115    0.0016   -0.0174   -0.0121   -0.0206   -0.0197   -0.0151   -0.0158
          13   -0.0130    0.0073   -0.0072    0.0413   -0.0043   -0.0012    0.0193   -0.0051
          14   -0.0150   -0.0091    0.0160   -0.0100    0.0114   -0.0307   -0.0042   -0.0243
          15   -0.0115   -0.0015    0.0172   -0.0125   -0.0205    0.0198   -0.0151    0.0158
          16    0.0116    0.1026    0.0549    0.0561   -0.0017    0.0455   -0.0931   -0.1013
          17    0.0661    0.1203   -0.1455    0.0683    0.0900    0.0062    0.1517   -0.1002
          18    0.0094   -0.0916   -0.1113   -0.0430    0.0383   -0.0339    0.1635    0.0202
          19   -0.0112    0.1027    0.0536   -0.0573    0.0020    0.0455    0.0930   -0.1015
          20    0.0656   -0.1206    0.1468    0.0651    0.0900   -0.0067    0.1519    0.1001
          21    0.0097    0.0916    0.1103   -0.0454    0.0384    0.0336    0.1636   -0.0204
          22   -0.1107    0.0084   -0.0055    0.0994    0.0525    0.1738   -0.0274    0.0465
          23   -0.0569   -0.0070    0.0138    0.0156    0.0323    0.0482   -0.0233    0.0032
          24   -0.1130   -0.0476    0.0567    0.0297    0.1032    0.0546   -0.0758   -0.0421
          25    0.0885    0.0519    0.0757    0.0958   -0.0397   -0.1506   -0.0084   -0.0178
          26    0.0298    0.0333    0.0250    0.0177   -0.0541    0.0062   -0.0309    0.0582
          27    0.0869    0.0562    0.0750    0.0439   -0.0915   -0.0441   -0.0549    0.0704
          28   -0.0882    0.0523    0.0737   -0.0975    0.0392   -0.1508    0.0083   -0.0178
          29    0.0297   -0.0334   -0.0246    0.0182   -0.0541   -0.0059   -0.0310   -0.0583
          30    0.0867   -0.0565   -0.0741    0.0455   -0.0913    0.0445   -0.0550   -0.0704
          31    0.1108    0.0079   -0.0076   -0.0993   -0.0519    0.1740    0.0276    0.0465
          32   -0.0569    0.0072   -0.0135    0.0159    0.0321   -0.0482   -0.0234   -0.0032
          33   -0.1129    0.0479   -0.0560    0.0310    0.1029   -0.0549   -0.0758    0.0421
          34    0.0004    0.2251   -0.0638    0.0007    0.0000   -0.0279    0.0000    0.1562
          35    0.0912   -0.0002   -0.0008   -0.0745    0.0825   -0.0001   -0.0708    0.0000
          36    0.0388   -0.0001   -0.0004   -0.0381    0.0384   -0.0001   -0.0119    0.0000
          37   -0.0001   -0.0523   -0.1133    0.0012   -0.0001   -0.0482   -0.0001    0.0645
          38   -0.0206    0.0001    0.0013    0.1214   -0.0715    0.0001    0.0142    0.0000
          39    0.0315   -0.0001   -0.0004   -0.0389    0.0368   -0.0001   -0.0074    0.0000


   Root No.      17        18        19        20        21        22        23        24

                17 A      18 A      19 A      20 A      21 A      22 A      23 A      24 A   

                1169.9    1220.1    1244.0    1279.4    1291.3    1382.0    1402.3    1429.5
  
           1   -0.0218    0.0056    0.0225   -0.0284   -0.0057   -0.0327    0.0039   -0.0036
           2   -0.0253   -0.0129    0.0307    0.0285   -0.0251   -0.0225    0.0020    0.0125
           3    0.0210    0.0039    0.0219    0.0497   -0.0448   -0.0044    0.0039    0.0169
           4   -0.0218   -0.0056    0.0225    0.0284   -0.0057    0.0327    0.0039    0.0036
           5    0.0253   -0.0130   -0.0307    0.0285    0.0250   -0.0225   -0.0020    0.0125
           6   -0.0210    0.0039   -0.0219    0.0497    0.0447   -0.0044   -0.0039    0.0169
           7    0.0846    0.0000   -0.0176    0.0000    0.0003    0.0000   -0.0002    0.0000
           8    0.0000    0.0249    0.0000   -0.0066    0.0000   -0.0112    0.0000   -0.0058
           9    0.0000   -0.0048    0.0000   -0.0228    0.0000   -0.0026    0.0000   -0.0041
          10   -0.0026   -0.0490   -0.0212   -0.0131   -0.0201    0.0048   -0.0222   -0.0325
          11    0.0137    0.0097   -0.0045   -0.0136    0.0251    0.0013   -0.0138   -0.0138
          12    0.0045    0.0220    0.0180   -0.0323    0.0452   -0.0025   -0.0275   -0.0285
          13   -0.0026    0.0490   -0.0212    0.0131   -0.0201   -0.0048   -0.0222    0.0325
          14   -0.0137    0.0097    0.0045   -0.0136   -0.0250    0.0013    0.0138   -0.0138
          15   -0.0045    0.0220   -0.0180   -0.0324   -0.0451   -0.0026    0.0274   -0.0285
          16   -0.0648    0.0463   -0.0725    0.0485    0.0629    0.0023   -0.0080    0.0157
          17    0.0594   -0.0359    0.0864   -0.0989   -0.0507    0.0087    0.0043   -0.0239
          18    0.0329   -0.0517    0.1119   -0.0138   -0.0493    0.0388    0.0106   -0.0062
          19   -0.0648   -0.0462   -0.0725   -0.0484    0.0629   -0.0023   -0.0081   -0.0157
          20   -0.0595   -0.0360   -0.0864   -0.0989    0.0508    0.0087   -0.0044   -0.0239
          21   -0.0330   -0.0517   -0.1119   -0.0138    0.0493    0.0388   -0.0106   -0.0062
          22    0.0343   -0.0712    0.0642    0.0873    0.1187    0.0073    0.1142   -0.1191
          23    0.0044   -0.0409    0.0385    0.0167    0.0346    0.0051    0.0699   -0.0763
          24   -0.0194   -0.1139    0.1019   -0.0540    0.0323    0.0371   -0.1707    0.1329
          25    0.0259   -0.0791    0.0832    0.0891    0.1063    0.0012    0.1140   -0.1133
          26    0.0301   -0.0715    0.0224   -0.0563    0.0071    0.0114   -0.1802    0.1556
          27    0.0457   -0.1198    0.0596   -0.0249    0.0570    0.0102   -0.0602    0.0328
          28    0.0260    0.0790    0.0832   -0.0889    0.1064   -0.0014    0.1142    0.1130
          29   -0.0302   -0.0715   -0.0224   -0.0564   -0.0069    0.0111    0.1805    0.1553
          30   -0.0457   -0.1198   -0.0596   -0.0250   -0.0570    0.0102    0.0602    0.0327
          31    0.0342    0.0712    0.0641   -0.0872    0.1188   -0.0075    0.1144    0.1189
          32   -0.0044   -0.0409   -0.0385    0.0166   -0.0346    0.0052   -0.0700   -0.0761
          33    0.0195   -0.1140   -0.1019   -0.0541   -0.0323    0.0368    0.1710    0.1326
          34   -0.1709    0.0000    0.0432    0.0000   -0.0321    0.0000    0.0023    0.0000
          35    0.0001    0.0517    0.0000    0.0594    0.0000    0.2957    0.0002    0.0051
          36    0.0000    0.0153    0.0000    0.0283    0.0000    0.2119    0.0002    0.0038
          37   -0.2480    0.0000   -0.0149    0.0001    0.0670    0.0000   -0.0043    0.0000
          38    0.0000    0.0245    0.0000   -0.0588    0.0001    0.2923    0.0002   -0.0163
          39    0.0000   -0.0032    0.0000    0.0162    0.0000   -0.1878   -0.0001    0.0039


   Root No.      25        26        27        28        29        30        31        32

                25 A      26 A      27 A      28 A      29 A      30 A      31 A      32 A   

                1530.2    3039.6    3053.3    3086.0    3106.3    3106.7    3126.8    3143.8
  
           1   -0.0871   -0.0005    0.0008   -0.0025    0.0003    0.0005   -0.0005    0.0246
           2   -0.0596   -0.0002    0.0000   -0.0009    0.0005    0.0004   -0.0005    0.0096
           3   -0.0047    0.0004   -0.0006    0.0017    0.0001   -0.0011    0.0014   -0.0257
           4    0.0871   -0.0006   -0.0008    0.0025    0.0003   -0.0005    0.0005    0.0243
           5   -0.0596    0.0002    0.0000   -0.0009   -0.0005    0.0004   -0.0005   -0.0095
           6   -0.0046   -0.0004   -0.0006    0.0017   -0.0001   -0.0011    0.0014    0.0255
           7    0.0000   -0.0001    0.0000    0.0000   -0.0001    0.0000    0.0000    0.0004
           8    0.1245    0.0000   -0.0001    0.0045    0.0000    0.0005   -0.0406    0.0000
           9    0.0004    0.0000   -0.0004   -0.0540    0.0000    0.0017   -0.0055    0.0000
          10    0.0039   -0.0008    0.0009   -0.0008    0.0155   -0.0142   -0.0004   -0.0009
          11    0.0011    0.0274   -0.0270    0.0003    0.0073   -0.0073    0.0003    0.0005
          12   -0.0079   -0.0130    0.0130   -0.0008    0.0128   -0.0126   -0.0005   -0.0015
          13   -0.0039   -0.0008   -0.0009    0.0008    0.0157    0.0140    0.0004   -0.0009
          14    0.0011   -0.0275   -0.0268    0.0003   -0.0074   -0.0073    0.0003   -0.0004
          15   -0.0079    0.0130    0.0130   -0.0008   -0.0130   -0.0124   -0.0005    0.0015
          16    0.0316    0.0063    0.0074   -0.0234   -0.0059    0.0131   -0.0164   -0.2889
          17    0.0049   -0.0035   -0.0038    0.0071    0.0024   -0.0051    0.0068    0.1169
          18    0.0827    0.0056    0.0068   -0.0263   -0.0069    0.0135   -0.0168   -0.3077
          19   -0.0316    0.0063   -0.0074    0.0234   -0.0061   -0.0130    0.0164   -0.2917
          20    0.0050    0.0034   -0.0038    0.0071   -0.0025   -0.0050    0.0069   -0.1180
          21    0.0827   -0.0055    0.0068   -0.0263    0.0071    0.0134   -0.0168    0.3107
          22    0.0129   -0.0933   -0.0943   -0.0037   -0.0939   -0.0896   -0.0012    0.0005
          23    0.0051    0.2012    0.1936    0.0096    0.2250    0.2127    0.0035   -0.0007
          24    0.0600    0.0118    0.0114    0.0004    0.0000   -0.0004    0.0001    0.0019
          25    0.0013    0.1037    0.1062   -0.0067   -0.0913   -0.0853   -0.0038    0.0071
          26    0.0185    0.1300    0.1281   -0.0085   -0.1360   -0.1269   -0.0060    0.0089
          27    0.0086   -0.1708   -0.1679    0.0109    0.1582    0.1471    0.0063   -0.0125
          28   -0.0013    0.1032   -0.1066    0.0067   -0.0901    0.0868    0.0038    0.0072
          29    0.0185   -0.1293    0.1284   -0.0085    0.1341   -0.1290   -0.0060   -0.0089
          30    0.0086    0.1699   -0.1685    0.0109   -0.1561    0.1496    0.0063    0.0125
          31   -0.0129   -0.0929    0.0948    0.0037   -0.0923    0.0908    0.0012    0.0004
          32    0.0052   -0.2006    0.1948    0.0097   -0.2213    0.2158    0.0035    0.0005
          33    0.0600   -0.0116    0.0114    0.0004    0.0001   -0.0005    0.0001   -0.0019
          34    0.0000   -0.0003    0.0000    0.0000    0.0003    0.0000    0.0000   -0.0027
          35   -0.0670    0.0000   -0.0002   -0.2719    0.0000    0.0044    0.2327   -0.0001
          36   -0.1369    0.0000    0.0013    0.3459    0.0000   -0.0059   -0.3355    0.0001
          37    0.0000   -0.0004    0.0000    0.0000   -0.0001    0.0000    0.0000    0.0020
          38   -0.0804    0.0000    0.0052    0.2159   -0.0001   -0.0090    0.2482    0.0002
          39    0.1296    0.0000    0.0072    0.3052   -0.0001   -0.0135    0.4002    0.0003


   Root No.      33

                33 A   

                3149.6
  
           1    0.0231
           2    0.0093
           3   -0.0235
           4   -0.0234
           5    0.0093
           6   -0.0237
           7    0.0000
           8   -0.0031
           9   -0.0049
          10    0.0018
          11    0.0019
          12    0.0009
          13   -0.0018
          14    0.0019
          15    0.0009
          16    0.2604
          17   -0.1053
          18    0.2772
          19   -0.2579
          20   -0.1042
          21    0.2745
          22    0.0098
          23   -0.0235
          24   -0.0020
          25    0.0014
          26    0.0042
          27   -0.0024
          28   -0.0015
          29    0.0043
          30   -0.0025
          31   -0.0098
          32   -0.0235
          33   -0.0020
          34    0.0000
          35   -0.0138
          36    0.0116
          37    0.0000
          38    0.0320
          39    0.0450


           MASS-WEIGHTED COORDINATE ANALYSIS (NORMAL COORDINATES)


   Root No.       1         2         3         4         5         6         7         8

                 1 A       2 A       3 A       4 A       5 A       6 A       7 A       8 A   

                 320.5     447.3     764.8     839.8     848.5     855.0     904.9     944.8
  
           1    0.1355   -0.0215   -0.2369   -0.0242   -0.1416   -0.2131   -0.1797    0.0079
           2   -0.1971    0.2098    0.1898   -0.0343   -0.1477   -0.0010   -0.0943    0.0327
           3    0.1392   -0.2433    0.2757   -0.0003    0.0704   -0.0180    0.1300    0.1756
           4    0.1354    0.0215   -0.2369    0.0241   -0.1443    0.2110   -0.1798   -0.0081
           5    0.1970    0.2099   -0.1898   -0.0338    0.1478    0.0008    0.0943    0.0328
           6   -0.1390   -0.2435   -0.2757   -0.0002   -0.0702   -0.0191   -0.1300    0.1756
           7   -0.2683   -0.0001   -0.1261    0.0003    0.3019    0.0020    0.0914    0.0001
           8    0.0000    0.1773   -0.0001   -0.1079    0.0020   -0.3216    0.0000    0.0967
           9   -0.0001    0.4538    0.0000    0.0170    0.0005   -0.0913    0.0000    0.3062
          10    0.0098    0.0236    0.2681   -0.0373   -0.1166    0.0239    0.1135    0.3197
          11    0.3205   -0.2346    0.1215    0.2377   -0.2030    0.0802   -0.1318   -0.0668
          12   -0.1011   -0.0554    0.1627   -0.0537   -0.2516    0.0882    0.2085   -0.1812
          13    0.0099   -0.0235    0.2682    0.0368   -0.1162   -0.0253    0.1136   -0.3196
          14   -0.3204   -0.2348   -0.1212    0.2380    0.2017    0.0829    0.1318   -0.0668
          15    0.1012   -0.0554   -0.1627   -0.0533    0.2506    0.0913   -0.2085   -0.1813
          16    0.1096    0.0001   -0.1019   -0.0307    0.0598    0.4167   -0.1132    0.1844
          17    0.1711    0.0142   -0.0723   -0.1041    0.1511    0.3694   -0.1687    0.0229
          18   -0.0605   -0.0781   -0.0545    0.0001   -0.0674   -0.1990   -0.0544   -0.1226
          19    0.1096   -0.0001   -0.1018    0.0310    0.0652   -0.4159   -0.1129   -0.1844
          20   -0.1711    0.0141    0.0721   -0.1045   -0.1557    0.3674    0.1684    0.0230
          21    0.0605   -0.0781    0.0546    0.0002    0.0700   -0.1981    0.0545   -0.1227
          22   -0.1498   -0.0162    0.0904   -0.3423    0.0529   -0.0588    0.0730   -0.1044
          23   -0.1729   -0.0821   -0.0290   -0.1174    0.0890   -0.0006    0.0338   -0.0290
          24    0.2154    0.1393   -0.1233    0.2652    0.2680    0.0184    0.2991   -0.0547
          25    0.1355    0.0022    0.1104    0.3643    0.0144    0.0190    0.0069   -0.1847
          26   -0.2930   -0.1954    0.0042   -0.2642    0.0130    0.0053   -0.2499   -0.0953
          27   -0.0434   -0.1070   -0.0013   -0.0423    0.0678    0.0264   -0.2945   -0.1717
          28    0.1355   -0.0021    0.1100   -0.3642    0.0152   -0.0187    0.0069    0.1848
          29    0.2932   -0.1953   -0.0044   -0.2642   -0.0127    0.0053    0.2500   -0.0951
          30    0.0434   -0.1069    0.0013   -0.0423   -0.0682    0.0256    0.2945   -0.1716
          31   -0.1500    0.0162    0.0907    0.3423    0.0516    0.0595    0.0727    0.1045
          32    0.1729   -0.0819    0.0289   -0.1173   -0.0889   -0.0017   -0.0339   -0.0290
          33   -0.2155    0.1392    0.1236    0.2647   -0.2685    0.0148   -0.2991   -0.0549
          34   -0.2155    0.0000   -0.3835    0.0003   -0.0870   -0.0004    0.3567    0.0000
          35   -0.0001    0.2625   -0.0001   -0.1254   -0.0001    0.0276    0.0000   -0.2823
          36   -0.0001    0.2979   -0.0001   -0.0702   -0.0004    0.0684    0.0000   -0.1594
          37   -0.0520    0.0000    0.4055    0.0000    0.5764    0.0036   -0.1488    0.0001
          38    0.0000   -0.1766    0.0000    0.0623    0.0014   -0.2247    0.0000    0.3862
          39   -0.0001    0.2904   -0.0001   -0.0627   -0.0004    0.0670    0.0000   -0.1604


   Root No.       9        10        11        12        13        14        15        16

                 9 A      10 A      11 A      12 A      13 A      14 A      15 A      16 A   

                 978.8     985.2    1040.6    1041.8    1085.9    1090.6    1114.8    1150.1
  
           1    0.1983   -0.2286    0.0701    0.1511    0.2859    0.0065   -0.1668    0.0786
           2   -0.0730    0.0656    0.1414   -0.0782   -0.1996    0.1699    0.0984   -0.3382
           3    0.1239    0.1419    0.1628   -0.0361    0.2047    0.0197    0.0233    0.2411
           4   -0.1993   -0.2279    0.0668   -0.1526   -0.2859    0.0075    0.1669    0.0783
           5   -0.0732   -0.0653   -0.1430   -0.0753   -0.2003   -0.1692    0.0986    0.3381
           6    0.1232   -0.1423   -0.1636   -0.0326    0.2046   -0.0205    0.0229   -0.2411
           7    0.0001   -0.0187   -0.0513    0.0006   -0.0002   -0.0372    0.0001   -0.1249
           8    0.2998   -0.0005    0.0016    0.1437    0.0981   -0.0001   -0.2221    0.0002
           9   -0.0722    0.0001    0.0031    0.2914   -0.1834    0.0003    0.1633    0.0000
          10    0.1145    0.0613   -0.0717   -0.3540    0.0373   -0.0098   -0.1541   -0.0414
          11   -0.1311    0.0770   -0.1442   -0.0830    0.0984    0.2548   -0.0335    0.1954
          12   -0.1010    0.0134   -0.1547   -0.1041   -0.1763   -0.1638   -0.1204   -0.1269
          13   -0.1142    0.0616   -0.0643    0.3555   -0.0373   -0.0098    0.1541   -0.0412
          14   -0.1312   -0.0767    0.1423   -0.0859    0.0975   -0.2552   -0.0338   -0.1954
          15   -0.1011   -0.0130    0.1526   -0.1075   -0.1757    0.1645   -0.1201    0.1271
          16    0.0294    0.2501    0.1411    0.1398   -0.0043    0.1098   -0.2148   -0.2357
          17    0.1677    0.2933   -0.3743    0.1703    0.2236    0.0150    0.3500   -0.2330
          18    0.0238   -0.2233   -0.2864   -0.1071    0.0951   -0.0816    0.3773    0.0471
          19   -0.0285    0.2503    0.1380   -0.1427    0.0049    0.1096    0.2146   -0.2360
          20    0.1665   -0.2940    0.3776    0.1621    0.2237   -0.0160    0.3504    0.2328
          21    0.0246    0.2234    0.2837   -0.1132    0.0955    0.0810    0.3774   -0.0475
          22   -0.2809    0.0205   -0.0142    0.2478    0.1306    0.4189   -0.0633    0.1081
          23   -0.1444   -0.0170    0.0356    0.0388    0.0802    0.1161   -0.0538    0.0074
          24   -0.2868   -0.1161    0.1457    0.0741    0.2563    0.1315   -0.1749   -0.0979
          25    0.2244    0.1266    0.1948    0.2388   -0.0987   -0.3630   -0.0193   -0.0415
          26    0.0755    0.0813    0.0643    0.0441   -0.1344    0.0149   -0.0713    0.1355
          27    0.2204    0.1369    0.1930    0.1093   -0.2275   -0.1062   -0.1266    0.1637
          28   -0.2238    0.1276    0.1897   -0.2429    0.0973   -0.3635    0.0192   -0.0414
          29    0.0753   -0.0814   -0.0632    0.0454   -0.1345   -0.0143   -0.0715   -0.1355
          30    0.2199   -0.1377   -0.1906    0.1134   -0.2270    0.1073   -0.1268   -0.1637
          31    0.2810    0.0193   -0.0196   -0.2474   -0.1290    0.4194    0.0636    0.1081
          32   -0.1444    0.0176   -0.0348    0.0395    0.0799   -0.1163   -0.0539   -0.0074
          33   -0.2865    0.1169   -0.1441    0.0772    0.2558   -0.1324   -0.1749    0.0978
          34    0.0009    0.5489   -0.1642    0.0017   -0.0001   -0.0672   -0.0001    0.3633
          35    0.2313   -0.0004   -0.0019   -0.1857    0.2051   -0.0003   -0.1634    0.0001
          36    0.0985   -0.0002   -0.0010   -0.0950    0.0953   -0.0002   -0.0275    0.0000
          37   -0.0002   -0.1276   -0.2915    0.0031   -0.0001   -0.1161   -0.0003    0.1499
          38   -0.0522    0.0001    0.0033    0.3026   -0.1778    0.0003    0.0328    0.0000
          39    0.0800   -0.0002   -0.0010   -0.0970    0.0915   -0.0002   -0.0172    0.0000


   Root No.      17        18        19        20        21        22        23        24

                17 A      18 A      19 A      20 A      21 A      22 A      23 A      24 A   

                1169.9    1220.1    1244.0    1279.4    1291.3    1382.0    1402.3    1429.5
  
           1   -0.1514    0.0445    0.1860   -0.2113   -0.0415   -0.2063    0.0280   -0.0272
           2   -0.1762   -0.1022    0.2532    0.2119   -0.1836   -0.1416    0.0141    0.0934
           3    0.1459    0.0306    0.1809    0.3695   -0.3280   -0.0277    0.0283    0.1260
           4   -0.1516   -0.0445    0.1860    0.2114   -0.0419    0.2063    0.0285    0.0272
           5    0.1760   -0.1026   -0.2533    0.2121    0.1833   -0.1416   -0.0141    0.0934
           6   -0.1459    0.0306   -0.1810    0.3700    0.3276   -0.0277   -0.0280    0.1260
           7    0.5885    0.0000   -0.1450    0.0000    0.0019    0.0000   -0.0015    0.0000
           8    0.0001    0.1972    0.0000   -0.0492    0.0000   -0.0704   -0.0001   -0.0436
           9   -0.0001   -0.0377    0.0000   -0.1699    0.0001   -0.0162   -0.0001   -0.0309
          10   -0.0178   -0.3876   -0.1750   -0.0973   -0.1471    0.0304   -0.1608   -0.2424
          11    0.0955    0.0770   -0.0370   -0.1010    0.1836    0.0081   -0.0999   -0.1027
          12    0.0314    0.1739    0.1484   -0.2405    0.3311   -0.0159   -0.1985   -0.2126
          13   -0.0178    0.3876   -0.1751    0.0971   -0.1471   -0.0302   -0.1603    0.2427
          14   -0.0954    0.0770    0.0370   -0.1012   -0.1835    0.0080    0.0996   -0.1028
          15   -0.0313    0.1738   -0.1483   -0.2410   -0.3308   -0.0162    0.1980   -0.2130
          16   -0.1305    0.1061   -0.1733    0.1045    0.1335    0.0041   -0.0167    0.0339
          17    0.1196   -0.0822    0.2065   -0.2131   -0.1075    0.0159    0.0091   -0.0517
          18    0.0663   -0.1186    0.2674   -0.0297   -0.1046    0.0709    0.0223   -0.0134
          19   -0.1306   -0.1060   -0.1732   -0.1043    0.1336   -0.0041   -0.0169   -0.0339
          20   -0.1199   -0.0824   -0.2064   -0.2130    0.1079    0.0160   -0.0092   -0.0517
          21   -0.0665   -0.1186   -0.2673   -0.0297    0.1046    0.0709   -0.0222   -0.0134
          22    0.0691   -0.1632    0.1533    0.1881    0.2520    0.0133    0.2390   -0.2576
          23    0.0090   -0.0938    0.0920    0.0360    0.0734    0.0092    0.1464   -0.1650
          24   -0.0391   -0.2611    0.2436   -0.1164    0.0687    0.0678   -0.3574    0.2874
          25    0.0522   -0.1812    0.1988    0.1919    0.2256    0.0021    0.2387   -0.2451
          26    0.0607   -0.1639    0.0535   -0.1214    0.0150    0.0209   -0.3773    0.3366
          27    0.0920   -0.2747    0.1424   -0.0536    0.1210    0.0187   -0.1260    0.0710
          28    0.0524    0.1812    0.1989   -0.1916    0.2259   -0.0025    0.2391    0.2445
          29   -0.0608   -0.1638   -0.0535   -0.1216   -0.0147    0.0203    0.3780    0.3359
          30   -0.0921   -0.2746   -0.1424   -0.0538   -0.1209    0.0185    0.1260    0.0706
          31    0.0689    0.1632    0.1533   -0.1878    0.2523   -0.0138    0.2396    0.2572
          32   -0.0088   -0.0938   -0.0920    0.0358   -0.0734    0.0095   -0.1466   -0.1646
          33    0.0394   -0.2613   -0.2435   -0.1166   -0.0685    0.0672    0.3581    0.2867
          34   -0.3444   -0.0001    0.1032    0.0000   -0.0681    0.0000    0.0048    0.0000
          35    0.0001    0.1185    0.0000    0.1280    0.0000    0.5401    0.0005    0.0110
          36    0.0001    0.0351    0.0000    0.0609    0.0000    0.3869    0.0003    0.0082
          37   -0.4996    0.0000   -0.0356    0.0001    0.1422    0.0000   -0.0090    0.0000
          38    0.0000    0.0561    0.0000   -0.1268    0.0001    0.5337    0.0004   -0.0353
          39    0.0000   -0.0074    0.0000    0.0348    0.0000   -0.3429   -0.0002    0.0084


   Root No.      25        26        27        28        29        30        31        32

                25 A      26 A      27 A      28 A      29 A      30 A      31 A      32 A   

                1530.2    3039.6    3053.3    3086.0    3106.3    3106.7    3126.8    3143.8
  
           1   -0.4156   -0.0039    0.0059   -0.0141    0.0024    0.0038   -0.0029    0.1308
           2   -0.2846   -0.0017    0.0001   -0.0051    0.0038    0.0031   -0.0030    0.0514
           3   -0.0222    0.0032   -0.0042    0.0099    0.0006   -0.0082    0.0073   -0.1369
           4    0.4156   -0.0039   -0.0059    0.0141    0.0024   -0.0039    0.0029    0.1295
           5   -0.2845    0.0017    0.0001   -0.0051   -0.0038    0.0032   -0.0029   -0.0509
           6   -0.0222   -0.0032   -0.0041    0.0099   -0.0007   -0.0082    0.0073    0.1356
           7    0.0000   -0.0008    0.0000    0.0000   -0.0005    0.0000    0.0000    0.0019
           8    0.5942    0.0000   -0.0009    0.0255    0.0000    0.0039   -0.2187   -0.0001
           9    0.0017    0.0000   -0.0027   -0.3059    0.0001    0.0126   -0.0295   -0.0002
          10    0.0187   -0.0054    0.0067   -0.0045    0.1115   -0.1069   -0.0022   -0.0046
          11    0.0055    0.1956   -0.1952    0.0017    0.0522   -0.0553    0.0015    0.0025
          12   -0.0378   -0.0926    0.0942   -0.0044    0.0919   -0.0947   -0.0025   -0.0078
          13   -0.0187   -0.0055   -0.0068    0.0045    0.1132    0.1052    0.0022   -0.0046
          14    0.0055   -0.1964   -0.1943    0.0017   -0.0533   -0.0546    0.0015   -0.0024
          15   -0.0378    0.0931    0.0939   -0.0044   -0.0932   -0.0932   -0.0025    0.0078
          16    0.0437    0.0130    0.0155   -0.0383   -0.0123    0.0286   -0.0255   -0.4457
          17    0.0068   -0.0071   -0.0080    0.0117    0.0051   -0.0111    0.0107    0.1803
          18    0.1143    0.0115    0.0142   -0.0431   -0.0144    0.0295   -0.0262   -0.4748
          19   -0.0437    0.0130   -0.0156    0.0384   -0.0128   -0.0283    0.0256   -0.4501
          20    0.0069    0.0071   -0.0080    0.0117   -0.0052   -0.0110    0.0107   -0.1820
          21    0.1144   -0.0115    0.0143   -0.0432    0.0148    0.0292   -0.0263    0.4794
          22    0.0179   -0.1931   -0.1979   -0.0061   -0.1956   -0.1953   -0.0019    0.0007
          23    0.0071    0.4163    0.4060    0.0158    0.4686    0.4636    0.0055   -0.0011
          24    0.0829    0.0244    0.0239    0.0006   -0.0001   -0.0008    0.0001    0.0029
          25    0.0017    0.2146    0.2228   -0.0110   -0.1902   -0.1859   -0.0059    0.0110
          26    0.0256    0.2691    0.2687   -0.0139   -0.2832   -0.2766   -0.0094    0.0138
          27    0.0119   -0.3535   -0.3522    0.0179    0.3296    0.3206    0.0099   -0.0193
          28   -0.0017    0.2135   -0.2236    0.0110   -0.1877    0.1891    0.0059    0.0110
          29    0.0256   -0.2675    0.2694   -0.0139    0.2792   -0.2811   -0.0094   -0.0138
          30    0.0119    0.3516   -0.3533    0.0179   -0.3252    0.3261    0.0099    0.0193
          31   -0.0179   -0.1923    0.1989    0.0061   -0.1922    0.1980    0.0019    0.0006
          32    0.0071   -0.4150    0.4086    0.0159   -0.4609    0.4703    0.0055    0.0008
          33    0.0829   -0.0241    0.0238    0.0006    0.0003   -0.0010    0.0001   -0.0029
          34    0.0000   -0.0006    0.0000    0.0000    0.0007    0.0000    0.0000   -0.0042
          35   -0.0926    0.0000   -0.0005   -0.4458    0.0001    0.0095    0.3634   -0.0001
          36   -0.1893    0.0000    0.0028    0.5672   -0.0001   -0.0128   -0.5241    0.0001
          37    0.0000   -0.0008    0.0000    0.0000   -0.0003    0.0000    0.0000    0.0031
          38   -0.1111    0.0000    0.0110    0.3541   -0.0001   -0.0197    0.3877    0.0003
          39    0.1792    0.0000    0.0151    0.5005   -0.0002   -0.0294    0.6250    0.0005


   Root No.      33

                33 A   

                3149.6
  
           1    0.1366
           2    0.0547
           3   -0.1385
           4   -0.1379
           5    0.0552
           6   -0.1398
           7    0.0000
           8   -0.0185
           9   -0.0290
          10    0.0107
          11    0.0112
          12    0.0052
          13   -0.0107
          14    0.0112
          15    0.0051
          16    0.4453
          17   -0.1801
          18    0.4740
          19   -0.4410
          20   -0.1782
          21    0.4694
          22    0.0168
          23   -0.0401
          24   -0.0034
          25    0.0024
          26    0.0072
          27   -0.0042
          28   -0.0025
          29    0.0073
          30   -0.0044
          31   -0.0168
          32   -0.0402
          33   -0.0033
          34    0.0000
          35   -0.0236
          36    0.0198
          37    0.0000
          38    0.0548
          39    0.0769


          DESCRIPTION OF VIBRATIONS


 VIBRATION    1    1A       ATOM PAIR        ENERGY CONTRIBUTION    RADIAL
 FREQ.       320.47        C  4 --  C  5          +14.0% (175.4%)     0.0%
 T-DIPOLE    0.0326        C  1 --  C  4           +9.3% (142.9%)     0.0%
 TRAVEL      0.0806        C  2 --  C  5           +9.3% (142.8%)     0.0%
 RED. MASS   0.5584        C  2 --  C  4           +8.5% (136.1%)     2.7%
 EFF. MASS  32.3569

 VIBRATION    2    2A       ATOM PAIR        ENERGY CONTRIBUTION    RADIAL
 FREQ.       447.27        C  2 --  C  3          +14.4% (143.7%)     0.1%
 T-DIPOLE    0.0811        C  1 --  C  3          +14.4% (143.7%)     0.1%
 TRAVEL      0.0811        C  3 --  H 12          +12.8% (135.5%)    98.1%
 RED. MASS   1.0630        C  3 --  H 13           +9.3% (115.4%)    72.6%
 EFF. MASS  22.9186

 VIBRATION    3    3A       ATOM PAIR        ENERGY CONTRIBUTION    RADIAL
 FREQ.       764.76        C  1 --  C  5          +11.7% ( 87.8%)    97.8%
 T-DIPOLE    0.0341        C  2 --  C  4          +11.7% ( 87.8%)    97.8%
 TRAVEL      0.0893        C  1 --  C  2          +10.3% ( 82.5%)     0.0%
 RED. MASS   1.0410        C  1 --  C  4           +8.5% ( 74.9%)     5.8%
 EFF. MASS  11.0571

 VIBRATION    4    4A       ATOM PAIR        ENERGY CONTRIBUTION    RADIAL
 FREQ.       839.76        C  5 --  H  9          +17.6% ( 69.1%)     6.1%
 T-DIPOLE    0.0786        C  4 --  H 10          +17.6% ( 69.0%)     6.1%
 TRAVEL      0.1649        C  5 --  H  8          +17.6% ( 69.0%)     6.5%
 RED. MASS   0.2571        C  4 --  H 11          +17.6% ( 68.9%)     6.5%
 EFF. MASS   2.9525

 VIBRATION    5    5A       ATOM PAIR        ENERGY CONTRIBUTION    RADIAL
 FREQ.       848.53        C  4 --  C  5          +11.7% ( 67.3%)     0.0%
 T-DIPOLE    0.1779        C  3 --  H 13           +8.7% ( 58.1%)     0.0%
 TRAVEL      0.1014        C  1 --  C  4           +8.2% ( 56.5%)    93.4%
 RED. MASS   0.6124        C  2 --  C  5           +8.2% ( 56.5%)    93.0%
 EFF. MASS   7.7265

 VIBRATION    6    6A       ATOM PAIR        ENERGY CONTRIBUTION    RADIAL
 FREQ.       855.00        C  2 --  H  6          +14.6% ( 61.9%)     3.9%
 T-DIPOLE    0.1631        C  1 --  H  7          +14.5% ( 61.8%)     4.1%
 TRAVEL      0.1301        C  1 --  C  3          +10.3% ( 52.2%)    18.1%
 RED. MASS   0.4529        C  2 --  C  3          +10.3% ( 52.0%)    19.4%
 EFF. MASS   4.6609        C  3 --  H 12          +10.0% ( 51.3%)     4.4%

 VIBRATION    7    7A       ATOM PAIR        ENERGY CONTRIBUTION    RADIAL
 FREQ.       904.89        C  4 --  H 11           +8.8% ( 53.1%)     1.1%
 T-DIPOLE    0.0329        C  5 --  H  8           +8.8% ( 53.1%)     1.1%
 TRAVEL      0.1195        C  4 --  H 10           +8.2% ( 51.3%)    24.0%
 RED. MASS   0.2967        C  5 --  H  9           +8.2% ( 51.3%)    24.0%
 EFF. MASS   5.2139

 VIBRATION    8    8A       ATOM PAIR        ENERGY CONTRIBUTION    RADIAL
 FREQ.       944.79        C  3 --  H 13          +12.5% ( 60.7%)    17.2%
 T-DIPOLE    0.0790        C  3 --  H 12          +11.7% ( 58.7%)     6.0%
 TRAVEL      0.1024        C  4 --  C  5          +11.6% ( 58.5%)   100.0%
 RED. MASS   0.6777        C  1 --  C  4           +7.0% ( 45.4%)    56.3%
 EFF. MASS   6.8001

 VIBRATION    9    9A       ATOM PAIR        ENERGY CONTRIBUTION    RADIAL
 FREQ.       978.76        C  2 --  C  3           +8.6% ( 44.3%)    22.4%
 T-DIPOLE    0.0788        C  1 --  C  3           +8.6% ( 44.3%)    22.5%
 TRAVEL      0.1218        C  5 --  H  9           +8.5% ( 44.0%)     0.4%
 RED. MASS   0.3294        C  4 --  H 10           +8.5% ( 43.9%)     0.4%
 EFF. MASS   4.6417

 VIBRATION   10   10A       ATOM PAIR        ENERGY CONTRIBUTION    RADIAL
 FREQ.       985.19        C  3 --  H 12          +14.1% ( 53.2%)     0.0%
 T-DIPOLE    0.1286        C  1 --  H  7          +13.9% ( 52.8%)     7.0%
 TRAVEL      0.1471        C  2 --  H  6          +13.9% ( 52.7%)     7.0%
 RED. MASS   0.3184        C  1 --  C  2           +8.9% ( 42.2%)     0.0%
 EFF. MASS   3.1611

 VIBRATION   11   11A       ATOM PAIR        ENERGY CONTRIBUTION    RADIAL
 FREQ.      1040.56        C  1 --  H  7          +14.2% ( 50.7%)     0.6%
 T-DIPOLE    0.0708        C  2 --  H  6          +14.2% ( 50.7%)     0.7%
 TRAVEL      0.1302        C  1 --  C  4           +8.5% ( 39.2%)    81.9%
 RED. MASS   0.2604        C  2 --  C  5           +8.3% ( 38.8%)    83.0%
 EFF. MASS   3.8242

 VIBRATION   12   12A       ATOM PAIR        ENERGY CONTRIBUTION    RADIAL
 FREQ.      1041.85        C  4 --  C  5          +14.9% ( 66.0%)   100.0%
 T-DIPOLE    0.1133        C  3 --  H 12           +7.1% ( 45.5%)     5.0%
 TRAVEL      0.0959        C  2 --  C  5           +7.0% ( 45.4%)     2.3%
 RED. MASS   0.6944        C  3 --  H 13           +6.9% ( 45.0%)    31.4%
 EFF. MASS   7.0414

 VIBRATION   13   13A       ATOM PAIR        ENERGY CONTRIBUTION    RADIAL
 FREQ.      1085.92        C  1 --  C  2          +11.2% ( 48.9%)   100.0%
 T-DIPOLE    0.0870        C  2 --  H  6           +7.4% ( 39.9%)     0.0%
 TRAVEL      0.1040        C  1 --  H  7           +7.4% ( 39.9%)     0.0%
 RED. MASS   0.7476        C  1 --  C  4           +7.2% ( 39.1%)    18.0%
 EFF. MASS   5.7362

 VIBRATION   14   14A       ATOM PAIR        ENERGY CONTRIBUTION    RADIAL
 FREQ.      1090.58        C  4 --  H 11          +15.1% ( 52.7%)     7.8%
 T-DIPOLE    0.0208        C  5 --  H  8          +15.1% ( 52.7%)     7.8%
 TRAVEL      0.1295        C  4 --  C  5          +11.7% ( 46.3%)     0.0%
 RED. MASS   0.3525        C  4 --  H 10          +11.6% ( 46.2%)    13.4%
 EFF. MASS   3.6888        C  5 --  H  9          +11.6% ( 46.1%)    13.5%

 VIBRATION   15   15A       ATOM PAIR        ENERGY CONTRIBUTION    RADIAL
 FREQ.      1114.79        C  1 --  H  7          +17.7% ( 56.9%)     1.3%
 T-DIPOLE    0.0245        C  2 --  H  6          +17.7% ( 56.9%)     1.3%
 TRAVEL      0.1233        C  2 --  C  3           +6.6% ( 34.7%)    24.5%
 RED. MASS   0.3411        C  1 --  C  3           +6.6% ( 34.7%)    24.5%
 EFF. MASS   3.9776

 VIBRATION   16   16A       ATOM PAIR        ENERGY CONTRIBUTION    RADIAL
 FREQ.      1150.14        C  1 --  C  2          +11.1% ( 48.6%)     0.0%
 T-DIPOLE    0.0446        C  1 --  H  7          +10.0% ( 46.2%)     4.5%
 TRAVEL      0.1004        C  2 --  H  6          +10.0% ( 46.1%)     4.5%
 RED. MASS   0.8936        C  1 --  C  4           +8.7% ( 43.1%)     3.4%
 EFF. MASS   5.8189

 VIBRATION   17   17A       ATOM PAIR        ENERGY CONTRIBUTION    RADIAL
 FREQ.      1169.88        C  3 --  H 13          +20.6% ( 67.2%)     0.0%
 T-DIPOLE    0.0240        C  3 --  H 12          +14.9% ( 57.3%)     0.0%
 TRAVEL      0.0955        C  1 --  C  3          +13.9% ( 55.3%)    46.3%
 RED. MASS   1.6592        C  2 --  C  3          +13.9% ( 55.3%)    46.2%
 EFF. MASS   6.3223

 VIBRATION   18   18A       ATOM PAIR        ENERGY CONTRIBUTION    RADIAL
 FREQ.      1220.15        C  4 --  C  5          +14.4% ( 53.8%)   100.0%
 T-DIPOLE    0.0641        C  5 --  H  9          +13.0% ( 50.9%)     0.7%
 TRAVEL      0.1011        C  4 --  H 10          +13.0% ( 50.9%)     0.7%
 RED. MASS   0.9190        C  4 --  H 11          +11.5% ( 48.0%)     0.6%
 EFF. MASS   5.4121        C  5 --  H  8          +11.5% ( 48.0%)     0.6%

 VIBRATION   19   19A       ATOM PAIR        ENERGY CONTRIBUTION    RADIAL
 FREQ.      1243.95        C  2 --  H  6          +13.4% ( 51.3%)     0.3%
 T-DIPOLE    0.0877        C  1 --  H  7          +13.4% ( 51.3%)     0.3%
 TRAVEL      0.1108        C  1 --  C  2           +8.9% ( 41.9%)     0.0%
 RED. MASS   0.5572        C  2 --  C  4           +6.7% ( 36.3%)     0.1%
 EFF. MASS   4.4152

 VIBRATION   20   20A       ATOM PAIR        ENERGY CONTRIBUTION    RADIAL
 FREQ.      1279.40        C  1 --  C  2          +13.2% ( 62.4%)   100.0%
 T-DIPOLE    0.0476        C  2 --  C  5          +10.6% ( 56.0%)    96.6%
 TRAVEL      0.0775        C  1 --  C  4          +10.6% ( 55.9%)    96.6%
 RED. MASS   1.4051        C  2 --  C  4           +9.6% ( 53.3%)    87.1%
 EFF. MASS   8.7726

 VIBRATION   21   21A       ATOM PAIR        ENERGY CONTRIBUTION    RADIAL
 FREQ.      1291.34        C  1 --  C  4          +11.1% ( 52.1%)    96.9%
 T-DIPOLE    0.1293        C  2 --  C  5          +11.0% ( 52.0%)    96.9%
 TRAVEL      0.0845        C  1 --  C  2           +8.2% ( 44.7%)     0.0%
 RED. MASS   1.1664        C  4 --  C  5           +7.9% ( 44.0%)     0.0%
 EFF. MASS   7.3081

 VIBRATION   22   22A       ATOM PAIR        ENERGY CONTRIBUTION    RADIAL
 FREQ.      1381.99        C  3 --  H 12          +28.6% ( 56.7%)     0.3%
 T-DIPOLE    0.0624        C  3 --  H 13          +24.8% ( 52.9%)     0.8%
 TRAVEL      0.1436        C  1 --  C  2          +11.4% ( 35.8%)   100.0%
 RED. MASS   0.4565        C  1 --  C  4           +4.5% ( 22.6%)     6.9%
 EFF. MASS   2.3672

 VIBRATION   23   23A       ATOM PAIR        ENERGY CONTRIBUTION    RADIAL
 FREQ.      1402.31        C  4 --  H 10          +18.2% ( 46.0%)     3.7%
 T-DIPOLE    0.0181        C  5 --  H  9          +18.1% ( 46.0%)     3.7%
 TRAVEL      0.1404        C  4 --  H 11          +17.4% ( 45.0%)     4.3%
 RED. MASS   0.3151        C  5 --  H  8          +17.3% ( 44.9%)     4.3%
 EFF. MASS   2.4411

 VIBRATION   24   24A       ATOM PAIR        ENERGY CONTRIBUTION    RADIAL
 FREQ.      1429.52        C  5 --  H  9          +13.5% ( 45.6%)     5.3%
 T-DIPOLE    0.0047        C  4 --  H 10          +13.4% ( 45.5%)     5.3%
 TRAVEL      0.1082        C  5 --  H  8          +13.3% ( 45.2%)     5.6%
 RED. MASS   0.4576        C  4 --  H 11          +13.2% ( 45.1%)     5.6%
 EFF. MASS   4.0282        C  4 --  C  5          +11.6% ( 42.2%)   100.0%

 VIBRATION   25   25A       ATOM PAIR        ENERGY CONTRIBUTION    RADIAL
 FREQ.      1530.24        C  1 --  C  3          +18.3% ( 74.8%)    99.1%
 T-DIPOLE    0.0908        C  2 --  C  3          +18.3% ( 74.8%)    99.1%
 TRAVEL      0.0629        C  1 --  C  2          +14.1% ( 65.6%)   100.0%
 RED. MASS   3.0534        C  3 --  H 13           +8.6% ( 51.4%)    11.2%
 EFF. MASS  11.1494

 VIBRATION   26   26A       ATOM PAIR        ENERGY CONTRIBUTION    RADIAL
 FREQ.      3039.64        C  5 --  H  9          +25.8% ( 53.1%)    97.1%
 T-DIPOLE    0.0133        C  4 --  H 10          +25.5% ( 52.8%)    97.1%
 TRAVEL      0.1193        C  5 --  H  8          +22.6% ( 49.7%)    96.4%
 RED. MASS   0.2606        C  4 --  H 11          +22.5% ( 49.6%)    96.4%
 EFF. MASS   1.5596

 VIBRATION   27   27A       ATOM PAIR        ENERGY CONTRIBUTION    RADIAL
 FREQ.      3053.34        C  4 --  H 10          +26.2% ( 53.2%)    97.4%
 T-DIPOLE    0.0853        C  5 --  H  9          +26.1% ( 53.0%)    97.4%
 TRAVEL      0.1199        C  4 --  H 11          +22.3% ( 49.0%)    96.5%
 RED. MASS   0.2607        C  5 --  H  8          +22.0% ( 48.7%)    96.5%
 EFF. MASS   1.5357

 VIBRATION   28   28A       ATOM PAIR        ENERGY CONTRIBUTION    RADIAL
 FREQ.      3086.00        C  3 --  H 12          +55.5% ( 77.1%)    97.9%
 T-DIPOLE    0.1335        C  3 --  H 13          +41.1% ( 66.3%)    96.0%
 TRAVEL      0.1185        C  1 --  C  3           +1.2% ( 11.3%)     1.1%
 RED. MASS   0.5220        C  2 --  C  3           +1.2% ( 11.3%)     1.1%
 EFF. MASS   1.5555

 VIBRATION   29   29A       ATOM PAIR        ENERGY CONTRIBUTION    RADIAL
 FREQ.      3106.28        C  5 --  H  8          +26.6% ( 51.2%)    97.5%
 T-DIPOLE    0.0845        C  4 --  H 11          +25.8% ( 50.4%)    97.5%
 TRAVEL      0.1301        C  5 --  H  9          +23.0% ( 47.7%)    96.4%
 RED. MASS   0.2429        C  4 --  H 10          +22.4% ( 47.0%)    96.4%
 EFF. MASS   1.2821

 VIBRATION   30   30A       ATOM PAIR        ENERGY CONTRIBUTION    RADIAL
 FREQ.      3106.68        C  4 --  H 11          +26.8% ( 51.4%)    97.6%
 T-DIPOLE    0.0740        C  5 --  H  8          +26.1% ( 50.7%)    97.7%
 TRAVEL      0.1301        C  4 --  H 10          +22.6% ( 47.2%)    96.4%
 RED. MASS   0.2410        C  5 --  H  9          +21.8% ( 46.4%)    96.4%
 EFF. MASS   1.2827

 VIBRATION   31   31A       ATOM PAIR        ENERGY CONTRIBUTION    RADIAL
 FREQ.      3126.76        C  3 --  H 13          +56.3% ( 74.6%)    97.5%
 T-DIPOLE    0.1877        C  3 --  H 12          +41.7% ( 64.2%)    94.9%
 TRAVEL      0.1289        C  2 --  C  3           +0.8% (  9.0%)    71.1%
 RED. MASS   0.4902        C  1 --  C  3           +0.8% (  9.0%)    71.1%
 EFF. MASS   1.2985

 VIBRATION   32   32A       ATOM PAIR        ENERGY CONTRIBUTION    RADIAL
 FREQ.      3143.84        C  1 --  H  7          +47.9% ( 71.0%)   100.0%
 T-DIPOLE    0.3357        C  2 --  H  6          +47.0% ( 70.4%)   100.0%
 TRAVEL      0.1214        C  1 --  C  2           +1.1% ( 10.7%)     0.0%
 RED. MASS   0.4635        C  1 --  C  5           +0.6% (  8.3%)    71.8%
 EFF. MASS   1.4547

 VIBRATION   33   33A       ATOM PAIR        ENERGY CONTRIBUTION    RADIAL
 FREQ.      3149.63        C  2 --  H  6          +46.9% ( 70.4%)   100.0%
 T-DIPOLE    0.3365        C  1 --  H  7          +45.9% ( 69.7%)   100.0%
 TRAVEL      0.1183        C  1 --  C  2           +1.6% ( 12.9%)   100.0%
 RED. MASS   0.4510        C  3 --  H 13           +0.9% (  9.9%)   100.0%
 EFF. MASS   1.5295

 SYMMETRY NUMBER FOR POINT-GROUP C1  =  1


          SYSTEM IS A GROUND STATE


    NULL



          MOLECULE IS NOT LINEAR

          THERE ARE 33 GENUINE VIBRATIONS IN THIS SYSTEM
          THIS THERMODYNAMICS CALCULATION IS LIMITED TO
          MOLECULES WHICH HAVE NO INTERNAL ROTATIONS




                    CALCULATED THERMODYNAMIC PROPERTIES
                                          *
   TEMP. (K)   PARTITION FUNCTION   H.O.F.    ENTHALPY  HEAT CAPACITY ENTROPY
                                   KCAL/MOL   CAL/MOLE    CAL/K/MOL  CAL/K/MOL


 298.00  VIB.     0.1695D+01                   866.1058    10.2001     3.9545
         ROT.     0.5358D+05                   888.2813     2.9808    24.6192
         INT.     0.9079D+05                  1754.3871    13.1809    28.5737
         TRA.     0.5435D+27                  1480.4688     4.9680    38.5714
         TOT.                       37.740    3234.8560    18.1489    67.1450

 200.00  VIB.     0.1179D+01                   202.5754     3.7757     1.3396
         ROT.     0.2946D+05                   596.1620     2.9808    23.4305
         INT.     0.3472D+05                   798.7374     6.7565    24.7701
         TRA.     0.2988D+27                   993.6033     4.9680    36.5902
         TOT.                       36.298    1792.3406    11.7246    61.3604

 210.00  VIB.     0.1210D+01                   242.8895     4.2937     1.5362
         ROT.     0.3169D+05                   625.9700     2.9808    23.5760
         INT.     0.3836D+05                   868.8596     7.2745    25.1122
         TRA.     0.3215D+27                  1043.2834     4.9680    36.8326
         TOT.                       36.418    1912.1430    12.2425    61.9448

 220.00  VIB.     0.1246D+01                   288.5782     4.8503     1.7486
         ROT.     0.3398D+05                   655.7781     2.9808    23.7146
         INT.     0.4234D+05                   944.3563     7.8312    25.4633
         TRA.     0.3448D+27                  1092.9636     4.9680    37.0637
         TOT.                       36.543    2037.3199    12.7992    62.5270

 230.00  VIB.     0.1285D+01                   340.0183     5.4436     1.9772
         ROT.     0.3633D+05                   685.5862     2.9808    23.8472
         INT.     0.4669D+05                  1025.6046     8.4244    25.8244
         TRA.     0.3685D+27                  1142.6437     4.9680    37.2846
         TOT.                       36.674    2168.2483    13.3924    63.1089

 240.00  VIB.     0.1329D+01                   397.5623     6.0706     2.2220
         ROT.     0.3872D+05                   715.3943     2.9808    23.9740
         INT.     0.5147D+05                  1112.9567     9.0514    26.1960
         TRA.     0.3928D+27                  1192.3239     4.9680    37.4960
         TOT.                       36.811    2305.2806    14.0194    63.6920

 250.00  VIB.     0.1378D+01                   461.5329     6.7283     2.4831
         ROT.     0.4117D+05                   745.2024     2.9808    24.0957
         INT.     0.5672D+05                  1206.7353     9.7091    26.5788
         TRA.     0.4176D+27                  1242.0041     4.9680    37.6988
         TOT.                       36.954    2448.7394    14.6771    64.2776

 260.00  VIB.     0.1432D+01                   532.2193     7.4132     2.7602
         ROT.     0.4366D+05                   775.0105     2.9808    24.2126
         INT.     0.6251D+05                  1307.2298    10.3940    26.9728
         TRA.     0.4430D+27                  1291.6842     4.9680    37.8937
         TOT.                       37.104    2598.9140    15.3620    64.8665

 270.00  VIB.     0.1491D+01                   609.8754     8.1217     3.0532
         ROT.     0.4621D+05                   804.8186     2.9808    24.3251
         INT.     0.6891D+05                  1414.6941    11.1025    27.3783
         TRA.     0.4687D+27                  1341.3644     4.9680    38.0812
         TOT.                       37.262    2756.0584    16.0705    65.4595

 280.00  VIB.     0.1558D+01                   694.7190     8.8501     3.3617
         ROT.     0.4880D+05                   834.6267     2.9808    24.4335
         INT.     0.7600D+05                  1529.3457    11.8309    27.7952
         TRA.     0.4950D+27                  1391.0445     4.9680    38.2618
         TOT.                       37.426    2920.3902    16.7989    66.0570

 290.00  VIB.     0.1631D+01                   786.9312     9.5948     3.6852
         ROT.     0.5143D+05                   864.4348     2.9808    24.5381
         INT.     0.8387D+05                  1651.3661    12.5756    28.2233
         TRA.     0.5218D+27                  1440.7247     4.9680    38.4362
         TOT.                       37.598    3092.0908    17.5436    66.6595

 300.00  VIB.     0.1711D+01                   886.6583    10.3525     4.0232
         ROT.     0.5412D+05                   894.2429     2.9808    24.6392
         INT.     0.9261D+05                  1780.9012    13.3333    28.6624
         TRA.     0.5490D+27                  1490.4049     4.9680    38.6046
         TOT.                       37.777    3271.3061    18.3013    67.2670

 310.00  VIB.     0.1801D+01                   994.0124    11.1197     4.3751
         ROT.     0.5684D+05                   924.0510     2.9808    24.7369
         INT.     0.1024D+06                  1918.0634    14.1005    29.1120
         TRA.     0.5767D+27                  1540.0850     4.9680    38.7675
         TOT.                       37.964    3458.1485    19.0685    67.8795

 320.00  VIB.     0.1899D+01                  1109.0741    11.8935     4.7404
         ROT.     0.5962D+05                   953.8591     2.9808    24.8315
         INT.     0.1132D+06                  2062.9332    14.8743    29.5719
         TRA.     0.6048D+27                  1589.7652     4.9680    38.9252
         TOT.                       38.158    3652.6984    19.8423    68.4971

 330.00  VIB.     0.2008D+01                  1231.8943    12.6710     5.1183
         ROT.     0.6243D+05                   983.6672     2.9808    24.9233
         INT.     0.1254D+06                  2215.5615    15.6518    30.0415
         TRA.     0.6334D+27                  1639.4454     4.9680    39.0781
         TOT.                       38.361    3855.0068    20.6198    69.1196

 340.00  VIB.     0.2128D+01                  1362.4969    13.4496     5.5081
         ROT.     0.6529D+05                  1013.4753     2.9808    25.0122
         INT.     0.1389D+06                  2375.9722    16.4304    30.5203
         TRA.     0.6624D+27                  1689.1255     4.9680    39.2264
         TOT.                       38.571    4065.0977    21.3984    69.7467

 350.00  VIB.     0.2261D+01                  1500.8813    14.2270     5.9092
         ROT.     0.6819D+05                  1043.2834     2.9808    25.0987
         INT.     0.1542D+06                  2544.1647    17.2078    31.0078
         TRA.     0.6918D+27                  1738.8057     4.9680    39.3704
         TOT.                       38.789    4282.9704    22.1758    70.3782

 360.00  VIB.     0.2407D+01                  1647.0250    15.0011     6.3208
         ROT.     0.7114D+05                  1073.0915     2.9808    25.1826
         INT.     0.1712D+06                  2720.1166    17.9819    31.5035
         TRA.     0.7217D+27                  1788.4859     4.9680    39.5104
         TOT.                       39.014    4508.6024    22.9499    71.0138

 370.00  VIB.     0.2569D+01                  1800.8861    15.7701     6.7423
         ROT.     0.7412D+05                  1102.8996     2.9808    25.2643
         INT.     0.1904D+06                  2903.7857    18.7510    32.0066
         TRA.     0.7520D+27                  1838.1660     4.9680    39.6465
         TOT.                       39.247    4741.9518    23.7190    71.6531

 380.00  VIB.     0.2748D+01                  1962.4056    16.5325     7.1730
         ROT.     0.7715D+05                  1132.7077     2.9808    25.3438
         INT.     0.2120D+06                  3095.1133    19.5133    32.5168
         TRA.     0.7827D+27                  1887.8462     4.9680    39.7790
         TOT.                       39.489    4982.9595    24.4814    72.2958

 390.00  VIB.     0.2946D+01                  2131.5098    17.2869     7.6123
         ROT.     0.8021D+05                  1162.5158     2.9808    25.4212
         INT.     0.2363D+06                  3294.0256    20.2677    33.0335
         TRA.     0.8138D+27                  1937.5263     4.9680    39.9080
         TOT.                       39.737    5231.5520    25.2357    72.9415

 400.00  VIB.     0.3164D+01                  2308.1125    18.0320     8.0593
         ROT.     0.8332D+05                  1192.3239     2.9808    25.4967
         INT.     0.2636D+06                  3500.4364    21.0129    33.5560
         TRA.     0.8452D+27                  1987.2065     4.9680    40.0338
         TOT.                       39.993    5487.6429    25.9809    73.5898

   *: NOTE: HEATS OF FORMATION ARE RELATIVE TO THE
            ELEMENTS IN THEIR STANDARD STATE AT 298K
              (=  Standard Enthalpy of Formation).

            Hvib:  Zero-point energy is not included.
                   frequencies of less than zero cm-1 are not included.
            Hrot = (3/2)RT
            Htra = (3/2)RT + pV = (5/2)RT

            Heat capacity is Cp, not Cv

           For more information, see: HTTP://OpenMOPAC.net/Manual/thermochemistry.html


           FORCE CONSTANT IN CARTESIAN COORDINATES (Millidynes/A)

    ATOM   CHEMICAL       X               Y               Z
   NUMBER   SYMBOL  FORCE CONSTANT  FORCE CONSTANT  FORCE CONSTANT

      1       C        9.742163        6.583170        8.449195
      2       C        9.742621        6.582746        8.449356
      3       C        4.394862       11.743110        8.930488
      4       C        7.612131        8.623101        8.162941
      5       C        7.612143        8.623190        8.162190
      6       H        2.692393        0.934726        3.025285
      7       H        2.692735        0.934517        3.025001
      8       H        1.452567        4.488271        0.680483
      9       H        1.507475        2.163747        2.932666
     10       H        1.508299        2.162364        2.933499
     11       H        1.451807        4.488932        0.680420
     12       H        0.527823        2.424913        3.687921
     13       H        0.525409        2.151748        3.948546



 TOTAL CPU TIME:             0.49 SECONDS

 == MOPAC DONE ==
