 *******************************************************************************
 ** Site#: 14399           For non-commercial use only        Version 13.159M **
 *******************************************************************************
 ** Cite this work as: MOPAC2012, James J. P. Stewart, Stewart Computational  **
 ** Chemistry, Version 13.159M web: HTTP://OpenMOPAC.net  Days remaining:   6 **
 *******************************************************************************
 **                                                                           **
 **                                MOPAC2012                                  **
 **                                                                           **
 *******************************************************************************

                            PM3 CALCULATION RESULTS


 *******************************************************************************
 *  CALCULATION DONE:                                Mon Jun  2 14:11:29 2014  *
 *  PM3      - The PM3 Hamiltonian to be used
 *  PRECISE  - CRITERIA TO BE INCREASED BY 100 TIMES
 *  NOSYM    - POINT-GROUP SYMMETRY SET TO C1
 *  T=       - A TIME OF 172800.0 SECONDS REQUESTED
 *  DUMP=N   - RESTART FILE WRITTEN EVERY  7200.000 SECONDS
 *******************************************************************************
pm3  precise nosym
 InChI=1S/C8H14O/c1-3-4-5-8-6-7(2)9-8/h4-5,7-8H,3,6H2,1-2H3

   ATOM   CHEMICAL          X               Y               Z
  NUMBER   SYMBOL      (ANGSTROMS)     (ANGSTROMS)     (ANGSTROMS)
 
     1       C          2.67820000  *  -0.20730000  *  -0.30570000  *
     2       C          0.90580000  *  -1.20000000  *  -0.27480000  *
     3       C          1.39770000  *  -0.08720000  *  -1.18710000  *
     4       C         -2.73760000  *  -0.35710000  *   0.78090000  *
     5       C          3.02060000  *   1.03910000  *   0.50450000  *
     6       C         -3.33140000  *   0.96530000  *   0.31330000  *
     7       C         -0.30390000  *  -0.84820000  *   0.54690000  *
     8       C         -1.51260000  *  -0.71030000  *  -0.01340000  *
     9       O          2.07920000  *  -1.22890000  *   0.51810000  *
    10       H          3.55740000  *  -0.60540000  *  -0.86580000  *
    11       H          0.77470000  *  -2.17330000  *  -0.80530000  *
    12       H          1.56450000  *  -0.42590000  *  -2.23540000  *
    13       H          0.85900000  *   0.88540000  *  -1.09390000  *
    14       H         -3.49010000  *  -1.16700000  *   0.64430000  *
    15       H         -2.52850000  *  -0.28680000  *   1.87420000  *
    16       H         -2.60390000  *   1.79690000  *   0.45710000  *
    17       H         -3.62010000  *   0.91640000  *  -0.76180000  *
    18       H         -4.24580000  *   1.19860000  *   0.90450000  *
    19       H          2.14710000  *   1.38870000  *   1.10130000  *
    20       H          3.34120000  *   1.85770000  *  -0.17850000  *
    21       H          3.85670000  *   0.81360000  *   1.20410000  *
    22       H         -1.62730000  *  -0.85430000  *  -1.08800000  *
    23       H         -0.18070000  *  -0.71010000  *   1.62100000  *
 


          CARTESIAN COORDINATES 

    NO.       ATOM         X         Y         Z

     1         C        2.6782   -0.2073   -0.3057
     2         C        0.9058   -1.2000   -0.2748
     3         C        1.3977   -0.0872   -1.1871
     4         C       -2.7376   -0.3571    0.7809
     5         C        3.0206    1.0391    0.5045
     6         C       -3.3314    0.9653    0.3133
     7         C       -0.3039   -0.8482    0.5469
     8         C       -1.5126   -0.7103   -0.0134
     9         O        2.0792   -1.2289    0.5181
    10         H        3.5574   -0.6054   -0.8658
    11         H        0.7747   -2.1733   -0.8053
    12         H        1.5645   -0.4259   -2.2354
    13         H        0.8590    0.8854   -1.0939
    14         H       -3.4901   -1.1670    0.6443
    15         H       -2.5285   -0.2868    1.8742
    16         H       -2.6039    1.7969    0.4571
    17         H       -3.6201    0.9164   -0.7618
    18         H       -4.2458    1.1986    0.9045
    19         H        2.1471    1.3887    1.1013
    20         H        3.3412    1.8577   -0.1785
    21         H        3.8567    0.8136    1.2041
    22         H       -1.6273   -0.8543   -1.0880
    23         H       -0.1807   -0.7101    1.6210

  H: (PM3): J. J. P. STEWART, J. COMP. CHEM. 10, 209 (1989).
  C: (PM3): J. J. P. STEWART, J. COMP. CHEM. 10, 209 (1989).
  O: (PM3): J. J. P. STEWART, J. COMP. CHEM. 10, 209 (1989).

           Empirical Formula: C8 H14 O  =    23 atoms



      MOLECULAR POINT GROUP   :   C1  


      RHF CALCULATION, NO. OF DOUBLY OCCUPIED LEVELS =   26

      Geometry optimization using EF

          DIAGONAL MATRIX USED AS START HESSIAN

 CYCLE:     1 TIME:   0.009 TIME LEFT:  2.00D  GRAD.:   106.442 HEAT:-25.37383
 CYCLE:     2 TIME:   0.013 TIME LEFT:  2.00D  GRAD.:   101.793 HEAT:-27.20789
 CYCLE:     3 TIME:   0.015 TIME LEFT:  2.00D  GRAD.:    52.514 HEAT:-29.37340
 CYCLE:     4 TIME:   0.013 TIME LEFT:  2.00D  GRAD.:    36.930 HEAT:-29.84770
 CYCLE:     5 TIME:   0.007 TIME LEFT:  2.00D  GRAD.:    27.215 HEAT:-30.16475
 CYCLE:     6 TIME:   0.013 TIME LEFT:  2.00D  GRAD.:    22.257 HEAT:-30.37971
 CYCLE:     7 TIME:   0.007 TIME LEFT:  2.00D  GRAD.:    16.643 HEAT:-30.52333
 CYCLE:     8 TIME:   0.007 TIME LEFT:  2.00D  GRAD.:    26.278 HEAT:-30.57499
 CYCLE:     9 TIME:   0.013 TIME LEFT:  2.00D  GRAD.:    14.049 HEAT:-30.69156
 CYCLE:    10 TIME:   0.007 TIME LEFT:  2.00D  GRAD.:    15.581 HEAT:-30.71347
 CYCLE:    11 TIME:   0.013 TIME LEFT:  2.00D  GRAD.:     8.027 HEAT:-30.76706
 CYCLE:    12 TIME:   0.007 TIME LEFT:  2.00D  GRAD.:    10.375 HEAT:-30.76975
 CYCLE:    13 TIME:   0.007 TIME LEFT:  2.00D  GRAD.:     8.704 HEAT:-30.79272
 CYCLE:    14 TIME:   0.013 TIME LEFT:  2.00D  GRAD.:     7.611 HEAT:-30.80767
 CYCLE:    15 TIME:   0.007 TIME LEFT:  2.00D  GRAD.:     7.712 HEAT:-30.81112
 CYCLE:    16 TIME:   0.007 TIME LEFT:  2.00D  GRAD.:     6.706 HEAT:-30.82362
 CYCLE:    17 TIME:   0.007 TIME LEFT:  2.00D  GRAD.:     5.668 HEAT:-30.82968
 CYCLE:    18 TIME:   0.013 TIME LEFT:  2.00D  GRAD.:     3.411 HEAT:-30.83715
 CYCLE:    19 TIME:   0.007 TIME LEFT:  2.00D  GRAD.:     2.899 HEAT:-30.84023
 CYCLE:    20 TIME:   0.007 TIME LEFT:  2.00D  GRAD.:     3.462 HEAT:-30.84287
 CYCLE:    21 TIME:   0.007 TIME LEFT:  2.00D  GRAD.:     2.565 HEAT:-30.84680
 CYCLE:    22 TIME:   0.007 TIME LEFT:  2.00D  GRAD.:     3.269 HEAT:-30.84842
 CYCLE:    23 TIME:   0.007 TIME LEFT:  2.00D  GRAD.:     1.977 HEAT:-30.85182
 CYCLE:    24 TIME:   0.007 TIME LEFT:  2.00D  GRAD.:     2.299 HEAT:-30.85334
 CYCLE:    25 TIME:   0.007 TIME LEFT:  2.00D  GRAD.:     2.262 HEAT:-30.85551
 CYCLE:    26 TIME:   0.007 TIME LEFT:  2.00D  GRAD.:     2.472 HEAT:-30.85722
 CYCLE:    27 TIME:   0.007 TIME LEFT:  2.00D  GRAD.:     1.862 HEAT:-30.85983
 CYCLE:    28 TIME:   0.007 TIME LEFT:  2.00D  GRAD.:     1.560 HEAT:-30.86144
 CYCLE:    29 TIME:   0.007 TIME LEFT:  2.00D  GRAD.:     1.792 HEAT:-30.86266
 CYCLE:    30 TIME:   0.007 TIME LEFT:  2.00D  GRAD.:     0.887 HEAT:-30.86400
 CYCLE:    31 TIME:   0.007 TIME LEFT:  2.00D  GRAD.:     0.989 HEAT:-30.86452
 CYCLE:    32 TIME:   0.007 TIME LEFT:  2.00D  GRAD.:     0.617 HEAT:-30.86502
 CYCLE:    33 TIME:   0.007 TIME LEFT:  2.00D  GRAD.:     0.670 HEAT:-30.86554
 CYCLE:    34 TIME:   0.007 TIME LEFT:  2.00D  GRAD.:     0.735 HEAT:-30.86610
 CYCLE:    35 TIME:   0.007 TIME LEFT:  2.00D  GRAD.:     0.787 HEAT:-30.86732
 CYCLE:    36 TIME:   0.007 TIME LEFT:  2.00D  GRAD.:     0.847 HEAT:-30.86842
 CYCLE:    37 TIME:   0.007 TIME LEFT:  2.00D  GRAD.:     0.850 HEAT:-30.86949
 CYCLE:    38 TIME:   0.007 TIME LEFT:  2.00D  GRAD.:     1.040 HEAT:-30.87038
 CYCLE:    39 TIME:   0.007 TIME LEFT:  2.00D  GRAD.:     0.787 HEAT:-30.87138
 CYCLE:    40 TIME:   0.007 TIME LEFT:  2.00D  GRAD.:     0.809 HEAT:-30.87296
 CYCLE:    41 TIME:   0.007 TIME LEFT:  2.00D  GRAD.:     0.915 HEAT:-30.87419
 CYCLE:    42 TIME:   0.007 TIME LEFT:  2.00D  GRAD.:     0.739 HEAT:-30.87548
 CYCLE:    43 TIME:   0.007 TIME LEFT:  2.00D  GRAD.:     0.697 HEAT:-30.87672
 CYCLE:    44 TIME:   0.007 TIME LEFT:  2.00D  GRAD.:     0.863 HEAT:-30.87812
 CYCLE:    45 TIME:   0.007 TIME LEFT:  2.00D  GRAD.:     1.116 HEAT:-30.87989
 CYCLE:    46 TIME:   0.007 TIME LEFT:  2.00D  GRAD.:     1.158 HEAT:-30.88187
 CYCLE:    47 TIME:   0.007 TIME LEFT:  2.00D  GRAD.:     1.057 HEAT:-30.88411
 CYCLE:    48 TIME:   0.007 TIME LEFT:  2.00D  GRAD.:     1.044 HEAT:-30.88686
 CYCLE:    49 TIME:   0.007 TIME LEFT:  2.00D  GRAD.:     1.115 HEAT:-30.88974
 CYCLE:    50 TIME:   0.007 TIME LEFT:  2.00D  GRAD.:     0.947 HEAT:-30.89229
 CYCLE:    51 TIME:   0.007 TIME LEFT:  2.00D  GRAD.:     0.780 HEAT:-30.89389
 CYCLE:    52 TIME:   0.007 TIME LEFT:  2.00D  GRAD.:     0.660 HEAT:-30.89483
 CYCLE:    53 TIME:   0.007 TIME LEFT:  2.00D  GRAD.:     0.499 HEAT:-30.89542
 CYCLE:    54 TIME:   0.007 TIME LEFT:  2.00D  GRAD.:     0.385 HEAT:-30.89590
 CYCLE:    55 TIME:   0.007 TIME LEFT:  2.00D  GRAD.:     0.343 HEAT:-30.89621
 CYCLE:    56 TIME:   0.007 TIME LEFT:  2.00D  GRAD.:     0.350 HEAT:-30.89647
 CYCLE:    57 TIME:   0.007 TIME LEFT:  2.00D  GRAD.:     0.347 HEAT:-30.89674
 CYCLE:    58 TIME:   0.007 TIME LEFT:  2.00D  GRAD.:     0.301 HEAT:-30.89696
 CYCLE:    59 TIME:   0.007 TIME LEFT:  2.00D  GRAD.:     0.288 HEAT:-30.89716
 CYCLE:    60 TIME:   0.007 TIME LEFT:  2.00D  GRAD.:     0.319 HEAT:-30.89733
 CYCLE:    61 TIME:   0.007 TIME LEFT:  2.00D  GRAD.:     0.386 HEAT:-30.89766
 CYCLE:    62 TIME:   0.007 TIME LEFT:  2.00D  GRAD.:     0.433 HEAT:-30.89804
 CYCLE:    63 TIME:   0.007 TIME LEFT:  2.00D  GRAD.:     0.540 HEAT:-30.89878
 CYCLE:    64 TIME:   0.007 TIME LEFT:  2.00D  GRAD.:     0.564 HEAT:-30.89937
 CYCLE:    65 TIME:   0.008 TIME LEFT:  2.00D  GRAD.:     0.995 HEAT:-30.90124
 CYCLE:    66 TIME:   0.007 TIME LEFT:  2.00D  GRAD.:     0.773 HEAT:-30.90212
 CYCLE:    67 TIME:   0.007 TIME LEFT:  2.00D  GRAD.:     0.710 HEAT:-30.90415
 CYCLE:    68 TIME:   0.007 TIME LEFT:  2.00D  GRAD.:     0.441 HEAT:-30.90473
 CYCLE:    69 TIME:   0.007 TIME LEFT:  2.00D  GRAD.:     0.279 HEAT:-30.90518
 CYCLE:    70 TIME:   0.007 TIME LEFT:  2.00D  GRAD.:     0.295 HEAT:-30.90552
 CYCLE:    71 TIME:   0.007 TIME LEFT:  2.00D  GRAD.:     0.279 HEAT:-30.90574
 CYCLE:    72 TIME:   0.007 TIME LEFT:  2.00D  GRAD.:     0.244 HEAT:-30.90596
 CYCLE:    73 TIME:   0.007 TIME LEFT:  2.00D  GRAD.:     0.226 HEAT:-30.90614
 CYCLE:    74 TIME:   0.007 TIME LEFT:  2.00D  GRAD.:     0.212 HEAT:-30.90630
 CYCLE:    75 TIME:   0.007 TIME LEFT:  2.00D  GRAD.:     0.206 HEAT:-30.90645
 CYCLE:    76 TIME:   0.007 TIME LEFT:  2.00D  GRAD.:     0.196 HEAT:-30.90655
 CYCLE:    77 TIME:   0.007 TIME LEFT:  2.00D  GRAD.:     0.204 HEAT:-30.90667
 CYCLE:    78 TIME:   0.007 TIME LEFT:  2.00D  GRAD.:     0.246 HEAT:-30.90680
 CYCLE:    79 TIME:   0.007 TIME LEFT:  2.00D  GRAD.:     0.326 HEAT:-30.90701
 CYCLE:    80 TIME:   0.007 TIME LEFT:  2.00D  GRAD.:     0.445 HEAT:-30.90742
 CYCLE:    81 TIME:   0.007 TIME LEFT:  2.00D  GRAD.:     0.527 HEAT:-30.90819
 CYCLE:    82 TIME:   0.007 TIME LEFT:  2.00D  GRAD.:     0.421 HEAT:-30.90877
 CYCLE:    83 TIME:   0.007 TIME LEFT:  2.00D  GRAD.:     0.523 HEAT:-30.90954
 CYCLE:    84 TIME:   0.007 TIME LEFT:  2.00D  GRAD.:     0.340 HEAT:-30.90981
 CYCLE:    85 TIME:   0.007 TIME LEFT:  2.00D  GRAD.:     0.279 HEAT:-30.91029
 CYCLE:    86 TIME:   0.007 TIME LEFT:  2.00D  GRAD.:     0.223 HEAT:-30.91049
 CYCLE:    87 TIME:   0.007 TIME LEFT:  2.00D  GRAD.:     0.470 HEAT:-30.91036
 CYCLE:    88 TIME:   0.007 TIME LEFT:  2.00D  GRAD.:     0.169 HEAT:-30.91072
 CYCLE:    89 TIME:   0.007 TIME LEFT:  2.00D  GRAD.:     0.144 HEAT:-30.91077
 CYCLE:    90 TIME:   0.007 TIME LEFT:  2.00D  GRAD.:     0.206 HEAT:-30.91092
 CYCLE:    91 TIME:   0.007 TIME LEFT:  2.00D  GRAD.:     0.170 HEAT:-30.91100
 CYCLE:    92 TIME:   0.007 TIME LEFT:  2.00D  GRAD.:     0.192 HEAT:-30.91099
 CYCLE:    93 TIME:   0.007 TIME LEFT:  2.00D  GRAD.:     0.144 HEAT:-30.91114
 CYCLE:    94 TIME:   0.007 TIME LEFT:  2.00D  GRAD.:     0.155 HEAT:-30.91127
 CYCLE:    95 TIME:   0.007 TIME LEFT:  2.00D  GRAD.:     0.260 HEAT:-30.91156
 CYCLE:    96 TIME:   0.007 TIME LEFT:  2.00D  GRAD.:     0.291 HEAT:-30.91185
 CYCLE:    97 TIME:   0.007 TIME LEFT:  2.00D  GRAD.:     1.418 HEAT:-30.91195
 CYCLE:    98 TIME:   0.007 TIME LEFT:  2.00D  GRAD.:     0.505 HEAT:-30.91371
 CYCLE:    99 TIME:   0.009 TIME LEFT:  2.00D  GRAD.:     0.475 HEAT:-30.91420
 CYCLE:   100 TIME:   0.007 TIME LEFT:  2.00D  GRAD.:     1.299 HEAT:-30.91636
 CYCLE:   101 TIME:   0.007 TIME LEFT:  2.00D  GRAD.:     0.652 HEAT:-30.91773
 CYCLE:   102 TIME:   0.010 TIME LEFT:  2.00D  GRAD.:     0.605 HEAT:-30.91904
 CYCLE:   103 TIME:   0.009 TIME LEFT:  2.00D  GRAD.:     0.609 HEAT:-30.92120
 CYCLE:   104 TIME:   0.007 TIME LEFT:  2.00D  GRAD.:     0.704 HEAT:-30.92223
 CYCLE:   105 TIME:   0.009 TIME LEFT:  2.00D  GRAD.:     0.551 HEAT:-30.92281
 CYCLE:   106 TIME:   0.009 TIME LEFT:  2.00D  GRAD.:     0.920 HEAT:-30.92328
 CYCLE:   107 TIME:   0.008 TIME LEFT:  2.00D  GRAD.:     0.687 HEAT:-30.92431
 CYCLE:   108 TIME:   0.008 TIME LEFT:  2.00D  GRAD.:     0.752 HEAT:-30.92528
 CYCLE:   109 TIME:   0.011 TIME LEFT:  2.00D  GRAD.:     0.880 HEAT:-30.92687
 CYCLE:   110 TIME:   0.007 TIME LEFT:  2.00D  GRAD.:     0.868 HEAT:-30.92818
 CYCLE:   111 TIME:   0.007 TIME LEFT:  2.00D  GRAD.:     0.815 HEAT:-30.92955
 CYCLE:   112 TIME:   0.007 TIME LEFT:  2.00D  GRAD.:     1.535 HEAT:-30.93054
 CYCLE:   113 TIME:   0.007 TIME LEFT:  2.00D  GRAD.:     0.876 HEAT:-30.93269
 CYCLE:   114 TIME:   0.007 TIME LEFT:  2.00D  GRAD.:     0.947 HEAT:-30.93489
 CYCLE:   115 TIME:   0.007 TIME LEFT:  2.00D  GRAD.:     1.033 HEAT:-30.94165
 CYCLE:   116 TIME:   0.007 TIME LEFT:  2.00D  GRAD.:     1.523 HEAT:-30.94752
 CYCLE:   117 TIME:   0.007 TIME LEFT:  2.00D  GRAD.:     1.756 HEAT:-30.95159
 CYCLE:   118 TIME:   0.007 TIME LEFT:  2.00D  GRAD.:     1.769 HEAT:-30.95618
 CYCLE:   119 TIME:   0.007 TIME LEFT:  2.00D  GRAD.:     2.287 HEAT:-30.96766
 CYCLE:   120 TIME:   0.024 TIME LEFT:  2.00D  GRAD.:     1.890 HEAT:-30.97306
 CYCLE:   121 TIME:   0.007 TIME LEFT:  2.00D  GRAD.:     1.684 HEAT:-30.98218
 CYCLE:   122 TIME:   0.013 TIME LEFT:  2.00D  GRAD.:     3.866 HEAT:-30.98307
 CYCLE:   123 TIME:   0.007 TIME LEFT:  2.00D  GRAD.:     1.942 HEAT:-30.99086
 CYCLE:   124 TIME:   0.007 TIME LEFT:  2.00D  GRAD.:     0.763 HEAT:-30.99268
 CYCLE:   125 TIME:   0.007 TIME LEFT:  2.00D  GRAD.:     1.308 HEAT:-30.99437
 CYCLE:   126 TIME:   0.007 TIME LEFT:  2.00D  GRAD.:     1.129 HEAT:-30.99544
 CYCLE:   127 TIME:   0.007 TIME LEFT:  2.00D  GRAD.:     0.711 HEAT:-30.99631
 CYCLE:   128 TIME:   0.007 TIME LEFT:  2.00D  GRAD.:     0.873 HEAT:-30.99745
 CYCLE:   129 TIME:   0.007 TIME LEFT:  2.00D  GRAD.:     0.559 HEAT:-30.99810
 CYCLE:   130 TIME:   0.007 TIME LEFT:  2.00D  GRAD.:     0.662 HEAT:-30.99887
 CYCLE:   131 TIME:   0.008 TIME LEFT:  2.00D  GRAD.:     0.733 HEAT:-30.99960
 CYCLE:   132 TIME:   0.008 TIME LEFT:  2.00D  GRAD.:     0.790 HEAT:-31.00017
 CYCLE:   133 TIME:   0.007 TIME LEFT:  2.00D  GRAD.:     0.708 HEAT:-31.00080
 CYCLE:   134 TIME:   0.008 TIME LEFT:  2.00D  GRAD.:     0.869 HEAT:-31.00214
 CYCLE:   135 TIME:   0.008 TIME LEFT:  2.00D  GRAD.:     0.865 HEAT:-31.00300
 CYCLE:   136 TIME:   0.008 TIME LEFT:  2.00D  GRAD.:     0.742 HEAT:-31.00396
 CYCLE:   137 TIME:   0.007 TIME LEFT:  2.00D  GRAD.:     0.698 HEAT:-31.00482
 CYCLE:   138 TIME:   0.008 TIME LEFT:  2.00D  GRAD.:     0.718 HEAT:-31.00519
 CYCLE:   139 TIME:   0.007 TIME LEFT:  2.00D  GRAD.:     0.531 HEAT:-31.00560
 CYCLE:   140 TIME:   0.007 TIME LEFT:  2.00D  GRAD.:     0.386 HEAT:-31.00594
 CYCLE:   141 TIME:   0.007 TIME LEFT:  2.00D  GRAD.:     0.407 HEAT:-31.00614
 CYCLE:   142 TIME:   0.007 TIME LEFT:  2.00D  GRAD.:     0.347 HEAT:-31.00629
 CYCLE:   143 TIME:   0.007 TIME LEFT:  2.00D  GRAD.:     0.377 HEAT:-31.00653
 CYCLE:   144 TIME:   0.007 TIME LEFT:  2.00D  GRAD.:     0.395 HEAT:-31.00670
 CYCLE:   145 TIME:   0.007 TIME LEFT:  2.00D  GRAD.:     0.717 HEAT:-31.00759
 CYCLE:   146 TIME:   0.007 TIME LEFT:  2.00D  GRAD.:     0.889 HEAT:-31.00825
 CYCLE:   147 TIME:   0.007 TIME LEFT:  2.00D  GRAD.:     0.980 HEAT:-31.00953
 CYCLE:   148 TIME:   0.007 TIME LEFT:  2.00D  GRAD.:     0.695 HEAT:-31.01044
 CYCLE:   149 TIME:   0.007 TIME LEFT:  2.00D  GRAD.:     0.794 HEAT:-31.01111
 CYCLE:   150 TIME:   0.007 TIME LEFT:  2.00D  GRAD.:     0.413 HEAT:-31.01166
 CYCLE:   151 TIME:   0.007 TIME LEFT:  2.00D  GRAD.:     0.360 HEAT:-31.01186
 CYCLE:   152 TIME:   0.007 TIME LEFT:  2.00D  GRAD.:     0.167 HEAT:-31.01191
 CYCLE:   153 TIME:   0.007 TIME LEFT:  2.00D  GRAD.:     0.092 HEAT:-31.01194
 CYCLE:   154 TIME:   0.007 TIME LEFT:  2.00D  GRAD.:     0.125 HEAT:-31.01194
 CYCLE:   155 TIME:   0.007 TIME LEFT:  2.00D  GRAD.:     0.063 HEAT:-31.01196
 CYCLE:   156 TIME:   0.007 TIME LEFT:  2.00D  GRAD.:     0.061 HEAT:-31.01196
 CYCLE:   157 TIME:   0.007 TIME LEFT:  2.00D  GRAD.:     0.076 HEAT:-31.01197
 CYCLE:   158 TIME:   0.007 TIME LEFT:  2.00D  GRAD.:     0.286 HEAT:-31.01199
 CYCLE:   159 TIME:   0.007 TIME LEFT:  2.00D  GRAD.:     0.213 HEAT:-31.01205
 CYCLE:   160 TIME:   0.007 TIME LEFT:  2.00D  GRAD.:     0.147 HEAT:-31.01224
 CYCLE:   161 TIME:   0.007 TIME LEFT:  2.00D  GRAD.:     0.219 HEAT:-31.01244
 CYCLE:   162 TIME:   0.007 TIME LEFT:  2.00D  GRAD.:     0.227 HEAT:-31.01268
 CYCLE:   163 TIME:   0.007 TIME LEFT:  2.00D  GRAD.:     0.380 HEAT:-31.01283
 CYCLE:   164 TIME:   0.007 TIME LEFT:  2.00D  GRAD.:     0.101 HEAT:-31.01294
 CYCLE:   165 TIME:   0.007 TIME LEFT:  2.00D  GRAD.:     0.067 HEAT:-31.01297
 CYCLE:   166 TIME:   0.007 TIME LEFT:  2.00D  GRAD.:     0.054 HEAT:-31.01298
 CYCLE:   167 TIME:   0.007 TIME LEFT:  2.00D  GRAD.:     0.050 HEAT:-31.01298

     RMS GRADIENT =  0.04957  IS LESS THAN CUTOFF =  0.05000



 -------------------------------------------------------------------------------
pm3  precise nosym
 InChI=1S/C8H14O/c1-3-4-5-8-6-7(2)9-8/h4-5,7-8H,3,6H2,1-2H3



     GEOMETRY OPTIMISED USING EIGENVECTOR FOLLOWING (EF).     
     SCF FIELD WAS ACHIEVED                                   


                              PM3 CALCULATION
                                                       MOPAC2012 (Version: 13.159M)
                                                       Mon Jun  2 14:11:30 2014
                                                       No. of days left =   6




          FINAL HEAT OF FORMATION =        -31.01298 KCAL/MOL =    -129.75832 KJ/MOL


          TOTAL ENERGY            =      -1457.05061 EV
          ELECTRONIC ENERGY       =      -7307.68150 EV  POINT GROUP:     C1  
          CORE-CORE REPULSION     =       5850.63089 EV
          COSMO AREA              =        187.01 SQUARE ANGSTROMS
          COSMO VOLUME            =        182.11 CUBIC ANGSTROMS

          GRADIENT NORM           =          0.04957
          IONIZATION POTENTIAL    =          9.921158 EV
          HOMO LUMO ENERGIES (EV) =         -9.921  0.874
          NO. OF FILLED LEVELS    =         26
          MOLECULAR WEIGHT        =        126.198

          MOLECULAR DIMENSIONS (Angstroms)

            Atom       Atom       Distance
            H    18    H    10     8.49284
            H    11    H    20     4.37643
            H    12    H    21     3.38099


          SCF CALCULATIONS        =        180
          COMPUTATION TIME        =          1.273 SECONDS




   ATOM   CHEMICAL          X               Y               Z
  NUMBER   SYMBOL      (ANGSTROMS)     (ANGSTROMS)     (ANGSTROMS)
 
     1       C          2.78760417  *  -0.26956850  *  -0.31580827  *
     2       C          0.81017329  *  -1.02342888  *  -0.39356266  *
     3       C          1.54464614  *   0.10943882  *  -1.15876445  *
     4       C         -2.71472085  *  -0.21103535  *   0.94712941  *
     5       C          3.28825957  *   0.79087309  *   0.63507108  *
     6       C         -3.68627520  *   0.63964517  *   0.15745702  *
     7       C         -0.30611836  *  -0.56404040  *   0.47861698  *
     8       C         -1.58038964  *  -0.66633709  *   0.09897784  *
     9       O          2.02677092  *  -1.31904361  *   0.35774819  *
    10       H          3.62038348  *  -0.73006676  *  -0.88699830  *
    11       H          0.53043524  *  -1.90704056  *  -1.00477737  *
    12       H          1.64130068  *  -0.03760386  *  -2.24332361  *
    13       H          1.15238086  *   1.12412345  *  -0.99382655  *
    14       H         -3.22910247  *  -1.10772759  *   1.34822632  *
    15       H         -2.35315603  *   0.34823867  *   1.83330128  *
    16       H         -3.20775284  *   1.55108546  *  -0.22355130  *
    17       H         -4.09125764  *   0.09799012  *  -0.70775069  *
    18       H         -4.53640878  *   0.94975187  *   0.77832841  *
    19       H          2.47623713  *   1.22485856  *   1.23430382  *
    20       H          3.76631877  *   1.60699355  *   0.07914020  *
    21       H          4.02784700  *   0.38052577  *   1.33435265  *
    22       H         -1.85081134  *  -1.10418316  *  -0.87068676  *
    23       H         -0.02438800  *  -0.13253482  *   1.44817928  *

           Empirical Formula: C8 H14 O  =    23 atoms



      MOLECULAR POINT GROUP   :   C1  


                  EIGENVALUES  
 -41.02617 -36.86729 -31.58241 -30.73503 -27.64970 -24.02712 -21.43006 -19.81935
 -19.63166 -17.68545 -16.84027 -16.52384 -15.50465 -15.30712 -14.46466 -13.92148
 -13.73837 -13.56705 -13.04723 -13.01793 -12.40650 -12.21227 -12.02874 -11.87299
 -10.75587  -9.92116   0.87384   2.82230   3.02946   3.12221   3.46501   3.56189
   3.71311   3.82722   3.85746   3.86282   3.97091   4.06662   4.13908   4.28003
   4.33792   4.46614   4.62545   4.71448   4.78046   4.92406   4.99807   5.18645
   5.62244   5.87344


              NET ATOMIC CHARGES AND DIPOLE CONTRIBUTIONS

  ATOM NO.   TYPE          CHARGE      No. of ELECS.   s-Pop       p-Pop       
    1          C           0.069278        3.9307     1.18432     2.74640
    2          C           0.103761        3.8962     1.17308     2.72316
    3          C          -0.164818        4.1648     1.18892     2.97590
    4          C          -0.064374        4.0644     1.14610     2.91827
    5          C          -0.127509        4.1275     1.14080     2.98670
    6          C          -0.105862        4.1059     1.13761     2.96825
    7          C          -0.170339        4.1703     1.20029     2.97005
    8          C          -0.132731        4.1327     1.19621     2.93652
    9          O          -0.271219        6.2712     1.88565     4.38557
   10          H           0.065210        0.9348     0.93479
   11          H           0.070708        0.9293     0.92929
   12          H           0.065928        0.9341     0.93407
   13          H           0.074576        0.9254     0.92542
   14          H           0.056002        0.9440     0.94400
   15          H           0.053587        0.9464     0.94641
   16          H           0.039228        0.9608     0.96077
   17          H           0.037964        0.9620     0.96204
   18          H           0.038108        0.9619     0.96189
   19          H           0.049374        0.9506     0.95063
   20          H           0.044656        0.9553     0.95534
   21          H           0.051643        0.9484     0.94836
   22          H           0.099970        0.9000     0.90003
   23          H           0.116858        0.8831     0.88314
 DIPOLE           X         Y         Z       TOTAL
 POINT-CHG.    -0.490     1.089    -0.911     1.502
 HYBRID        -0.072     0.212    -0.167     0.279
 SUM           -0.562     1.301    -1.078     1.780


          ATOMIC ORBITAL ELECTRON POPULATIONS

    Atom      s        px        py        pz   
    1  C   1.18432   0.93446   0.88857   0.92337
    2  C   1.17308   0.86458   0.94789   0.91068
    3  C   1.18892   0.97430   1.00319   0.99840
    4  C   1.14610   0.95657   0.99182   0.96988
    5  C   1.14080   1.01387   0.98088   0.99196
    6  C   1.13761   0.98185   0.99197   0.99443
    7  C   1.20029   0.94824   1.01808   1.00373
    8  C   1.19621   0.94866   0.99547   0.99240
    9  O   1.88565   1.22319   1.53834   1.62403
   10  H   0.93479
   11  H   0.92929
   12  H   0.93407
   13  H   0.92542
   14  H   0.94400
   15  H   0.94641
   16  H   0.96077
   17  H   0.96204
   18  H   0.96189
   19  H   0.95063
   20  H   0.95534
   21  H   0.94836
   22  H   0.90003
   23  H   0.88314
 *******************************************************************************
 ** Site#: 14399           For non-commercial use only        Version 13.159M **
 *******************************************************************************
 ** Cite this work as: MOPAC2012, James J. P. Stewart, Stewart Computational  **
 ** Chemistry, Version 13.159M web: HTTP://OpenMOPAC.net  Days remaining:   6 **
 *******************************************************************************
 **                                                                           **
 **                                MOPAC2012                                  **
 **                                                                           **
 *******************************************************************************

                            PM3 CALCULATION RESULTS


 *******************************************************************************
 *  CALCULATION DONE:                                Mon Jun  2 14:11:30 2014  *
 *  PM3      - The PM3 Hamiltonian to be used
 *  OLDGEO   - PREVIOUS GEOMETRY TO BE USED
 *  PRECISE  - CRITERIA TO BE INCREASED BY 100 TIMES
 *  NOSYM    - POINT-GROUP SYMMETRY SET TO C1
 *  T=       - A TIME OF 172800.0 SECONDS REQUESTED
 *  DUMP=N   - RESTART FILE WRITTEN EVERY  7200.000 SECONDS
 *  THERMO   - THERMODYNAMIC QUANTITIES TO BE CALCULATED
 *******************************************************************************
oldgeo thermo nosym precise  pm3

   ATOM   CHEMICAL          X               Y               Z
  NUMBER   SYMBOL      (ANGSTROMS)     (ANGSTROMS)     (ANGSTROMS)
 
     1       C          2.78760417  *  -0.26956850  *  -0.31580827  *
     2       C          0.81017329  *  -1.02342888  *  -0.39356266  *
     3       C          1.54464614  *   0.10943882  *  -1.15876445  *
     4       C         -2.71472085  *  -0.21103535  *   0.94712941  *
     5       C          3.28825957  *   0.79087309  *   0.63507108  *
     6       C         -3.68627520  *   0.63964517  *   0.15745702  *
     7       C         -0.30611836  *  -0.56404040  *   0.47861698  *
     8       C         -1.58038964  *  -0.66633709  *   0.09897784  *
     9       O          2.02677092  *  -1.31904361  *   0.35774819  *
    10       H          3.62038348  *  -0.73006676  *  -0.88699830  *
    11       H          0.53043524  *  -1.90704056  *  -1.00477737  *
    12       H          1.64130068  *  -0.03760386  *  -2.24332361  *
    13       H          1.15238086  *   1.12412345  *  -0.99382655  *
    14       H         -3.22910247  *  -1.10772759  *   1.34822632  *
    15       H         -2.35315603  *   0.34823867  *   1.83330128  *
    16       H         -3.20775284  *   1.55108546  *  -0.22355130  *
    17       H         -4.09125764  *   0.09799012  *  -0.70775069  *
    18       H         -4.53640878  *   0.94975187  *   0.77832841  *
    19       H          2.47623713  *   1.22485856  *   1.23430382  *
    20       H          3.76631877  *   1.60699355  *   0.07914020  *
    21       H          4.02784700  *   0.38052577  *   1.33435265  *
    22       H         -1.85081134  *  -1.10418316  *  -0.87068676  *
    23       H         -0.02438800  *  -0.13253482  *   1.44817928  *
 


          CARTESIAN COORDINATES 

    NO.       ATOM         X         Y         Z

     1         C        2.7876   -0.2696   -0.3158
     2         C        0.8102   -1.0234   -0.3936
     3         C        1.5446    0.1094   -1.1588
     4         C       -2.7147   -0.2110    0.9471
     5         C        3.2883    0.7909    0.6351
     6         C       -3.6863    0.6396    0.1575
     7         C       -0.3061   -0.5640    0.4786
     8         C       -1.5804   -0.6663    0.0990
     9         O        2.0268   -1.3190    0.3577
    10         H        3.6204   -0.7301   -0.8870
    11         H        0.5304   -1.9070   -1.0048
    12         H        1.6413   -0.0376   -2.2433
    13         H        1.1524    1.1241   -0.9938
    14         H       -3.2291   -1.1077    1.3482
    15         H       -2.3532    0.3482    1.8333
    16         H       -3.2078    1.5511   -0.2236
    17         H       -4.0913    0.0980   -0.7078
    18         H       -4.5364    0.9498    0.7783
    19         H        2.4762    1.2249    1.2343
    20         H        3.7663    1.6070    0.0791
    21         H        4.0278    0.3805    1.3344
    22         H       -1.8508   -1.1042   -0.8707
    23         H       -0.0244   -0.1325    1.4482

  H: (PM3): J. J. P. STEWART, J. COMP. CHEM. 10, 209 (1989).
  C: (PM3): J. J. P. STEWART, J. COMP. CHEM. 10, 209 (1989).
  O: (PM3): J. J. P. STEWART, J. COMP. CHEM. 10, 209 (1989).

           Empirical Formula: C8 H14 O  =    23 atoms



      MOLECULAR POINT GROUP   :   C1  


      RHF CALCULATION, NO. OF DOUBLY OCCUPIED LEVELS =   26



          HEAT OF FORMATION =     -31.012983 KCALS/MOLE


          INTERNAL COORDINATE DERIVATIVES

   NUMBER  ATOM       BOND         ANGLE      DIHEDRAL

     1       C     -0.001965    -0.001162     0.006176
     2       C      0.008382    -0.001028     0.003763
     3       C      0.004710     0.002897     0.001987
     4       C     -0.011530     0.006325    -0.001472
     5       C     -0.005471     0.011224    -0.006113
     6       C     -0.003942     0.000421    -0.012076
     7       C     -0.004984    -0.014341    -0.005032
     8       C      0.002498     0.004303    -0.002019
     9       O      0.004300    -0.001695    -0.003453
    10       H     -0.008434     0.000046     0.003677
    11       H     -0.004532     0.003456    -0.004245
    12       H     -0.001784    -0.001848    -0.000511
    13       H      0.000083    -0.002010    -0.001425
    14       H      0.012579    -0.010605     0.006569
    15       H     -0.005433    -0.006091    -0.003278
    16       H     -0.003435     0.013651    -0.000615
    17       H      0.008673     0.000835     0.013278
    18       H      0.004571    -0.002764    -0.005321
    19       H     -0.008463    -0.002401     0.004945
    20       H      0.004906    -0.011218    -0.001958
    21       H      0.006298     0.004818    -0.002631
    22       H      0.003213     0.001049     0.004051
    23       H     -0.000240     0.006137     0.005705


          GRADIENT NORM =   0.04982


          TIME FOR SCF CALCULATION =    0.00

          TIME FOR DERIVATIVES     =    0.00

          MOLECULAR WEIGHT =  126.20



          ROTATIONAL CONSTANTS IN CM(-1)

          A =    0.13474314   B =    0.02156648   C =    0.02114972



           PRINCIPAL MOMENTS OF INERTIA IN UNITS OF 10**(-40)*GRAM-CM**2

          A =      207.7492   B =     1297.9759   C =     1323.5532


          ORIENTATION OF MOLECULE IN FORCE CALCULATION

    NO.       ATOM         X         Y         Z

     1          C      -2.3483   -0.2846    0.9972
     2          C      -0.2306   -0.2846    0.9972
     3          C      -1.2916    0.8479    0.9972
     4          C       2.7224    0.1027   -1.4547
     5          C      -3.2282   -0.3660   -0.2269
     6          C       3.3558    1.4505   -1.7258
     7          C       0.6162   -0.3450   -0.2264
     8          C       1.8565    0.1447   -0.2457
     9          O      -1.2889   -1.2905    0.9997
    10          H      -2.9410   -0.3746    1.9312
    11          H       0.3676   -0.3765    1.9280
    12          H      -1.2897    1.4981    1.8829
    13          H      -1.2926    1.4961    0.1081
    14          H       3.5072   -0.6636   -1.2923
    15          H       2.1532   -0.2354   -2.3438
    16          H       2.5985    2.2205   -1.9219
    17          H       3.9586    1.7953   -0.8750
    18          H       4.0165    1.4088   -2.6011
    19          H      -2.6464   -0.3184   -1.1576
    20          H      -3.9447    0.4647   -0.2378
    21          H      -3.7984   -1.3035   -0.2449
    22          H       2.3004    0.6024    0.6478
    23          H       0.1639   -0.8095   -1.1126


    FIRST DERIVATIVES WILL BE USED IN THE CALCULATION OF SECOND DERIVATIVES

          ESTIMATED TIME TO COMPLETE CALCULATION =        2.66 SECONDS

    FOR POINT-GROUP C1   THERE ARE   1 UNIQUE SYMMETRY FUNCTIONS.

 STEP:   1 TIME =     0.03 SECS, INTEGRAL =      0.03 TIME LEFT: 172799.96
 STEP:   2 TIME =     0.03 SECS, INTEGRAL =      0.06 TIME LEFT: 172799.93
 STEP:   3 TIME =     0.03 SECS, INTEGRAL =      0.09 TIME LEFT: 172799.90
 STEP:   4 TIME =     0.03 SECS, INTEGRAL =      0.12 TIME LEFT: 172799.87
 STEP:   5 TIME =     0.03 SECS, INTEGRAL =      0.15 TIME LEFT: 172799.84
 STEP:   6 TIME =     0.03 SECS, INTEGRAL =      0.18 TIME LEFT: 172799.81
 STEP:   7 TIME =     0.03 SECS, INTEGRAL =      0.21 TIME LEFT: 172799.78
 STEP:   8 TIME =     0.03 SECS, INTEGRAL =      0.24 TIME LEFT: 172799.75
 STEP:   9 TIME =     0.03 SECS, INTEGRAL =      0.27 TIME LEFT: 172799.72
 STEP:  10 TIME =     0.03 SECS, INTEGRAL =      0.31 TIME LEFT: 172799.69
 STEP:  11 TIME =     0.03 SECS, INTEGRAL =      0.33 TIME LEFT: 172799.66
 STEP:  12 TIME =     0.03 SECS, INTEGRAL =      0.36 TIME LEFT: 172799.63
 STEP:  13 TIME =     0.03 SECS, INTEGRAL =      0.39 TIME LEFT: 172799.60
 STEP:  14 TIME =     0.03 SECS, INTEGRAL =      0.43 TIME LEFT: 172799.56
 STEP:  15 TIME =     0.03 SECS, INTEGRAL =      0.46 TIME LEFT: 172799.53
 STEP:  16 TIME =     0.03 SECS, INTEGRAL =      0.49 TIME LEFT: 172799.50
 STEP:  17 TIME =     0.03 SECS, INTEGRAL =      0.52 TIME LEFT: 172799.47
 STEP:  18 TIME =     0.03 SECS, INTEGRAL =      0.55 TIME LEFT: 172799.44
 STEP:  19 TIME =     0.03 SECS, INTEGRAL =      0.58 TIME LEFT: 172799.41
 STEP:  20 TIME =     0.03 SECS, INTEGRAL =      0.61 TIME LEFT: 172799.38
 STEP:  21 TIME =     0.03 SECS, INTEGRAL =      0.64 TIME LEFT: 172799.35
 STEP:  22 TIME =     0.03 SECS, INTEGRAL =      0.67 TIME LEFT: 172799.32
 STEP:  23 TIME =     0.03 SECS, INTEGRAL =      0.70 TIME LEFT: 172799.29
 STEP:  24 TIME =     0.03 SECS, INTEGRAL =      0.74 TIME LEFT: 172799.25
 STEP:  25 TIME =     0.03 SECS, INTEGRAL =      0.77 TIME LEFT: 172799.22
 STEP:  26 TIME =     0.03 SECS, INTEGRAL =      0.80 TIME LEFT: 172799.19
 STEP:  27 TIME =     0.03 SECS, INTEGRAL =      0.83 TIME LEFT: 172799.16
 STEP:  28 TIME =     0.03 SECS, INTEGRAL =      0.86 TIME LEFT: 172799.13
 STEP:  29 TIME =     0.03 SECS, INTEGRAL =      0.89 TIME LEFT: 172799.10
 STEP:  30 TIME =     0.03 SECS, INTEGRAL =      0.92 TIME LEFT: 172799.07
 STEP:  31 TIME =     0.03 SECS, INTEGRAL =      0.95 TIME LEFT: 172799.04
 STEP:  32 TIME =     0.03 SECS, INTEGRAL =      0.99 TIME LEFT: 172799.01
 STEP:  33 TIME =     0.03 SECS, INTEGRAL =      1.02 TIME LEFT: 172798.98
 STEP:  34 TIME =     0.03 SECS, INTEGRAL =      1.05 TIME LEFT: 172798.94
 STEP:  35 TIME =     0.03 SECS, INTEGRAL =      1.08 TIME LEFT: 172798.91
 STEP:  36 TIME =     0.03 SECS, INTEGRAL =      1.11 TIME LEFT: 172798.88
 STEP:  37 TIME =     0.03 SECS, INTEGRAL =      1.14 TIME LEFT: 172798.85
 STEP:  38 TIME =     0.03 SECS, INTEGRAL =      1.17 TIME LEFT: 172798.82
 STEP:  39 TIME =     0.03 SECS, INTEGRAL =      1.20 TIME LEFT: 172798.79
 STEP:  40 TIME =     0.03 SECS, INTEGRAL =      1.23 TIME LEFT: 172798.76
 STEP:  41 TIME =     0.03 SECS, INTEGRAL =      1.26 TIME LEFT: 172798.73
 STEP:  42 TIME =     0.03 SECS, INTEGRAL =      1.29 TIME LEFT: 172798.70
 STEP:  43 TIME =     0.03 SECS, INTEGRAL =      1.32 TIME LEFT: 172798.67
 STEP:  44 TIME =     0.03 SECS, INTEGRAL =      1.35 TIME LEFT: 172798.64
 STEP:  45 TIME =     0.03 SECS, INTEGRAL =      1.38 TIME LEFT: 172798.61
 STEP:  46 TIME =     0.03 SECS, INTEGRAL =      1.41 TIME LEFT: 172798.58
 STEP:  47 TIME =     0.03 SECS, INTEGRAL =      1.44 TIME LEFT: 172798.55
 STEP:  48 TIME =     0.03 SECS, INTEGRAL =      1.47 TIME LEFT: 172798.52
 STEP:  49 TIME =     0.03 SECS, INTEGRAL =      1.50 TIME LEFT: 172798.49
 STEP:  50 TIME =     0.03 SECS, INTEGRAL =      1.53 TIME LEFT: 172798.46
 STEP:  51 TIME =     0.03 SECS, INTEGRAL =      1.56 TIME LEFT: 172798.43
 STEP:  52 TIME =     0.03 SECS, INTEGRAL =      1.59 TIME LEFT: 172798.40
 STEP:  53 TIME =     0.03 SECS, INTEGRAL =      1.62 TIME LEFT: 172798.37
 STEP:  54 TIME =     0.03 SECS, INTEGRAL =      1.65 TIME LEFT: 172798.34
 STEP:  55 TIME =     0.03 SECS, INTEGRAL =      1.68 TIME LEFT: 172798.31
 STEP:  56 TIME =     0.03 SECS, INTEGRAL =      1.71 TIME LEFT: 172798.28
 STEP:  57 TIME =     0.03 SECS, INTEGRAL =      1.74 TIME LEFT: 172798.25
 STEP:  58 TIME =     0.03 SECS, INTEGRAL =      1.77 TIME LEFT: 172798.22
 STEP:  59 TIME =     0.03 SECS, INTEGRAL =      1.80 TIME LEFT: 172798.19
 STEP:  60 TIME =     0.03 SECS, INTEGRAL =      1.83 TIME LEFT: 172798.16
 STEP:  61 TIME =     0.03 SECS, INTEGRAL =      1.86 TIME LEFT: 172798.13
 STEP:  62 TIME =     0.03 SECS, INTEGRAL =      1.89 TIME LEFT: 172798.10
 STEP:  63 TIME =     0.03 SECS, INTEGRAL =      1.92 TIME LEFT: 172798.07
 STEP:  64 TIME =     0.03 SECS, INTEGRAL =      1.96 TIME LEFT: 172798.03
 STEP:  65 TIME =     0.03 SECS, INTEGRAL =      1.99 TIME LEFT: 172798.00
 STEP:  66 TIME =     0.03 SECS, INTEGRAL =      2.02 TIME LEFT: 172797.97
 STEP:  67 TIME =     0.03 SECS, INTEGRAL =      2.05 TIME LEFT: 172797.94
 STEP:  68 TIME =     0.03 SECS, INTEGRAL =      2.08 TIME LEFT: 172797.91
 STEP:  69 TIME =     0.03 SECS, INTEGRAL =      2.11 TIME LEFT: 172797.88

(To convert to Hartree/Bohr^2, multiply by (10^(-21) x N x a0^2)/(4.184 x 627.51) = 0.0642)


           FORCE MATRIX IN MILLIDYNES/ANGSTROM


                  C  1       C  2       C  3       C  4       C  5       C  6
 ------------------------------------------------------------------------------
     C    1  14.608345
     C    2   2.298399  14.892812
     C    3   3.426031   3.304163  14.355512
     C    4   0.005181   0.146341   0.018731  14.690104
     C    5   4.454320   0.070424   0.528106   0.000723  14.490686
     C    6   0.001896   0.020011   0.003798   4.411033   0.000639  14.350074
     C    7   0.071989   4.848261   0.559373   0.826258   0.009062   0.041529
     C    8   0.007743   0.840808   0.023881   4.967676   0.000944   0.716828
     O    9   3.973967   3.974397   2.108161   0.016686   0.724494   0.002411
     H   10   4.399387   0.056961   0.416752   0.000770   0.422731   0.000269
     H   11   0.057479   4.383238   0.418193   0.007454   0.013355   0.001085
     H   12   0.435604   0.437355   4.755284   0.002431   0.036535   0.000614
     H   13   0.449287   0.448675   4.710124   0.001027   0.020800   0.000535
     H   14   0.001735   0.019975   0.001967   4.421941   0.000296   0.445873
     H   15   0.000622   0.003478   0.000338   4.444407   0.000279   0.434467
     H   16   0.000569   0.001555   0.000348   0.461442   0.000291   4.744208
     H   17   0.000567   0.001099   0.000368   0.464838   0.000131   4.724172
     H   18   0.000713   0.003519   0.000986   0.449900   0.000243   4.752114
     H   19   0.481779   0.006937   0.018041   0.000315   4.725798   0.000135
     H   20   0.436692   0.010593   0.009700   0.000198   4.761961   0.000179
     H   21   0.462539   0.006838   0.048272   0.000208   4.763825   0.000092
     H   22   0.002074   0.090679   0.011600   0.431823   0.000617   0.026171
     H   23   0.008572   0.459637   0.011873   0.086645   0.003766   0.009173


                  C  7       C  8       O  9       H 10       H 11       H 12
 ------------------------------------------------------------------------------
     C    7  18.261294
     C    8  10.690478  18.191256
     O    9   0.756636   0.055081   8.821274
     H   10   0.013833   0.001791   0.338945   4.794700
     H   11   0.431601   0.039414   0.335837   0.002094   4.775050
     H   12   0.033781   0.001534   0.052374   0.022374   0.021578   5.375440
     H   13   0.020909   0.004236   0.045551   0.032284   0.032236   0.544092
     H   14   0.035523   0.406515   0.003998   0.000198   0.001124   0.000224
     H   15   0.048390   0.460714   0.001339   0.000115   0.000578   0.000121
     H   16   0.002468   0.016007   0.000823   0.000129   0.000136   0.000087
     H   17   0.002092   0.027753   0.000579   0.000088   0.000173   0.000126
     H   18   0.007362   0.052818   0.001047   0.000103   0.000178   0.000199
     H   19   0.003093   0.000835   0.028123   0.044588   0.000781   0.001909
     H   20   0.001679   0.000476   0.058265   0.025985   0.002290   0.001617
     H   21   0.001585   0.000295   0.019919   0.026918   0.001254   0.006161
     H   22   0.470154   4.760659   0.007410   0.000330   0.023638   0.002052
     H   23   4.774822   0.467525   0.047971   0.001490   0.031052   0.001297


                  H 13       H 14       H 15       H 16       H 17       H 18
 ------------------------------------------------------------------------------
     H   13   5.336570
     H   14   0.000259   5.018347
     H   15   0.000262   0.566543   5.054334
     H   16   0.000150   0.049369   0.024329   5.482858
     H   17   0.000106   0.023715   0.047917   0.578645   5.468941
     H   18   0.000162   0.028518   0.030171   0.574925   0.573691   5.488694
     H   19   0.015926   0.000135   0.000150   0.000078   0.000079   0.000075
     H   20   0.004295   0.000075   0.000069   0.000093   0.000091   0.000052
     H   21   0.003353   0.000086   0.000066   0.000116   0.000068   0.000073
     H   22   0.000869   0.017338   0.039034   0.002587   0.020174   0.002035
     H   23   0.003467   0.010718   0.029910   0.000555   0.000620   0.001798


                  H 19       H 20       H 21       H 22       H 23
 ------------------------------------------------------------------
     H   19   5.457998
     H   20   0.563856   5.478449
     H   21   0.573961   0.563147   5.489620
     H   22   0.000280   0.000154   0.000233   5.141291
     H   23   0.008547   0.000657   0.000644   0.106669   5.154069


          HEAT OF FORMATION =     -31.012983 KCALS/MOLE

          ZERO POINT ENERGY     126.466 KCAL/MOL


           NORMAL COORDINATE ANALYSIS (Total motion = 1 Angstrom)


   Root No.       1         2         3         4         5         6         7         8

                 1 A       2 A       3 A       4 A       5 A       6 A       7 A       8 A   

                  22.6      66.9      68.9     107.6     145.4     164.6     228.5     337.3
  
           1   -0.0036   -0.0001    0.0015   -0.0055    0.0014   -0.0025    0.0005    0.0083
           2   -0.0106    0.0064   -0.0024   -0.0187    0.0105   -0.0057   -0.0006   -0.0197
           3    0.0089   -0.0017   -0.0102    0.0013   -0.0038   -0.0067   -0.0148   -0.0032
           4   -0.0036   -0.0001    0.0016   -0.0051    0.0016   -0.0016    0.0026    0.0061
           5    0.0198   -0.0210    0.0054    0.0051   -0.0013    0.0018   -0.0027    0.0328
           6   -0.0075    0.0094    0.0217    0.0047    0.0023    0.0059    0.0227    0.0026
           7   -0.0198    0.0145   -0.0027   -0.0175    0.0076   -0.0061    0.0020   -0.0216
           8    0.0045   -0.0073    0.0017   -0.0072    0.0050   -0.0024   -0.0022    0.0083
           9   -0.0040   -0.0046    0.0266    0.0361   -0.0098   -0.0026   -0.0150    0.0048
          10   -0.0118   -0.0226   -0.0285    0.0062   -0.0043    0.0010   -0.0299   -0.0065
          11    0.0044    0.0219   -0.0016   -0.0071   -0.0005   -0.0022    0.0116   -0.0250
          12   -0.0203   -0.0090   -0.0177    0.0136   -0.0036    0.0081   -0.0179   -0.0149
          13   -0.0117    0.0077    0.0495   -0.0002   -0.0004   -0.0142   -0.0197    0.0001
          14   -0.0282    0.0071   -0.0006    0.0068   -0.0021    0.0019    0.0003    0.0146
          15    0.0159   -0.0074   -0.0456   -0.0044   -0.0016    0.0014   -0.0001    0.0010
          16    0.0506    0.0335   -0.0132    0.0199   -0.0055   -0.0024   -0.0001   -0.0233
          17   -0.0158   -0.0032   -0.0060   -0.0239    0.0021   -0.0062   -0.0017   -0.0087
          18    0.0251   -0.0013   -0.0034   -0.0343    0.0058   -0.0172   -0.0120    0.0297
          19   -0.0133    0.0053   -0.0132   -0.0021    0.0040    0.0160    0.0254    0.0103
          20    0.0271   -0.0416    0.0140    0.0283   -0.0135    0.0059    0.0039   -0.0191
          21   -0.0146    0.0143    0.0106    0.0057    0.0048    0.0191    0.0410    0.0113
          22   -0.0025   -0.0294   -0.0036   -0.0043    0.0012    0.0141    0.0293   -0.0026
          23   -0.0001    0.0457   -0.0116    0.0340   -0.0066    0.0113   -0.0071    0.0043
          24   -0.0135   -0.0148    0.0007    0.0051    0.0005    0.0181    0.0276   -0.0155
          25    0.0108   -0.0130    0.0051    0.0052   -0.0038    0.0007   -0.0008    0.0323
          26    0.0046   -0.0073    0.0016   -0.0069    0.0051   -0.0021   -0.0019    0.0075
          27    0.0048    0.0148    0.0226   -0.0225    0.0051   -0.0190   -0.0185   -0.0201
          28    0.0049   -0.0078   -0.0323   -0.0080    0.0011    0.0046    0.0097    0.0167
          29   -0.0152    0.0224   -0.0082   -0.0520    0.0178   -0.0136    0.0011   -0.0566
          30    0.0138   -0.0051   -0.0327   -0.0036   -0.0032   -0.0027   -0.0083   -0.0016
          31    0.0046   -0.0037    0.0090   -0.0046   -0.0017   -0.0157   -0.0246    0.0003
          32    0.0322   -0.0208    0.0040   -0.0117    0.0021   -0.0011   -0.0035    0.0573
          33   -0.0115    0.0117    0.0163    0.0028    0.0047    0.0146    0.0395    0.0094
          34   -0.0222    0.0182   -0.0186   -0.0260    0.0086   -0.0140   -0.0147   -0.0406
          35    0.0083   -0.0007   -0.0169   -0.0344    0.0118    0.0007    0.0168    0.0027
          36   -0.0068   -0.0095    0.0403    0.0562   -0.0147   -0.0049   -0.0293    0.0091
          37   -0.0360    0.0276    0.0082   -0.0233    0.0156   -0.0033    0.0197   -0.0398
          38    0.0008   -0.0139    0.0203    0.0201   -0.0013   -0.0056   -0.0213    0.0139
          39   -0.0067   -0.0095    0.0402    0.0561   -0.0145   -0.0050   -0.0293    0.0092
          40   -0.0471   -0.0533   -0.0374   -0.0004   -0.0042    0.0022   -0.0462   -0.0074
          41   -0.0387   -0.0093   -0.0174   -0.0064   -0.0027   -0.0024   -0.0193   -0.0262
          42   -0.0531   -0.0064   -0.0496    0.0504   -0.0151    0.0001   -0.0856   -0.0208
          43   -0.0333   -0.0300   -0.0522    0.0134   -0.0098   -0.0149   -0.0854   -0.0055
          44    0.0638    0.0469    0.0256   -0.0372    0.0081   -0.0086    0.0606   -0.0152
          45   -0.0292   -0.0138   -0.0130    0.0203   -0.0034    0.0202   -0.0017   -0.0187
          46    0.0861    0.0661   -0.0053    0.0294   -0.0076   -0.0118    0.0212   -0.0369
          47    0.0278    0.0296    0.0109   -0.0304    0.0106    0.0336    0.0004   -0.0191
          48    0.0593    0.0016    0.0324   -0.0963    0.0474    0.1748   -0.0850    0.0397
          49    0.0735    0.0474    0.0134   -0.0041    0.0235    0.1658   -0.0533   -0.0487
          50   -0.0763   -0.0324   -0.0349    0.0163   -0.0203   -0.0859    0.0166   -0.0219
          51    0.0334    0.0007   -0.0105   -0.0338   -0.0056   -0.1044    0.0183    0.0537
          52    0.0421    0.0327   -0.0354    0.0460   -0.0337   -0.1651    0.0582   -0.0042
          53   -0.0150   -0.0266    0.0027   -0.0714    0.0182    0.0298   -0.0330    0.0337
          54    0.0187   -0.0009   -0.0205   -0.0125   -0.0161   -0.1417    0.0333    0.0431
          55   -0.0191    0.0150    0.0880    0.0000   -0.0232   -0.0212   -0.0372   -0.0067
          56   -0.0261   -0.0110   -0.0042    0.0687    0.2171   -0.0248   -0.0035    0.0261
          57    0.0114   -0.0036   -0.0220   -0.0010   -0.0045   -0.0041   -0.0109   -0.0025
          58   -0.0222    0.0203    0.0533   -0.0284   -0.1560    0.0080   -0.0167    0.0175
          59   -0.0372    0.0178    0.0022   -0.0171   -0.1351    0.0212    0.0033    0.0305
          60    0.0168   -0.0210   -0.0759    0.0317    0.1073   -0.0021    0.0121    0.0274
          61   -0.0002   -0.0062    0.0467    0.0317    0.1743   -0.0398   -0.0244   -0.0199
          62   -0.0354    0.0155    0.0015   -0.0118   -0.1067    0.0172    0.0029    0.0276
          63    0.0252   -0.0020   -0.0678   -0.0481   -0.1052    0.0177    0.0124   -0.0174
          64    0.0143   -0.0645    0.0223   -0.0101    0.0004    0.0171    0.0646   -0.0192
          65   -0.0288    0.1338   -0.0409    0.0525    0.0000    0.0229   -0.0328    0.0749
          66   -0.0070   -0.0425    0.0027   -0.0019   -0.0026    0.0098    0.0221   -0.0429
          67   -0.0300    0.0403   -0.0366    0.0064    0.0069    0.0270    0.0204    0.0307
          68    0.0553   -0.1302    0.0432    0.0194   -0.0232   -0.0029    0.0244   -0.0984
          69   -0.0208    0.0430    0.0068    0.0056    0.0085    0.0175    0.0315    0.0420


   Root No.       9        10        11        12        13        14        15        16

                 9 A      10 A      11 A      12 A      13 A      14 A      15 A      16 A   

                 351.2     366.6     448.8     495.4     523.9     791.5     810.3     901.3
  
           1   -0.0053   -0.0317   -0.0089   -0.0145   -0.0050   -0.0417    0.0047   -0.0099
           2   -0.0362    0.0011    0.0024    0.0055   -0.0001   -0.0033   -0.0001    0.0119
           3    0.0106    0.0073    0.0478    0.0234   -0.0149    0.0277   -0.0034    0.0047
           4   -0.0051   -0.0144   -0.0176   -0.0089    0.0048    0.0392   -0.0047    0.0066
           5    0.0012    0.0098    0.0063   -0.0180   -0.0045   -0.0008    0.0014    0.0014
           6   -0.0019    0.0004   -0.0408    0.0061   -0.0468    0.0157    0.0080    0.0019
           7   -0.0268   -0.0328   -0.0183    0.0011    0.0043    0.0114    0.0013   -0.0041
           8   -0.0214    0.0023    0.0095   -0.0121   -0.0079   -0.0337    0.0025   -0.0169
           9   -0.0384    0.0330   -0.0070   -0.0107    0.0084    0.0171    0.0032   -0.0178
          10    0.0066    0.0384   -0.0171    0.0160   -0.0127   -0.0017    0.0324    0.0025
          11    0.0098    0.0089    0.0096   -0.0277   -0.0097    0.0021   -0.0113    0.0007
          12    0.0019   -0.0281    0.0115   -0.0287    0.0017    0.0081    0.0161    0.0029
          13    0.0036   -0.0136    0.0441    0.0140   -0.0202   -0.0304    0.0031   -0.0084
          14    0.0497   -0.0049   -0.0018   -0.0007    0.0012   -0.0016    0.0001    0.0101
          15   -0.0017   -0.0092    0.0159    0.0047   -0.0106   -0.0196    0.0013    0.0046
          16    0.0106    0.0238   -0.0024   -0.0109   -0.0159   -0.0031    0.0099    0.0041
          17    0.0063    0.0247   -0.0028   -0.0071   -0.0138   -0.0037    0.0022   -0.0038
          18   -0.0117   -0.0171   -0.0052    0.0160    0.0096    0.0027    0.0004    0.0034
          19   -0.0014    0.0264    0.0141    0.0157    0.0297    0.0054   -0.0159    0.0078
          20    0.0047   -0.0299   -0.0198    0.0410    0.0088   -0.0074    0.0118   -0.0196
          21   -0.0020    0.0160   -0.0108    0.0157   -0.0270   -0.0203   -0.0084    0.0122
          22    0.0044    0.0306    0.0102    0.0184    0.0254    0.0006   -0.0029   -0.0075
          23   -0.0056   -0.0301   -0.0062    0.0339    0.0258    0.0029   -0.0088    0.0132
          24    0.0028   -0.0216    0.0295   -0.0214    0.0249    0.0000    0.0018   -0.0093
          25    0.0111   -0.0237   -0.0103   -0.0291   -0.0007    0.0167   -0.0033    0.0130
          26   -0.0223    0.0117    0.0040   -0.0112    0.0006    0.0459   -0.0067   -0.0090
          27    0.0430    0.0172   -0.0277   -0.0020    0.0410   -0.0067   -0.0004   -0.0055
          28   -0.0089   -0.0500    0.0023   -0.0151   -0.0237   -0.0522    0.0049   -0.0077
          29   -0.0419   -0.0099   -0.0093    0.0245    0.0113   -0.0490    0.0035    0.0729
          30    0.0064   -0.0052    0.0517    0.0241   -0.0250    0.0147   -0.0028    0.0137
          31   -0.0016   -0.0196   -0.0252   -0.0244    0.0329    0.0757    0.0002   -0.0005
          32    0.0465    0.0159    0.0127   -0.0420   -0.0013   -0.0395   -0.0119    0.0992
          33    0.0004    0.0051   -0.0338    0.0126   -0.0631   -0.0110    0.0028    0.0194
          34   -0.0318   -0.0326    0.0306    0.0188    0.0264    0.0326   -0.0175    0.0139
          35    0.0268   -0.0345    0.0229    0.0286   -0.0725    0.0548    0.0206   -0.0895
          36   -0.0749    0.0612   -0.0175   -0.0419    0.0579   -0.0533   -0.0107    0.0397
          37   -0.0485   -0.0451   -0.0724    0.0022   -0.0127    0.0115    0.0207   -0.0213
          38   -0.0666    0.0376   -0.0029   -0.0512    0.0552   -0.1341   -0.0141    0.0579
          39   -0.0734    0.0606   -0.0165   -0.0412    0.0570   -0.0596   -0.0100    0.0402
          40    0.0091    0.0560   -0.0266    0.0167   -0.0297   -0.0138   -0.0344   -0.0392
          41    0.0120    0.0235   -0.0087   -0.0234   -0.0355   -0.0126   -0.1074   -0.0369
          42    0.0015   -0.0444   -0.0313   -0.0144   -0.0437   -0.0053   -0.1449    0.0217
          43    0.0068    0.0444   -0.0540    0.0263   -0.0584   -0.0171   -0.0721    0.0074
          44    0.0075    0.0142    0.0366   -0.0374    0.0194    0.0188    0.1539    0.0314
          45    0.0026   -0.0333    0.0233   -0.0305    0.0183    0.0105    0.0148   -0.0126
          46    0.0143    0.0151    0.0097   -0.0376   -0.0218   -0.0073   -0.0816   -0.0400
          47    0.0090    0.0171    0.0053   -0.0264   -0.0190   -0.0091   -0.0867   -0.0453
          48   -0.0150   -0.0129   -0.0199    0.0407    0.0097   -0.0033   -0.0120    0.0035
          49    0.0184    0.0189    0.0033   -0.0389   -0.0268    0.0011    0.0061    0.0004
          50    0.0111    0.0268    0.0030   -0.0224   -0.0152    0.0088    0.1138    0.0412
          51   -0.0195   -0.0146   -0.0120    0.0432    0.0182   -0.0059   -0.0460   -0.0138
          52    0.0046    0.0257   -0.0036    0.0055   -0.0086   -0.0098   -0.0293   -0.0136
          53   -0.0064    0.0405   -0.0296    0.0580   -0.0026   -0.0153    0.0275    0.0123
          54   -0.0160   -0.0168   -0.0052    0.0269    0.0153   -0.0018   -0.0304   -0.0101
          55    0.0126    0.0030    0.1050    0.0488   -0.0419    0.0425   -0.0072    0.0448
          56    0.1032   -0.0094   -0.0019   -0.0017    0.0029    0.0001   -0.0012   -0.0063
          57    0.0062    0.0010    0.0519    0.0252   -0.0228    0.0238   -0.0049    0.0354
          58    0.0345   -0.0154    0.0397    0.0079   -0.0183   -0.0354    0.0026   -0.0318
          59    0.0786   -0.0067   -0.0076   -0.0072    0.0039   -0.0073   -0.0002   -0.0121
          60    0.0565   -0.0279   -0.0342   -0.0273    0.0075   -0.0890    0.0093   -0.0696
          61   -0.0302   -0.0117    0.0571    0.0249   -0.0267   -0.0264    0.0033    0.0221
          62    0.0734   -0.0061   -0.0086   -0.0069    0.0048   -0.0028   -0.0003   -0.0085
          63   -0.0798   -0.0146   -0.0178   -0.0118   -0.0013   -0.0780    0.0103    0.0021
          64    0.0114    0.0343   -0.0016    0.0402    0.0170   -0.0155   -0.0638    0.0163
          65   -0.0289   -0.0139   -0.0032    0.0624    0.0475   -0.0003    0.0726   -0.0311
          66    0.0113   -0.0312    0.0327   -0.0467    0.0168    0.0095   -0.0102    0.0019
          67   -0.0091    0.0352    0.0508    0.0190    0.0807   -0.0097   -0.0113   -0.0521
          68    0.0271   -0.0672   -0.0390    0.0468   -0.0061    0.0035   -0.0376    0.0942
          69   -0.0095    0.0308   -0.0196    0.0102   -0.0443   -0.0178    0.0149   -0.0170


   Root No.      17        18        19        20        21        22        23        24

                17 A      18 A      19 A      20 A      21 A      22 A      23 A      24 A   

                 905.4     914.0     920.6     944.1     960.7     972.6     992.1    1006.4
  
           1    0.0104    0.0092    0.0002    0.0022   -0.0042    0.0006    0.0076   -0.0103
           2   -0.0090    0.0277   -0.0011    0.0004    0.0048   -0.0036   -0.0052    0.0134
           3   -0.0068   -0.0087   -0.0008    0.0079   -0.0028    0.0027    0.0000    0.0088
           4    0.0078    0.0121    0.0039   -0.0262   -0.0094    0.0076   -0.0021   -0.0091
           5   -0.0151   -0.0131   -0.0015   -0.0065   -0.0145    0.0151    0.0157   -0.0047
           6    0.0016    0.0063    0.0014   -0.0130    0.0023    0.0048    0.0006   -0.0014
           7   -0.0147   -0.0398   -0.0021    0.0098   -0.0092    0.0100    0.0105   -0.0110
           8    0.0156   -0.0161   -0.0011    0.0319    0.0130   -0.0141    0.0260    0.0068
           9    0.0016    0.0182   -0.0047    0.0193   -0.0065    0.0063    0.0295    0.0200
          10    0.0025   -0.0012   -0.0017    0.0014    0.0052    0.0051   -0.0018   -0.0020
          11    0.0012    0.0014   -0.0017   -0.0024   -0.0044   -0.0043    0.0043    0.0014
          12    0.0000   -0.0001   -0.0003   -0.0044   -0.0044   -0.0018   -0.0005   -0.0018
          13    0.0148    0.0153    0.0013   -0.0169   -0.0115    0.0086   -0.0159    0.0033
          14   -0.0110    0.0312   -0.0021    0.0098    0.0018   -0.0044   -0.0040   -0.0239
          15    0.0032    0.0011    0.0026   -0.0216    0.0094   -0.0050   -0.0018   -0.0058
          16    0.0040   -0.0030   -0.0068    0.0072    0.0079    0.0119   -0.0047    0.0000
          17   -0.0068   -0.0020    0.0061    0.0010    0.0008    0.0007   -0.0044   -0.0010
          18    0.0012   -0.0005   -0.0014   -0.0054   -0.0183   -0.0252    0.0062    0.0022
          19    0.0166    0.0062    0.0053    0.0002   -0.0050   -0.0062    0.0135    0.0042
          20   -0.0321   -0.0063   -0.0147   -0.0115   -0.0042   -0.0074   -0.0163   -0.0062
          21    0.0001   -0.0160    0.0024    0.0157   -0.0066   -0.0045   -0.0151   -0.0025
          22   -0.0053    0.0044    0.0134   -0.0054   -0.0043   -0.0065    0.0064    0.0011
          23    0.0233    0.0030   -0.0322    0.0021    0.0049    0.0068    0.0089    0.0002
          24   -0.0067    0.0025    0.0118    0.0030    0.0148    0.0180   -0.0031   -0.0007
          25   -0.0148    0.0087   -0.0026    0.0269    0.0211   -0.0170   -0.0196    0.0297
          26    0.0268   -0.0106    0.0049   -0.0186    0.0006   -0.0010   -0.0328   -0.0135
          27    0.0029    0.0000   -0.0006    0.0076    0.0035   -0.0068   -0.0005   -0.0085
          28    0.0151   -0.0336    0.0033    0.0059    0.0350   -0.0323    0.0388   -0.1211
          29   -0.0758    0.0330    0.0013   -0.0718    0.0077    0.0181   -0.0121    0.2784
          30   -0.0110   -0.0325    0.0017   -0.0012    0.0219   -0.0150    0.0176   -0.0280
          31   -0.0161    0.0359   -0.0012   -0.0611   -0.0250    0.0360    0.0515   -0.0143
          32   -0.0738   -0.0126    0.0020   -0.0368   -0.0851    0.1232    0.1457   -0.0460
          33    0.0085   -0.0101    0.0047    0.0053    0.0024    0.0015   -0.0185   -0.0037
          34   -0.0536   -0.1216   -0.0128    0.1711   -0.0977    0.0510   -0.0964   -0.0101
          35    0.0235    0.0499   -0.0180    0.0979   -0.0055    0.0000    0.1112    0.0597
          36   -0.0061   -0.0327    0.0083   -0.0317    0.0078   -0.0041   -0.0337   -0.0193
          37   -0.0234   -0.0475   -0.0022   -0.0934    0.0830   -0.0263    0.1265   -0.0128
          38    0.0018   -0.0833    0.0148   -0.0240    0.0336   -0.0291   -0.0401   -0.0366
          39   -0.0080   -0.0346    0.0079   -0.0243    0.0094   -0.0053   -0.0226   -0.0138
          40   -0.0433    0.0055    0.0509   -0.0124    0.0162    0.0106   -0.0115   -0.0100
          41   -0.0389    0.0076    0.0423   -0.0129    0.0029   -0.0021   -0.0022   -0.0033
          42    0.0282   -0.0015   -0.0424    0.0097   -0.0259   -0.0224    0.0173    0.0147
          43    0.0084   -0.0050   -0.0204    0.0086   -0.0222   -0.0368    0.0102    0.0123
          44    0.0241   -0.0088   -0.0293    0.0001   -0.0240   -0.0301    0.0064    0.0037
          45   -0.0132    0.0061    0.0224   -0.0096    0.0210    0.0357   -0.0094   -0.0119
          46   -0.0460    0.0078    0.0537   -0.0204   -0.0074   -0.0163   -0.0023   -0.0051
          47   -0.0513    0.0086    0.0606   -0.0208   -0.0018   -0.0092   -0.0052   -0.0068
          48    0.0117    0.0016   -0.0114    0.0118    0.0293    0.0416   -0.0054   -0.0015
          49   -0.0092   -0.0041    0.0065   -0.0100   -0.0362   -0.0505    0.0061    0.0032
          50    0.0275   -0.0176   -0.0400    0.0051   -0.0547   -0.0700    0.0079    0.0096
          51   -0.0045    0.0071    0.0097    0.0053    0.0378    0.0509   -0.0070   -0.0048
          52   -0.0075    0.0029    0.0107    0.0113    0.0434    0.0586   -0.0143   -0.0054
          53    0.0301   -0.0039   -0.0320    0.0487    0.1052    0.1490   -0.0336   -0.0075
          54   -0.0080    0.0041    0.0123   -0.0037    0.0056    0.0062    0.0001   -0.0018
          55   -0.0328   -0.0593    0.0064   -0.0333    0.0701   -0.0440    0.0409   -0.0379
          56    0.0117   -0.0491    0.0042   -0.0231    0.0062    0.0012    0.0035    0.0422
          57   -0.0240   -0.0472    0.0058   -0.0334    0.0582   -0.0360    0.0321   -0.0268
          58    0.0464   -0.0671    0.0085   -0.0556   -0.0119    0.0178   -0.0124    0.0683
          59    0.0184   -0.0424    0.0043   -0.0246   -0.0003    0.0052   -0.0022    0.0387
          60    0.0875   -0.0515    0.0099   -0.0707   -0.0554    0.0498   -0.0463    0.1126
          61   -0.0201    0.1015   -0.0048    0.0117   -0.0026   -0.0064   -0.0201   -0.0750
          62    0.0111   -0.0284    0.0023   -0.0108   -0.0015    0.0040    0.0000    0.0279
          63   -0.0019    0.1768   -0.0086    0.0215   -0.0425    0.0168   -0.0560   -0.0785
          64    0.0211   -0.0063   -0.1256   -0.0038   -0.0309   -0.0381    0.0206    0.0036
          65   -0.0510    0.0031    0.2792    0.0093   -0.0110   -0.0153   -0.0070    0.0024
          66    0.0180    0.0077   -0.0787   -0.0017    0.0356    0.0450   -0.0016   -0.0033
          67   -0.0349    0.0166   -0.0938   -0.0155    0.0129   -0.0254    0.0131    0.0168
          68    0.1225    0.0048    0.2071    0.0640   -0.0064    0.0047    0.0477    0.0185
          69   -0.0544   -0.0269   -0.0635   -0.0161   -0.0149   -0.0008   -0.0478   -0.0219


   Root No.      25        26        27        28        29        30        31        32

                25 A      26 A      27 A      28 A      29 A      30 A      31 A      32 A   

                1029.0    1056.5    1115.2    1121.3    1127.6    1145.8    1152.8    1163.9
  
           1   -0.0051   -0.0285    0.0000    0.0042   -0.0048    0.0004   -0.0075   -0.0204
           2   -0.0019   -0.0066    0.0008   -0.0235    0.0186   -0.0012   -0.0011    0.0000
           3   -0.0010    0.0057   -0.0002    0.0000    0.0019    0.0494    0.0056    0.0363
           4   -0.0068   -0.0354    0.0003    0.0067   -0.0031   -0.0041   -0.0050    0.0217
           5    0.0059    0.0090   -0.0017    0.0373   -0.0301    0.0095    0.0002   -0.0255
           6   -0.0095   -0.0144    0.0066   -0.0049    0.0174   -0.0089   -0.0148    0.0214
           7    0.0047    0.0153   -0.0001    0.0164   -0.0112   -0.0017   -0.0067   -0.0049
           8   -0.0095   -0.0139   -0.0007   -0.0029    0.0023   -0.0144    0.0112    0.0395
           9    0.0008   -0.0002   -0.0012    0.0011   -0.0025   -0.0023   -0.0087   -0.0236
          10   -0.0274    0.0085   -0.0166    0.0108    0.0162    0.0001    0.0145   -0.0056
          11    0.0048   -0.0034    0.0553    0.0261    0.0139    0.0018    0.0187    0.0108
          12   -0.0095   -0.0015   -0.0210    0.0109    0.0020    0.0014    0.0181    0.0078
          13    0.0051    0.0181    0.0001   -0.0023    0.0021    0.0029    0.0027    0.0034
          14    0.0026    0.0062   -0.0003    0.0086   -0.0067    0.0012    0.0010    0.0003
          15    0.0029    0.0039   -0.0002    0.0039   -0.0040   -0.0548   -0.0018   -0.0125
          16    0.0223   -0.0056    0.0178   -0.0165   -0.0205    0.0001   -0.0116    0.0038
          17    0.0052   -0.0008   -0.0614   -0.0188   -0.0140   -0.0008   -0.0181   -0.0005
          18   -0.0041    0.0034    0.0185   -0.0101   -0.0109   -0.0001   -0.0115    0.0021
          19   -0.0036    0.0011   -0.0019    0.0147   -0.0033    0.0023   -0.0068    0.0097
          20    0.0107   -0.0092    0.0044    0.0008    0.0098   -0.0008   -0.0026    0.0090
          21    0.0043    0.0075   -0.0058   -0.0075   -0.0082    0.0033    0.0362   -0.0225
          22    0.0080   -0.0067    0.0019    0.0122    0.0020    0.0005   -0.0077    0.0182
          23   -0.0286    0.0106   -0.0033   -0.0058   -0.0079    0.0000   -0.0026   -0.0068
          24    0.0138   -0.0033    0.0086   -0.0142    0.0042   -0.0035   -0.0065   -0.0177
          25    0.0015    0.0193   -0.0001   -0.0110    0.0077    0.0010    0.0029    0.0034
          26    0.0049    0.0107    0.0007   -0.0073    0.0046    0.0032   -0.0056   -0.0173
          27    0.0006   -0.0003   -0.0001    0.0032   -0.0014    0.0015   -0.0033   -0.0051
          28   -0.0132   -0.0929    0.0043   -0.0461    0.0325    0.2478   -0.0200   -0.1184
          29   -0.0161   -0.0607   -0.0037    0.0494   -0.0477    0.0821   -0.0096   -0.0730
          30   -0.0072   -0.0392    0.0019   -0.0230    0.0177    0.2148   -0.0027   -0.0310
          31    0.0195   -0.0743   -0.0211   -0.1049   -0.0180   -0.0366    0.2346    0.0122
          32   -0.0044    0.0405    0.0126   -0.1021    0.1014   -0.0277   -0.0599    0.0267
          33   -0.0276    0.0136    0.0223    0.0484    0.0438    0.0065   -0.1742    0.0343
          34   -0.0270   -0.0010    0.0108   -0.0239    0.0355   -0.0755    0.0011   -0.0136
          35   -0.0063   -0.0178   -0.0050    0.0005   -0.0073   -0.0359    0.0004   -0.0011
          36   -0.0023    0.0019    0.0023   -0.0010    0.0054    0.0164   -0.0020    0.0087
          37    0.0663    0.2034   -0.0096   -0.0051   -0.0030    0.0665    0.0378    0.0405
          38   -0.0192   -0.0216    0.0042   -0.0041    0.0143    0.0055    0.0196    0.1096
          39   -0.0068   -0.0060    0.0027   -0.0003    0.0076    0.0149   -0.0035    0.0295
          40   -0.1069    0.0340    0.1782   -0.0519   -0.0346   -0.0018    0.0198   -0.0340
          41   -0.0399    0.0120    0.2400   -0.0247   -0.0313    0.0007    0.0191   -0.0079
          42    0.1570   -0.0491   -0.0836    0.0670    0.0311    0.0040   -0.0099    0.0514
          43    0.0632    0.0004    0.0375    0.0188    0.0951   -0.0099    0.0217   -0.0908
          44   -0.0107    0.0077   -0.0102    0.0842    0.1212   -0.0025    0.0944   -0.0507
          45   -0.0596   -0.0013   -0.0305   -0.0152   -0.0892    0.0096   -0.0129    0.0863
          46   -0.0602    0.0152   -0.1408   -0.0071    0.0155   -0.0025   -0.0062   -0.0169
          47   -0.0663    0.0155   -0.2121   -0.0035    0.0241   -0.0029   -0.0067   -0.0189
          48    0.0191   -0.0093    0.0338    0.0170    0.0041    0.0016    0.0162    0.0100
          49   -0.0020    0.0067   -0.0133   -0.0398   -0.0294   -0.0018   -0.0345   -0.0059
          50    0.0644   -0.0048    0.0406   -0.0921   -0.0903   -0.0019   -0.0815    0.0039
          51   -0.0121   -0.0038   -0.0038    0.0365    0.0266    0.0018    0.0318    0.0073
          52    0.0084   -0.0075   -0.0318    0.0063    0.0057    0.0000    0.0146   -0.0013
          53    0.0893   -0.0334   -0.0036   -0.0050   -0.0194    0.0007    0.0113    0.0055
          54   -0.0168    0.0025   -0.0205    0.0086    0.0090    0.0000    0.0081    0.0003
          55   -0.0056   -0.0459    0.0000    0.0092   -0.0111   -0.1414   -0.0132   -0.0634
          56   -0.0043   -0.0130    0.0003   -0.0101    0.0071   -0.0092   -0.0021   -0.0075
          57   -0.0034   -0.0339   -0.0002    0.0099   -0.0110   -0.1443   -0.0113   -0.0526
          58    0.0000    0.0050    0.0010   -0.0240    0.0182   -0.0173   -0.0004   -0.0102
          59   -0.0021   -0.0044    0.0005   -0.0114    0.0084   -0.0135   -0.0013   -0.0088
          60    0.0071    0.0459    0.0010   -0.0346    0.0278    0.0066    0.0077    0.0115
          61    0.0120    0.0304   -0.0006    0.0203   -0.0158   -0.0176    0.0025   -0.0105
          62   -0.0024   -0.0045    0.0002   -0.0067    0.0052    0.0113    0.0005    0.0058
          63    0.0237    0.0822   -0.0010    0.0220   -0.0152    0.0135    0.0120    0.0147
          64    0.0142    0.0060   -0.0502   -0.0666   -0.0439   -0.0059    0.0866   -0.0065
          65    0.0805   -0.0262    0.0187   -0.0088    0.0158   -0.0051    0.0127    0.0119
          66   -0.0445    0.0086    0.0231    0.0266    0.0150    0.0022   -0.0587   -0.0151
          67    0.0415    0.0080    0.0193   -0.0616    0.1013   -0.0260   -0.0564   -0.0424
          68   -0.0103    0.0389   -0.0114   -0.0081   -0.0064    0.0024    0.0134   -0.0407
          69   -0.0071   -0.0215   -0.0078    0.0358   -0.0512    0.0158    0.0537    0.0287


   Root No.      33        34        35        36        37        38        39        40

                33 A      34 A      35 A      36 A      37 A      38 A      39 A      40 A   

                1174.0    1204.7    1228.3    1240.0    1273.1    1306.7    1342.2    1382.0
  
           1    0.0018    0.0047   -0.0053    0.0029   -0.0187    0.0459   -0.0234   -0.0057
           2    0.0300   -0.0176   -0.0204    0.0033    0.0752    0.0090   -0.0046    0.0007
           3   -0.0211    0.0025   -0.0150    0.0061    0.0057    0.0221   -0.0082    0.0036
           4   -0.0112   -0.0018   -0.0019   -0.0141    0.0081    0.0255    0.0148    0.0307
           5   -0.0129    0.0026    0.0157   -0.0069    0.0642    0.0005   -0.0047   -0.0012
           6   -0.0177    0.0116    0.0248   -0.0123    0.0204   -0.0241   -0.0071   -0.0203
           7   -0.0158    0.0148   -0.0314    0.0343    0.0046   -0.0326    0.0033   -0.0056
           8   -0.0179   -0.0002    0.0029   -0.0037   -0.0223   -0.0052    0.0058   -0.0004
           9    0.0164   -0.0009   -0.0022    0.0003   -0.0118   -0.0002    0.0034    0.0027
          10    0.0012   -0.0009    0.0014    0.0043   -0.0050   -0.0113   -0.0270   -0.0049
          11    0.0183    0.0055    0.0067    0.0086   -0.0037   -0.0102   -0.0239    0.0104
          12    0.0165    0.0277    0.0005    0.0023    0.0056    0.0148    0.0261    0.0136
          13    0.0006   -0.0014    0.0035   -0.0016    0.0028   -0.0034   -0.0033   -0.0149
          14   -0.0093    0.0048    0.0060   -0.0012   -0.0177   -0.0025    0.0007   -0.0018
          15    0.0068   -0.0005    0.0031   -0.0007   -0.0027    0.0047   -0.0082   -0.0162
          16   -0.0002    0.0006    0.0014    0.0017    0.0014    0.0022   -0.0001    0.0068
          17   -0.0067   -0.0049    0.0008    0.0004    0.0004   -0.0014   -0.0118    0.0165
          18   -0.0022   -0.0085    0.0022    0.0012   -0.0013   -0.0037   -0.0037   -0.0043
          19    0.0078   -0.0142    0.0056    0.0020    0.0025   -0.0003    0.0141   -0.0038
          20    0.0064   -0.0065   -0.0021    0.0115   -0.0132    0.0074    0.0075    0.0051
          21    0.0019   -0.0114   -0.0019    0.0354   -0.0097    0.0214    0.0048    0.0156
          22    0.0119   -0.0121    0.0028   -0.0055   -0.0057   -0.0112    0.0019   -0.0112
          23   -0.0077   -0.0065   -0.0052   -0.0132    0.0015   -0.0062   -0.0025   -0.0057
          24   -0.0262   -0.0087   -0.0188   -0.0327   -0.0009   -0.0117   -0.0205   -0.0021
          25    0.0077   -0.0024   -0.0056    0.0033    0.0020   -0.0093    0.0006   -0.0024
          26    0.0041    0.0077   -0.0003    0.0058   -0.0465    0.0018   -0.0044   -0.0049
          27    0.0044   -0.0006   -0.0004    0.0000    0.0013    0.0004    0.0015    0.0012
          28    0.0679   -0.0090    0.0519   -0.0218    0.0071   -0.0727    0.0254   -0.0043
          29   -0.0346    0.0370    0.0597   -0.0167   -0.1686   -0.0155    0.0080   -0.0027
          30    0.0118    0.0001    0.0302   -0.0122   -0.0059   -0.0552    0.0246    0.0052
          31   -0.0550   -0.0669    0.0614    0.0354    0.0016   -0.0475   -0.0109   -0.0349
          32    0.0528    0.0057   -0.0503    0.0274   -0.1459   -0.0014    0.0087    0.0013
          33    0.0160    0.0532   -0.0218   -0.0383    0.0007    0.0211    0.0114    0.0218
          34    0.0377   -0.0300    0.1630   -0.1292   -0.0058    0.0396   -0.0067   -0.0036
          35    0.0126   -0.0044   -0.0016   -0.0058   -0.0507   -0.0213    0.0393    0.0475
          36   -0.0074    0.0028    0.0010    0.0015    0.0112    0.0104   -0.0197   -0.0298
          37    0.0285   -0.0432    0.0894   -0.0988   -0.0284    0.1023   -0.0072    0.0223
          38   -0.0603    0.0057    0.0098   -0.0112   -0.0068   -0.0210    0.0251    0.0354
          39   -0.0160    0.0045    0.0031   -0.0050   -0.0031   -0.0111    0.0158    0.0257
          40   -0.0234    0.0266   -0.0209   -0.0169    0.0090    0.0309    0.0625   -0.0334
          41    0.0008    0.0243   -0.0110   -0.0080    0.0066    0.0272    0.0715   -0.0568
          42    0.0454   -0.0202    0.0214    0.0197   -0.0132   -0.0194    0.0110   -0.1026
          43   -0.0968   -0.0435   -0.0615   -0.0782    0.0046    0.0104    0.0045    0.0768
          44   -0.0174    0.0262   -0.0365   -0.0325    0.0026    0.0334    0.0942   -0.0874
          45    0.0947    0.0490    0.0562    0.0698   -0.0035   -0.0146   -0.0328   -0.0126
          46   -0.0199   -0.0040   -0.0091   -0.0120    0.0044    0.0152    0.0578   -0.0529
          47   -0.0219   -0.0037   -0.0096   -0.0130    0.0044    0.0145    0.0544   -0.0502
          48    0.0165    0.0143    0.0035    0.0049    0.0002   -0.0007   -0.0029   -0.0024
          49   -0.0191   -0.0165   -0.0030   -0.0069    0.0010    0.0008    0.0066   -0.0013
          50   -0.0269   -0.0284   -0.0003   -0.0065    0.0064    0.0160    0.0689   -0.0674
          51    0.0200    0.0156    0.0050    0.0089   -0.0028   -0.0080   -0.0342    0.0291
          52    0.0041    0.0211   -0.0057   -0.0070    0.0048    0.0111    0.0235   -0.0025
          53    0.0084    0.0389   -0.0110   -0.0130    0.0150    0.0416    0.1084   -0.0482
          54    0.0033    0.0059   -0.0011   -0.0028    0.0001   -0.0009    0.0020   -0.0036
          55    0.0323   -0.0023    0.0191   -0.0080   -0.0098   -0.0531    0.0441    0.0520
          56    0.0140   -0.0054   -0.0026   -0.0008    0.0152    0.0001    0.0017    0.0095
          57    0.0273   -0.0018    0.0133   -0.0051   -0.0083   -0.0311    0.0259    0.0306
          58    0.0311   -0.0144    0.0011   -0.0042    0.0429   -0.0362    0.0265    0.0469
          59    0.0169   -0.0069    0.0019   -0.0027    0.0193   -0.0256    0.0220    0.0445
          60    0.0332   -0.0219    0.0038   -0.0089    0.0618   -0.0798    0.0566    0.0547
          61   -0.0133    0.0087    0.0266   -0.0083   -0.0365   -0.0499    0.0341    0.0513
          62    0.0022   -0.0023   -0.0076    0.0024    0.0086    0.0227   -0.0190   -0.0360
          63   -0.0260    0.0083    0.0382   -0.0155   -0.0428   -0.0866    0.0603    0.0612
          64    0.0332    0.2161   -0.0607   -0.1304    0.0217   -0.0270   -0.0416    0.0004
          65    0.0082    0.0460   -0.0210   -0.0417   -0.0067   -0.0142   -0.0197   -0.0006
          66   -0.0447   -0.1489    0.0189    0.0409   -0.0112   -0.0013    0.0084   -0.0110
          67   -0.0822    0.1169    0.1220    0.1472    0.0710    0.0476    0.0065    0.0237
          68   -0.0214    0.0179    0.0313    0.0450    0.0316    0.0179    0.0065    0.0072
          69    0.0601   -0.0922   -0.0767   -0.0528   -0.0670   -0.0069    0.0105    0.0017


   Root No.      41        42        43        44        45        46        47        48

                41 A      42 A      43 A      44 A      45 A      46 A      47 A      48 A   

                1393.3    1405.9    1406.8    1408.3    1411.3    1415.0    1422.9    1457.1
  
           1    0.0071   -0.0084    0.0015   -0.0080   -0.0029   -0.0135   -0.0145   -0.0578
           2   -0.0004   -0.0017    0.0009   -0.0024   -0.0007    0.0011   -0.0033   -0.0058
           3    0.0056   -0.0080    0.0017   -0.0077   -0.0026   -0.0126   -0.0092   -0.0280
           4   -0.0053   -0.0051    0.0064   -0.0127   -0.0026    0.0034   -0.0026    0.0612
           5    0.0003    0.0000    0.0009   -0.0016   -0.0005    0.0019   -0.0021   -0.0019
           6    0.0031    0.0035   -0.0045    0.0091    0.0019   -0.0029    0.0049   -0.0322
           7    0.0002    0.0032   -0.0015    0.0042    0.0011    0.0011    0.0035    0.0005
           8    0.0017   -0.0066   -0.0051    0.0056    0.0007   -0.0334    0.0148    0.0325
           9   -0.0012    0.0007    0.0003    0.0001    0.0002    0.0020    0.0010    0.0084
          10    0.0048   -0.0074    0.0052   -0.0160   -0.0061    0.0002   -0.0252    0.0232
          11   -0.0025    0.0068   -0.0100    0.0118    0.0053   -0.0063   -0.0309    0.0104
          12   -0.0078    0.0128   -0.0120    0.0248    0.0102   -0.0028    0.0192   -0.0229
          13   -0.0288    0.0181    0.0007    0.0081    0.0030    0.0141    0.0106    0.0267
          14   -0.0135   -0.0207   -0.0088    0.0061    0.0011    0.0079    0.0007    0.0022
          15    0.0142    0.0104   -0.0065    0.0174    0.0052    0.0268    0.0134    0.0297
          16   -0.0017    0.0022   -0.0115   -0.0136    0.0185    0.0040    0.0232   -0.0071
          17   -0.0034   -0.0045    0.0117   -0.0043   -0.0129    0.0077    0.0417   -0.0113
          18    0.0014    0.0042   -0.0161   -0.0057   -0.0261   -0.0005   -0.0104    0.0046
          19   -0.0016    0.0053   -0.0046    0.0115    0.0030   -0.0010    0.0115   -0.0182
          20   -0.0016    0.0010   -0.0008    0.0021    0.0007   -0.0003    0.0021    0.0030
          21   -0.0022   -0.0027    0.0035   -0.0069   -0.0016    0.0022   -0.0058    0.0231
          22    0.0011    0.0036   -0.0040    0.0086    0.0022   -0.0022    0.0053   -0.0221
          23    0.0014   -0.0007    0.0007   -0.0010   -0.0007    0.0001    0.0017   -0.0055
          24    0.0032   -0.0065    0.0058   -0.0139   -0.0037    0.0017   -0.0103    0.0162
          25   -0.0001    0.0005   -0.0008    0.0017    0.0004    0.0008    0.0011   -0.0008
          26    0.0011    0.0011   -0.0003    0.0008    0.0002    0.0021   -0.0022   -0.0147
          27   -0.0003    0.0001    0.0000    0.0001    0.0001    0.0008    0.0004    0.0028
          28   -0.0111    0.0133   -0.0038    0.0145    0.0047    0.0196    0.0184    0.0516
          29   -0.0041   -0.0024   -0.0041    0.0062    0.0016   -0.0022    0.0067    0.0121
          30   -0.0057    0.0053   -0.0020    0.0072    0.0024    0.0078    0.0126    0.0444
          31    0.0050    0.0074   -0.0074    0.0165    0.0035   -0.0016    0.0066   -0.0505
          32   -0.0004   -0.0002   -0.0019    0.0034    0.0009   -0.0060    0.0049    0.0056
          33   -0.0037   -0.0043    0.0041   -0.0088   -0.0019   -0.0003    0.0003    0.0412
          34   -0.0007    0.0011   -0.0005    0.0015    0.0005    0.0036    0.0013   -0.0019
          35   -0.0199    0.0374    0.0278   -0.0268   -0.0014    0.1748   -0.0519   -0.0353
          36    0.0136   -0.0287   -0.0217    0.0216    0.0016   -0.1365    0.0449    0.0506
[...]
 T-DIPOLE    0.1481        C  5 --  H 21          +19.0% ( 42.2%)     1.4%
 TRAVEL      0.1443        C  5 --  H 20          +14.1% ( 36.3%)    18.9%
 RED. MASS   0.2839        C  1 --  C  5           +7.0% ( 25.7%)    61.5%
 EFF. MASS   2.3030

 VIBRATION   43   43A       ATOM PAIR        ENERGY CONTRIBUTION    RADIAL
 FREQ.      1406.77        C  6 --  H 18          +33.8% ( 53.5%)     0.4%
 T-DIPOLE    0.0950        C  6 --  H 16          +19.3% ( 40.5%)     7.6%
 TRAVEL      0.1563        C  6 --  H 17           +8.0% ( 26.0%)    17.7%
 RED. MASS   0.2494        C  5 --  H 19           +6.0% ( 22.5%)     1.9%
 EFF. MASS   1.9632

 VIBRATION   44   44A       ATOM PAIR        ENERGY CONTRIBUTION    RADIAL
 FREQ.      1408.34        C  4 --  H 15          +12.7% ( 40.4%)     4.9%
 T-DIPOLE    0.1867        C  4 --  H 14          +12.1% ( 39.4%)     5.4%
 TRAVEL      0.1129        C  6 --  H 18          +11.0% ( 37.5%)     0.5%
 RED. MASS   0.2836        C  4 --  C  8           +9.8% ( 35.5%)    93.9%
 EFF. MASS   3.7582

 VIBRATION   45   45A       ATOM PAIR        ENERGY CONTRIBUTION    RADIAL
 FREQ.      1411.31        C  6 --  H 17          +40.3% ( 56.4%)     1.2%
 T-DIPOLE    0.0845        C  6 --  H 16          +36.1% ( 53.3%)     2.0%
 TRAVEL      0.1660        C  6 --  H 18           +8.7% ( 26.2%)    53.5%
 RED. MASS   0.3775        C  4 --  C  6           +6.2% ( 22.0%)     0.0%
 EFF. MASS   1.7347

 VIBRATION   46   46A       ATOM PAIR        ENERGY CONTRIBUTION    RADIAL
 FREQ.      1415.01        C  3 --  H 12          +23.2% ( 52.4%)     3.0%
 T-DIPOLE    0.1127        C  3 --  H 13          +21.7% ( 50.7%)     4.2%
 TRAVEL      0.1293        C  5 --  H 19          +10.0% ( 34.4%)     4.2%
 RED. MASS   0.3413        C  5 --  H 21           +9.4% ( 33.3%)     4.2%
 EFF. MASS   2.8482

 VIBRATION   47   47A       ATOM PAIR        ENERGY CONTRIBUTION    RADIAL
 FREQ.      1422.94        C  4 --  C  6          +18.0% ( 57.1%)    95.8%
 T-DIPOLE    0.1791        C  6 --  H 17          +13.4% ( 49.3%)     3.4%
 TRAVEL      0.0887        C  6 --  H 16          +12.2% ( 47.0%)     2.7%
 RED. MASS   0.9486        C  6 --  H 18          +10.7% ( 44.0%)     5.2%
 EFF. MASS   6.0290

 VIBRATION   48   48A       ATOM PAIR        ENERGY CONTRIBUTION    RADIAL
 FREQ.      1457.13        C  1 --  C  2          +13.3% ( 61.5%)    99.8%
 T-DIPOLE    0.4132        C  2 --  C  7           +9.4% ( 51.7%)    87.8%
 TRAVEL      0.0682        C  1 --  C  5           +9.1% ( 51.0%)    88.3%
 RED. MASS   1.6748        C  2 --  C  3           +8.2% ( 48.4%)    68.1%
 EFF. MASS   9.9369

 VIBRATION   49   49A       ATOM PAIR        ENERGY CONTRIBUTION    RADIAL
 FREQ.      1888.16        C  7 --  C  8          +43.9% ( 97.9%)    96.6%
 T-DIPOLE    0.5231        C  4 --  C  8          +14.3% ( 55.8%)    54.8%
 TRAVEL      0.0550        C  2 --  C  7          +14.0% ( 55.3%)    51.7%
 RED. MASS   5.3910        C  8 --  H 22          +13.3% ( 54.0%)     3.6%
 EFF. MASS  11.8049        C  7 --  H 23          +13.2% ( 53.7%)     3.9%

 VIBRATION   50   50A       ATOM PAIR        ENERGY CONTRIBUTION    RADIAL
 FREQ.      2913.30        C  2 --  H 11          +89.5% ( 96.8%)   100.0%
 T-DIPOLE    0.0447        C  1 --  H 10           +5.8% ( 24.7%)    99.9%
 TRAVEL      0.1259        C  1 --  C  2           +1.1% ( 10.6%)    13.6%
 RED. MASS   0.8206        C  2 --  C  7           +1.1% ( 10.6%)    14.7%
 EFF. MASS   1.4600

 VIBRATION   51   51A       ATOM PAIR        ENERGY CONTRIBUTION    RADIAL
 FREQ.      2919.36        C  1 --  H 10          +89.3% ( 96.7%)   100.0%
 T-DIPOLE    0.0313        C  2 --  H 11           +5.7% ( 24.5%)   100.0%
 TRAVEL      0.1251        C  1 --  C  2           +1.2% ( 11.1%)    55.5%
 RED. MASS   0.8183        C  1 --  C  3           +1.1% ( 10.6%)    17.2%
 EFF. MASS   1.4755

 VIBRATION   52   52A       ATOM PAIR        ENERGY CONTRIBUTION    RADIAL
 FREQ.      2945.40        C  4 --  H 14          +52.6% ( 75.4%)    96.9%
 T-DIPOLE    0.0327        C  4 --  H 15          +44.6% ( 69.4%)    96.0%
 TRAVEL      0.1218        C  4 --  C  6           +1.2% ( 11.2%)     0.0%
 RED. MASS   0.5171        C  4 --  C  8           +1.1% ( 11.1%)     0.2%
 EFF. MASS   1.5435

 VIBRATION   53   53A       ATOM PAIR        ENERGY CONTRIBUTION    RADIAL
 FREQ.      3024.81        C  4 --  H 15          +51.6% ( 70.9%)    98.1%
 T-DIPOLE    0.0609        C  4 --  H 14          +44.3% ( 65.6%)    97.2%
 TRAVEL      0.1317        C  8 --  H 22           +2.0% ( 14.1%)    99.8%
 RED. MASS   0.4612        C  4 --  C  8           +0.7% (  8.2%)    29.3%
 EFF. MASS   1.2856

 VIBRATION   54   54A       ATOM PAIR        ENERGY CONTRIBUTION    RADIAL
 FREQ.      3036.02        C  8 --  H 22          +90.8% ( 96.4%)   100.0%
 T-DIPOLE    0.3128        C  7 --  H 23           +5.1% ( 22.9%)    99.8%
 TRAVEL      0.1229        C  4 --  H 15           +1.3% ( 11.7%)    99.4%
 RED. MASS   0.8063        C  4 --  C  8           +1.2% ( 11.1%)    14.4%
 EFF. MASS   1.4713

 VIBRATION   55   55A       ATOM PAIR        ENERGY CONTRIBUTION    RADIAL
 FREQ.      3040.36        C  7 --  H 23          +91.3% ( 97.1%)   100.0%
 T-DIPOLE    0.2616        C  8 --  H 22           +4.6% ( 21.9%)    99.5%
 TRAVEL      0.1196        C  7 --  C  8           +1.8% ( 13.8%)    40.6%
 RED. MASS   0.8299        C  2 --  C  7           +1.3% ( 11.7%)    13.5%
 EFF. MASS   1.5496

 VIBRATION   56   56A       ATOM PAIR        ENERGY CONTRIBUTION    RADIAL
 FREQ.      3052.05        C  3 --  H 13          +57.1% ( 78.7%)    97.9%
 T-DIPOLE    0.1598        C  3 --  H 12          +39.2% ( 65.2%)    95.7%
 TRAVEL      0.1198        C  3 --  O  9           +1.1% ( 11.0%)     0.5%
 RED. MASS   0.5314        C  2 --  C  3           +1.1% ( 11.0%)     0.1%
 EFF. MASS   1.5403

 VIBRATION   57   57A       ATOM PAIR        ENERGY CONTRIBUTION    RADIAL
 FREQ.      3080.55        C  5 --  H 19          +67.3% ( 84.7%)    99.0%
 T-DIPOLE    0.0789        C  5 --  H 21          +21.7% ( 48.1%)    88.7%
 TRAVEL      0.1206        C  5 --  H 20           +9.7% ( 32.2%)    73.4%
 RED. MASS   0.5387        C  1 --  C  5           +1.0% ( 10.4%)     0.0%
 EFF. MASS   1.5051

 VIBRATION   58   58A       ATOM PAIR        ENERGY CONTRIBUTION    RADIAL
 FREQ.      3081.01        C  6 --  H 17          +63.4% ( 82.2%)    98.6%
 T-DIPOLE    0.0054        C  6 --  H 16          +29.8% ( 56.3%)    92.7%
 TRAVEL      0.1207        C  6 --  H 18           +5.5% ( 24.3%)    58.0%
 RED. MASS   0.5216        C  4 --  C  6           +1.0% ( 10.2%)     0.0%
 EFF. MASS   1.5011

 VIBRATION   59   59A       ATOM PAIR        ENERGY CONTRIBUTION    RADIAL
 FREQ.      3085.89        C  6 --  H 18          +58.7% ( 79.0%)    98.3%
 T-DIPOLE    0.0073        C  6 --  H 16          +35.3% ( 61.3%)    94.2%
 TRAVEL      0.1205        C  6 --  H 17           +4.6% ( 22.1%)    51.0%
 RED. MASS   0.4998        C  4 --  C  6           +1.0% ( 10.3%)     0.0%
 EFF. MASS   1.5041

 VIBRATION   60   60A       ATOM PAIR        ENERGY CONTRIBUTION    RADIAL
 FREQ.      3089.42        C  5 --  H 20          +56.1% ( 77.3%)    97.9%
 T-DIPOLE    0.0745        C  5 --  H 21          +41.1% ( 66.2%)    95.8%
 TRAVEL      0.1202        C  5 --  H 19           +1.7% ( 13.3%)    16.6%
 RED. MASS   0.5149        C  1 --  C  5           +1.0% ( 10.5%)     0.0%
 EFF. MASS   1.5096

 VIBRATION   61   61A       ATOM PAIR        ENERGY CONTRIBUTION    RADIAL
 FREQ.      3115.27        C  3 --  H 12          +58.8% ( 76.1%)    98.1%
 T-DIPOLE    0.1442        C  3 --  H 13          +39.1% ( 62.1%)    95.3%
 TRAVEL      0.1298        C  3 --  O  9           +0.7% (  8.3%)    98.2%
 RED. MASS   0.5008        C  1 --  C  3           +0.7% (  8.3%)    52.4%
 EFF. MASS   1.2857

 VIBRATION   62   62A       ATOM PAIR        ENERGY CONTRIBUTION    RADIAL
 FREQ.      3179.46        C  5 --  H 21          +36.8% ( 58.4%)    97.6%
 T-DIPOLE    0.0821        C  5 --  H 20          +33.3% ( 55.6%)    97.0%
 TRAVEL      0.1366        C  5 --  H 19          +29.6% ( 52.4%)    96.3%
 RED. MASS   0.3291        C  1 --  C  5           +0.3% (  5.1%)    99.2%
 EFF. MASS   1.1362

 VIBRATION   63   63A       ATOM PAIR        ENERGY CONTRIBUTION    RADIAL
 FREQ.      3182.95        C  6 --  H 18          +34.8% ( 56.8%)    97.4%
 T-DIPOLE    0.0235        C  6 --  H 16          +34.2% ( 56.2%)    97.3%
 TRAVEL      0.1366        C  6 --  H 17          +30.7% ( 53.3%)    96.7%
 RED. MASS   0.3278        C  4 --  C  6           +0.3% (  5.1%)    99.7%
 EFF. MASS   1.1361

 SYMMETRY NUMBER FOR POINT-GROUP C1  =  1


          SYSTEM IS A GROUND STATE


    NULL



          MOLECULE IS NOT LINEAR

          THERE ARE 63 GENUINE VIBRATIONS IN THIS SYSTEM
          THIS THERMODYNAMICS CALCULATION IS LIMITED TO
          MOLECULES WHICH HAVE NO INTERNAL ROTATIONS




                    CALCULATED THERMODYNAMIC PROPERTIES
                                          *
   TEMP. (K)   PARTITION FUNCTION   H.O.F.    ENTHALPY  HEAT CAPACITY ENTROPY
                                   KCAL/MOL   CAL/MOLE    CAL/K/MOL  CAL/K/MOL


 298.00  VIB.     0.5018D+04                  4824.6584    31.5770    33.1226
         ROT.     0.6739D+06                   888.2813     2.9808    29.6509
         INT.     0.3382D+10                  5712.9397    34.5578    62.7734
         TRA.     0.1371D+28                  1480.4688     4.9680    40.4094
         TOT.                      -31.013    7193.4085    39.5258   103.1828

 200.00  VIB.     0.3276D+03                  2281.4506    20.7833    22.9166
         ROT.     0.3705D+06                   596.1620     2.9808    28.4622
         INT.     0.1214D+09                  2877.6125    23.7641    51.3788
         TRA.     0.7536D+27                   993.6033     4.9680    38.4282
         TOT.                      -34.335    3871.2158    28.7321    89.8070

 210.00  VIB.     0.4359D+03                  2494.0718    21.7467    23.9538
         ROT.     0.3987D+06                   625.9700     2.9808    28.6076
         INT.     0.1738D+09                  3120.0419    24.7275    52.5614
         TRA.     0.8108D+27                  1043.2834     4.9680    38.6706
         TOT.                      -34.043    4163.3253    29.6955    91.2320

 220.00  VIB.     0.5788D+03                  2716.5009    22.7450    24.9883
         ROT.     0.4275D+06                   655.7781     2.9808    28.7463
         INT.     0.2474D+09                  3372.2791    25.7258    53.7346
         TRA.     0.8694D+27                  1092.9636     4.9680    38.9017
         TOT.                      -33.741    4465.2426    30.6938    92.6363

 230.00  VIB.     0.7670D+03                  2949.0879    23.7782    26.0220
         ROT.     0.4570D+06                   685.5862     2.9808    28.8788
         INT.     0.3505D+09                  3634.6741    26.7590    54.9008
         TRA.     0.9293D+27                  1142.6437     4.9680    39.1226
         TOT.                      -33.429    4777.3178    31.7270    94.0234

 240.00  VIB.     0.1014D+04                  3192.1791    24.8456    27.0565
         ROT.     0.4871D+06                   715.3943     2.9808    29.0057
         INT.     0.4941D+09                  3907.5734    27.8264    56.0621
         TRA.     0.9906D+27                  1192.3239     4.9680    39.3340
         TOT.                      -33.106    5099.8973    32.7944    95.3961

 250.00  VIB.     0.1340D+04                  3446.1070    25.9452    28.0929
         ROT.     0.5178D+06                   745.2024     2.9808    29.1273
         INT.     0.6938D+09                  4191.3094    28.9260    57.2202
         TRA.     0.1053D+28                  1242.0041     4.9680    39.5368
         TOT.                      -32.773    5433.3135    33.8940    96.7571

 260.00  VIB.     0.1767D+04                  3711.1815    27.0744    29.1324
         ROT.     0.5492D+06                   775.0105     2.9808    29.2443
         INT.     0.9706D+09                  4486.1920    30.0552    58.3767
         TRA.     0.1117D+28                  1291.6842     4.9680    39.7317
         TOT.                      -32.429    5777.8762    35.0232    98.1083

 270.00  VIB.     0.2328D+04                  3987.6838    28.2302    30.1758
         ROT.     0.5812D+06                   804.8186     2.9808    29.3567
         INT.     0.1353D+10                  4792.5024    31.2110    59.5325
         TRA.     0.1182D+28                  1341.3644     4.9680    39.9191
         TOT.                      -32.073    6133.8668    36.1790    99.4517

 280.00  VIB.     0.3065D+04                  4275.8619    29.4090    31.2237
         ROT.     0.6138D+06                   834.6267     2.9808    29.4652
         INT.     0.1881D+10                  5110.4887    32.3898    60.6889
         TRA.     0.1248D+28                  1391.0445     4.9680    40.0998
         TOT.                      -31.705    6501.5332    37.3578   100.7887

 290.00  VIB.     0.4031D+04                  4575.9279    30.6071    32.2765
         ROT.     0.6470D+06                   864.4348     2.9808    29.5698
         INT.     0.2608D+10                  5440.3627    33.5879    61.8463
         TRA.     0.1316D+28                  1440.7247     4.9680    40.2742
         TOT.                      -31.325    6881.0874    38.5559   102.1205

 300.00  VIB.     0.5300D+04                  4888.0561    31.8208    33.3346
         ROT.     0.6807D+06                   894.2429     2.9808    29.6708
         INT.     0.3608D+10                  5782.2990    34.8016    63.0054
         TRA.     0.1384D+28                  1490.4049     4.9680    40.4426
         TOT.                      -30.934    7272.7039    39.7696   103.4480

 310.00  VIB.     0.6964D+04                  5212.3834    33.0463    34.3979
         ROT.     0.7150D+06                   924.0510     2.9808    29.7685
         INT.     0.4980D+10                  6136.4344    36.0271    64.1665
         TRA.     0.1454D+28                  1540.0850     4.9680    40.6055
         TOT.                      -30.530    7676.5194    40.9951   104.7720

 320.00  VIB.     0.9148D+04                  5549.0096    34.2800    35.4666
         ROT.     0.7499D+06                   953.8591     2.9808    29.8632
         INT.     0.6860D+10                  6502.8687    37.2608    65.3298
         TRA.     0.1525D+28                  1589.7652     4.9680    40.7632
         TOT.                      -30.114    8092.6339    42.2288   106.0930

 330.00  VIB.     0.1202D+05                  5897.9989    35.5184    36.5404
         ROT.     0.7853D+06                   983.6672     2.9808    29.9549
         INT.     0.9436D+10                  6881.6661    38.4992    66.4953
         TRA.     0.1597D+28                  1639.4454     4.9680    40.9161
         TOT.                      -29.685    8521.1115    43.4672   107.4114

 340.00  VIB.     0.1578D+05                  6259.3820    36.7582    37.6191
         ROT.     0.8213D+06                  1013.4753     2.9808    30.0439
         INT.     0.1296D+11                  7272.8573    39.7390    67.6630
         TRA.     0.1670D+28                  1689.1255     4.9680    41.0644
         TOT.                      -29.244    8961.9828    44.7070   108.7274

 350.00  VIB.     0.2072D+05                  6633.1581    37.9965    38.7025
         ROT.     0.8578D+06                  1043.2834     2.9808    30.1303
         INT.     0.1777D+11                  7676.4415    40.9773    68.8328
         TRA.     0.1745D+28                  1738.8057     4.9680    41.2084
         TOT.                      -28.791    9415.2472    45.9453   110.0412

 360.00  VIB.     0.2721D+05                  7019.2980    39.2305    39.7902
         ROT.     0.8948D+06                  1073.0915     2.9808    30.2143
         INT.     0.2435D+11                  8092.3895    42.2113    70.0045
         TRA.     0.1820D+28                  1788.4859     4.9680    41.3484
         TOT.                      -28.326    9880.8754    47.1794   111.3529

 370.00  VIB.     0.3574D+05                  7417.7463    40.4578    40.8819
         ROT.     0.9324D+06                  1102.8996     2.9808    30.2959
         INT.     0.3332D+11                  8520.6459    43.4386    71.1778
         TRA.     0.1896D+28                  1838.1660     4.9680    41.4845
         TOT.                      -27.848   10358.8119    48.4066   112.6623

 380.00  VIB.     0.4695D+05                  7828.4242    41.6761    41.9770
         ROT.     0.9704D+06                  1132.7077     2.9808    30.3754
         INT.     0.4556D+11                  8961.1319    44.6569    72.3524
         TRA.     0.1974D+28                  1887.8462     4.9680    41.6170
         TOT.                      -27.357   10848.9781    49.6250   113.9694

 390.00  VIB.     0.6168D+05                  8251.2328    42.8836    43.0752
         ROT.     0.1009D+07                  1162.5158     2.9808    30.4529
         INT.     0.6223D+11                  9413.7486    45.8644    73.5281
         TRA.     0.2052D+28                  1937.5263     4.9680    41.7460
         TOT.                      -26.855   11351.2749    50.8324   115.2741

 400.00  VIB.     0.8104D+05                  8686.0548    44.0786    44.1760
         ROT.     0.1048D+07                  1192.3239     2.9808    30.5283
         INT.     0.8494D+11                  9878.3787    47.0594    74.7043
         TRA.     0.2131D+28                  1987.2065     4.9680    41.8718
         TOT.                      -26.341   11865.5852    52.0274   116.5761

   *: NOTE: HEATS OF FORMATION ARE RELATIVE TO THE
            ELEMENTS IN THEIR STANDARD STATE AT 298K
              (=  Standard Enthalpy of Formation).

            Hvib:  Zero-point energy is not included.
                   frequencies of less than zero cm-1 are not included.
            Hrot = (3/2)RT
            Htra = (3/2)RT + pV = (5/2)RT

            Heat capacity is Cp, not Cv

           For more information, see: HTTP://OpenMOPAC.net/Manual/thermochemistry.html


           FORCE CONSTANT IN CARTESIAN COORDINATES (Millidynes/A)

    ATOM   CHEMICAL       X               Y               Z
   NUMBER   SYMBOL  FORCE CONSTANT  FORCE CONSTANT  FORCE CONSTANT

      1       C        9.918540        6.405314        8.581688
      2       C       10.183427        6.177080        8.936741
      3       C        5.701279        9.917011        8.672876
      4       C        8.446015        8.176808        8.792084
      5       C        8.436351        8.384036        8.276915
      6       C        8.284494        8.215993        8.352222
      7       C       13.862932        4.681956        8.721081
      8       C       13.704668        4.702357        8.773299
      9       O        5.080090        7.101261        1.241550
     10       H        1.826241        0.647373        3.566149
     11       H        1.849114        0.634299        3.527651
     12       H        0.640512        2.288322        3.730473
     13       H        0.643533        2.277913        3.705735
     14       H        2.843802        2.652034        0.776121
     15       H        1.908141        1.042835        3.447431
     16       H        3.045053        2.919682        0.813858
     17       H        2.074364        1.124707        3.581520
     18       H        2.358151        0.738175        3.695372
     19       H        2.096092        0.675932        3.987079
     20       H        2.625639        3.421928        0.686150
     21       H        1.905517        4.161976        0.701208
     22       H        1.415213        1.188504        3.607880
     23       H        1.434742        1.205654        3.580299



 TOTAL CPU TIME:             3.41 SECONDS

 == MOPAC DONE ==
