 *******************************************************************************
 ** Site#: 14399           For non-commercial use only        Version 13.159M **
 *******************************************************************************
 ** Cite this work as: MOPAC2012, James J. P. Stewart, Stewart Computational  **
 ** Chemistry, Version 13.159M web: HTTP://OpenMOPAC.net  Days remaining:   6 **
 *******************************************************************************
 **                                                                           **
 **                                MOPAC2012                                  **
 **                                                                           **
 *******************************************************************************

                            PM3 CALCULATION RESULTS


 *******************************************************************************
 *  CALCULATION DONE:                                Mon Jun  2 14:11:26 2014  *
 *  PM3      - The PM3 Hamiltonian to be used
 *  PRECISE  - CRITERIA TO BE INCREASED BY 100 TIMES
 *  NOSYM    - POINT-GROUP SYMMETRY SET TO C1
 *  T=       - A TIME OF 172800.0 SECONDS REQUESTED
 *  DUMP=N   - RESTART FILE WRITTEN EVERY  7200.000 SECONDS
 *******************************************************************************
pm3  precise nosym
 InChI=1S/C7H12O/c1-3-6-5-8-7(6)4-2/h3,6-7H,1,4-5H2,2H3

   ATOM   CHEMICAL          X               Y               Z
  NUMBER   SYMBOL      (ANGSTROMS)     (ANGSTROMS)     (ANGSTROMS)
 
     1       C         -0.79040000  *  -0.13240000  *  -0.59440000  *
     2       C          0.14890000  *  -0.84210000  *   0.37590000  *
     3       C          1.64470000  *  -0.70640000  *   0.06900000  *
     4       C         -1.26880000  *  -1.58920000  *  -0.87860000  *
     5       C          2.18650000  *   0.68940000  *   0.35650000  *
     6       C         -1.82040000  *   0.75120000  *   0.05480000  *
     7       C         -1.50620000  *   1.96080000  *   0.52260000  *
     8       O         -0.31160000  *  -2.14050000  *   0.04780000  *
     9       H         -0.30880000  *   0.32650000  *  -1.48980000  *
    10       H         -0.06080000  *  -0.63670000  *   1.45390000  *
    11       H          2.20140000  *  -1.43560000  *   0.70200000  *
    12       H          1.85510000  *  -0.97100000  *  -0.99370000  *
    13       H         -1.05040000  *  -1.92320000  *  -1.91970000  *
    14       H         -2.30990000  *  -1.83300000  *  -0.56170000  *
    15       H          1.99270000  *   0.98250000  *   1.41350000  *
    16       H          1.72660000  *   1.44250000  *  -0.32200000  *
    17       H          3.28690000  *   0.70840000  *   0.18700000  *
    18       H         -2.85330000  *   0.41520000  *   0.13630000  *
    19       H         -0.49150000  *   2.34910000  *   0.45920000  *
    20       H         -2.27100000  *   2.58440000  *   0.98140000  *
 


          CARTESIAN COORDINATES 

    NO.       ATOM         X         Y         Z

     1         C       -0.7904   -0.1324   -0.5944
     2         C        0.1489   -0.8421    0.3759
     3         C        1.6447   -0.7064    0.0690
     4         C       -1.2688   -1.5892   -0.8786
     5         C        2.1865    0.6894    0.3565
     6         C       -1.8204    0.7512    0.0548
     7         C       -1.5062    1.9608    0.5226
     8         O       -0.3116   -2.1405    0.0478
     9         H       -0.3088    0.3265   -1.4898
    10         H       -0.0608   -0.6367    1.4539
    11         H        2.2014   -1.4356    0.7020
    12         H        1.8551   -0.9710   -0.9937
    13         H       -1.0504   -1.9232   -1.9197
    14         H       -2.3099   -1.8330   -0.5617
    15         H        1.9927    0.9825    1.4135
    16         H        1.7266    1.4425   -0.3220
    17         H        3.2869    0.7084    0.1870
    18         H       -2.8533    0.4152    0.1363
    19         H       -0.4915    2.3491    0.4592
    20         H       -2.2710    2.5844    0.9814

  H: (PM3): J. J. P. STEWART, J. COMP. CHEM. 10, 209 (1989).
  C: (PM3): J. J. P. STEWART, J. COMP. CHEM. 10, 209 (1989).
  O: (PM3): J. J. P. STEWART, J. COMP. CHEM. 10, 209 (1989).

           Empirical Formula: C7 H12 O  =    20 atoms



      MOLECULAR POINT GROUP   :   C1  


      RHF CALCULATION, NO. OF DOUBLY OCCUPIED LEVELS =   23

      Geometry optimization using EF

          DIAGONAL MATRIX USED AS START HESSIAN

 CYCLE:     1 TIME:   0.007 TIME LEFT:  2.00D  GRAD.:   103.823 HEAT:-15.97629
 CYCLE:     2 TIME:   0.010 TIME LEFT:  2.00D  GRAD.:   107.705 HEAT:-17.02413
 CYCLE:     3 TIME:   0.005 TIME LEFT:  2.00D  GRAD.:   109.521 HEAT:-17.04679
 CYCLE:     4 TIME:   0.010 TIME LEFT:  2.00D  GRAD.:    54.249 HEAT:-19.39326
 CYCLE:     5 TIME:   0.010 TIME LEFT:  2.00D  GRAD.:    33.786 HEAT:-20.01160
 CYCLE:     6 TIME:   0.005 TIME LEFT:  2.00D  GRAD.:    32.052 HEAT:-20.08994
 CYCLE:     7 TIME:   0.005 TIME LEFT:  2.00D  GRAD.:    31.672 HEAT:-20.21130
 CYCLE:     8 TIME:   0.010 TIME LEFT:  2.00D  GRAD.:    13.002 HEAT:-20.46655
 CYCLE:     9 TIME:   0.009 TIME LEFT:  2.00D  GRAD.:     9.100 HEAT:-20.52434
 CYCLE:    10 TIME:   0.005 TIME LEFT:  2.00D  GRAD.:     9.525 HEAT:-20.58013
 CYCLE:    11 TIME:   0.009 TIME LEFT:  2.00D  GRAD.:     8.846 HEAT:-20.60750
 CYCLE:    12 TIME:   0.005 TIME LEFT:  2.00D  GRAD.:     9.632 HEAT:-20.62002
 CYCLE:    13 TIME:   0.005 TIME LEFT:  2.00D  GRAD.:     9.108 HEAT:-20.62912
 CYCLE:    14 TIME:   0.010 TIME LEFT:  2.00D  GRAD.:     3.802 HEAT:-20.65370
 CYCLE:    15 TIME:   0.005 TIME LEFT:  2.00D  GRAD.:     5.355 HEAT:-20.65495
 CYCLE:    16 TIME:   0.005 TIME LEFT:  2.00D  GRAD.:     6.470 HEAT:-20.65914
 CYCLE:    17 TIME:   0.005 TIME LEFT:  2.00D  GRAD.:     5.430 HEAT:-20.66916
 CYCLE:    18 TIME:   0.005 TIME LEFT:  2.00D  GRAD.:     2.858 HEAT:-20.67960
 CYCLE:    19 TIME:   0.005 TIME LEFT:  2.00D  GRAD.:     2.656 HEAT:-20.68625
 CYCLE:    20 TIME:   0.005 TIME LEFT:  2.00D  GRAD.:     3.017 HEAT:-20.69270
 CYCLE:    21 TIME:   0.005 TIME LEFT:  2.00D  GRAD.:     3.365 HEAT:-20.69679
 CYCLE:    22 TIME:   0.005 TIME LEFT:  2.00D  GRAD.:     2.597 HEAT:-20.70121
 CYCLE:    23 TIME:   0.005 TIME LEFT:  2.00D  GRAD.:     1.962 HEAT:-20.70604
 CYCLE:    24 TIME:   0.005 TIME LEFT:  2.00D  GRAD.:     2.072 HEAT:-20.71286
 CYCLE:    25 TIME:   0.005 TIME LEFT:  2.00D  GRAD.:     2.638 HEAT:-20.72176
 CYCLE:    26 TIME:   0.005 TIME LEFT:  2.00D  GRAD.:     2.959 HEAT:-20.72845
 CYCLE:    27 TIME:   0.005 TIME LEFT:  2.00D  GRAD.:     2.184 HEAT:-20.73580
 CYCLE:    28 TIME:   0.005 TIME LEFT:  2.00D  GRAD.:     2.140 HEAT:-20.74309
 CYCLE:    29 TIME:   0.005 TIME LEFT:  2.00D  GRAD.:     1.943 HEAT:-20.74902
 CYCLE:    30 TIME:   0.005 TIME LEFT:  2.00D  GRAD.:     1.605 HEAT:-20.75454
 CYCLE:    31 TIME:   0.005 TIME LEFT:  2.00D  GRAD.:     1.571 HEAT:-20.76030
 CYCLE:    32 TIME:   0.005 TIME LEFT:  2.00D  GRAD.:     1.511 HEAT:-20.76392
 CYCLE:    33 TIME:   0.005 TIME LEFT:  2.00D  GRAD.:     1.392 HEAT:-20.76706
 CYCLE:    34 TIME:   0.005 TIME LEFT:  2.00D  GRAD.:     1.423 HEAT:-20.77117
 CYCLE:    35 TIME:   0.005 TIME LEFT:  2.00D  GRAD.:     1.588 HEAT:-20.77689
 CYCLE:    36 TIME:   0.005 TIME LEFT:  2.00D  GRAD.:     1.498 HEAT:-20.78045
 CYCLE:    37 TIME:   0.005 TIME LEFT:  2.00D  GRAD.:     1.279 HEAT:-20.78449
 CYCLE:    38 TIME:   0.005 TIME LEFT:  2.00D  GRAD.:     1.158 HEAT:-20.78839
 CYCLE:    39 TIME:   0.005 TIME LEFT:  2.00D  GRAD.:     0.814 HEAT:-20.79056
 CYCLE:    40 TIME:   0.005 TIME LEFT:  2.00D  GRAD.:     0.594 HEAT:-20.79151
 CYCLE:    41 TIME:   0.005 TIME LEFT:  2.00D  GRAD.:     0.605 HEAT:-20.79232
 CYCLE:    42 TIME:   0.005 TIME LEFT:  2.00D  GRAD.:     0.669 HEAT:-20.79326
 CYCLE:    43 TIME:   0.005 TIME LEFT:  2.00D  GRAD.:     0.620 HEAT:-20.79404
 CYCLE:    44 TIME:   0.005 TIME LEFT:  2.00D  GRAD.:     0.561 HEAT:-20.79465
 CYCLE:    45 TIME:   0.005 TIME LEFT:  2.00D  GRAD.:     0.550 HEAT:-20.79515
 CYCLE:    46 TIME:   0.005 TIME LEFT:  2.00D  GRAD.:     0.431 HEAT:-20.79560
 CYCLE:    47 TIME:   0.005 TIME LEFT:  2.00D  GRAD.:     0.329 HEAT:-20.79597
 CYCLE:    48 TIME:   0.005 TIME LEFT:  2.00D  GRAD.:     0.319 HEAT:-20.79619
 CYCLE:    49 TIME:   0.005 TIME LEFT:  2.00D  GRAD.:     0.408 HEAT:-20.79650
 CYCLE:    50 TIME:   0.005 TIME LEFT:  2.00D  GRAD.:     0.505 HEAT:-20.79690
 CYCLE:    51 TIME:   0.005 TIME LEFT:  2.00D  GRAD.:     0.595 HEAT:-20.79753
 CYCLE:    52 TIME:   0.005 TIME LEFT:  2.00D  GRAD.:     0.528 HEAT:-20.79796
 CYCLE:    53 TIME:   0.005 TIME LEFT:  2.00D  GRAD.:     0.856 HEAT:-20.79929
 CYCLE:    54 TIME:   0.005 TIME LEFT:  2.00D  GRAD.:     0.761 HEAT:-20.79999
 CYCLE:    55 TIME:   0.005 TIME LEFT:  2.00D  GRAD.:     0.904 HEAT:-20.80177
 CYCLE:    56 TIME:   0.005 TIME LEFT:  2.00D  GRAD.:     0.594 HEAT:-20.80291
 CYCLE:    57 TIME:   0.005 TIME LEFT:  2.00D  GRAD.:     0.350 HEAT:-20.80332
 CYCLE:    58 TIME:   0.005 TIME LEFT:  2.00D  GRAD.:     0.275 HEAT:-20.80393
 CYCLE:    59 TIME:   0.005 TIME LEFT:  2.00D  GRAD.:     0.286 HEAT:-20.80433
 CYCLE:    60 TIME:   0.005 TIME LEFT:  2.00D  GRAD.:     0.222 HEAT:-20.80446
 CYCLE:    61 TIME:   0.005 TIME LEFT:  2.00D  GRAD.:     0.271 HEAT:-20.80478
 CYCLE:    62 TIME:   0.005 TIME LEFT:  2.00D  GRAD.:     0.215 HEAT:-20.80487
 CYCLE:    63 TIME:   0.005 TIME LEFT:  2.00D  GRAD.:     0.206 HEAT:-20.80502
 CYCLE:    64 TIME:   0.005 TIME LEFT:  2.00D  GRAD.:     0.136 HEAT:-20.80508
 CYCLE:    65 TIME:   0.005 TIME LEFT:  2.00D  GRAD.:     0.106 HEAT:-20.80513
 CYCLE:    66 TIME:   0.005 TIME LEFT:  2.00D  GRAD.:     0.093 HEAT:-20.80518
 CYCLE:    67 TIME:   0.005 TIME LEFT:  2.00D  GRAD.:     0.109 HEAT:-20.80523
 CYCLE:    68 TIME:   0.005 TIME LEFT:  2.00D  GRAD.:     0.104 HEAT:-20.80526
 CYCLE:    69 TIME:   0.005 TIME LEFT:  2.00D  GRAD.:     0.166 HEAT:-20.80529
 CYCLE:    70 TIME:   0.005 TIME LEFT:  2.00D  GRAD.:     0.125 HEAT:-20.80535
 CYCLE:    71 TIME:   0.005 TIME LEFT:  2.00D  GRAD.:     0.146 HEAT:-20.80546
 CYCLE:    72 TIME:   0.005 TIME LEFT:  2.00D  GRAD.:     0.208 HEAT:-20.80558
 CYCLE:    73 TIME:   0.006 TIME LEFT:  2.00D  GRAD.:     0.256 HEAT:-20.80580
 CYCLE:    74 TIME:   0.005 TIME LEFT:  2.00D  GRAD.:     0.208 HEAT:-20.80592
 CYCLE:    75 TIME:   0.005 TIME LEFT:  2.00D  GRAD.:     0.273 HEAT:-20.80622
 CYCLE:    76 TIME:   0.005 TIME LEFT:  2.00D  GRAD.:     0.194 HEAT:-20.80630
 CYCLE:    77 TIME:   0.005 TIME LEFT:  2.00D  GRAD.:     0.236 HEAT:-20.80645
 CYCLE:    78 TIME:   0.005 TIME LEFT:  2.00D  GRAD.:     0.205 HEAT:-20.80652
 CYCLE:    79 TIME:   0.005 TIME LEFT:  2.00D  GRAD.:     0.359 HEAT:-20.80668
 CYCLE:    80 TIME:   0.005 TIME LEFT:  2.00D  GRAD.:     0.295 HEAT:-20.80684
 CYCLE:    81 TIME:   0.007 TIME LEFT:  2.00D  GRAD.:     0.504 HEAT:-20.80742
 CYCLE:    82 TIME:   0.006 TIME LEFT:  2.00D  GRAD.:     0.586 HEAT:-20.80789
 CYCLE:    83 TIME:   0.005 TIME LEFT:  2.00D  GRAD.:     0.799 HEAT:-20.80962
 CYCLE:    84 TIME:   0.005 TIME LEFT:  2.00D  GRAD.:     0.705 HEAT:-20.81093
 CYCLE:    85 TIME:   0.006 TIME LEFT:  2.00D  GRAD.:     2.871 HEAT:-20.80994
 CYCLE:    86 TIME:   0.005 TIME LEFT:  2.00D  GRAD.:     2.939 HEAT:-20.80723
 CYCLE:    87 TIME:   0.005 TIME LEFT:  2.00D  GRAD.:     0.498 HEAT:-20.81451
 CYCLE:    88 TIME:   0.006 TIME LEFT:  2.00D  GRAD.:     0.673 HEAT:-20.81537
 CYCLE:    89 TIME:   0.006 TIME LEFT:  2.00D  GRAD.:     0.802 HEAT:-20.81640
 CYCLE:    90 TIME:   0.006 TIME LEFT:  2.00D  GRAD.:     3.693 HEAT:-20.81519
 CYCLE:    91 TIME:   0.005 TIME LEFT:  2.00D  GRAD.:     1.263 HEAT:-20.81999
 CYCLE:    92 TIME:   0.005 TIME LEFT:  2.00D  GRAD.:     0.734 HEAT:-20.82202
 CYCLE:    93 TIME:   0.006 TIME LEFT:  2.00D  GRAD.:     1.867 HEAT:-20.82497
 CYCLE:    94 TIME:   0.005 TIME LEFT:  2.00D  GRAD.:     1.861 HEAT:-20.82769
 CYCLE:    95 TIME:   0.006 TIME LEFT:  2.00D  GRAD.:     2.211 HEAT:-20.84513
 CYCLE:    96 TIME:   0.005 TIME LEFT:  2.00D  GRAD.:     5.094 HEAT:-20.84398
 CYCLE:    97 TIME:   0.005 TIME LEFT:  2.00D  GRAD.:     7.097 HEAT:-20.85008
 CYCLE:    98 TIME:   0.005 TIME LEFT:  2.00D  GRAD.:     2.842 HEAT:-20.86262
 CYCLE:    99 TIME:   0.005 TIME LEFT:  2.00D  GRAD.:     1.489 HEAT:-20.87050
 CYCLE:   100 TIME:   0.005 TIME LEFT:  2.00D  GRAD.:     1.432 HEAT:-20.87597
 CYCLE:   101 TIME:   0.005 TIME LEFT:  2.00D  GRAD.:     1.816 HEAT:-20.88112
 CYCLE:   102 TIME:   0.006 TIME LEFT:  2.00D  GRAD.:     0.950 HEAT:-20.88261
 CYCLE:   103 TIME:   0.005 TIME LEFT:  2.00D  GRAD.:     0.778 HEAT:-20.88369
 CYCLE:   104 TIME:   0.005 TIME LEFT:  2.00D  GRAD.:     1.005 HEAT:-20.88471
 CYCLE:   105 TIME:   0.005 TIME LEFT:  2.00D  GRAD.:     1.028 HEAT:-20.88573
 CYCLE:   106 TIME:   0.005 TIME LEFT:  2.00D  GRAD.:     0.811 HEAT:-20.88647
 CYCLE:   107 TIME:   0.005 TIME LEFT:  2.00D  GRAD.:     0.668 HEAT:-20.88725
 CYCLE:   108 TIME:   0.005 TIME LEFT:  2.00D  GRAD.:     0.583 HEAT:-20.88812
 CYCLE:   109 TIME:   0.005 TIME LEFT:  2.00D  GRAD.:     0.661 HEAT:-20.88964
 CYCLE:   110 TIME:   0.005 TIME LEFT:  2.00D  GRAD.:     0.760 HEAT:-20.89128
 CYCLE:   111 TIME:   0.005 TIME LEFT:  2.00D  GRAD.:     0.568 HEAT:-20.89221
 CYCLE:   112 TIME:   0.005 TIME LEFT:  2.00D  GRAD.:     0.404 HEAT:-20.89300
 CYCLE:   113 TIME:   0.006 TIME LEFT:  2.00D  GRAD.:     0.320 HEAT:-20.89325
 CYCLE:   114 TIME:   0.007 TIME LEFT:  2.00D  GRAD.:     0.099 HEAT:-20.89347
 CYCLE:   115 TIME:   0.005 TIME LEFT:  2.00D  GRAD.:     0.072 HEAT:-20.89348
 CYCLE:   116 TIME:   0.005 TIME LEFT:  2.00D  GRAD.:     0.038 HEAT:-20.89349

     RMS GRADIENT =  0.03806  IS LESS THAN CUTOFF =  0.05000



 -------------------------------------------------------------------------------
pm3  precise nosym
 InChI=1S/C7H12O/c1-3-6-5-8-7(6)4-2/h3,6-7H,1,4-5H2,2H3



     GEOMETRY OPTIMISED USING EIGENVECTOR FOLLOWING (EF).     
     SCF FIELD WAS ACHIEVED                                   


                              PM3 CALCULATION
                                                       MOPAC2012 (Version: 13.159M)
                                                       Mon Jun  2 14:11:26 2014
                                                       No. of days left =   6




          FINAL HEAT OF FORMATION =        -20.89349 KCAL/MOL =     -87.41837 KJ/MOL


          TOTAL ENERGY            =      -1307.30602 EV
          ELECTRONIC ENERGY       =      -6322.91296 EV  POINT GROUP:     C1  
          CORE-CORE REPULSION     =       5015.60695 EV
          COSMO AREA              =        161.01 SQUARE ANGSTROMS
          COSMO VOLUME            =        161.55 CUBIC ANGSTROMS

          GRADIENT NORM           =          0.03806
          IONIZATION POTENTIAL    =         10.322683 EV
          HOMO LUMO ENERGIES (EV) =        -10.323  0.932
          NO. OF FILLED LEVELS    =         23
          MOLECULAR WEIGHT        =        112.171

          MOLECULAR DIMENSIONS (Angstroms)

            Atom       Atom       Distance
            H    17    H    14     6.21531
            H    20    H    11     5.51235
            H     9    H    10     3.05097


          SCF CALCULATIONS        =        124
          COMPUTATION TIME        =          0.651 SECONDS




   ATOM   CHEMICAL          X               Y               Z
  NUMBER   SYMBOL      (ANGSTROMS)     (ANGSTROMS)     (ANGSTROMS)
 
     1       C         -0.81077385  *  -0.16950471  *  -0.64407637  *
     2       C          0.18726965  *  -0.78454579  *   0.38605846  *
     3       C          1.66371264  *  -0.67016785  *   0.04788054  *
     4       C         -1.32104923  *  -1.62051441  *  -0.83017645  *
     5       C          2.17978788  *   0.71893493  *   0.34810174  *
     6       C         -1.79788370  *   0.80446342  *  -0.12432988  *
     7       C         -1.46335136  *   1.83262304  *   0.64679729  *
     8       O         -0.34576702  *  -2.11795504  *   0.11826273  *
     9       H         -0.32092796  *   0.25913958  *  -1.54473215  *
    10       H         -0.00987096  *  -0.50588003  *   1.44376453  *
    11       H          2.22912630  *  -1.42509705  *   0.62932674  *
    12       H          1.84000621  *  -0.92254837  *  -1.01678201  *
    13       H         -1.17038609  *  -2.06765675  *  -1.82324171  *
    14       H         -2.34691724  *  -1.82711606  *  -0.48990580  *
    15       H          2.03864722  *   0.98599952  *   1.40435426  *
    16       H          1.65911031  *   1.47959523  *  -0.25063390  *
    17       H          3.25125798  *   0.80152718  *   0.12717524  *
    18       H         -2.83751726  *   0.63488791  *  -0.43034395  *
    19       H         -0.44038800  *   2.02261949  *   0.96610884  *
    20       H         -2.18887344  *   2.55288617  *   1.01135725  *

           Empirical Formula: C7 H12 O  =    20 atoms



      MOLECULAR POINT GROUP   :   C1  


                  EIGENVALUES  
 -41.46850 -34.27977 -33.60256 -27.82763 -25.70742 -22.29559 -21.01875 -19.20069
 -17.50315 -16.79465 -16.65605 -15.61428 -15.19627 -14.44793 -13.84325 -13.74802
 -13.10433 -12.59667 -12.32272 -12.25915 -11.56072 -10.60458 -10.32268   0.93231
   2.75510   2.86517   3.04950   3.37123   3.56430   3.71834   3.73385   3.80502
   3.96117   4.03859   4.12700   4.24999   4.44877   4.57543   4.68381   4.90762
   5.04698   5.13459   5.46538   5.63352


              NET ATOMIC CHARGES AND DIPOLE CONTRIBUTIONS

  ATOM NO.   TYPE          CHARGE      No. of ELECS.   s-Pop       p-Pop       
    1          C          -0.120846        4.1208     1.19250     2.92835
    2          C           0.069771        3.9302     1.19219     2.73803
    3          C          -0.115058        4.1151     1.16044     2.95462
    4          C           0.060105        3.9399     1.16828     2.77161
    5          C          -0.109554        4.1096     1.13767     2.97189
    6          C          -0.126994        4.1270     1.19052     2.93647
    7          C          -0.163466        4.1635     1.18252     2.98095
    8          O          -0.273177        6.2732     1.88308     4.39009
    9          H           0.091969        0.9080     0.90803
   10          H           0.074133        0.9259     0.92587
   11          H           0.063939        0.9361     0.93606
   12          H           0.058698        0.9413     0.94130
   13          H           0.047432        0.9526     0.95257
   14          H           0.051712        0.9483     0.94829
   15          H           0.039551        0.9604     0.96045
   16          H           0.039454        0.9605     0.96055
   17          H           0.041465        0.9585     0.95854
   18          H           0.102027        0.8980     0.89797
   19          H           0.085801        0.9142     0.91420
   20          H           0.083038        0.9170     0.91696
 DIPOLE           X         Y         Z       TOTAL
 POINT-CHG.    -0.103     1.311    -0.497     1.406
 HYBRID        -0.056     0.221    -0.114     0.255
 SUM           -0.159     1.532    -0.611     1.657


          ATOMIC ORBITAL ELECTRON POPULATIONS

    Atom      s        px        py        pz   
    1  C   1.19250   0.97373   0.95551   0.99911
    2  C   1.19219   0.92431   0.83867   0.97505
    3  C   1.16044   0.95596   0.97520   1.02345
    4  C   1.16828   0.93251   0.90484   0.93427
    5  C   1.13767   1.00349   0.96034   1.00806
    6  C   1.19052   0.98191   0.96542   0.98915
    7  C   1.18252   1.01312   0.97541   0.99242
    8  O   1.88308   1.51803   1.25372   1.61834
    9  H   0.90803
   10  H   0.92587
   11  H   0.93606
   12  H   0.94130
   13  H   0.95257
   14  H   0.94829
   15  H   0.96045
   16  H   0.96055
   17  H   0.95854
   18  H   0.89797
   19  H   0.91420
   20  H   0.91696
 *******************************************************************************
 ** Site#: 14399           For non-commercial use only        Version 13.159M **
 *******************************************************************************
 ** Cite this work as: MOPAC2012, James J. P. Stewart, Stewart Computational  **
 ** Chemistry, Version 13.159M web: HTTP://OpenMOPAC.net  Days remaining:   6 **
 *******************************************************************************
 **                                                                           **
 **                                MOPAC2012                                  **
 **                                                                           **
 *******************************************************************************

                            PM3 CALCULATION RESULTS


 *******************************************************************************
 *  CALCULATION DONE:                                Mon Jun  2 14:11:26 2014  *
 *  PM3      - The PM3 Hamiltonian to be used
 *  OLDGEO   - PREVIOUS GEOMETRY TO BE USED
 *  PRECISE  - CRITERIA TO BE INCREASED BY 100 TIMES
 *  NOSYM    - POINT-GROUP SYMMETRY SET TO C1
 *  T=       - A TIME OF 172800.0 SECONDS REQUESTED
 *  DUMP=N   - RESTART FILE WRITTEN EVERY  7200.000 SECONDS
 *  THERMO   - THERMODYNAMIC QUANTITIES TO BE CALCULATED
 *******************************************************************************
oldgeo thermo nosym precise  pm3

   ATOM   CHEMICAL          X               Y               Z
  NUMBER   SYMBOL      (ANGSTROMS)     (ANGSTROMS)     (ANGSTROMS)
 
     1       C         -0.81077385  *  -0.16950471  *  -0.64407637  *
     2       C          0.18726965  *  -0.78454579  *   0.38605846  *
     3       C          1.66371264  *  -0.67016785  *   0.04788054  *
     4       C         -1.32104923  *  -1.62051441  *  -0.83017645  *
     5       C          2.17978788  *   0.71893493  *   0.34810174  *
     6       C         -1.79788370  *   0.80446342  *  -0.12432988  *
     7       C         -1.46335136  *   1.83262304  *   0.64679729  *
     8       O         -0.34576702  *  -2.11795504  *   0.11826273  *
     9       H         -0.32092796  *   0.25913958  *  -1.54473215  *
    10       H         -0.00987096  *  -0.50588003  *   1.44376453  *
    11       H          2.22912630  *  -1.42509705  *   0.62932674  *
    12       H          1.84000621  *  -0.92254837  *  -1.01678201  *
    13       H         -1.17038609  *  -2.06765675  *  -1.82324171  *
    14       H         -2.34691724  *  -1.82711606  *  -0.48990580  *
    15       H          2.03864722  *   0.98599952  *   1.40435426  *
    16       H          1.65911031  *   1.47959523  *  -0.25063390  *
    17       H          3.25125798  *   0.80152718  *   0.12717524  *
    18       H         -2.83751726  *   0.63488791  *  -0.43034395  *
    19       H         -0.44038800  *   2.02261949  *   0.96610884  *
    20       H         -2.18887344  *   2.55288617  *   1.01135725  *
 


          CARTESIAN COORDINATES 

    NO.       ATOM         X         Y         Z

     1         C       -0.8108   -0.1695   -0.6441
     2         C        0.1873   -0.7845    0.3861
     3         C        1.6637   -0.6702    0.0479
     4         C       -1.3210   -1.6205   -0.8302
     5         C        2.1798    0.7189    0.3481
     6         C       -1.7979    0.8045   -0.1243
     7         C       -1.4634    1.8326    0.6468
     8         O       -0.3458   -2.1180    0.1183
     9         H       -0.3209    0.2591   -1.5447
    10         H       -0.0099   -0.5059    1.4438
    11         H        2.2291   -1.4251    0.6293
    12         H        1.8400   -0.9225   -1.0168
    13         H       -1.1704   -2.0677   -1.8232
    14         H       -2.3469   -1.8271   -0.4899
    15         H        2.0386    0.9860    1.4044
    16         H        1.6591    1.4796   -0.2506
    17         H        3.2513    0.8015    0.1272
    18         H       -2.8375    0.6349   -0.4303
    19         H       -0.4404    2.0226    0.9661
    20         H       -2.1889    2.5529    1.0114

  H: (PM3): J. J. P. STEWART, J. COMP. CHEM. 10, 209 (1989).
  C: (PM3): J. J. P. STEWART, J. COMP. CHEM. 10, 209 (1989).
  O: (PM3): J. J. P. STEWART, J. COMP. CHEM. 10, 209 (1989).

           Empirical Formula: C7 H12 O  =    20 atoms



      MOLECULAR POINT GROUP   :   C1  


      RHF CALCULATION, NO. OF DOUBLY OCCUPIED LEVELS =   23



          HEAT OF FORMATION =     -20.893491 KCALS/MOLE


          INTERNAL COORDINATE DERIVATIVES

   NUMBER  ATOM       BOND         ANGLE      DIHEDRAL

     1       C      0.000126    -0.003026    -0.000877
     2       C     -0.000594    -0.000969     0.000245
     3       C      0.001880     0.003996     0.002035
     4       C     -0.001539    -0.004314     0.001095
     5       C      0.006532     0.004809     0.002191
     6       C      0.005474     0.012180     0.003990
     7       C     -0.002795    -0.006913     0.000769
     8       O     -0.000884    -0.001533    -0.001617
     9       H      0.003993     0.000234    -0.007902
    10       H     -0.002347     0.001226     0.003042
    11       H     -0.003793    -0.000917     0.002616
    12       H      0.000919    -0.006571     0.002058
    13       H     -0.005207     0.008104     0.003584
    14       H     -0.002165    -0.007243    -0.005189
    15       H     -0.005853     0.002913    -0.010834
    16       H      0.008508    -0.000991    -0.002012
    17       H     -0.002863     0.005806     0.010097
    18       H     -0.004931    -0.012334    -0.006957
    19       H      0.006735    -0.000476     0.004030
    20       H     -0.001194     0.006021    -0.000365


          GRADIENT NORM =   0.03801


          TIME FOR SCF CALCULATION =    0.00

          TIME FOR DERIVATIVES     =    0.00

          MOLECULAR WEIGHT =  112.17



          ROTATIONAL CONSTANTS IN CM(-1)

          A =    0.07687377   B =    0.06536496   C =    0.03937688



           PRINCIPAL MOMENTS OF INERTIA IN UNITS OF 10**(-40)*GRAM-CM**2

          A =      364.1395   B =      428.2535   C =      710.8937


          ORIENTATION OF MOLECULE IN FORCE CALCULATION

    NO.       ATOM         X         Y         Z

     1          C      -0.8684   -0.0848   -0.2464
     2          C       0.6922   -0.0848   -0.2464
     3          C       1.3681    1.2756   -0.2464
     4          C      -0.7457   -0.7753   -1.6279
     5          C       1.3489    1.8874    1.1361
     6          C      -1.5405   -0.8695    0.8145
     7          C      -1.2227   -0.7696    2.1001
     8          O       0.7001   -0.7127   -1.5653
     9          H      -1.3186    0.9305   -0.2840
    10          H       1.1545   -0.7679    0.4985
    11          H       2.4110    1.1630   -0.6033
    12          H       0.8776    1.9541   -0.9725
    13          H      -1.1287   -0.2122   -2.4911
    14          H      -1.0958   -1.8168   -1.6885
    15          H       1.8506    1.2448    1.8725
    16          H       0.3209    2.0459    1.4916
    17          H       1.8557    2.8604    1.1475
    18          H      -2.3405   -1.5386    0.4746
    19          H      -0.4326   -0.1153    2.4636
    20          H      -1.7299   -1.3351    2.8754


    FIRST DERIVATIVES WILL BE USED IN THE CALCULATION OF SECOND DERIVATIVES

          ESTIMATED TIME TO COMPLETE CALCULATION =        1.74 SECONDS

    FOR POINT-GROUP C1   THERE ARE   1 UNIQUE SYMMETRY FUNCTIONS.

 STEP:   1 TIME =     0.02 SECS, INTEGRAL =      0.02 TIME LEFT: 172799.97
 STEP:   2 TIME =     0.02 SECS, INTEGRAL =      0.05 TIME LEFT: 172799.95
 STEP:   3 TIME =     0.02 SECS, INTEGRAL =      0.07 TIME LEFT: 172799.92
 STEP:   4 TIME =     0.02 SECS, INTEGRAL =      0.09 TIME LEFT: 172799.90
 STEP:   5 TIME =     0.02 SECS, INTEGRAL =      0.11 TIME LEFT: 172799.88
 STEP:   6 TIME =     0.02 SECS, INTEGRAL =      0.14 TIME LEFT: 172799.85
 STEP:   7 TIME =     0.02 SECS, INTEGRAL =      0.16 TIME LEFT: 172799.83
 STEP:   8 TIME =     0.02 SECS, INTEGRAL =      0.18 TIME LEFT: 172799.81
 STEP:   9 TIME =     0.02 SECS, INTEGRAL =      0.21 TIME LEFT: 172799.79
 STEP:  10 TIME =     0.02 SECS, INTEGRAL =      0.23 TIME LEFT: 172799.76
 STEP:  11 TIME =     0.02 SECS, INTEGRAL =      0.25 TIME LEFT: 172799.74
 STEP:  12 TIME =     0.02 SECS, INTEGRAL =      0.28 TIME LEFT: 172799.72
 STEP:  13 TIME =     0.03 SECS, INTEGRAL =      0.31 TIME LEFT: 172799.69
 STEP:  14 TIME =     0.03 SECS, INTEGRAL =      0.33 TIME LEFT: 172799.66
 STEP:  15 TIME =     0.02 SECS, INTEGRAL =      0.35 TIME LEFT: 172799.64
 STEP:  16 TIME =     0.02 SECS, INTEGRAL =      0.38 TIME LEFT: 172799.61
 STEP:  17 TIME =     0.02 SECS, INTEGRAL =      0.40 TIME LEFT: 172799.59
 STEP:  18 TIME =     0.02 SECS, INTEGRAL =      0.43 TIME LEFT: 172799.57
 STEP:  19 TIME =     0.02 SECS, INTEGRAL =      0.45 TIME LEFT: 172799.54
 STEP:  20 TIME =     0.02 SECS, INTEGRAL =      0.47 TIME LEFT: 172799.52
 STEP:  21 TIME =     0.02 SECS, INTEGRAL =      0.50 TIME LEFT: 172799.50
 STEP:  22 TIME =     0.02 SECS, INTEGRAL =      0.52 TIME LEFT: 172799.47
 STEP:  23 TIME =     0.02 SECS, INTEGRAL =      0.54 TIME LEFT: 172799.45
 STEP:  24 TIME =     0.02 SECS, INTEGRAL =      0.57 TIME LEFT: 172799.43
 STEP:  25 TIME =     0.02 SECS, INTEGRAL =      0.59 TIME LEFT: 172799.40
 STEP:  26 TIME =     0.02 SECS, INTEGRAL =      0.61 TIME LEFT: 172799.38
 STEP:  27 TIME =     0.02 SECS, INTEGRAL =      0.64 TIME LEFT: 172799.36
 STEP:  28 TIME =     0.02 SECS, INTEGRAL =      0.66 TIME LEFT: 172799.33
 STEP:  29 TIME =     0.02 SECS, INTEGRAL =      0.68 TIME LEFT: 172799.31
 STEP:  30 TIME =     0.02 SECS, INTEGRAL =      0.71 TIME LEFT: 172799.29
 STEP:  31 TIME =     0.02 SECS, INTEGRAL =      0.73 TIME LEFT: 172799.26
 STEP:  32 TIME =     0.02 SECS, INTEGRAL =      0.75 TIME LEFT: 172799.24
 STEP:  33 TIME =     0.02 SECS, INTEGRAL =      0.78 TIME LEFT: 172799.22
 STEP:  34 TIME =     0.02 SECS, INTEGRAL =      0.80 TIME LEFT: 172799.19
 STEP:  35 TIME =     0.02 SECS, INTEGRAL =      0.82 TIME LEFT: 172799.17
 STEP:  36 TIME =     0.02 SECS, INTEGRAL =      0.85 TIME LEFT: 172799.15
 STEP:  37 TIME =     0.02 SECS, INTEGRAL =      0.87 TIME LEFT: 172799.12
 STEP:  38 TIME =     0.02 SECS, INTEGRAL =      0.89 TIME LEFT: 172799.10
 STEP:  39 TIME =     0.02 SECS, INTEGRAL =      0.92 TIME LEFT: 172799.08
 STEP:  40 TIME =     0.02 SECS, INTEGRAL =      0.94 TIME LEFT: 172799.05
 STEP:  41 TIME =     0.02 SECS, INTEGRAL =      0.96 TIME LEFT: 172799.03
 STEP:  42 TIME =     0.02 SECS, INTEGRAL =      0.99 TIME LEFT: 172799.01
 STEP:  43 TIME =     0.02 SECS, INTEGRAL =      1.01 TIME LEFT: 172798.98
 STEP:  44 TIME =     0.02 SECS, INTEGRAL =      1.03 TIME LEFT: 172798.96
 STEP:  45 TIME =     0.02 SECS, INTEGRAL =      1.06 TIME LEFT: 172798.94
 STEP:  46 TIME =     0.02 SECS, INTEGRAL =      1.08 TIME LEFT: 172798.91
 STEP:  47 TIME =     0.02 SECS, INTEGRAL =      1.10 TIME LEFT: 172798.89
 STEP:  48 TIME =     0.02 SECS, INTEGRAL =      1.13 TIME LEFT: 172798.87
 STEP:  49 TIME =     0.02 SECS, INTEGRAL =      1.15 TIME LEFT: 172798.84
 STEP:  50 TIME =     0.02 SECS, INTEGRAL =      1.17 TIME LEFT: 172798.82
 STEP:  51 TIME =     0.02 SECS, INTEGRAL =      1.20 TIME LEFT: 172798.80
 STEP:  52 TIME =     0.02 SECS, INTEGRAL =      1.22 TIME LEFT: 172798.77
 STEP:  53 TIME =     0.03 SECS, INTEGRAL =      1.25 TIME LEFT: 172798.75
 STEP:  54 TIME =     0.02 SECS, INTEGRAL =      1.27 TIME LEFT: 172798.72
 STEP:  55 TIME =     0.02 SECS, INTEGRAL =      1.29 TIME LEFT: 172798.70
 STEP:  56 TIME =     0.02 SECS, INTEGRAL =      1.32 TIME LEFT: 172798.68
 STEP:  57 TIME =     0.02 SECS, INTEGRAL =      1.34 TIME LEFT: 172798.65
 STEP:  58 TIME =     0.02 SECS, INTEGRAL =      1.36 TIME LEFT: 172798.63
 STEP:  59 TIME =     0.02 SECS, INTEGRAL =      1.39 TIME LEFT: 172798.60
 STEP:  60 TIME =     0.02 SECS, INTEGRAL =      1.41 TIME LEFT: 172798.58

(To convert to Hartree/Bohr^2, multiply by (10^(-21) x N x a0^2)/(4.184 x 627.51) = 0.0642)


           FORCE MATRIX IN MILLIDYNES/ANGSTROM


                  C  1       C  2       C  3       C  4       C  5       C  6
 ------------------------------------------------------------------------------
     C    1  14.847362
     C    2   3.042330  14.378432
     C    3   0.498125   4.142836  14.456406
     C    4   3.419266   2.304569   0.071390  14.649447
     C    5   0.026207   0.660737   4.475423   0.012151  14.364098
     C    6   5.141268   0.533214   0.037027   0.555077   0.002400  18.275904
     C    7   0.847874   0.045009   0.005100   0.050573   0.012594  11.050599
     O    8   2.095956   3.977952   0.697312   4.403627   0.064543   0.058564
     H    9   4.396529   0.437647   0.023493   0.428383   0.007026   0.393571
     H   10   0.424011   4.357177   0.426667   0.055875   0.027598   0.016971
     H   11   0.045956   0.441782   4.477414   0.006432   0.440210   0.006140
     H   12   0.020354   0.461380   4.460485   0.005478   0.437743   0.001891
     H   13   0.427346   0.058524   0.002842   4.675868   0.001129   0.036543
     H   14   0.439191   0.058659   0.012227   4.648225   0.002490   0.018929
     H   15   0.001999   0.030691   0.463491   0.000950   4.711849   0.000617
     H   16   0.005149   0.024023   0.461931   0.001098   4.692327   0.002036
     H   17   0.001686   0.050276   0.452676   0.002272   4.765283   0.000585
     H   18   0.436134   0.034539   0.005108   0.031959   0.000462   4.787701
     H   19   0.102649   0.018973   0.004393   0.005158   0.006268   0.493463
     H   20   0.138108   0.008413   0.000812   0.009761   0.001317   0.461826


                  C  7       O  8       H  9       H 10       H 11       H 12
 ------------------------------------------------------------------------------
     C    7  17.994618
     O    8   0.011204   8.901690
     H    9   0.025090   0.042297   4.889374
     H   10   0.009519   0.337555   0.031000   4.757631
     H   11   0.000605   0.032336   0.003251   0.023035   5.088767
     H   12   0.000896   0.028788   0.022733   0.042336   0.572457   5.081643
     H   13   0.006515   0.357595   0.022861   0.010513   0.000848   0.001343
     H   14   0.003070   0.360475   0.033472   0.002108   0.001172   0.000771
     H   15   0.003570   0.003633   0.000608   0.020992   0.023399   0.048205
     H   16   0.007078   0.003375   0.008104   0.001670   0.048658   0.024756
     H   17   0.001222   0.011491   0.000602   0.001508   0.029396   0.029334
     H   18   0.457168   0.004122   0.014431   0.002581   0.001099   0.000540
     H   19   5.020828   0.004785   0.012640   0.011910   0.000653   0.000663
     H   20   5.118591   0.003669   0.015935   0.000937   0.000313   0.000227


                  H 13       H 14       H 15       H 16       H 17       H 18
 ------------------------------------------------------------------------------
     H   13   5.139415
     H   14   0.489567   5.117284
     H   15   0.000132   0.000186   5.454354
     H   16   0.000368   0.000314   0.578212   5.431505
     H   17   0.000248   0.000577   0.570856   0.568915   5.494893
     H   18   0.002368   0.022961   0.000195   0.000251   0.000209   5.151615
     H   19   0.000955   0.000702   0.007149   0.014356   0.001008   0.121708
     H   20   0.001244   0.000587   0.000428   0.000449   0.000321   0.082057


                  H 19       H 20
 ------------------------------
     H   19   5.401733
     H   20   0.411671   5.497642


          HEAT OF FORMATION =     -20.893491 KCALS/MOLE

          ZERO POINT ENERGY     108.559 KCAL/MOL


           NORMAL COORDINATE ANALYSIS (Total motion = 1 Angstrom)


   Root No.       1         2         3         4         5         6         7         8

                 1 A       2 A       3 A       4 A       5 A       6 A       7 A       8 A   

                  71.1      77.2     116.8     183.7     211.3     264.4     327.1     432.4
  
           1   -0.0073    0.0111    0.0052   -0.0146    0.0152    0.0286   -0.0041    0.0262
           2   -0.0138   -0.0121    0.0066   -0.0013   -0.0109    0.0027    0.0387    0.0116
           3   -0.0040    0.0080    0.0196   -0.0040    0.0154    0.0142   -0.0063   -0.0041
           4   -0.0071    0.0113    0.0060   -0.0146    0.0165    0.0269   -0.0035    0.0218
           5    0.0122   -0.0135   -0.0044    0.0110    0.0047   -0.0058    0.0339   -0.0223
           6   -0.0010   -0.0131    0.0149    0.0082   -0.0115   -0.0109   -0.0139   -0.0145
           7   -0.0269    0.0130    0.0118   -0.0059    0.0256   -0.0275    0.0259   -0.0184
           8    0.0222   -0.0145   -0.0062    0.0067    0.0009    0.0221    0.0191    0.0042
           9   -0.0059    0.0071   -0.0153   -0.0007   -0.0043   -0.0256   -0.0142    0.0395
          10    0.0070   -0.0085   -0.0039    0.0009    0.0002    0.0067   -0.0121   -0.0263
          11   -0.0163    0.0143    0.0420   -0.0024   -0.0342    0.0175   -0.0183   -0.0122
          12   -0.0016   -0.0065    0.0012   -0.0020    0.0250    0.0044    0.0212    0.0098
          13    0.0520   -0.0277    0.0153    0.0223    0.0115   -0.0191   -0.0087    0.0106
          14   -0.0143   -0.0129    0.0318    0.0141    0.0147   -0.0263   -0.0221    0.0448
          15    0.0112    0.0058   -0.0330   -0.0036   -0.0116   -0.0034    0.0057    0.0313
          16    0.0032    0.0332    0.0051    0.0002   -0.0173    0.0027    0.0254    0.0163
          17   -0.0214   -0.0286   -0.0299   -0.0176    0.0077    0.0188    0.0044    0.0087
          18   -0.0029    0.0102   -0.0063   -0.0058    0.0084    0.0083   -0.0124   -0.0213
          19   -0.0319   -0.0192   -0.0364    0.0056   -0.0465   -0.0178   -0.0067   -0.0005
          20    0.0217    0.0481   -0.0312   -0.0093   -0.0278   -0.0061   -0.0143   -0.0002
          21    0.0024    0.0174    0.0039   -0.0077    0.0176    0.0151   -0.0042   -0.0185
          22    0.0056   -0.0075   -0.0027   -0.0001   -0.0021    0.0096   -0.0119   -0.0225
          23    0.0087    0.0148   -0.0138   -0.0013    0.0436   -0.0225   -0.0203   -0.0371
          24    0.0007   -0.0269    0.0192    0.0144   -0.0320   -0.0014    0.0145   -0.0227
          25   -0.0241    0.0119    0.0100   -0.0267    0.0190    0.0420   -0.0160    0.0546
          26   -0.0215   -0.0108    0.0096   -0.0072   -0.0092    0.0103    0.0310    0.0247
          27   -0.0087    0.0312    0.0534   -0.0040   -0.0005    0.0254   -0.0204    0.0025
          28    0.0025    0.0187    0.0071   -0.0201    0.0301    0.0538   -0.0167    0.0353
          29    0.0215   -0.0292    0.0041    0.0165   -0.0110    0.0097    0.0452   -0.0340
          30    0.0016   -0.0324    0.0211    0.0175   -0.0345   -0.0150    0.0065   -0.0355
          31   -0.0473    0.0234    0.0112   -0.0112    0.0304   -0.0357    0.0326   -0.0207
          32    0.0466   -0.0169   -0.0190   -0.0103   -0.0122    0.0812    0.0029    0.0468
          33   -0.0737    0.0384   -0.0131   -0.0121    0.0131   -0.0657    0.0121    0.0208
          34   -0.0813    0.0360    0.0139   -0.0040    0.0441   -0.0855    0.0571   -0.0535
          35    0.0347   -0.0141   -0.0233    0.0110   -0.0001    0.0172    0.0381   -0.0016
          36    0.0425   -0.0081   -0.0331    0.0025   -0.0178    0.0086   -0.0159    0.0565
          37   -0.0012   -0.0218    0.0265    0.0105   -0.0650    0.0185   -0.0156   -0.0426
          38   -0.0259    0.0305    0.0841   -0.0028   -0.0816    0.0436   -0.0616   -0.0296
          39   -0.0042    0.0100    0.0148   -0.0066    0.0236    0.0159   -0.0048    0.0059
          40    0.0252   -0.0079   -0.0412    0.0025    0.0550   -0.0223   -0.0132   -0.0495
          41   -0.0227    0.0149    0.0569   -0.0027   -0.0559    0.0286   -0.0219   -0.0078
          42    0.0011   -0.0219   -0.0371   -0.0060    0.0692   -0.0117    0.0728    0.0453
          43    0.1166   -0.0774    0.0489   -0.1631   -0.0215   -0.0633   -0.0146    0.0195
          44   -0.0213   -0.0266    0.0689   -0.0873    0.0089   -0.0806   -0.0402    0.0690
          45   -0.0392    0.0278   -0.0239    0.0353    0.0058   -0.0199   -0.0055    0.0451
          46    0.0722   -0.0381    0.0161    0.0303    0.0077   -0.0174   -0.0199    0.0237
          47   -0.0464    0.0178    0.0076    0.2256    0.0431    0.0085   -0.0536    0.0791
          48    0.0841   -0.0376   -0.0197   -0.0766   -0.0356   -0.0138   -0.0114    0.0518
          49    0.0306   -0.0003   -0.0162    0.2231    0.0363    0.0282   -0.0262    0.0273
          50   -0.0030   -0.0274    0.0487   -0.0908    0.0018   -0.0519   -0.0142    0.0382
          51    0.0022    0.0261   -0.0694    0.0298   -0.0103    0.0449    0.0534   -0.0226
          52    0.0412    0.0993    0.0412    0.0159   -0.0429   -0.0213    0.0746    0.0280
          53   -0.0652   -0.1067   -0.0587   -0.0370    0.0479    0.0542   -0.0449    0.0023
          54   -0.0062    0.0086   -0.0350   -0.0041   -0.0130   -0.0061   -0.0341   -0.0376
          55   -0.0691   -0.0829   -0.0733   -0.0088   -0.0263    0.0037   -0.0627   -0.0159
          56    0.0639    0.1249   -0.0034    0.0138   -0.0705   -0.0451    0.0287    0.0086
          57    0.0069    0.0174    0.0330   -0.0165    0.0489    0.0380    0.0387   -0.0017
          58   -0.0253   -0.0003   -0.0364    0.0265   -0.0948   -0.0598    0.0160   -0.0029
          59    0.0166    0.0386   -0.0600   -0.0213   -0.0181    0.0080   -0.0808   -0.0183
          60    0.0030    0.0228   -0.0170   -0.0030   -0.0066   -0.0018   -0.0375   -0.0335


   Root No.       9        10        11        12        13        14        15        16

                 9 A      10 A      11 A      12 A      13 A      14 A      15 A      16 A   

                 474.5     493.0     638.1     778.9     815.0     892.8     923.0     944.2
  
           1   -0.0143   -0.0025   -0.0093   -0.0119    0.0233    0.0047    0.0145   -0.0198
           2   -0.0135    0.0318   -0.0152    0.0348   -0.0204   -0.0118   -0.0004   -0.0066
           3   -0.0272   -0.0116    0.0098    0.0169    0.0050    0.0077    0.0002   -0.0082
           4   -0.0209   -0.0115    0.0167   -0.0193   -0.0054   -0.0149   -0.0087    0.0027
           5    0.0163   -0.0290   -0.0023    0.0101    0.0034    0.0196    0.0034   -0.0185
           6   -0.0250    0.0194   -0.0197   -0.0345    0.0090   -0.0095    0.0039    0.0132
           7    0.0057   -0.0326    0.0123   -0.0282   -0.0291   -0.0014   -0.0005    0.0079
           8    0.0067   -0.0340    0.0139   -0.0098    0.0096   -0.0132    0.0000    0.0090
           9    0.0130    0.0033   -0.0012    0.0041   -0.0055    0.0057   -0.0005   -0.0049
          10    0.0038    0.0132    0.0116    0.0252   -0.0071    0.0017   -0.0033    0.0001
          11   -0.0036   -0.0008   -0.0002    0.0186   -0.0085   -0.0078    0.0109    0.0139
          12   -0.0456   -0.0031   -0.0043    0.0219    0.0015    0.0322   -0.0235    0.0158
          13    0.0075   -0.0049    0.0029   -0.0049   -0.0068    0.0023    0.0020    0.0041
          14    0.0160   -0.0080    0.0069   -0.0029   -0.0006   -0.0113   -0.0014    0.0213
          15    0.0141   -0.0147    0.0068    0.0013   -0.0029    0.0003    0.0011    0.0005
          16    0.0274    0.0236   -0.0670   -0.0103    0.0071    0.0094    0.0227   -0.0027
          17    0.0199    0.0361    0.0232   -0.0184    0.0115    0.0035   -0.0258   -0.0075
          18    0.0324    0.0032    0.0220    0.0075   -0.0079   -0.0086   -0.0009   -0.0020
          19   -0.0108    0.0021   -0.0006   -0.0051    0.0035    0.0062    0.0005    0.0131
          20   -0.0136   -0.0098   -0.0072   -0.0057    0.0054    0.0080   -0.0078    0.0099
          21    0.0477    0.0128    0.0105    0.0070   -0.0092   -0.0129    0.0051   -0.0080
          22    0.0039    0.0120    0.0113    0.0331   -0.0046    0.0142   -0.0021    0.0134
          23   -0.0242    0.0246   -0.0146   -0.0202    0.0052   -0.0024   -0.0026   -0.0076
          24   -0.0108   -0.0034   -0.0165   -0.0290    0.0070   -0.0112    0.0024   -0.0208
          25   -0.0458    0.0186    0.0228   -0.0226    0.0430   -0.0569    0.0225   -0.0477
          26   -0.0283    0.0397   -0.0016    0.0304   -0.0101   -0.0381    0.0049   -0.0192
          27   -0.0494   -0.0358   -0.0170    0.0588    0.0019   -0.0069    0.0700    0.0043
          28   -0.0356   -0.0406    0.0383   -0.0399    0.0307   -0.0391   -0.0200   -0.0626
          29    0.0199   -0.0463   -0.0023    0.0014    0.0254    0.0351    0.0234   -0.0208
          30   -0.0112    0.0213   -0.0355   -0.0297    0.0087    0.0223    0.0312    0.0526
          31    0.0123   -0.0424    0.0162   -0.0080    0.0082   -0.0225   -0.0087    0.0150
          32   -0.0243   -0.0190    0.0309   -0.0736   -0.0892   -0.0333   -0.0175    0.0324
          33    0.0410   -0.0301    0.0052    0.0766    0.1232   -0.0472   -0.0178    0.0103
          34    0.0460   -0.0694    0.0120    0.0572    0.1082   -0.0214    0.0005   -0.0093
          35    0.0270   -0.0545    0.0201    0.0092    0.0047    0.0241    0.0147   -0.0447
          36    0.0061    0.0064    0.0053   -0.0333   -0.0969    0.0518    0.0124   -0.0415
          37    0.0415    0.0041    0.0221    0.0192   -0.0241   -0.0245   -0.0224   -0.0324
          38    0.0354   -0.0414    0.0349   -0.0250    0.0370    0.1005   -0.0773   -0.0001
          39   -0.0384   -0.0241    0.0129   -0.0004    0.0369    0.1115   -0.0702    0.0209
          40   -0.0177    0.0368    0.0031    0.0138   -0.0089   -0.0346    0.0166   -0.0232
          41    0.0079   -0.0116    0.0062    0.0175   -0.0041    0.0118   -0.0034    0.0179
          42   -0.0908    0.0366   -0.0425    0.1033   -0.0489   -0.0572    0.0731    0.0581
          43    0.0100    0.0009    0.0001    0.0297    0.0401   -0.0151   -0.0066   -0.0033
          44    0.0235    0.0045    0.0038   -0.0005   -0.0533    0.0508    0.0104   -0.0637
          45    0.0187   -0.0082    0.0057   -0.0194   -0.0769    0.0632    0.0165   -0.0649
          46    0.0099    0.0046   -0.0006    0.0242    0.0332   -0.0140   -0.0065    0.0001
          47    0.0203    0.0169    0.0000    0.0323    0.0177    0.0027   -0.0055   -0.0316
          48    0.0176    0.0013    0.0002    0.0644    0.0964   -0.0494   -0.0192    0.0126
          49    0.0094    0.0100   -0.0027    0.0245    0.0358   -0.0147   -0.0086   -0.0004
          50    0.0157   -0.0151    0.0099   -0.0164   -0.0228   -0.0012    0.0040    0.0200
          51    0.0026   -0.0539    0.0209   -0.0522   -0.0014   -0.0581    0.0018    0.1265
          52    0.0111    0.0695   -0.0141   -0.0038   -0.0059   -0.0336   -0.1785   -0.0376
          53    0.0310   -0.0134   -0.0405   -0.0207    0.0321    0.0552    0.2084    0.0010
          54    0.0446   -0.0104    0.0244   -0.0019   -0.0179   -0.0103    0.0136    0.0613
          55   -0.0074   -0.0666   -0.1119    0.0266   -0.0231   -0.0306   -0.1160   -0.0238
          56   -0.0583    0.0321    0.1461   -0.0088    0.0181    0.0221    0.1392   -0.0015
          57    0.1168    0.0835   -0.0215   -0.0525    0.0232    0.0378   -0.0039    0.0862
          58   -0.0752    0.0347    0.2322    0.0018    0.0091   -0.0132    0.0356   -0.0511
          59   -0.0223   -0.1178   -0.2028    0.0575   -0.0418   -0.0366   -0.0073   -0.0259
          60    0.0017   -0.0433    0.0197    0.0568   -0.0401   -0.0582    0.0280   -0.0740


   Root No.      17        18        19        20        21        22        23        24

                17 A      18 A      19 A      20 A      21 A      22 A      23 A      24 A   

                 951.3     956.6     979.7     995.3    1013.2    1024.6    1052.0    1096.0
  
           1   -0.0216   -0.0125   -0.0099   -0.0026   -0.0043    0.0040    0.0019   -0.0248
           2    0.0044   -0.0103    0.0134    0.0142    0.0011    0.0004    0.0105    0.0228
           3   -0.0027    0.0024   -0.0068    0.0259   -0.0072    0.0014    0.0175   -0.0160
           4    0.0191    0.0053    0.0092   -0.0165   -0.0140   -0.0051   -0.0192    0.0114
           5   -0.0016    0.0025   -0.0025   -0.0023   -0.0129    0.0033    0.0005   -0.0215
           6   -0.0170   -0.0170   -0.0012    0.0009   -0.0257   -0.0034   -0.0179   -0.0002
           7    0.0031   -0.0007    0.0080   -0.0078   -0.0095    0.0034    0.0225   -0.0095
           8   -0.0042   -0.0021   -0.0032   -0.0001    0.0002   -0.0062   -0.0028    0.0133
           9    0.0036    0.0016    0.0017   -0.0004    0.0039    0.0042    0.0002   -0.0109
          10    0.0038   -0.0019    0.0021    0.0333   -0.0287    0.0011   -0.0080   -0.0013
          11   -0.0071    0.0259    0.0029   -0.0109   -0.0079    0.0020   -0.0294   -0.0086
          12    0.0157   -0.0105    0.0069    0.0031    0.0000    0.0005   -0.0141    0.0144
          13   -0.0086   -0.0020   -0.0071    0.0120    0.0140   -0.0006   -0.0131    0.0060
          14   -0.0061   -0.0088    0.0031    0.0158    0.0156    0.0077    0.0029   -0.0057
          15   -0.0033    0.0002   -0.0019    0.0012   -0.0047   -0.0029   -0.0018    0.0060
          16    0.0048   -0.0081    0.0114    0.0028    0.0058    0.0278   -0.0059    0.0084
          17   -0.0093   -0.0003    0.0008    0.0003    0.0036   -0.0142   -0.0034   -0.0323
          18   -0.0021   -0.0015    0.0001   -0.0028   -0.0004   -0.0050    0.0004   -0.0004
          19    0.0069    0.0102   -0.0046    0.0082   -0.0015   -0.0433    0.0063   -0.0099
          20    0.0026    0.0158   -0.0164    0.0027   -0.0092    0.0393    0.0061    0.0116
          21   -0.0049   -0.0086    0.0059   -0.0068    0.0021    0.0070   -0.0035    0.0047
          22   -0.0065    0.0029   -0.0028   -0.0298    0.0400   -0.0004    0.0107    0.0001
          23    0.0125   -0.0087   -0.0063   -0.0079    0.0113   -0.0004    0.0056    0.0030
          24    0.0151    0.0213    0.0034   -0.0071    0.0307    0.0042    0.0059   -0.0024
          25   -0.0700   -0.0072   -0.0604    0.0012    0.0436   -0.0858    0.0992    0.1698
          26   -0.0194   -0.0062   -0.0113    0.0166    0.0240   -0.0398    0.0587    0.1100
          27   -0.0238    0.0626   -0.0825    0.0494   -0.0008    0.0294    0.1731   -0.0896
          28    0.0658    0.0630   -0.0238    0.0266    0.0302   -0.0169   -0.1228    0.0006
          29   -0.0575   -0.0083   -0.0329   -0.0661   -0.1073   -0.0412   -0.0224    0.0160
          30   -0.1027   -0.0663   -0.0096   -0.0887   -0.1464   -0.0380    0.0269    0.0409
          31    0.0232    0.0030    0.0228   -0.0266   -0.0226    0.0033    0.0339   -0.0015
          32    0.0574    0.0042    0.0664   -0.0705   -0.0562    0.0141    0.1138   -0.0046
          33    0.0398    0.0084    0.0235   -0.0303   -0.0154   -0.0008   -0.0001    0.0161
          34   -0.0095    0.0096   -0.0281    0.0076    0.0134   -0.0264   -0.0408    0.0498
          35   -0.0275    0.0227   -0.0535    0.0108    0.0268   -0.0405   -0.0326    0.0636
          36   -0.0101    0.0175   -0.0213    0.0001    0.0135   -0.0076    0.0128   -0.0044
          37    0.1391   -0.1343   -0.1031    0.0978   -0.0807   -0.0019    0.0108    0.0126
          38    0.0106   -0.0457    0.0498    0.0288    0.0171   -0.0045    0.0205    0.0470
          39   -0.0301    0.0010    0.0796    0.0041    0.0364   -0.0019    0.0105    0.0433
          40   -0.0708    0.1624    0.1140    0.1270   -0.0876    0.0037   -0.0046    0.0398
          41    0.0182   -0.0298   -0.0256   -0.0325    0.0102    0.0004   -0.0255   -0.0143
          42    0.0058    0.0272   -0.0789   -0.0747   -0.0039    0.0122   -0.0846   -0.0687
          43    0.0207    0.0038    0.0159   -0.0225   -0.0216    0.0005    0.0189   -0.0057
          44    0.0002    0.0296   -0.0258   -0.0240   -0.0259   -0.0276   -0.0187    0.0348
          45   -0.0176    0.0283   -0.0412   -0.0097   -0.0167   -0.0331   -0.0410    0.0478
          46    0.0177    0.0031    0.0138   -0.0182   -0.0181    0.0013    0.0172   -0.0034
          47    0.0320    0.0189    0.0151   -0.0462   -0.0490   -0.0097    0.0314    0.0029
          48    0.0498    0.0015    0.0489   -0.0524   -0.0629    0.0092    0.0690   -0.0233
          49    0.0215    0.0045    0.0160   -0.0234   -0.0236    0.0025    0.0194   -0.0070
          50   -0.0196   -0.0102   -0.0087    0.0306    0.0319    0.0047   -0.0126    0.0025
          51   -0.0616   -0.0619   -0.0003    0.1066    0.1014    0.0365   -0.0204   -0.0190
          52   -0.0545   -0.0063   -0.0115   -0.0025    0.0049   -0.0356   -0.0005   -0.0743
          53    0.0416   -0.0263    0.0465    0.0226    0.0098    0.0773   -0.0026    0.0140
          54    0.0355    0.0443   -0.0348   -0.0333   -0.0107   -0.0353   -0.0129    0.1038
          55   -0.0364    0.0058   -0.0282   -0.0152   -0.0152    0.1414    0.0012    0.0281
          56    0.0273   -0.0335    0.0506    0.0153    0.0245   -0.1469   -0.0059   -0.0443
          57    0.0408    0.0826   -0.0585    0.0196   -0.0274   -0.0561    0.0279    0.0220
          58   -0.0323   -0.0381    0.0096   -0.0292   -0.0028    0.1719   -0.0159    0.0250
          59   -0.0078   -0.0479    0.0527    0.0066    0.0276   -0.1662   -0.0070   -0.0321
          60   -0.0373   -0.0849    0.0642   -0.0289    0.0275   -0.0035   -0.0273   -0.0020


   Root No.      25        26        27        28        29        30        31        32

                25 A      26 A      27 A      28 A      29 A      30 A      31 A      32 A   

                1122.0    1125.7    1151.8    1158.1    1175.2    1190.0    1212.9    1255.5
  
           1    0.0130    0.0043   -0.0252   -0.0131   -0.0205    0.0008    0.0418   -0.0121
           2   -0.0052   -0.0024   -0.0104    0.0089    0.0383   -0.0227    0.0358    0.0003
           3   -0.0004    0.0035   -0.0143   -0.0116    0.0082   -0.0347    0.0241   -0.0256
           4   -0.0106   -0.0062    0.0217    0.0219   -0.0017   -0.0092    0.0332    0.0411
           5    0.0097   -0.0050   -0.0442    0.0148   -0.0064    0.0198   -0.0028    0.0235
           6    0.0103    0.0139   -0.0068   -0.0194    0.0553    0.0151   -0.0155    0.0095
           7    0.0226   -0.0208    0.0015   -0.0072    0.0097    0.0040   -0.0149   -0.0033
           8   -0.0026    0.0302    0.0135   -0.0309    0.0145    0.0073    0.0042    0.0233
           9    0.0209    0.0473   -0.0128    0.0365   -0.0020    0.0019    0.0002    0.0215
          10    0.0087    0.0051   -0.0112   -0.0112    0.0149    0.0159   -0.0105   -0.0062
          11    0.0087    0.0004    0.0018   -0.0068   -0.0311    0.0044   -0.0141   -0.0024
          12    0.0021   -0.0019    0.0161    0.0035   -0.0313    0.0164   -0.0210    0.0049
          13   -0.0271    0.0256   -0.0077    0.0011   -0.0077   -0.0006    0.0026   -0.0020
          14    0.0076   -0.0237    0.0032    0.0115   -0.0076   -0.0054    0.0008   -0.0070
          15   -0.0242   -0.0543   -0.0001   -0.0244   -0.0015    0.0018    0.0007   -0.0013
          16   -0.0041   -0.0001    0.0146    0.0024    0.0020    0.0205   -0.0111   -0.0133
          17   -0.0092    0.0020    0.0219    0.0024   -0.0036    0.0282   -0.0042   -0.0115
          18    0.0011    0.0001   -0.0036   -0.0021   -0.0011   -0.0116   -0.0036    0.0024
          19    0.0012    0.0012   -0.0057   -0.0045   -0.0011   -0.0185   -0.0045    0.0073
          20    0.0024    0.0004   -0.0071   -0.0038    0.0016   -0.0183   -0.0032    0.0054
          21    0.0001    0.0000    0.0008   -0.0006   -0.0002   -0.0069   -0.0101    0.0090
          22   -0.0060   -0.0045    0.0018    0.0020    0.0110   -0.0117   -0.0026   -0.0009
          23   -0.0052   -0.0066    0.0061    0.0028   -0.0081   -0.0045    0.0058   -0.0040
          24   -0.0029   -0.0077    0.0032    0.0011   -0.0227   -0.0031    0.0116   -0.0033
          25    0.0566   -0.0126   -0.0876    0.0064   -0.0923    0.0555   -0.1522    0.0228
          26    0.0122   -0.0101   -0.0364    0.0209    0.0082    0.0078   -0.0558    0.0177
          27   -0.1037    0.0102    0.1397    0.0737    0.1010    0.1330   -0.0274    0.0640
          28   -0.0259   -0.0634   -0.0418    0.1236    0.1789   -0.0237   -0.1386   -0.0772
          29   -0.0557   -0.0610   -0.0047    0.1822    0.0013   -0.0708   -0.0593   -0.0785
          30   -0.0413   -0.0016    0.0741    0.0762   -0.0530   -0.0638    0.0458   -0.0111
          31   -0.0203    0.0525   -0.0081   -0.0144    0.0003   -0.0019   -0.0252   -0.0431
          32   -0.0541    0.1627   -0.0423   -0.0415   -0.0120   -0.0014   -0.0792   -0.1300
          33   -0.0877    0.2231   -0.0257    0.0199   -0.0255   -0.0127   -0.0011   -0.0476
          34    0.0079    0.0261    0.0836   -0.0526    0.0300   -0.0178    0.0106   -0.0286
          35    0.1251    0.0860    0.1741   -0.0390    0.0432   -0.0452    0.0238   -0.0689
          36    0.1498    0.0686    0.0844    0.0627    0.0121   -0.0339    0.0027   -0.0480
          37   -0.0090   -0.0022    0.0549    0.0214   -0.1263    0.0115   -0.0212   -0.0085
          38   -0.0007   -0.0031    0.0051    0.0077    0.0050    0.0407   -0.0225   -0.0147
          39    0.0035   -0.0006   -0.0076   -0.0015    0.0472    0.0442   -0.0247   -0.0049
          40   -0.0057   -0.0016    0.0498    0.0262   -0.1163    0.0116   -0.0027   -0.0073
          41    0.0119    0.0016   -0.0159   -0.0155    0.0088    0.0053   -0.0134   -0.0019
          42    0.0325    0.0091   -0.0131   -0.0447   -0.0527    0.0474   -0.0748   -0.0365
          43    0.0249   -0.0108    0.0083   -0.0017    0.0082    0.0008   -0.0045    0.0014
          44   -0.0673   -0.0229    0.0085   -0.0700    0.0062    0.0036    0.0001   -0.0220
          45   -0.1239   -0.0318   -0.0067   -0.0907   -0.0009    0.0075    0.0041   -0.0199
          46    0.0124   -0.0240    0.0067   -0.0077    0.0033   -0.0014   -0.0045   -0.0134
          47    0.0204   -0.0712    0.0217   -0.0427    0.0152    0.0030   -0.0088   -0.0190
          48    0.0792   -0.1763    0.0339   -0.0260    0.0185   -0.0046   -0.0149   -0.0341
          49    0.0259   -0.0107    0.0046    0.0052    0.0075   -0.0017   -0.0034    0.0066
          50   -0.0202   -0.0053   -0.0010    0.0053   -0.0144   -0.0050    0.0033   -0.0145
          51   -0.0226   -0.0579   -0.0056    0.0599   -0.0432   -0.0261    0.0012   -0.0659
          52   -0.0147    0.0085    0.0332   -0.0134   -0.0156   -0.0085   -0.0445    0.0039
          53   -0.0119    0.0038    0.0259   -0.0120    0.0026   -0.0491   -0.0716    0.0181
          54    0.0311   -0.0238   -0.0547    0.0649    0.0296    0.2166    0.2136   -0.1026
          55    0.0003    0.0005    0.0010   -0.0033    0.0026   -0.0107   -0.0084   -0.0048
          56   -0.0062    0.0010    0.0121    0.0006   -0.0046    0.0138   -0.0047   -0.0168
          57    0.0165    0.0006   -0.0463   -0.0112    0.0025   -0.0833   -0.0022    0.0816
          58   -0.0014    0.0005    0.0110    0.0053   -0.0029    0.0195   -0.0008    0.0241
          59   -0.0057    0.0005    0.0100    0.0054    0.0007    0.0116   -0.0011    0.0174
          60   -0.0066   -0.0006    0.0224    0.0129   -0.0019    0.0388   -0.0051    0.0325


   Root No.      33        34        35        36        37        38        39        40

                33 A      34 A      35 A      36 A      37 A      38 A      39 A      40 A   

                1289.5    1311.9    1360.0    1385.3    1400.0    1405.9    1412.2    1426.6
  
           1   -0.0005    0.0221    0.0007    0.0162    0.0203    0.0005   -0.0024    0.0142
           2    0.0005    0.0047   -0.0011    0.0142    0.0108    0.0002   -0.0014    0.0061
           3   -0.0171   -0.0117   -0.0143   -0.0204   -0.0312   -0.0011    0.0042   -0.0202
           4    0.0163   -0.0217    0.0159    0.0030    0.0078    0.0003   -0.0016   -0.0066
           5   -0.0025   -0.0014    0.0296    0.0038    0.0188    0.0016   -0.0038    0.0013
           6   -0.0239    0.0127    0.0184    0.0117    0.0115    0.0015   -0.0034    0.0077
           7   -0.0115    0.0019   -0.0107    0.0030   -0.0231    0.0004    0.0046    0.0045
           8   -0.0213   -0.0068   -0.0265    0.0058   -0.0389    0.0014    0.0094   -0.0127
           9   -0.0118   -0.0081   -0.0217   -0.0056    0.0072   -0.0043    0.0031   -0.0444
          10    0.0571   -0.0251   -0.0020   -0.0271   -0.0087   -0.0012    0.0023   -0.0009
          11   -0.0096    0.0031    0.0067   -0.0150   -0.0023   -0.0003    0.0006    0.0018
          12   -0.0164    0.0135    0.0157   -0.0219    0.0037   -0.0003    0.0002    0.0086
          13    0.0037    0.0000    0.0041    0.0013   -0.0012   -0.0357   -0.0123    0.0002
          14    0.0066    0.0009   -0.0044   -0.0076    0.0068    0.0111   -0.0348    0.0212
          15   -0.0006   -0.0012   -0.0180   -0.0140    0.0159   -0.0072    0.0046    0.0492
          16   -0.0093   -0.0085   -0.0044   -0.0135   -0.0156   -0.0003    0.0018   -0.0085
          17   -0.0054   -0.0016   -0.0038   -0.0125   -0.0127   -0.0004    0.0016   -0.0071
          18   -0.0052   -0.0216    0.0053    0.0098    0.0101    0.0009   -0.0026    0.0048
          19    0.0025   -0.0021    0.0023    0.0058    0.0063    0.0003   -0.0010    0.0033
          20    0.0016   -0.0011    0.0010    0.0032    0.0030    0.0001   -0.0003    0.0014
          21    0.0022   -0.0106    0.0062    0.0123    0.0145    0.0007   -0.0024    0.0084
          22   -0.0313    0.0103    0.0021    0.0052   -0.0005    0.0004   -0.0005   -0.0003
          23    0.0099   -0.0020   -0.0038    0.0000   -0.0005   -0.0002    0.0002    0.0012
          24    0.0200   -0.0058   -0.0062   -0.0013   -0.0009   -0.0003    0.0007   -0.0002
          25    0.0046   -0.0400    0.0158   -0.0261   -0.0224    0.0025    0.0019   -0.0094
          26    0.0023   -0.0214    0.0071   -0.0041   -0.0069    0.0014    0.0005   -0.0027
          27    0.0382    0.0160    0.0247    0.0154    0.0373    0.0020   -0.0053    0.0195
          28   -0.0421    0.0496   -0.0234    0.0137   -0.0027   -0.0047    0.0013    0.0142
          29    0.0132    0.0019   -0.0481   -0.0134   -0.0197   -0.0095    0.0055   -0.0070
          30    0.0285   -0.0304   -0.0298   -0.0104   -0.0174   -0.0067    0.0030   -0.0134
          31    0.0085    0.0142    0.0235    0.0113   -0.0303    0.0048    0.0012    0.0495
          32    0.0158    0.0467    0.0046   -0.0466    0.1582   -0.0145   -0.0404   -0.0459
          33    0.0384    0.0103    0.0820    0.0509   -0.1229    0.0230    0.0188    0.1341
          34    0.0061    0.0123   -0.0330   -0.0574    0.1895   -0.0279   -0.0398   -0.1136
          35    0.0415    0.0208    0.0455   -0.0048    0.0562   -0.0022   -0.0210    0.0330
          36    0.0367    0.0102    0.0670    0.0331   -0.0707    0.0138    0.0096    0.0957
          37   -0.1002    0.0576   -0.0217    0.0752    0.0154    0.0023   -0.0041    0.0008
          38    0.0634    0.0061   -0.0868    0.1708    0.0253    0.0032   -0.0065   -0.0095
          39    0.0987   -0.0179   -0.0439    0.0672    0.0120    0.0007   -0.0020   -0.0007
          40   -0.1006    0.0610   -0.0227    0.0842    0.0209    0.0025   -0.0048    0.0035
          41    0.0341   -0.0207    0.0150   -0.0513   -0.0106   -0.0015    0.0028    0.0016
          42    0.1006   -0.0231   -0.1031    0.1543    0.0027    0.0023   -0.0034   -0.0232
          43   -0.0097   -0.0070   -0.0312   -0.0206    0.0555    0.1822    0.2455    0.0389
          44    0.0113    0.0131    0.0559    0.0312   -0.0194    0.2073    0.0751   -0.0961
          45    0.0153    0.0164    0.0682    0.0401   -0.0531    0.0440   -0.0955   -0.0982
          46    0.0069    0.0067    0.0365    0.0232   -0.0250   -0.0591   -0.0099   -0.0541
          47    0.0000    0.0022    0.0344    0.0245    0.0141   -0.1745    0.2917   -0.0302
          48    0.0167    0.0202    0.0832    0.0508   -0.0739   -0.0612   -0.1550   -0.1194
          49   -0.0050    0.0023   -0.0322   -0.0223    0.0073    0.3189   -0.0887    0.0183
          50    0.0120    0.0006    0.0200    0.0081    0.0021   -0.1697    0.0303    0.0034
          51    0.0516    0.0172    0.1098    0.0434    0.0058    0.1144    0.1424   -0.1214
          52   -0.0016   -0.0122   -0.0013   -0.0065   -0.0081    0.0000    0.0006   -0.0053
          53   -0.0020   -0.0186    0.0009   -0.0064   -0.0084    0.0002    0.0004   -0.0055
          54   -0.0345    0.0189   -0.0124   -0.0222   -0.0200   -0.0009    0.0030   -0.0080
          55   -0.0141   -0.0441    0.0072    0.0127    0.0123    0.0007   -0.0028    0.0059
          56   -0.0265   -0.0666    0.0108    0.0162    0.0177    0.0031   -0.0082    0.0090
          57    0.0977    0.2194   -0.0246   -0.0294   -0.0287   -0.0073    0.0175   -0.0123
          58    0.0487    0.1324   -0.0212   -0.0363   -0.0363   -0.0039    0.0106   -0.0172
          59    0.0347    0.0943   -0.0166   -0.0273   -0.0288   -0.0025    0.0076   -0.0141
          60    0.0616    0.1585   -0.0230   -0.0384   -0.0371   -0.0042    0.0118   -0.0163


   Root No.      41        42        43        44        45        46        47        48

                41 A      42 A      43 A      44 A      45 A      46 A      47 A      48 A   

                1450.6    1860.6    2905.8    2944.7    2958.8    3002.4    3039.4    3040.1
  
           1   -0.0493    0.0164    0.0017    0.0245    0.0000    0.0018   -0.0001   -0.0002
           2   -0.0206    0.0167   -0.0053   -0.0543    0.0006   -0.0045    0.0005   -0.0003
           3    0.0577   -0.0406   -0.0003    0.0014    0.0000    0.0002    0.0000   -0.0003
           4    0.0432   -0.0006   -0.0264    0.0033   -0.0021    0.0005   -0.0002    0.0004
           5    0.0420   -0.0023    0.0379   -0.0038    0.0028   -0.0009   -0.0008    0.0003
           6    0.0213    0.0019   -0.0411    0.0033   -0.0030    0.0007    0.0002    0.0000
           7   -0.0164   -0.0005    0.0053   -0.0009   -0.0467    0.0001   -0.0166    0.0006
           8   -0.0346    0.0004   -0.0026    0.0004    0.0246    0.0000   -0.0154    0.0005
           9   -0.0189   -0.0002    0.0016    0.0000   -0.0120    0.0001    0.0303   -0.0010
          10   -0.0226    0.0026    0.0005    0.0004    0.0000   -0.0010    0.0000   -0.0056
          11   -0.0106    0.0013    0.0000    0.0056   -0.0002   -0.0537    0.0000   -0.0022
          12   -0.0355    0.0003    0.0004   -0.0034    0.0001    0.0233    0.0000   -0.0078
          13    0.0011    0.0000   -0.0003    0.0005    0.0027    0.0001    0.0028   -0.0001
          14    0.0092   -0.0001    0.0004   -0.0001   -0.0014    0.0000    0.0038   -0.0001
          15    0.0166    0.0001   -0.0001    0.0000    0.0006    0.0000   -0.0011    0.0000
          16    0.0244    0.0234   -0.0002    0.0002    0.0000   -0.0003   -0.0011   -0.0387
          17    0.0197   -0.0128    0.0000    0.0001    0.0000   -0.0003   -0.0009   -0.0318
          18   -0.0114    0.2409    0.0002    0.0007    0.0000   -0.0006   -0.0006   -0.0198
          19   -0.0089   -0.0463   -0.0002    0.0001    0.0000    0.0000    0.0001    0.0029
          20   -0.0036   -0.0129   -0.0001   -0.0001    0.0000    0.0000    0.0000    0.0026
          21   -0.0233   -0.1999   -0.0001   -0.0002    0.0000    0.0000    0.0000    0.0005
          22    0.0131   -0.0022    0.0001   -0.0006   -0.0001    0.0000   -0.0001    0.0001
          23   -0.0068    0.0010   -0.0003    0.0000    0.0000    0.0005   -0.0002    0.0000
          24   -0.0106    0.0014    0.0005    0.0005    0.0000   -0.0002    0.0000    0.0000
          25    0.0548    0.0033   -0.0259   -0.3033    0.0034   -0.0235    0.0016   -0.0015
          26    0.0232    0.0082    0.0650    0.6603   -0.0040    0.0523   -0.0050    0.0016
          27   -0.0495    0.0155   -0.0019   -0.0174   -0.0002    0.0028    0.0003   -0.0012
          28   -0.0568    0.0070    0.3152   -0.0317    0.0200   -0.0043   -0.0019    0.0004
          29   -0.0564   -0.0001   -0.4634    0.0406   -0.0357    0.0060    0.0036   -0.0005
          30   -0.0051   -0.0011    0.4800   -0.0424    0.0344   -0.0064   -0.0024    0.0004
          31    0.0063   -0.0009   -0.0375    0.0123    0.3793   -0.0004    0.4074   -0.0132
          32    0.0295   -0.0012    0.0062   -0.0014   -0.0361    0.0000   -0.0594    0.0019
          33    0.0228    0.0003    0.0129   -0.0040   -0.1349    0.0002   -0.1153    0.0038
          34    0.0262    0.0000   -0.0253    0.0034    0.1813   -0.0004   -0.2044    0.0064
          35    0.0483    0.0007    0.0290   -0.0022   -0.2597    0.0010    0.2498   -0.0078
          36    0.0282   -0.0003   -0.0358    0.0031    0.2786   -0.0008   -0.2535    0.0079
          37    0.0311   -0.0027    0.0006    0.0168   -0.0002   -0.1315   -0.0002    0.0374
          38    0.0701    0.0042   -0.0012   -0.0253    0.0004    0.1906    0.0002   -0.0650
          39   -0.0004    0.0018    0.0006    0.0345   -0.0006   -0.3108   -0.0003    0.0934
          40    0.0241    0.0025    0.0025   -0.0160    0.0008    0.1422   -0.0002    0.0245
          41   -0.0297    0.0033    0.0083   -0.0474    0.0025    0.4468   -0.0008    0.0896
          42    0.0994   -0.0033    0.0009   -0.0004    0.0001    0.0343    0.0000    0.0024
          43    0.0169    0.0000    0.0026   -0.0007   -0.0110    0.0000    0.0097   -0.0003
          44   -0.0268    0.0001   -0.0016    0.0011    0.0164    0.0001   -0.0098    0.0003
          45   -0.0314   -0.0001    0.0036   -0.0013   -0.0127   -0.0001    0.0109   -0.0003
          46   -0.0175    0.0002    0.0024   -0.0054   -0.0242   -0.0007   -0.0228    0.0005
          47   -0.0061    0.0014    0.0000    0.0010    0.0018    0.0001    0.0047   -0.0001
          48   -0.0408   -0.0006   -0.0005    0.0024    0.0046    0.0003    0.0064   -0.0001
          49    0.0029   -0.0003    0.0005   -0.0001    0.0006    0.0000   -0.0205    0.0006
          50    0.0057    0.0002    0.0013   -0.0007   -0.0002   -0.0001   -0.0380    0.0012
          51   -0.0107    0.0000    0.0002    0.0000    0.0001    0.0000    0.0034   -0.0001
          52    0.0166    0.1006   -0.0018   -0.0012    0.0000    0.0042    0.0129    0.4521
          53    0.0194    0.0929   -0.0017   -0.0032    0.0000    0.0025    0.0108    0.3777
          54    0.0136   -0.0265   -0.0006   -0.0020    0.0000    0.0003    0.0053    0.1882
          55   -0.0150   -0.1168    0.0006   -0.0021    0.0001    0.0006    0.0005    0.0052
          56   -0.0227   -0.1077    0.0012   -0.0008    0.0001    0.0005    0.0004    0.0040
          57    0.0265    0.0277    0.0011   -0.0005    0.0001    0.0004    0.0003    0.0040
          58    0.0416    0.1003    0.0000    0.0016   -0.0001   -0.0002   -0.0008   -0.0296
          59    0.0355    0.0981   -0.0003    0.0003    0.0000   -0.0003   -0.0009   -0.0321
          60    0.0375   -0.0657    0.0002   -0.0014    0.0001    0.0003    0.0010    0.0393


   Root No.      49        50        51        52        53        54

                49 A      50 A      51 A      52 A      53 A      54 A   

                3043.7    3070.7    3084.6    3117.4    3147.8    3176.9
  
           1   -0.0003    0.0002    0.0000    0.0000    0.0001    0.0000
           2    0.0001   -0.0003    0.0000   -0.0001   -0.0002    0.0001
           3   -0.0005    0.0000    0.0000   -0.0005    0.0006    0.0000
           4    0.0009    0.0000    0.0001    0.0002    0.0000    0.0001
           5    0.0002    0.0000    0.0002   -0.0001    0.0000    0.0000
           6    0.0010    0.0001    0.0003    0.0001    0.0001    0.0001
           7   -0.0001   -0.0030   -0.0010   -0.0001    0.0000   -0.0001
           8   -0.0002    0.0011   -0.0015   -0.0001    0.0000   -0.0003
           9    0.0003    0.0000    0.0026    0.0001    0.0000   -0.0003
          10   -0.0204    0.0000    0.0000    0.0001    0.0000    0.0000
          11   -0.0095    0.0000    0.0000    0.0001    0.0000    0.0000
          12   -0.0289    0.0000    0.0000   -0.0001   -0.0001    0.0000
          13    0.0000   -0.0489   -0.0170   -0.0015    0.0000   -0.0025
          14    0.0001    0.0178   -0.0389   -0.0028   -0.0001   -0.0122
          15    0.0000   -0.0077    0.0189    0.0002    0.0000   -0.0211
          16    0.0081    0.0000    0.0000    0.0013    0.0059    0.0000
          17    0.0067    0.0000    0.0000    0.0004    0.0042    0.0000
          18    0.0042    0.0000   -0.0002    0.0061    0.0079   -0.0001
          19   -0.0006    0.0002    0.0012   -0.0515    0.0295    0.0008
          20   -0.0006    0.0001    0.0010   -0.0421    0.0342    0.0007
          21   -0.0001    0.0001    0.0007   -0.0281   -0.0542    0.0005
          22    0.0003    0.0000    0.0000    0.0000    0.0000    0.0000
          23    0.0000    0.0000    0.0000    0.0000    0.0000    0.0000
          24    0.0001    0.0000    0.0000    0.0000    0.0000    0.0000
          25    0.0014   -0.0014   -0.0003   -0.0007   -0.0005    0.0005
          26   -0.0038    0.0038    0.0007    0.0018    0.0012   -0.0013
          27   -0.0003    0.0003    0.0002   -0.0001    0.0005   -0.0002
          28   -0.0017   -0.0010    0.0002   -0.0006   -0.0004   -0.0007
          29    0.0026    0.0002    0.0008    0.0011    0.0004    0.0005
          30   -0.0024   -0.0013    0.0004   -0.0018   -0.0003   -0.0011
          31    0.0029    0.0294    0.0289    0.0016    0.0001    0.0033
          32   -0.0005   -0.0045   -0.0057   -0.0005    0.0000   -0.0009
          33   -0.0008   -0.0133   -0.0090   -0.0006    0.0000   -0.0019
          34   -0.0018    0.0051   -0.0176   -0.0008   -0.0001   -0.0015
          35    0.0023   -0.0078    0.0196    0.0009    0.0001    0.0014
          36   -0.0023    0.0129   -0.0233   -0.0012   -0.0001   -0.0028
          37    0.1335   -0.0001    0.0001    0.0001    0.0001    0.0000
          38   -0.2341    0.0002   -0.0001   -0.0002   -0.0002    0.0000
          39    0.3334   -0.0004    0.0001    0.0004    0.0003    0.0000
          40    0.0983    0.0000    0.0001   -0.0003    0.0001    0.0000
          41    0.3452    0.0000    0.0003   -0.0010    0.0002    0.0000
          42    0.0057    0.0000    0.0000    0.0000   -0.0002    0.0000
          43    0.0003    0.1521   -0.1480   -0.0017   -0.0001    0.1442
          44   -0.0003   -0.2204    0.1601    0.0007    0.0000   -0.1931
          45    0.0003    0.2456   -0.1858   -0.0021    0.0000    0.1946
          46    0.0000    0.4299    0.1648    0.0014   -0.0002   -0.2780
          47    0.0000   -0.0567   -0.0452   -0.0024   -0.0001    0.0349
          48    0.0000   -0.1496   -0.0455   -0.0005    0.0001    0.0789
          49   -0.0003    0.0033    0.1861    0.0184    0.0004    0.1635
          50   -0.0005    0.0635    0.3491    0.0348    0.0008    0.3067
          51    0.0000   -0.0049    0.0039   -0.0005    0.0000   -0.0143
          52   -0.0952    0.0002    0.0001   -0.0019   -0.0511    0.0000
          53   -0.0799    0.0001    0.0001   -0.0021   -0.0422    0.0000
          54   -0.0405    0.0001   -0.0001    0.0030   -0.0253   -0.0001
          55   -0.0010   -0.0022   -0.0146    0.6103    0.0157   -0.0102
          56   -0.0007   -0.0013   -0.0121    0.5071    0.0155   -0.0085
          57   -0.0008   -0.0009   -0.0068    0.2779   -0.0107   -0.0045
          58    0.0064    0.0000    0.0005   -0.0116   -0.3862    0.0004
          59    0.0070    0.0000    0.0004   -0.0087   -0.4291    0.0004
          60   -0.0085    0.0001   -0.0001   -0.0111    0.5796   -0.0001


           MASS-WEIGHTED COORDINATE ANALYSIS (NORMAL COORDINATES)


   Root No.       1         2         3         4         5         6         7         8

                 1 A       2 A       3 A       4 A       5 A       6 A       7 A       8 A   

                  71.1      77.2     116.8     183.7     211.3     264.4     327.1     432.4
  
           1   -0.0638    0.0920    0.0439   -0.1176    0.1197    0.2631   -0.0373    0.2055
           2   -0.1209   -0.1002    0.0560   -0.0102   -0.0860    0.0244    0.3511    0.0911
           3   -0.0351    0.0667    0.1669   -0.0319    0.1211    0.1302   -0.0568   -0.0323
           4   -0.0618    0.0933    0.0506   -0.1177    0.1300    0.2469   -0.0313    0.1708
           5    0.1070   -0.1119   -0.0375    0.0885    0.0368   -0.0530    0.3074   -0.1748
           6   -0.0084   -0.1085    0.1269    0.0663   -0.0903   -0.1002   -0.1257   -0.1138
           7   -0.2355    0.1078    0.1000   -0.0474    0.2010   -0.2531    0.2343   -0.1440
           8    0.1946   -0.1203   -0.0524    0.0535    0.0073    0.2034    0.1731    0.0330
           9   -0.0520    0.0585   -0.1303   -0.0056   -0.0336   -0.2356   -0.1286    0.3102
          10    0.0614   -0.0701   -0.0332    0.0074    0.0014    0.0615   -0.1095   -0.2061
          11   -0.1432    0.1185    0.3570   -0.0193   -0.2688    0.1609   -0.1658   -0.0960
          12   -0.0136   -0.0536    0.0098   -0.0164    0.1962    0.0403    0.1924    0.0769
          13    0.4554   -0.2294    0.1301    0.1794    0.0902   -0.1751   -0.0792    0.0832
          14   -0.1253   -0.1069    0.2703    0.1129    0.1156   -0.2413   -0.2001    0.3511
          15    0.0982    0.0481   -0.2802   -0.0290   -0.0911   -0.0315    0.0519    0.2452
          16    0.0284    0.2754    0.0436    0.0013   -0.1362    0.0248    0.2306    0.1277
          17   -0.1877   -0.2372   -0.2541   -0.1416    0.0605    0.1731    0.0398    0.0681
          18   -0.0251    0.0843   -0.0537   -0.0463    0.0661    0.0759   -0.1122   -0.1675
          19   -0.2792   -0.1594   -0.3097    0.0449   -0.3655   -0.1632   -0.0603   -0.0043
          20    0.1905    0.3986   -0.2654   -0.0745   -0.2184   -0.0563   -0.1298   -0.0015
          21    0.0212    0.1438    0.0331   -0.0618    0.1382    0.1390   -0.0376   -0.1448
          22    0.0569   -0.0714   -0.0268   -0.0006   -0.0193    0.1019   -0.1246   -0.2035
          23    0.0881    0.1411   -0.1353   -0.0125    0.3954   -0.2389   -0.2127   -0.3359
          24    0.0068   -0.2571    0.1884    0.1336   -0.2899   -0.0150    0.1521   -0.2060
          25   -0.0611    0.0287    0.0246   -0.0621    0.0433    0.1119   -0.0420    0.1240
          26   -0.0546   -0.0260    0.0237   -0.0168   -0.0210    0.0275    0.0813    0.0561
          27   -0.0222    0.0750    0.1315   -0.0092   -0.0012    0.0676   -0.0535    0.0057
          28    0.0064    0.0450    0.0176   -0.0468    0.0686    0.1433   -0.0439    0.0803
          29    0.0546   -0.0702    0.0101    0.0385   -0.0251    0.0257    0.1187   -0.0772
          30    0.0041   -0.0778    0.0520    0.0407   -0.0785   -0.0398    0.0171   -0.0808
          31   -0.1200    0.0563    0.0276   -0.0261    0.0693   -0.0950    0.0857   -0.0470
          32    0.1182   -0.0406   -0.0469   -0.0240   -0.0278    0.2162    0.0076    0.1064
          33   -0.1870    0.0923   -0.0324   -0.0282    0.0298   -0.1748    0.0318    0.0472
          34   -0.2065    0.0866    0.0343   -0.0094    0.1003   -0.2276    0.1497   -0.1217
          35    0.0880   -0.0338   -0.0574    0.0256   -0.0003    0.0458    0.1000   -0.0037
          36    0.1078   -0.0194   -0.0814    0.0058   -0.0405    0.0230   -0.0418    0.1284
          37   -0.0030   -0.0524    0.0652    0.0244   -0.1479    0.0492   -0.0410   -0.0969
          38   -0.0658    0.0732    0.2070   -0.0066   -0.1858    0.1161   -0.1617   -0.0673
          39   -0.0106    0.0240    0.0364   -0.0154    0.0538    0.0422   -0.0126    0.0133
          40    0.0640   -0.0190   -0.1013    0.0058    0.1252   -0.0594   -0.0345   -0.1126
          41   -0.0575    0.0358    0.1400   -0.0062   -0.1271    0.0761   -0.0574   -0.0178
          42    0.0028   -0.0526   -0.0913   -0.0140    0.1575   -0.0310    0.1911    0.1030
          43    0.2961   -0.1858    0.1205   -0.3798   -0.0490   -0.1684   -0.0383    0.0444
          44   -0.0541   -0.0639    0.1695   -0.2032    0.0203   -0.2144   -0.1055    0.1568
          45   -0.0995    0.0667   -0.0589    0.0821    0.0132   -0.0530   -0.0145    0.1024
          46    0.1834   -0.0914    0.0396    0.0705    0.0175   -0.0464   -0.0523    0.0538
[...]
 T-DIPOLE    0.3459        C  4 --  H 13          +15.3% ( 54.7%)     0.8%
 TRAVEL      0.0865        C  4 --  H 14          +14.8% ( 53.9%)     0.4%
 RED. MASS   1.2242        C  2 --  C  4           +9.7% ( 43.6%)    52.3%
 EFF. MASS   6.9930

 VIBRATION   34   34A       ATOM PAIR        ENERGY CONTRIBUTION    RADIAL
 FREQ.      1311.92        C  7 --  H 19          +19.7% ( 50.6%)     0.6%
 T-DIPOLE    0.2103        C  7 --  H 20          +18.4% ( 49.0%)     0.7%
 TRAVEL      0.1267        C  1 --  C  2           +6.2% ( 28.4%)    75.2%
 RED. MASS   0.3397        C  1 --  C  4           +6.1% ( 28.1%)    22.7%
 EFF. MASS   3.2004

 VIBRATION   35   35A       ATOM PAIR        ENERGY CONTRIBUTION    RADIAL
 FREQ.      1360.04        C  2 --  C  3          +14.1% ( 49.1%)    70.6%
 T-DIPOLE    0.2799        C  3 --  H 12           +8.5% ( 38.1%)     0.3%
 TRAVEL      0.1030        C  2 --  H 10           +8.4% ( 37.8%)     0.0%
 RED. MASS   0.5319        C  3 --  H 11           +8.3% ( 37.6%)     0.0%
 EFF. MASS   4.6695

 VIBRATION   36   36A       ATOM PAIR        ENERGY CONTRIBUTION    RADIAL
 FREQ.      1385.34        C  4 --  H 13          +19.5% ( 54.9%)     3.3%
 T-DIPOLE    0.1973        C  4 --  H 14          +17.0% ( 51.2%)     5.8%
 TRAVEL      0.1096        C  1 --  C  4           +9.0% ( 37.3%)     4.3%
 RED. MASS   0.4204        C  1 --  C  6           +7.7% ( 34.4%)    96.8%
 EFF. MASS   4.0487

 VIBRATION   37   37A       ATOM PAIR        ENERGY CONTRIBUTION    RADIAL
 FREQ.      1399.99        C  3 --  H 12          +17.7% ( 53.3%)     3.1%
 T-DIPOLE    0.0754        C  3 --  H 11          +16.4% ( 51.4%)     3.8%
 TRAVEL      0.1000        C  2 --  C  3           +9.0% ( 38.0%)    99.5%
 RED. MASS   0.5616        C  1 --  C  6           +8.8% ( 37.5%)    96.0%
 EFF. MASS   4.8127

 VIBRATION   38   38A       ATOM PAIR        ENERGY CONTRIBUTION    RADIAL
 FREQ.      1405.87        C  5 --  H 17          +51.3% ( 61.8%)     0.2%
 T-DIPOLE    0.0510        C  5 --  H 15          +28.4% ( 46.0%)     5.9%
 TRAVEL      0.1763        C  5 --  H 16          +14.3% ( 32.6%)    20.7%
 RED. MASS   0.4102        C  3 --  C  5           +4.9% ( 19.1%)     0.2%
 EFF. MASS   1.5431

 VIBRATION   39   39A       ATOM PAIR        ENERGY CONTRIBUTION    RADIAL
 FREQ.      1412.21        C  5 --  H 16          +44.8% ( 59.4%)     0.3%
 T-DIPOLE    0.0581        C  5 --  H 15          +31.1% ( 49.5%)     2.5%
 TRAVEL      0.1664        C  5 --  H 17          +12.6% ( 31.6%)    31.5%
 RED. MASS   0.3886        C  3 --  C  5           +6.3% ( 22.2%)    11.8%
 EFF. MASS   1.7238

 VIBRATION   40   40A       ATOM PAIR        ENERGY CONTRIBUTION    RADIAL
 FREQ.      1426.59        C  3 --  C  5          +18.1% ( 54.6%)    99.4%
 T-DIPOLE    0.1317        C  5 --  H 15          +13.3% ( 46.8%)     3.9%
 TRAVEL      0.0943        C  5 --  H 16          +12.7% ( 45.7%)     3.4%
 RED. MASS   0.8148        C  5 --  H 17          +11.8% ( 44.0%)     3.6%
 EFF. MASS   5.3101        C  3 --  H 12          +11.6% ( 43.6%)     4.1%
                           C  3 --  H 11          +11.4% ( 43.3%)     4.4%

 VIBRATION   41   41A       ATOM PAIR        ENERGY CONTRIBUTION    RADIAL
 FREQ.      1450.60        C  1 --  C  2          +13.0% ( 61.3%)    62.0%
 T-DIPOLE    0.2788        C  1 --  C  6          +10.9% ( 56.2%)    92.0%
 TRAVEL      0.0683        C  1 --  C  4          +10.4% ( 55.0%)    68.7%
 RED. MASS   1.8551        C  1 --  H  9           +8.5% ( 49.6%)     0.0%
 EFF. MASS   9.9511

 VIBRATION   42   42A       ATOM PAIR        ENERGY CONTRIBUTION    RADIAL
 FREQ.      1860.60        C  6 --  C  7          +44.7% ( 99.0%)    98.7%
 T-DIPOLE    0.2062        C  1 --  C  6          +17.1% ( 61.2%)    57.2%
 TRAVEL      0.0554        C  6 --  H 18          +15.4% ( 58.1%)     3.7%
 RED. MASS   5.2903        C  7 --  H 19          +10.7% ( 48.5%)    10.4%
 EFF. MASS  11.8242        C  7 --  H 20          +10.5% ( 47.9%)    12.8%

 VIBRATION   43   43A       ATOM PAIR        ENERGY CONTRIBUTION    RADIAL
 FREQ.      2905.77        C  2 --  H 10          +93.9% ( 99.2%)   100.0%
 T-DIPOLE    0.0411        C  1 --  C  2           +1.1% ( 10.8%)    18.2%
 TRAVEL      0.1259        C  2 --  C  3           +1.1% ( 10.8%)    11.0%
 RED. MASS   0.8986        C  2 --  O  8           +1.1% ( 10.7%)    11.4%
 EFF. MASS   1.4634

 VIBRATION   44   44A       ATOM PAIR        ENERGY CONTRIBUTION    RADIAL
 FREQ.      2944.72        C  1 --  H  9          +94.2% ( 99.1%)   100.0%
 T-DIPOLE    0.1976        C  1 --  C  4           +1.0% ( 10.4%)    14.0%
 TRAVEL      0.1261        C  1 --  O  8           +1.0% ( 10.2%)    31.9%
 RED. MASS   0.8974        C  1 --  C  6           +1.0% ( 10.2%)     9.4%
 EFF. MASS   1.4408

 VIBRATION   45   45A       ATOM PAIR        ENERGY CONTRIBUTION    RADIAL
 FREQ.      2958.78        C  3 --  H 12          +50.2% ( 73.6%)    96.8%
 T-DIPOLE    0.0894        C  3 --  H 11          +46.4% ( 70.7%)    96.3%
 TRAVEL      0.1216        C  3 --  C  5           +1.2% ( 11.2%)     0.0%
 RED. MASS   0.5069        C  2 --  C  3           +1.1% ( 11.0%)     0.0%
 EFF. MASS   1.5403

 VIBRATION   46   46A       ATOM PAIR        ENERGY CONTRIBUTION    RADIAL
 FREQ.      3002.45        C  4 --  H 14          +56.2% ( 78.1%)    97.5%
 T-DIPOLE    0.0218        C  4 --  H 13          +39.4% ( 65.4%)    95.3%
 TRAVEL      0.1194        C  4 --  O  8           +1.2% ( 11.4%)     0.2%
 RED. MASS   0.5322        C  2 --  C  4           +1.2% ( 11.4%)     0.4%
 EFF. MASS   1.5753

 VIBRATION   47   47A       ATOM PAIR        ENERGY CONTRIBUTION    RADIAL
 FREQ.      3039.39        C  3 --  H 11          +51.0% ( 70.4%)    97.9%
 T-DIPOLE    0.1004        C  3 --  H 12          +46.7% ( 67.4%)    97.4%
 TRAVEL      0.1319        C  3 --  C  5           +0.6% (  7.8%)    26.0%
 RED. MASS   0.4760        C  5 --  H 17           +0.6% (  7.7%)    98.0%
 EFF. MASS   1.2761

 VIBRATION   48   48A       ATOM PAIR        ENERGY CONTRIBUTION    RADIAL
 FREQ.      3040.11        C  6 --  H 18          +91.2% ( 96.8%)   100.0%
 T-DIPOLE    0.2696        C  4 --  H 13           +3.2% ( 18.2%)    98.3%
 TRAVEL      0.1219        C  4 --  H 14           +1.9% ( 14.0%)    94.5%
 RED. MASS   0.8176        C  6 --  C  7           +1.4% ( 11.8%)    31.1%
 EFF. MASS   1.4935

 VIBRATION   49   49A       ATOM PAIR        ENERGY CONTRIBUTION    RADIAL
 FREQ.      3043.74        C  4 --  H 13          +54.6% ( 73.7%)    98.0%
 T-DIPOLE    0.0362        C  4 --  H 14          +37.6% ( 61.1%)    95.4%
 TRAVEL      0.1302        C  6 --  H 18           +5.4% ( 23.1%)   100.0%
 RED. MASS   0.4486        C  2 --  C  4           +0.7% (  8.5%)    96.3%
 EFF. MASS   1.3068

 VIBRATION   50   50A       ATOM PAIR        ENERGY CONTRIBUTION    RADIAL
 FREQ.      3070.72        C  5 --  H 16          +59.0% ( 79.3%)    98.2%
 T-DIPOLE    0.0136        C  5 --  H 15          +37.7% ( 63.4%)    95.1%
 TRAVEL      0.1210        C  5 --  H 17           +1.9% ( 14.2%)    22.1%
 RED. MASS   0.5186        C  3 --  C  5           +1.0% ( 10.2%)     0.0%
 EFF. MASS   1.5006

 VIBRATION   51   51A       ATOM PAIR        ENERGY CONTRIBUTION    RADIAL
 FREQ.      3084.58        C  5 --  H 17          +57.0% ( 77.8%)    98.5%
 T-DIPOLE    0.0214        C  5 --  H 15          +29.5% ( 56.0%)    92.2%
 TRAVEL      0.1206        C  5 --  H 16          +11.6% ( 35.1%)    76.7%
 RED. MASS   0.4544        C  3 --  C  5           +1.0% ( 10.3%)     0.0%
 EFF. MASS   1.5025

 VIBRATION   52   52A       ATOM PAIR        ENERGY CONTRIBUTION    RADIAL
 FREQ.      3117.41        C  7 --  H 19          +97.1% ( 99.8%)   100.0%
 T-DIPOLE    0.2394        C  6 --  C  7           +1.4% ( 12.0%)    41.6%
 TRAVEL      0.1202        C  7 --  H 20           +1.2% ( 11.2%)    14.5%
 RED. MASS   0.9240        C  5 --  H 17           +0.2% (  4.6%)    99.9%
 EFF. MASS   1.4977

 VIBRATION   53   53A       ATOM PAIR        ENERGY CONTRIBUTION    RADIAL
 FREQ.      3147.82        C  7 --  H 20          +96.5% ( 99.5%)   100.0%
 T-DIPOLE    0.2566        C  6 --  C  7           +1.5% ( 12.5%)    51.3%
 TRAVEL      0.1191        C  7 --  H 19           +1.2% ( 11.2%)     8.7%
 RED. MASS   0.9125        C  6 --  H 18           +0.8% (  8.8%)    95.6%
 EFF. MASS   1.5103

 VIBRATION   54   54A       ATOM PAIR        ENERGY CONTRIBUTION    RADIAL
 FREQ.      3176.91        C  5 --  H 17          +40.6% ( 61.3%)    98.0%
 T-DIPOLE    0.0233        C  5 --  H 15          +31.5% ( 54.0%)    96.7%
 TRAVEL      0.1365        C  5 --  H 16          +27.5% ( 50.5%)    95.9%
 RED. MASS   0.3338        C  3 --  C  5           +0.3% (  5.2%)    97.8%
 EFF. MASS   1.1389

 SYMMETRY NUMBER FOR POINT-GROUP C1  =  1


          SYSTEM IS A GROUND STATE


    NULL



          MOLECULE IS NOT LINEAR

          THERE ARE 54 GENUINE VIBRATIONS IN THIS SYSTEM
          THIS THERMODYNAMICS CALCULATION IS LIMITED TO
          MOLECULES WHICH HAVE NO INTERNAL ROTATIONS




                    CALCULATED THERMODYNAMIC PROPERTIES
                                          *
   TEMP. (K)   PARTITION FUNCTION   H.O.F.    ENTHALPY  HEAT CAPACITY ENTROPY
                                   KCAL/MOL   CAL/MOLE    CAL/K/MOL  CAL/K/MOL


 298.00  VIB.     0.2098D+03                  3744.8048    26.3602    23.1899
         ROT.     0.3756D+06                   888.2813     2.9808    28.4892
         INT.     0.7878D+08                  4633.0861    29.3410    51.6791
         TRA.     0.1149D+28                  1480.4688     4.9680    40.0581
         TOT.                      -20.893    6113.5549    34.3090    91.7372

 200.00  VIB.     0.2681D+02                  1660.9227    16.5590    14.8400
         ROT.     0.2065D+06                   596.1620     2.9808    27.3005
         INT.     0.5536D+07                  2257.0847    19.5398    42.1404
         TRA.     0.6315D+27                   993.6033     4.9680    38.0770
         TOT.                      -23.756    3250.6879    24.5078    80.2174

 210.00  VIB.     0.3304D+02                  1830.8825    17.4382    15.6690
         ROT.     0.2222D+06                   625.9700     2.9808    27.4459
         INT.     0.7341D+07                  2456.8525    20.4191    43.1149
         TRA.     0.6794D+27                  1043.2834     4.9680    38.3194
         TOT.                      -23.507    3500.1359    25.3871    81.4343

 220.00  VIB.     0.4071D+02                  2009.7943    18.3495    16.5012
         ROT.     0.2383D+06                   655.7781     2.9808    27.5846
         INT.     0.9700D+07                  2665.5725    21.3303    44.0857
         TRA.     0.7285D+27                  1092.9636     4.9680    38.5505
         TOT.                      -23.249    3758.5361    26.2983    82.6362

 230.00  VIB.     0.5018D+02                  2197.9767    19.2922    17.3375
         ROT.     0.2547D+06                   685.5862     2.9808    27.7171
         INT.     0.1278D+08                  2883.5630    22.2730    45.0546
         TRA.     0.7788D+27                  1142.6437     4.9680    38.7713
         TOT.                      -22.981    4026.2067    27.2410    83.8259

 240.00  VIB.     0.6185D+02                  2395.7380    20.2649    18.1790
         ROT.     0.2715D+06                   715.3943     2.9808    27.8439
         INT.     0.1679D+08                  3111.1323    23.2457    46.0230
         TRA.     0.8301D+27                  1192.3239     4.9680    38.9828
         TOT.                      -22.704    4303.4562    28.2138    85.0058

 250.00  VIB.     0.7627D+02                  2603.3683    21.2656    19.0265
         ROT.     0.2886D+06                   745.2024     2.9808    27.9656
         INT.     0.2201D+08                  3348.5707    24.2464    46.9921
         TRA.     0.8825D+27                  1242.0041     4.9680    39.1856
         TOT.                      -22.416    4590.5748    29.2144    86.1777

 260.00  VIB.     0.9407D+02                  2821.1329    22.2913    19.8804
         ROT.     0.3061D+06                   775.0105     2.9808    28.0825
         INT.     0.2879D+08                  3596.1434    25.2721    47.9630
         TRA.     0.9360D+27                  1291.6842     4.9680    39.3804
         TOT.                      -22.119    4887.8276    30.2401    87.3434

 270.00  VIB.     0.1161D+03                  3049.2672    23.3390    20.7413
         ROT.     0.3239D+06                   804.8186     2.9808    28.1950
         INT.     0.3760D+08                  3854.0858    26.3198    48.9363
         TRA.     0.9905D+27                  1341.3644     4.9680    39.5679
         TOT.                      -21.812    5195.4502    31.2878    88.5043

 280.00  VIB.     0.1433D+03                  3287.9742    24.4052    21.6093
         ROT.     0.3421D+06                   834.6267     2.9808    28.3034
         INT.     0.4903D+08                  4122.6009    27.3860    49.9127
         TRA.     0.1046D+28                  1391.0445     4.9680    39.7486
         TOT.                      -21.493    5513.6455    32.3541    89.6613

 290.00  VIB.     0.1770D+03                  3537.4221    25.4866    22.4845
         ROT.     0.3606D+06                   864.4348     2.9808    28.4080
         INT.     0.6384D+08                  4401.8570    28.4674    50.8926
         TRA.     0.1103D+28                  1440.7247     4.9680    39.9229
         TOT.                      -21.164    5842.5817    33.4354    90.8155

 300.00  VIB.     0.2188D+03                  3797.7444    26.5795    23.3670
         ROT.     0.3794D+06                   894.2429     2.9808    28.5091
         INT.     0.8303D+08                  4691.9874    29.5603    51.8761
         TRA.     0.1160D+28                  1490.4049     4.9680    40.0914
         TOT.                      -20.825    6182.3922    34.5283    91.9674

 310.00  VIB.     0.2707D+03                  4069.0398    27.6806    24.2564
         ROT.     0.3985D+06                   924.0510     2.9808    28.6068
         INT.     0.1079D+09                  4993.0909    30.6615    52.8633
         TRA.     0.1219D+28                  1540.0850     4.9680    40.2543
         TOT.                      -20.474    6533.1759    35.6295    93.1175

 320.00  VIB.     0.3351D+03                  4351.3737    28.7867    25.1527
         ROT.     0.4180D+06                   953.8591     2.9808    28.7015
         INT.     0.1401D+09                  5305.2328    31.7675    53.8542
         TRA.     0.1278D+28                  1589.7652     4.9680    40.4120
         TOT.                      -20.112    6894.9980    36.7355    94.2662

 330.00  VIB.     0.4152D+03                  4644.7797    29.8946    26.0555
         ROT.     0.4377D+06                   983.6672     2.9808    28.7932
         INT.     0.1817D+09                  5628.4469    32.8754    54.8487
         TRA.     0.1338D+28                  1639.4454     4.9680    40.5649
         TOT.                      -19.739    7267.8923    37.8434    95.4136

 340.00  VIB.     0.5148D+03                  4949.2619    31.0015    26.9644
         ROT.     0.4577D+06                  1013.4753     2.9808    28.8822
         INT.     0.2357D+09                  5962.7372    33.9823    55.8466
         TRA.     0.1400D+28                  1689.1255     4.9680    40.7132
         TOT.                      -19.355    7651.8628    38.9503    96.5597

 350.00  VIB.     0.6388D+03                  5264.7972    32.1048    27.8790
         ROT.     0.4781D+06                  1043.2834     2.9808    28.9686
         INT.     0.3054D+09                  6308.0806    35.0856    56.8475
         TRA.     0.1462D+28                  1738.8057     4.9680    40.8572
         TOT.                      -18.960    8046.8863    40.0536    97.7047

 360.00  VIB.     0.7934D+03                  5591.3377    33.2022    28.7988
         ROT.     0.4987D+06                  1073.0915     2.9808    29.0526
         INT.     0.3957D+09                  6664.4292    36.1830    57.8513
         TRA.     0.1525D+28                  1788.4859     4.9680    40.9971
         TOT.                      -18.554    8452.9151    41.1510    98.8485

 370.00  VIB.     0.9862D+03                  5928.8136    34.2915    29.7234
         ROT.     0.5196D+06                  1102.8996     2.9808    29.1342
         INT.     0.5125D+09                  7031.7132    37.2723    58.8576
         TRA.     0.1589D+28                  1838.1660     4.9680    41.1333
         TOT.                      -18.137    8869.8792    42.2403    99.9909

 380.00  VIB.     0.1227D+04                  6277.1353    35.3710    30.6522
         ROT.     0.5409D+06                  1132.7077     2.9808    29.2137
         INT.     0.6635D+09                  7409.8430    38.3519    59.8659
         TRA.     0.1654D+28                  1887.8462     4.9680    41.2658
         TOT.                      -17.709    9297.6892    43.3199   101.1317

 390.00  VIB.     0.1527D+04                  6636.1965    36.4392    31.5848
         ROT.     0.5623D+06                  1162.5158     2.9808    29.2912
         INT.     0.8590D+09                  7798.7123    39.4200    60.8760
         TRA.     0.1720D+28                  1937.5263     4.9680    41.3948
         TOT.                      -17.271    9736.2386    44.3880   102.2708

 400.00  VIB.     0.1903D+04                  7005.8758    37.4945    32.5207
         ROT.     0.5841D+06                  1192.3239     2.9808    29.3666
         INT.     0.1112D+10                  8198.1997    40.4753    61.8873
         TRA.     0.1786D+28                  1987.2065     4.9680    41.5206
         TOT.                      -16.822   10185.4062    45.4433   103.4079

   *: NOTE: HEATS OF FORMATION ARE RELATIVE TO THE
            ELEMENTS IN THEIR STANDARD STATE AT 298K
              (=  Standard Enthalpy of Formation).

            Hvib:  Zero-point energy is not included.
                   frequencies of less than zero cm-1 are not included.
            Hrot = (3/2)RT
            Htra = (3/2)RT + pV = (5/2)RT

            Heat capacity is Cp, not Cv

           For more information, see: HTTP://OpenMOPAC.net/Manual/thermochemistry.html


           FORCE CONSTANT IN CARTESIAN COORDINATES (Millidynes/A)

    ATOM   CHEMICAL       X               Y               Z
   NUMBER   SYMBOL  FORCE CONSTANT  FORCE CONSTANT  FORCE CONSTANT

      1       C        7.947174        8.542377        8.676503
      2       C        8.032201        8.249543        8.241881
      3       C        8.255910        8.213684        8.564732
      4       C        7.821497        8.499388        8.589715
      5       C        8.213908        8.421476        8.240148
      6       C        6.618175        5.526249       15.153154
      7       C        6.226645        5.171988       15.044972
      8       O        6.322367        2.098820        4.963872
      9       H        1.387643        4.071448        0.679218
     10       H        1.424132        2.266852        2.323253
     11       H        4.541712        0.763036        1.096409
     12       H        1.617936        2.327750        2.471677
     13       H        1.075006        1.886389        3.394143
     14       H        0.990450        4.642357        0.714036
     15       H        1.675561        2.371374        2.715708
     16       H        4.822204        0.772194        1.145982
     17       H        1.695213        4.377414        0.721499
     18       H        2.890344        2.141956        1.162970
     19       H        2.989962        2.192928        1.209718
     20       H        1.587741        1.799351        3.084693



 TOTAL CPU TIME:             2.08 SECONDS

 == MOPAC DONE ==
