 *******************************************************************************
 ** Site#: 14399           For non-commercial use only        Version 13.159M **
 *******************************************************************************
 ** Cite this work as: MOPAC2012, James J. P. Stewart, Stewart Computational  **
 ** Chemistry, Version 13.159M web: HTTP://OpenMOPAC.net  Days remaining:   6 **
 *******************************************************************************
 **                                                                           **
 **                                MOPAC2012                                  **
 **                                                                           **
 *******************************************************************************

                            PM3 CALCULATION RESULTS


 *******************************************************************************
 *  CALCULATION DONE:                                Mon Jun  2 11:13:19 2014  *
 *  PM3      - The PM3 Hamiltonian to be used
 *  PRECISE  - CRITERIA TO BE INCREASED BY 100 TIMES
 *  NOSYM    - POINT-GROUP SYMMETRY SET TO C1
 *  T=       - A TIME OF 172800.0 SECONDS REQUESTED
 *  DUMP=N   - RESTART FILE WRITTEN EVERY  7200.000 SECONDS
 *******************************************************************************
pm3  precise nosym
 InChI=1S/C10H14/c1-3-6-9(2)10-7-4-5-8-10/h3-10H,1-2H3

   ATOM   CHEMICAL          X               Y               Z
  NUMBER   SYMBOL      (ANGSTROMS)     (ANGSTROMS)     (ANGSTROMS)
 
     1       C         -0.02720000  *   0.62820000  *   0.45280000  *
     2       C         -1.13500000  *   0.28800000  *  -0.56670000  *
     3       C         -0.04110000  *   2.10430000  *   0.86440000  *
     4       C          3.49250000  *  -0.90150000  *  -0.16710000  *
     5       C          1.33350000  *   0.30660000  *  -0.11860000  *
     6       C         -2.52540000  *   0.46380000  *  -0.02680000  *
     7       C         -1.18300000  *  -1.17400000  *  -0.90900000  *
     8       C          2.15400000  *  -0.59910000  *   0.43010000  *
     9       C         -3.19900000  *  -0.67340000  *  -0.04230000  *
    10       C         -2.35160000  *  -1.70720000  *  -0.59780000  *
    11       H         -0.21070000  *   0.03620000  *   1.38290000  *
    12       H         -1.01990000  *   0.88660000  *  -1.50080000  *
    13       H         -0.98310000  *   2.36920000  *   1.39500000  *
    14       H          0.78870000  *   2.32590000  *   1.57490000  *
    15       H          0.06400000  *   2.77650000  *  -0.01840000  *
    16       H          4.01350000  *  -1.67860000  *   0.43630000  *
    17       H          4.12520000  *   0.01490000  *  -0.18070000  *
    18       H          3.37440000  *  -1.28480000  *  -1.20600000  *
    19       H         -2.94910000  *   1.40150000  *   0.31770000  *
    20       H         -0.37080000  *  -1.73370000  *  -1.36230000  *
    21       H          1.64640000  *   0.83390000  *  -1.02070000  *
    22       H          1.85630000  *  -1.14020000  *   1.32780000  *
    23       H         -4.22470000  *  -0.79830000  *   0.28840000  *
    24       H         -2.62810000  *  -2.74480000  *  -0.75320000  *
 


          CARTESIAN COORDINATES 

    NO.       ATOM         X         Y         Z

     1         C       -0.0272    0.6282    0.4528
     2         C       -1.1350    0.2880   -0.5667
     3         C       -0.0411    2.1043    0.8644
     4         C        3.4925   -0.9015   -0.1671
     5         C        1.3335    0.3066   -0.1186
     6         C       -2.5254    0.4638   -0.0268
     7         C       -1.1830   -1.1740   -0.9090
     8         C        2.1540   -0.5991    0.4301
     9         C       -3.1990   -0.6734   -0.0423
    10         C       -2.3516   -1.7072   -0.5978
    11         H       -0.2107    0.0362    1.3829
    12         H       -1.0199    0.8866   -1.5008
    13         H       -0.9831    2.3692    1.3950
    14         H        0.7887    2.3259    1.5749
    15         H        0.0640    2.7765   -0.0184
    16         H        4.0135   -1.6786    0.4363
    17         H        4.1252    0.0149   -0.1807
    18         H        3.3744   -1.2848   -1.2060
    19         H       -2.9491    1.4015    0.3177
    20         H       -0.3708   -1.7337   -1.3623
    21         H        1.6464    0.8339   -1.0207
    22         H        1.8563   -1.1402    1.3278
    23         H       -4.2247   -0.7983    0.2884
    24         H       -2.6281   -2.7448   -0.7532

  H: (PM3): J. J. P. STEWART, J. COMP. CHEM. 10, 209 (1989).
  C: (PM3): J. J. P. STEWART, J. COMP. CHEM. 10, 209 (1989).

           Empirical Formula: C10 H14  =    24 atoms



      MOLECULAR POINT GROUP   :   C1  


      RHF CALCULATION, NO. OF DOUBLY OCCUPIED LEVELS =   27

      Geometry optimization using EF

          DIAGONAL MATRIX USED AS START HESSIAN

 CYCLE:     1 TIME:   0.011 TIME LEFT:  2.00D  GRAD.:   114.841 HEAT: 38.07779
 CYCLE:     2 TIME:   0.022 TIME LEFT:  2.00D  GRAD.:    69.178 HEAT: 36.15979
 CYCLE:     3 TIME:   0.008 TIME LEFT:  2.00D  GRAD.:    27.778 HEAT: 34.73511
 CYCLE:     4 TIME:   0.014 TIME LEFT:  2.00D  GRAD.:    41.466 HEAT: 34.53002
 CYCLE:     5 TIME:   0.008 TIME LEFT:  2.00D  GRAD.:    30.976 HEAT: 34.18126
 CYCLE:     6 TIME:   0.014 TIME LEFT:  2.00D  GRAD.:    24.709 HEAT: 33.95529
 CYCLE:     7 TIME:   0.014 TIME LEFT:  2.00D  GRAD.:    23.903 HEAT: 33.84946
 CYCLE:     8 TIME:   0.008 TIME LEFT:  2.00D  GRAD.:    15.680 HEAT: 33.72213
 CYCLE:     9 TIME:   0.008 TIME LEFT:  2.00D  GRAD.:    14.691 HEAT: 33.59488
 CYCLE:    10 TIME:   0.008 TIME LEFT:  2.00D  GRAD.:    20.373 HEAT: 33.54201
 CYCLE:    11 TIME:   0.014 TIME LEFT:  2.00D  GRAD.:    13.637 HEAT: 33.44736
 CYCLE:    12 TIME:   0.015 TIME LEFT:  2.00D  GRAD.:    10.394 HEAT: 33.41466
 CYCLE:    13 TIME:   0.008 TIME LEFT:  2.00D  GRAD.:     8.372 HEAT: 33.38716
 CYCLE:    14 TIME:   0.014 TIME LEFT:  2.00D  GRAD.:     7.152 HEAT: 33.37130
 CYCLE:    15 TIME:   0.008 TIME LEFT:  2.00D  GRAD.:     6.995 HEAT: 33.35959
 CYCLE:    16 TIME:   0.008 TIME LEFT:  2.00D  GRAD.:     5.742 HEAT: 33.34561
 CYCLE:    17 TIME:   0.008 TIME LEFT:  2.00D  GRAD.:     8.113 HEAT: 33.34273
 CYCLE:    18 TIME:   0.008 TIME LEFT:  2.00D  GRAD.:     7.716 HEAT: 33.32898
 CYCLE:    19 TIME:   0.007 TIME LEFT:  2.00D  GRAD.:     8.008 HEAT: 33.32310
 CYCLE:    20 TIME:   0.007 TIME LEFT:  2.00D  GRAD.:     5.233 HEAT: 33.30512
 CYCLE:    21 TIME:   0.014 TIME LEFT:  2.00D  GRAD.:     4.610 HEAT: 33.30069
 CYCLE:    22 TIME:   0.008 TIME LEFT:  2.00D  GRAD.:     3.180 HEAT: 33.29452
 CYCLE:    23 TIME:   0.008 TIME LEFT:  2.00D  GRAD.:     6.689 HEAT: 33.29810
 CYCLE:    24 TIME:   0.008 TIME LEFT:  2.00D  GRAD.:     2.434 HEAT: 33.28623
 CYCLE:    25 TIME:   0.008 TIME LEFT:  2.00D  GRAD.:     2.712 HEAT: 33.28446
 CYCLE:    26 TIME:   0.008 TIME LEFT:  2.00D  GRAD.:     2.203 HEAT: 33.28132
 CYCLE:    27 TIME:   0.008 TIME LEFT:  2.00D  GRAD.:     3.286 HEAT: 33.27896
 CYCLE:    28 TIME:   0.007 TIME LEFT:  2.00D  GRAD.:     1.867 HEAT: 33.27434
 CYCLE:    29 TIME:   0.008 TIME LEFT:  2.00D  GRAD.:     1.677 HEAT: 33.27064
 CYCLE:    30 TIME:   0.008 TIME LEFT:  2.00D  GRAD.:     2.447 HEAT: 33.26866
 CYCLE:    31 TIME:   0.008 TIME LEFT:  2.00D  GRAD.:     1.592 HEAT: 33.26601
 CYCLE:    32 TIME:   0.007 TIME LEFT:  2.00D  GRAD.:     1.228 HEAT: 33.26405
 CYCLE:    33 TIME:   0.008 TIME LEFT:  2.00D  GRAD.:     1.314 HEAT: 33.26207
 CYCLE:    34 TIME:   0.008 TIME LEFT:  2.00D  GRAD.:     1.788 HEAT: 33.26044
 CYCLE:    35 TIME:   0.008 TIME LEFT:  2.00D  GRAD.:     1.152 HEAT: 33.25806
 CYCLE:    36 TIME:   0.008 TIME LEFT:  2.00D  GRAD.:     1.139 HEAT: 33.25579
 CYCLE:    37 TIME:   0.008 TIME LEFT:  2.00D  GRAD.:     0.879 HEAT: 33.25405
 CYCLE:    38 TIME:   0.008 TIME LEFT:  2.00D  GRAD.:     0.542 HEAT: 33.25323
 CYCLE:    39 TIME:   0.008 TIME LEFT:  2.00D  GRAD.:     0.503 HEAT: 33.25277
 CYCLE:    40 TIME:   0.008 TIME LEFT:  2.00D  GRAD.:     0.531 HEAT: 33.25222
 CYCLE:    41 TIME:   0.008 TIME LEFT:  2.00D  GRAD.:     0.486 HEAT: 33.25168
 CYCLE:    42 TIME:   0.008 TIME LEFT:  2.00D  GRAD.:     0.474 HEAT: 33.25120
 CYCLE:    43 TIME:   0.008 TIME LEFT:  2.00D  GRAD.:     0.591 HEAT: 33.25059
 CYCLE:    44 TIME:   0.008 TIME LEFT:  2.00D  GRAD.:     0.733 HEAT: 33.24970
 CYCLE:    45 TIME:   0.008 TIME LEFT:  2.00D  GRAD.:     0.817 HEAT: 33.24845
 CYCLE:    46 TIME:   0.008 TIME LEFT:  2.00D  GRAD.:     0.853 HEAT: 33.24692
 CYCLE:    47 TIME:   0.008 TIME LEFT:  2.00D  GRAD.:     0.918 HEAT: 33.24508
 CYCLE:    48 TIME:   0.008 TIME LEFT:  2.00D  GRAD.:     1.117 HEAT: 33.24264
 CYCLE:    49 TIME:   0.008 TIME LEFT:  2.00D  GRAD.:     1.353 HEAT: 33.23927
 CYCLE:    50 TIME:   0.008 TIME LEFT:  2.00D  GRAD.:     1.700 HEAT: 33.23442
 CYCLE:    51 TIME:   0.008 TIME LEFT:  2.00D  GRAD.:     1.824 HEAT: 33.22839
 CYCLE:    52 TIME:   0.008 TIME LEFT:  2.00D  GRAD.:     1.697 HEAT: 33.22062
 CYCLE:    53 TIME:   0.008 TIME LEFT:  2.00D  GRAD.:     3.117 HEAT: 33.21369
 CYCLE:    54 TIME:   0.007 TIME LEFT:  2.00D  GRAD.:     2.735 HEAT: 33.20613
 CYCLE:    55 TIME:   0.008 TIME LEFT:  2.00D  GRAD.:     1.899 HEAT: 33.19793
 CYCLE:    56 TIME:   0.008 TIME LEFT:  2.00D  GRAD.:     4.837 HEAT: 33.19059
 CYCLE:    57 TIME:   0.008 TIME LEFT:  2.00D  GRAD.:     2.500 HEAT: 33.18174
 CYCLE:    58 TIME:   0.008 TIME LEFT:  2.00D  GRAD.:     1.863 HEAT: 33.17290
 CYCLE:    59 TIME:   0.008 TIME LEFT:  2.00D  GRAD.:     3.223 HEAT: 33.15601
 CYCLE:    60 TIME:   0.008 TIME LEFT:  2.00D  GRAD.:     2.484 HEAT: 33.14246
 CYCLE:    61 TIME:   0.008 TIME LEFT:  2.00D  GRAD.:     2.402 HEAT: 33.12260
 CYCLE:    62 TIME:   0.008 TIME LEFT:  2.00D  GRAD.:     3.296 HEAT: 33.11199
 CYCLE:    63 TIME:   0.008 TIME LEFT:  2.00D  GRAD.:     4.220 HEAT: 33.10625
 CYCLE:    64 TIME:   0.008 TIME LEFT:  2.00D  GRAD.:     2.069 HEAT: 33.09094
 CYCLE:    65 TIME:   0.008 TIME LEFT:  2.00D  GRAD.:     1.858 HEAT: 33.08026
 CYCLE:    66 TIME:   0.008 TIME LEFT:  2.00D  GRAD.:     2.757 HEAT: 33.05854
 CYCLE:    67 TIME:   0.008 TIME LEFT:  2.00D  GRAD.:     2.287 HEAT: 33.05066
 CYCLE:    68 TIME:   0.008 TIME LEFT:  2.00D  GRAD.:     2.370 HEAT: 33.01817
 CYCLE:    69 TIME:   0.008 TIME LEFT:  2.00D  GRAD.:     3.913 HEAT: 32.99552
 CYCLE:    70 TIME:   0.008 TIME LEFT:  2.00D  GRAD.:     3.691 HEAT: 32.97073
 CYCLE:    71 TIME:   0.009 TIME LEFT:  2.00D  GRAD.:     3.455 HEAT: 32.94951
 CYCLE:    72 TIME:   0.012 TIME LEFT:  2.00D  GRAD.:     4.574 HEAT: 32.93143
 CYCLE:    73 TIME:   0.011 TIME LEFT:  2.00D  GRAD.:     5.032 HEAT: 32.91535
 CYCLE:    74 TIME:   0.008 TIME LEFT:  2.00D  GRAD.:     2.343 HEAT: 32.89730
 CYCLE:    75 TIME:   0.012 TIME LEFT:  2.00D  GRAD.:     1.696 HEAT: 32.88530
 CYCLE:    76 TIME:   0.009 TIME LEFT:  2.00D  GRAD.:     1.557 HEAT: 32.87611
 CYCLE:    77 TIME:   0.012 TIME LEFT:  2.00D  GRAD.:     1.601 HEAT: 32.87087
 CYCLE:    78 TIME:   0.009 TIME LEFT:  2.00D  GRAD.:     1.567 HEAT: 32.86463
 CYCLE:    79 TIME:   0.008 TIME LEFT:  2.00D  GRAD.:     1.592 HEAT: 32.85665
 CYCLE:    80 TIME:   0.008 TIME LEFT:  2.00D  GRAD.:     1.632 HEAT: 32.84965
 CYCLE:    81 TIME:   0.008 TIME LEFT:  2.00D  GRAD.:     1.870 HEAT: 32.84294
 CYCLE:    82 TIME:   0.008 TIME LEFT:  2.00D  GRAD.:     2.175 HEAT: 32.83370
 CYCLE:    83 TIME:   0.008 TIME LEFT:  2.00D  GRAD.:     3.347 HEAT: 32.82081
 CYCLE:    84 TIME:   0.008 TIME LEFT:  2.00D  GRAD.:     3.426 HEAT: 32.80098
 CYCLE:    85 TIME:   0.008 TIME LEFT:  2.00D  GRAD.:     3.126 HEAT: 32.77825
 CYCLE:    86 TIME:   0.008 TIME LEFT:  2.00D  GRAD.:     2.884 HEAT: 32.75957
 CYCLE:    87 TIME:   0.009 TIME LEFT:  2.00D  GRAD.:     3.443 HEAT: 32.74951
 CYCLE:    88 TIME:   0.008 TIME LEFT:  2.00D  GRAD.:     2.209 HEAT: 32.73780
 CYCLE:    89 TIME:   0.008 TIME LEFT:  2.00D  GRAD.:     2.423 HEAT: 32.72869
 CYCLE:    90 TIME:   0.008 TIME LEFT:  2.00D  GRAD.:     2.187 HEAT: 32.72213
 CYCLE:    91 TIME:   0.008 TIME LEFT:  2.00D  GRAD.:     2.336 HEAT: 32.71305
 CYCLE:    92 TIME:   0.008 TIME LEFT:  2.00D  GRAD.:     1.672 HEAT: 32.70658
 CYCLE:    93 TIME:   0.008 TIME LEFT:  2.00D  GRAD.:     1.803 HEAT: 32.70164
 CYCLE:    94 TIME:   0.008 TIME LEFT:  2.00D  GRAD.:     1.724 HEAT: 32.69595
 CYCLE:    95 TIME:   0.008 TIME LEFT:  2.00D  GRAD.:     2.576 HEAT: 32.69105
 CYCLE:    96 TIME:   0.008 TIME LEFT:  2.00D  GRAD.:     1.862 HEAT: 32.68399
 CYCLE:    97 TIME:   0.008 TIME LEFT:  2.00D  GRAD.:     1.962 HEAT: 32.67628
 CYCLE:    98 TIME:   0.008 TIME LEFT:  2.00D  GRAD.:     1.974 HEAT: 32.66814
 CYCLE:    99 TIME:   0.008 TIME LEFT:  2.00D  GRAD.:     1.818 HEAT: 32.66346
 CYCLE:   100 TIME:   0.008 TIME LEFT:  2.00D  GRAD.:     1.461 HEAT: 32.65812
 CYCLE:   101 TIME:   0.008 TIME LEFT:  2.00D  GRAD.:     1.888 HEAT: 32.65253
 CYCLE:   102 TIME:   0.008 TIME LEFT:  2.00D  GRAD.:     2.802 HEAT: 32.65115
 CYCLE:   103 TIME:   0.008 TIME LEFT:  2.00D  GRAD.:     1.532 HEAT: 32.64487
 CYCLE:   104 TIME:   0.008 TIME LEFT:  2.00D  GRAD.:     1.426 HEAT: 32.64150
 CYCLE:   105 TIME:   0.008 TIME LEFT:  2.00D  GRAD.:     1.347 HEAT: 32.63714
 CYCLE:   106 TIME:   0.008 TIME LEFT:  2.00D  GRAD.:     1.373 HEAT: 32.63374
 CYCLE:   107 TIME:   0.008 TIME LEFT:  2.00D  GRAD.:     1.289 HEAT: 32.62928
 CYCLE:   108 TIME:   0.008 TIME LEFT:  2.00D  GRAD.:     1.362 HEAT: 32.62554
 CYCLE:   109 TIME:   0.008 TIME LEFT:  2.00D  GRAD.:     1.347 HEAT: 32.62384
 CYCLE:   110 TIME:   0.008 TIME LEFT:  2.00D  GRAD.:     0.856 HEAT: 32.62175
 CYCLE:   111 TIME:   0.008 TIME LEFT:  2.00D  GRAD.:     0.597 HEAT: 32.62043
 CYCLE:   112 TIME:   0.008 TIME LEFT:  2.00D  GRAD.:     0.430 HEAT: 32.61962
 CYCLE:   113 TIME:   0.008 TIME LEFT:  2.00D  GRAD.:     0.436 HEAT: 32.61921
 CYCLE:   114 TIME:   0.008 TIME LEFT:  2.00D  GRAD.:     0.484 HEAT: 32.61878
 CYCLE:   115 TIME:   0.008 TIME LEFT:  2.00D  GRAD.:     0.468 HEAT: 32.61839
 CYCLE:   116 TIME:   0.008 TIME LEFT:  2.00D  GRAD.:     0.477 HEAT: 32.61788
 CYCLE:   117 TIME:   0.008 TIME LEFT:  2.00D  GRAD.:     0.508 HEAT: 32.61723
 CYCLE:   118 TIME:   0.008 TIME LEFT:  2.00D  GRAD.:     0.593 HEAT: 32.61626
 CYCLE:   119 TIME:   0.010 TIME LEFT:  2.00D  GRAD.:     0.663 HEAT: 32.61520
 CYCLE:   120 TIME:   0.008 TIME LEFT:  2.00D  GRAD.:     0.758 HEAT: 32.61361
 CYCLE:   121 TIME:   0.008 TIME LEFT:  2.00D  GRAD.:     0.786 HEAT: 32.61252
 CYCLE:   122 TIME:   0.008 TIME LEFT:  2.00D  GRAD.:     0.932 HEAT: 32.61009
 CYCLE:   123 TIME:   0.008 TIME LEFT:  2.00D  GRAD.:     1.113 HEAT: 32.60838
 CYCLE:   124 TIME:   0.008 TIME LEFT:  2.00D  GRAD.:     1.127 HEAT: 32.60599
 CYCLE:   125 TIME:   0.008 TIME LEFT:  2.00D  GRAD.:     0.962 HEAT: 32.60378
 CYCLE:   126 TIME:   0.008 TIME LEFT:  2.00D  GRAD.:     0.711 HEAT: 32.60233
 CYCLE:   127 TIME:   0.008 TIME LEFT:  2.00D  GRAD.:     0.525 HEAT: 32.60153
 CYCLE:   128 TIME:   0.008 TIME LEFT:  2.00D  GRAD.:     0.464 HEAT: 32.60109
 CYCLE:   129 TIME:   0.008 TIME LEFT:  2.00D  GRAD.:     0.431 HEAT: 32.60076
 CYCLE:   130 TIME:   0.008 TIME LEFT:  2.00D  GRAD.:     0.420 HEAT: 32.60043
 CYCLE:   131 TIME:   0.008 TIME LEFT:  2.00D  GRAD.:     0.461 HEAT: 32.60006
 CYCLE:   132 TIME:   0.008 TIME LEFT:  2.00D  GRAD.:     0.388 HEAT: 32.59974
 CYCLE:   133 TIME:   0.008 TIME LEFT:  2.00D  GRAD.:     0.379 HEAT: 32.59932
 CYCLE:   134 TIME:   0.008 TIME LEFT:  2.00D  GRAD.:     0.440 HEAT: 32.59907
 CYCLE:   135 TIME:   0.008 TIME LEFT:  2.00D  GRAD.:     0.533 HEAT: 32.59868
 CYCLE:   136 TIME:   0.008 TIME LEFT:  2.00D  GRAD.:     0.503 HEAT: 32.59839
 CYCLE:   137 TIME:   0.008 TIME LEFT:  2.00D  GRAD.:     0.554 HEAT: 32.59761
 CYCLE:   138 TIME:   0.008 TIME LEFT:  2.00D  GRAD.:     0.495 HEAT: 32.59724
 CYCLE:   139 TIME:   0.008 TIME LEFT:  2.00D  GRAD.:     0.837 HEAT: 32.59585
 CYCLE:   140 TIME:   0.008 TIME LEFT:  2.00D  GRAD.:     0.636 HEAT: 32.59519
 CYCLE:   141 TIME:   0.008 TIME LEFT:  2.00D  GRAD.:     0.494 HEAT: 32.59285
 CYCLE:   142 TIME:   0.008 TIME LEFT:  2.00D  GRAD.:     0.699 HEAT: 32.59095
 CYCLE:   143 TIME:   0.008 TIME LEFT:  2.00D  GRAD.:     0.951 HEAT: 32.58808
 CYCLE:   144 TIME:   0.008 TIME LEFT:  2.00D  GRAD.:     0.768 HEAT: 32.58675
 CYCLE:   145 TIME:   0.008 TIME LEFT:  2.00D  GRAD.:     0.798 HEAT: 32.58538
 CYCLE:   146 TIME:   0.008 TIME LEFT:  2.00D  GRAD.:     0.605 HEAT: 32.58495
 CYCLE:   147 TIME:   0.008 TIME LEFT:  2.00D  GRAD.:     0.243 HEAT: 32.58420
 CYCLE:   148 TIME:   0.008 TIME LEFT:  2.00D  GRAD.:     0.260 HEAT: 32.58393
 CYCLE:   149 TIME:   0.008 TIME LEFT:  2.00D  GRAD.:     0.169 HEAT: 32.58385
 CYCLE:   150 TIME:   0.008 TIME LEFT:  2.00D  GRAD.:     0.122 HEAT: 32.58379
 CYCLE:   151 TIME:   0.008 TIME LEFT:  2.00D  GRAD.:     0.132 HEAT: 32.58376
 CYCLE:   152 TIME:   0.008 TIME LEFT:  2.00D  GRAD.:     0.103 HEAT: 32.58375
 CYCLE:   153 TIME:   0.008 TIME LEFT:  2.00D  GRAD.:     0.117 HEAT: 32.58373
 CYCLE:   154 TIME:   0.008 TIME LEFT:  2.00D  GRAD.:     0.076 HEAT: 32.58371
 CYCLE:   155 TIME:   0.008 TIME LEFT:  2.00D  GRAD.:     0.062 HEAT: 32.58369
 CYCLE:   156 TIME:   0.007 TIME LEFT:  2.00D  GRAD.:     0.040 HEAT: 32.58369

     RMS GRADIENT =  0.03971  IS LESS THAN CUTOFF =  0.05000



 -------------------------------------------------------------------------------
pm3  precise nosym
 InChI=1S/C10H14/c1-3-6-9(2)10-7-4-5-8-10/h3-10H,1-2H3



     GEOMETRY OPTIMISED USING EIGENVECTOR FOLLOWING (EF).     
     SCF FIELD WAS ACHIEVED                                   


                              PM3 CALCULATION
                                                       MOPAC2012 (Version: 13.159M)
                                                       Mon Jun  2 11:13:20 2014
                                                       No. of days left =   6




          FINAL HEAT OF FORMATION =         32.58369 KCAL/MOL =     136.33016 KJ/MOL


          TOTAL ENERGY            =      -1399.64870 EV
          ELECTRONIC ENERGY       =      -7713.42455 EV  POINT GROUP:     C1  
          CORE-CORE REPULSION     =       6313.77586 EV
          COSMO AREA              =        193.28 SQUARE ANGSTROMS
          COSMO VOLUME            =        198.26 CUBIC ANGSTROMS

          GRADIENT NORM           =          0.03971
          IONIZATION POTENTIAL    =          9.208106 EV
          HOMO LUMO ENERGIES (EV) =         -9.208  0.324
          NO. OF FILLED LEVELS    =         27
          MOLECULAR WEIGHT        =        134.221

          MOLECULAR DIMENSIONS (Angstroms)

            Atom       Atom       Distance
            H    17    H    23     8.56217
            H    24    H    13     5.46572
            H    22    H    12     3.34249


          SCF CALCULATIONS        =        166
          COMPUTATION TIME        =          1.331 SECONDS




   ATOM   CHEMICAL          X               Y               Z
  NUMBER   SYMBOL      (ANGSTROMS)     (ANGSTROMS)     (ANGSTROMS)
 
     1       C         -0.02406825  *   0.62115290  *   0.44002953  *
     2       C         -1.15328973  *   0.27418666  *  -0.53714090  *
     3       C         -0.01922435  *   2.10900411  *   0.76552302  *
     4       C          3.49662495  *  -0.87882929  *  -0.12040610  *
     5       C          1.29991751  *   0.25746995  *  -0.15934424  *
     6       C         -2.53228547  *   0.46586783  *   0.05232372  *
     7       C         -1.17083425  *  -1.18891759  *  -0.91718324  *
     8       C          2.18019382  *  -0.53110059  *   0.45863117  *
     9       C         -3.22314007  *  -0.69240188  *  -0.01764822  *
    10       C         -2.37477742  *  -1.72379322  *  -0.62116943  *
    11       H         -0.18922112  *   0.04571273  *   1.38406931  *
    12       H         -1.06077701  *   0.89162646  *  -1.46303077  *
    13       H         -0.96059513  *   2.42031022  *   1.23743995  *
    14       H          0.79551356  *   2.35683186  *   1.45779595  *
    15       H          0.11647351  *   2.72186302  *  -0.13577203  *
    16       H          3.58745844  *  -1.96655138  *  -0.24297277  *
    17       H          4.30760261  *  -0.55263334  *   0.54462925  *
    18       H          3.66842039  *  -0.41895121  *  -1.10274899  *
    19       H         -2.86902592  *   1.42015861  *   0.45282064  *
    20       H         -0.30538188  *  -1.68058501  *  -1.35711953  *
    21       H          1.51558819  *   0.69234121  *  -1.14392283  *
    22       H          1.95857392  *  -0.96375808  *   1.44264407  *
    23       H         -4.24523426  *  -0.87480528  *   0.30811129  *
    24       H         -2.70410279  *  -2.74765099  *  -0.78601753  *

           Empirical Formula: C10 H14  =    24 atoms



      MOLECULAR POINT GROUP   :   C1  


                  EIGENVALUES  
 -41.15359 -36.28734 -32.69140 -27.60914 -26.22548 -25.82408 -21.22430 -19.83571
 -18.85362 -18.41142 -17.89230 -16.28100 -15.49611 -14.78899 -14.23073 -14.20488
 -13.91928 -13.52397 -13.31833 -13.08617 -12.56683 -12.34278 -12.29388 -11.81988
 -10.97963  -9.84089  -9.20811   0.32410   1.05576   2.04882   3.19094   3.35547
   3.42394   3.62359   3.68050   3.77593   3.86880   4.03869   4.12096   4.15147
   4.31186   4.32536   4.35272   4.43167   4.47052   4.68443   4.72515   4.85019
   4.93348   5.62583   5.77354   5.84793   5.95219   6.18787


              NET ATOMIC CHARGES AND DIPOLE CONTRIBUTIONS

  ATOM NO.   TYPE          CHARGE      No. of ELECS.   s-Pop       p-Pop       
    1          C          -0.013955        4.0140     1.16069     2.85326
    2          C          -0.033048        4.0330     1.16837     2.86467
    3          C          -0.112889        4.1129     1.14223     2.97066
    4          C          -0.075484        4.0755     1.12536     2.95013
    5          C          -0.158379        4.1584     1.19963     2.95875
    6          C          -0.162108        4.1621     1.20980     2.95231
    7          C          -0.153446        4.1534     1.21017     2.94327
    8          C          -0.140312        4.1403     1.19374     2.94657
    9          C          -0.117218        4.1172     1.19241     2.92481
   10          C          -0.123637        4.1236     1.19236     2.93127
   11          H           0.072624        0.9274     0.92738
   12          H           0.091937        0.9081     0.90806
   13          H           0.042345        0.9577     0.95765
   14          H           0.043532        0.9565     0.95647
   15          H           0.040026        0.9600     0.95997
   16          H           0.044522        0.9555     0.95548
   17          H           0.044608        0.9554     0.95539
   18          H           0.041027        0.9590     0.95897
   19          H           0.118287        0.8817     0.88171
   20          H           0.120491        0.8795     0.87951
   21          H           0.103637        0.8964     0.89636
   22          H           0.100387        0.8996     0.89961
   23          H           0.113224        0.8868     0.88678
   24          H           0.113829        0.8862     0.88617
 DIPOLE           X         Y         Z       TOTAL
 POINT-CHG.     0.506     0.212     0.061     0.552
 HYBRID        -0.008     0.029    -0.077     0.083
 SUM            0.497     0.241    -0.016     0.553


          ATOMIC ORBITAL ELECTRON POPULATIONS

    Atom      s        px        py        pz   
    1  C   1.16069   0.91485   0.96302   0.97539
    2  C   1.16837   0.93527   0.95317   0.97623
    3  C   1.14223   1.01240   0.94914   1.00913
    4  C   1.12536   0.95034   1.00321   0.99657
    5  C   1.19963   0.96246   0.99862   0.99767
    6  C   1.20980   0.96509   0.98076   1.00645
    7  C   1.21017   0.97880   0.95847   1.00601
    8  C   1.19374   0.96320   0.98918   0.99419
    9  C   1.19241   0.98090   0.94494   0.99897
   10  C   1.19236   0.95363   0.97634   1.00131
   11  H   0.92738
   12  H   0.90806
   13  H   0.95765
   14  H   0.95647
   15  H   0.95997
   16  H   0.95548
   17  H   0.95539
   18  H   0.95897
   19  H   0.88171
   20  H   0.87951
   21  H   0.89636
   22  H   0.89961
   23  H   0.88678
   24  H   0.88617
 *******************************************************************************
 ** Site#: 14399           For non-commercial use only        Version 13.159M **
 *******************************************************************************
 ** Cite this work as: MOPAC2012, James J. P. Stewart, Stewart Computational  **
 ** Chemistry, Version 13.159M web: HTTP://OpenMOPAC.net  Days remaining:   6 **
 *******************************************************************************
 **                                                                           **
 **                                MOPAC2012                                  **
 **                                                                           **
 *******************************************************************************

                            PM3 CALCULATION RESULTS


 *******************************************************************************
 *  CALCULATION DONE:                                Mon Jun  2 11:13:20 2014  *
 *  PM3      - The PM3 Hamiltonian to be used
 *  OLDGEO   - PREVIOUS GEOMETRY TO BE USED
 *  PRECISE  - CRITERIA TO BE INCREASED BY 100 TIMES
 *  NOSYM    - POINT-GROUP SYMMETRY SET TO C1
 *  T=       - A TIME OF 172800.0 SECONDS REQUESTED
 *  DUMP=N   - RESTART FILE WRITTEN EVERY  7200.000 SECONDS
 *  THERMO   - THERMODYNAMIC QUANTITIES TO BE CALCULATED
 *******************************************************************************
oldgeo thermo nosym precise  pm3

   ATOM   CHEMICAL          X               Y               Z
  NUMBER   SYMBOL      (ANGSTROMS)     (ANGSTROMS)     (ANGSTROMS)
 
     1       C         -0.02406825  *   0.62115290  *   0.44002953  *
     2       C         -1.15328973  *   0.27418666  *  -0.53714090  *
     3       C         -0.01922435  *   2.10900411  *   0.76552302  *
     4       C          3.49662495  *  -0.87882929  *  -0.12040610  *
     5       C          1.29991751  *   0.25746995  *  -0.15934424  *
     6       C         -2.53228547  *   0.46586783  *   0.05232372  *
     7       C         -1.17083425  *  -1.18891759  *  -0.91718324  *
     8       C          2.18019382  *  -0.53110059  *   0.45863117  *
     9       C         -3.22314007  *  -0.69240188  *  -0.01764822  *
    10       C         -2.37477742  *  -1.72379322  *  -0.62116943  *
    11       H         -0.18922112  *   0.04571273  *   1.38406931  *
    12       H         -1.06077701  *   0.89162646  *  -1.46303077  *
    13       H         -0.96059513  *   2.42031022  *   1.23743995  *
    14       H          0.79551356  *   2.35683186  *   1.45779595  *
    15       H          0.11647351  *   2.72186302  *  -0.13577203  *
    16       H          3.58745844  *  -1.96655138  *  -0.24297277  *
    17       H          4.30760261  *  -0.55263334  *   0.54462925  *
    18       H          3.66842039  *  -0.41895121  *  -1.10274899  *
    19       H         -2.86902592  *   1.42015861  *   0.45282064  *
    20       H         -0.30538188  *  -1.68058501  *  -1.35711953  *
    21       H          1.51558819  *   0.69234121  *  -1.14392283  *
    22       H          1.95857392  *  -0.96375808  *   1.44264407  *
    23       H         -4.24523426  *  -0.87480528  *   0.30811129  *
    24       H         -2.70410279  *  -2.74765099  *  -0.78601753  *
 


          CARTESIAN COORDINATES 

    NO.       ATOM         X         Y         Z

     1         C       -0.0241    0.6212    0.4400
     2         C       -1.1533    0.2742   -0.5371
     3         C       -0.0192    2.1090    0.7655
     4         C        3.4966   -0.8788   -0.1204
     5         C        1.2999    0.2575   -0.1593
     6         C       -2.5323    0.4659    0.0523
     7         C       -1.1708   -1.1889   -0.9172
     8         C        2.1802   -0.5311    0.4586
     9         C       -3.2231   -0.6924   -0.0176
    10         C       -2.3748   -1.7238   -0.6212
    11         H       -0.1892    0.0457    1.3841
    12         H       -1.0608    0.8916   -1.4630
    13         H       -0.9606    2.4203    1.2374
    14         H        0.7955    2.3568    1.4578
    15         H        0.1165    2.7219   -0.1358
    16         H        3.5875   -1.9666   -0.2430
    17         H        4.3076   -0.5526    0.5446
    18         H        3.6684   -0.4190   -1.1027
    19         H       -2.8690    1.4202    0.4528
    20         H       -0.3054   -1.6806   -1.3571
    21         H        1.5156    0.6923   -1.1439
    22         H        1.9586   -0.9638    1.4426
    23         H       -4.2452   -0.8748    0.3081
    24         H       -2.7041   -2.7477   -0.7860

  H: (PM3): J. J. P. STEWART, J. COMP. CHEM. 10, 209 (1989).
  C: (PM3): J. J. P. STEWART, J. COMP. CHEM. 10, 209 (1989).

           Empirical Formula: C10 H14  =    24 atoms



      MOLECULAR POINT GROUP   :   C1  


      RHF CALCULATION, NO. OF DOUBLY OCCUPIED LEVELS =   27



          HEAT OF FORMATION =      32.583691 KCALS/MOLE


          INTERNAL COORDINATE DERIVATIVES

   NUMBER  ATOM       BOND         ANGLE      DIHEDRAL

     1       C     -0.000623    -0.003794     0.000529
     2       C     -0.001338    -0.007954    -0.003365
     3       C      0.002436    -0.000207    -0.003882
     4       C      0.003067     0.005888     0.014650
     5       C      0.000811     0.009038     0.002074
     6       C     -0.004848     0.002497     0.008508
     7       C      0.001031     0.005971     0.002629
     8       C     -0.005422    -0.016121     0.004147
     9       C      0.002746    -0.010489     0.003409
    10       C      0.006258     0.011236    -0.013853
    11       H      0.001123    -0.001007    -0.001258
    12       H      0.002526    -0.004247    -0.002412
    13       H      0.004425     0.005455    -0.001549
    14       H     -0.007437    -0.002632     0.007163
    15       H     -0.000672     0.003114     0.001068
    16       H     -0.006794     0.005685    -0.001396
    17       H      0.012967    -0.006417    -0.001689
    18       H     -0.011489     0.003452    -0.009212
    19       H      0.000010     0.002880     0.000638
    20       H     -0.000478    -0.000209     0.000739
    21       H      0.000180     0.002109    -0.000150
    22       H      0.002388    -0.000042    -0.007163
    23       H      0.001125    -0.001679    -0.000330
    24       H     -0.001991    -0.002527     0.000705


          GRADIENT NORM =   0.04706


          TIME FOR SCF CALCULATION =    0.01

          TIME FOR DERIVATIVES     =    0.01

          MOLECULAR WEIGHT =  134.22



          ROTATIONAL CONSTANTS IN CM(-1)

          A =    0.07920779   B =    0.02667425   C =    0.02121070



           PRINCIPAL MOMENTS OF INERTIA IN UNITS OF 10**(-40)*GRAM-CM**2

          A =      353.4094   B =     1049.4305   C =     1319.7481


          ORIENTATION OF MOLECULE IN FORCE CALCULATION

    NO.       ATOM         X         Y         Z

     1          C      -0.6738    0.6148   -0.0974
     2          C       0.8593    0.6148   -0.0974
     3          C      -1.2215    2.0359   -0.0974
     4          C      -2.5703   -1.8030    2.2514
     5          C      -1.1846   -0.0957    1.1186
     6          C       1.4560    1.1757   -1.3684
     7          C       1.4456   -0.7781   -0.0591
     8          C      -2.0484   -1.1096    1.0530
     9          C       2.2715    0.2591   -1.9325
    10          C       2.2648   -0.9587   -1.1172
    11          H      -1.0236    0.0931   -1.0222
    12          H       1.2416    1.1968    0.7756
    13          H      -0.8994    2.5909   -0.9885
    14          H      -2.3190    2.0337   -0.0880
    15          H      -0.8857    2.6010    0.7825
    16          H      -2.3129   -2.8703    2.2206
    17          H      -3.6653   -1.7285    2.2925
    18          H      -2.1748   -1.3935    3.1905
    19          H       1.2327    2.1794   -1.7252
    20          H       1.1998   -1.4854    0.7306
    21          H      -0.8143    0.2776    2.0822
    22          H      -2.4145   -1.4791    0.0865
    23          H       2.8580    0.3653   -2.8429
    24          H       2.8441   -1.8462   -1.3634


    FIRST DERIVATIVES WILL BE USED IN THE CALCULATION OF SECOND DERIVATIVES

          ESTIMATED TIME TO COMPLETE CALCULATION =        3.26 SECONDS

    FOR POINT-GROUP C1   THERE ARE   1 UNIQUE SYMMETRY FUNCTIONS.

 STEP:   1 TIME =     0.04 SECS, INTEGRAL =      0.04 TIME LEFT: 172799.95
 STEP:   2 TIME =     0.03 SECS, INTEGRAL =      0.07 TIME LEFT: 172799.92
 STEP:   3 TIME =     0.04 SECS, INTEGRAL =      0.11 TIME LEFT: 172799.88
 STEP:   4 TIME =     0.04 SECS, INTEGRAL =      0.14 TIME LEFT: 172799.85
 STEP:   5 TIME =     0.04 SECS, INTEGRAL =      0.18 TIME LEFT: 172799.81
 STEP:   6 TIME =     0.04 SECS, INTEGRAL =      0.21 TIME LEFT: 172799.78
 STEP:   7 TIME =     0.03 SECS, INTEGRAL =      0.25 TIME LEFT: 172799.74
 STEP:   8 TIME =     0.03 SECS, INTEGRAL =      0.28 TIME LEFT: 172799.71
 STEP:   9 TIME =     0.03 SECS, INTEGRAL =      0.32 TIME LEFT: 172799.67
 STEP:  10 TIME =     0.04 SECS, INTEGRAL =      0.35 TIME LEFT: 172799.64
 STEP:  11 TIME =     0.04 SECS, INTEGRAL =      0.39 TIME LEFT: 172799.60
 STEP:  12 TIME =     0.04 SECS, INTEGRAL =      0.42 TIME LEFT: 172799.57
 STEP:  13 TIME =     0.04 SECS, INTEGRAL =      0.46 TIME LEFT: 172799.53
 STEP:  14 TIME =     0.04 SECS, INTEGRAL =      0.50 TIME LEFT: 172799.49
 STEP:  15 TIME =     0.04 SECS, INTEGRAL =      0.53 TIME LEFT: 172799.46
 STEP:  16 TIME =     0.04 SECS, INTEGRAL =      0.57 TIME LEFT: 172799.42
 STEP:  17 TIME =     0.04 SECS, INTEGRAL =      0.60 TIME LEFT: 172799.39
 STEP:  18 TIME =     0.04 SECS, INTEGRAL =      0.64 TIME LEFT: 172799.35
 STEP:  19 TIME =     0.04 SECS, INTEGRAL =      0.68 TIME LEFT: 172799.31
 STEP:  20 TIME =     0.04 SECS, INTEGRAL =      0.71 TIME LEFT: 172799.28
 STEP:  21 TIME =     0.04 SECS, INTEGRAL =      0.75 TIME LEFT: 172799.24
 STEP:  22 TIME =     0.04 SECS, INTEGRAL =      0.78 TIME LEFT: 172799.20
 STEP:  23 TIME =     0.04 SECS, INTEGRAL =      0.82 TIME LEFT: 172799.17
 STEP:  24 TIME =     0.04 SECS, INTEGRAL =      0.86 TIME LEFT: 172799.13
 STEP:  25 TIME =     0.04 SECS, INTEGRAL =      0.89 TIME LEFT: 172799.10
 STEP:  26 TIME =     0.04 SECS, INTEGRAL =      0.93 TIME LEFT: 172799.06
 STEP:  27 TIME =     0.04 SECS, INTEGRAL =      0.97 TIME LEFT: 172799.02
 STEP:  28 TIME =     0.04 SECS, INTEGRAL =      1.00 TIME LEFT: 172798.99
 STEP:  29 TIME =     0.04 SECS, INTEGRAL =      1.04 TIME LEFT: 172798.95
 STEP:  30 TIME =     0.04 SECS, INTEGRAL =      1.07 TIME LEFT: 172798.91
 STEP:  31 TIME =     0.04 SECS, INTEGRAL =      1.11 TIME LEFT: 172798.88
 STEP:  32 TIME =     0.04 SECS, INTEGRAL =      1.15 TIME LEFT: 172798.84
 STEP:  33 TIME =     0.04 SECS, INTEGRAL =      1.18 TIME LEFT: 172798.80
 STEP:  34 TIME =     0.04 SECS, INTEGRAL =      1.22 TIME LEFT: 172798.76
 STEP:  35 TIME =     0.04 SECS, INTEGRAL =      1.26 TIME LEFT: 172798.73
 STEP:  36 TIME =     0.04 SECS, INTEGRAL =      1.30 TIME LEFT: 172798.69
 STEP:  37 TIME =     0.04 SECS, INTEGRAL =      1.34 TIME LEFT: 172798.65
 STEP:  38 TIME =     0.04 SECS, INTEGRAL =      1.38 TIME LEFT: 172798.61
 STEP:  39 TIME =     0.04 SECS, INTEGRAL =      1.41 TIME LEFT: 172798.58
 STEP:  40 TIME =     0.03 SECS, INTEGRAL =      1.45 TIME LEFT: 172798.54
 STEP:  41 TIME =     0.04 SECS, INTEGRAL =      1.48 TIME LEFT: 172798.51
 STEP:  42 TIME =     0.04 SECS, INTEGRAL =      1.52 TIME LEFT: 172798.47
 STEP:  43 TIME =     0.04 SECS, INTEGRAL =      1.56 TIME LEFT: 172798.43
 STEP:  44 TIME =     0.04 SECS, INTEGRAL =      1.59 TIME LEFT: 172798.40
 STEP:  45 TIME =     0.03 SECS, INTEGRAL =      1.63 TIME LEFT: 172798.36
 STEP:  46 TIME =     0.04 SECS, INTEGRAL =      1.66 TIME LEFT: 172798.32
 STEP:  47 TIME =     0.03 SECS, INTEGRAL =      1.70 TIME LEFT: 172798.29
 STEP:  48 TIME =     0.04 SECS, INTEGRAL =      1.73 TIME LEFT: 172798.25
 STEP:  49 TIME =     0.03 SECS, INTEGRAL =      1.77 TIME LEFT: 172798.22
 STEP:  50 TIME =     0.04 SECS, INTEGRAL =      1.81 TIME LEFT: 172798.18
 STEP:  51 TIME =     0.04 SECS, INTEGRAL =      1.84 TIME LEFT: 172798.15
 STEP:  52 TIME =     0.04 SECS, INTEGRAL =      1.88 TIME LEFT: 172798.11
 STEP:  53 TIME =     0.04 SECS, INTEGRAL =      1.92 TIME LEFT: 172798.07
 STEP:  54 TIME =     0.04 SECS, INTEGRAL =      1.95 TIME LEFT: 172798.04
 STEP:  55 TIME =     0.04 SECS, INTEGRAL =      1.99 TIME LEFT: 172798.00
 STEP:  56 TIME =     0.03 SECS, INTEGRAL =      2.03 TIME LEFT: 172797.96
 STEP:  57 TIME =     0.04 SECS, INTEGRAL =      2.06 TIME LEFT: 172797.93
 STEP:  58 TIME =     0.04 SECS, INTEGRAL =      2.10 TIME LEFT: 172797.89
 STEP:  59 TIME =     0.04 SECS, INTEGRAL =      2.14 TIME LEFT: 172797.85
 STEP:  60 TIME =     0.04 SECS, INTEGRAL =      2.18 TIME LEFT: 172797.81
 STEP:  61 TIME =     0.04 SECS, INTEGRAL =      2.21 TIME LEFT: 172797.78
 STEP:  62 TIME =     0.04 SECS, INTEGRAL =      2.25 TIME LEFT: 172797.74
 STEP:  63 TIME =     0.03 SECS, INTEGRAL =      2.28 TIME LEFT: 172797.70
 STEP:  64 TIME =     0.04 SECS, INTEGRAL =      2.32 TIME LEFT: 172797.67
 STEP:  65 TIME =     0.04 SECS, INTEGRAL =      2.36 TIME LEFT: 172797.63
 STEP:  66 TIME =     0.04 SECS, INTEGRAL =      2.40 TIME LEFT: 172797.59
 STEP:  67 TIME =     0.04 SECS, INTEGRAL =      2.43 TIME LEFT: 172797.56
 STEP:  68 TIME =     0.04 SECS, INTEGRAL =      2.47 TIME LEFT: 172797.52
 STEP:  69 TIME =     0.04 SECS, INTEGRAL =      2.51 TIME LEFT: 172797.48
 STEP:  70 TIME =     0.04 SECS, INTEGRAL =      2.54 TIME LEFT: 172797.45
 STEP:  71 TIME =     0.04 SECS, INTEGRAL =      2.58 TIME LEFT: 172797.41
 STEP:  72 TIME =     0.04 SECS, INTEGRAL =      2.62 TIME LEFT: 172797.37

(To convert to Hartree/Bohr^2, multiply by (10^(-21) x N x a0^2)/(4.184 x 627.51) = 0.0642)


           FORCE MATRIX IN MILLIDYNES/ANGSTROM


                  C  1       C  2       C  3       C  4       C  5       C  6
 ------------------------------------------------------------------------------
     C    1  14.552090
     C    2   3.662966  14.755433
     C    3   4.080437   0.634209  14.306609
     C    4   0.139427   0.019968   0.020959  14.720368
     C    5   4.632323   0.678986   0.731956   0.848331  18.152130
     C    6   0.573823   4.096294   0.054954   0.003602   0.046868  17.889456
     C    7   0.580047   4.110287   0.048253   0.002297   0.061841   1.101766
     C    8   0.797051   0.038303   0.036303   5.264885  10.700209   0.006733
     C    9   0.048863   1.202823   0.010050   0.001279   0.009224   9.794449
     C   10   0.049105   1.198173   0.009718   0.001784   0.009812   1.572279
     H   11   4.214451   0.422497   0.418002   0.002180   0.441442   0.019749
     H   12   0.450765   4.211126   0.024996   0.000839   0.022111   0.387088
     H   13   0.458605   0.019935   4.721551   0.003733   0.050175   0.020825
     H   14   0.451417   0.050797   4.757718   0.000886   0.027503   0.004300
     H   15   0.467991   0.021275   4.718455   0.000646   0.025042   0.003690
     H   16   0.018197   0.003576   0.001998   4.707406   0.036071   0.001372
     H   17   0.018649   0.002135   0.003659   4.709445   0.035364   0.000522
     H   18   0.002162   0.000828   0.000609   4.724867   0.041513   0.000370
     H   19   0.010311   0.402329   0.016664   0.000278   0.003312   5.054251
     H   20   0.012416   0.406847   0.002439   0.000676   0.011060   0.042319
     H   21   0.433456   0.021785   0.015900   0.081631   4.760507   0.002880
     H   22   0.081918   0.008346   0.010246   0.423347   0.470579   0.002639
     H   23   0.015520   0.112245   0.000786   0.000592   0.002482   0.446309
     H   24   0.015885   0.112789   0.002780   0.000437   0.001667   0.048722


                  C  7       C  8       C  9       C 10       H 11       H 12
 ------------------------------------------------------------------------------
     C    7  17.921439
     C    8   0.012864  18.192936
     C    9   1.580250   0.002963  18.333126
     C   10   9.801269   0.002803   5.168830  18.339918
     H   11   0.014269   0.056066   0.005498   0.004997   4.683996
     H   12   0.386099   0.001903   0.051261   0.051247   0.040565   4.696998
     H   13   0.001348   0.004630   0.001106   0.000731   0.029486   0.001951
     H   14   0.008658   0.003200   0.001612   0.002275   0.028640   0.002341
     H   15   0.001280   0.001970   0.001189   0.000765   0.044464   0.019572
     H   16   0.000922   0.438282   0.000496   0.000528   0.000454   0.000251
     H   17   0.000757   0.438910   0.000369   0.000746   0.000498   0.000178
     H   18   0.000680   0.479132   0.000305   0.000384   0.000517   0.000279
     H   19   0.042554   0.000734   0.442447   0.100072   0.002378   0.010983
     H   20   5.065583   0.006759   0.099962   0.441120   0.002231   0.011222
     H   21   0.005995   0.468093   0.001074   0.002189   0.035849   0.015109
     H   22   0.003082   4.770832   0.001227   0.001231   0.029691   0.000558
     H   23   0.049686   0.000529   5.070297   0.418823   0.000695   0.013967
     H   24   0.446345   0.000566   0.419665   5.072497   0.000582   0.014388


                  H 13       H 14       H 15       H 16       H 17       H 18
 ------------------------------------------------------------------------------
     H   13   5.456220
     H   14   0.567825   5.489991
     H   15   0.567492   0.571753   5.461367
     H   16   0.000288   0.000302   0.000155   5.426253
     H   17   0.000771   0.000202   0.000199   0.576423   5.427742
     H   18   0.000168   0.000180   0.000184   0.563863   0.564338   5.451373
     H   19   0.019627   0.001172   0.000731   0.000090   0.000209   0.000128
     H   20   0.000672   0.000514   0.000647   0.000522   0.000397   0.000455
     H   21   0.001698   0.002731   0.011135   0.009189   0.009173   0.029538
     H   22   0.001972   0.000894   0.000702   0.023937   0.024206   0.041071
     H   23   0.000431   0.000160   0.000249   0.000179   0.000154   0.000164
     H   24   0.000219   0.000583   0.000163   0.000208   0.000172   0.000120


                  H 19       H 20       H 21       H 22       H 23       H 24
 ------------------------------------------------------------------------------
     H   19   5.452137
     H   20   0.010258   5.463194
     H   21   0.000976   0.002907   5.146031
     H   22   0.000428   0.001654   0.102653   5.146994
     H   23   0.041177   0.005339   0.000221   0.000279   5.461036
     H   24   0.005246   0.041400   0.000457   0.000334   0.009427   5.463430


          HEAT OF FORMATION =      32.583691 KCALS/MOLE

          ZERO POINT ENERGY     131.440 KCAL/MOL


           NORMAL COORDINATE ANALYSIS (Total motion = 1 Angstrom)


   Root No.       1         2         3         4         5         6         7         8

                 1 A       2 A       3 A       4 A       5 A       6 A       7 A       8 A   

                  51.9      79.8     130.2     148.6     172.6     191.7     213.0     248.0
  
           1   -0.0058   -0.0079   -0.0088   -0.0201   -0.0074    0.0020   -0.0043    0.0001
           2    0.0269    0.0040    0.0065    0.0038    0.0019   -0.0001   -0.0022    0.0069
           3    0.0009   -0.0070   -0.0092   -0.0106    0.0041    0.0043    0.0135    0.0226
           4   -0.0057   -0.0076   -0.0086   -0.0205   -0.0083    0.0018   -0.0041   -0.0019
           5    0.0157   -0.0129    0.0007   -0.0134   -0.0098   -0.0005   -0.0199    0.0034
           6   -0.0030    0.0080   -0.0025   -0.0279   -0.0096    0.0045    0.0076   -0.0170
           7    0.0056    0.0041   -0.0070    0.0015    0.0137    0.0000    0.0357   -0.0317
           8    0.0311    0.0082    0.0067    0.0129    0.0115   -0.0012    0.0135   -0.0071
           9    0.0161   -0.0285   -0.0108    0.0269    0.0169   -0.0124   -0.0278   -0.0060
          10    0.0344    0.0242    0.0279    0.0136   -0.0267    0.0025    0.0021   -0.0201
          11   -0.0292   -0.0032   -0.0098   -0.0010    0.0138   -0.0123   -0.0285   -0.0190
          12   -0.0246    0.0128    0.0046    0.0158    0.0014   -0.0109   -0.0073   -0.0226
          13   -0.0050   -0.0176   -0.0023   -0.0068   -0.0165    0.0027   -0.0237    0.0237
          14    0.0156    0.0204    0.0042   -0.0055    0.0093    0.0048    0.0228    0.0209
          15   -0.0056   -0.0013   -0.0078   -0.0101    0.0046    0.0076    0.0203    0.0454
          16   -0.0063    0.0157    0.0081   -0.0038   -0.0157    0.0001   -0.0293    0.0072
          17   -0.0155    0.0106    0.0013   -0.0108   -0.0076    0.0005   -0.0105   -0.0056
          18   -0.0169    0.0297    0.0062   -0.0184   -0.0125    0.0047   -0.0007   -0.0175
          19   -0.0148   -0.0276   -0.0187   -0.0142    0.0037    0.0012    0.0212   -0.0192
          20    0.0126   -0.0223   -0.0037   -0.0100   -0.0041   -0.0009   -0.0090   -0.0050
          21    0.0251   -0.0198   -0.0013   -0.0184   -0.0078    0.0032    0.0011   -0.0193
          22    0.0239    0.0186    0.0021   -0.0247    0.0379   -0.0083   -0.0182    0.0237
          23   -0.0083   -0.0107    0.0003    0.0090   -0.0369    0.0143    0.0181    0.0221
          24   -0.0170    0.0059   -0.0010    0.0043    0.0001    0.0004    0.0112    0.0232
          25   -0.0142    0.0101    0.0109    0.0378    0.0048   -0.0020   -0.0145    0.0261
          26   -0.0331    0.0137   -0.0009    0.0059    0.0048    0.0001    0.0072   -0.0026
          27    0.0002    0.0168    0.0136    0.0138   -0.0028    0.0023   -0.0070    0.0035
          28   -0.0193   -0.0176   -0.0072    0.0311    0.0194   -0.0010    0.0248    0.0032
          29   -0.0155   -0.0072   -0.0046    0.0061    0.0080   -0.0005    0.0116   -0.0056
          30    0.0264   -0.0147    0.0079    0.0136    0.0019    0.0015   -0.0005   -0.0017
          31   -0.0121   -0.0054   -0.0088   -0.0425   -0.0211    0.0008   -0.0109   -0.0118
          32    0.0391   -0.0038    0.0063    0.0237    0.0110   -0.0095   -0.0132   -0.0166
          33   -0.0037   -0.0035   -0.0090   -0.0126    0.0044    0.0097    0.0217    0.0392
          34    0.0008   -0.0103   -0.0114   -0.0132   -0.0001    0.0039    0.0031    0.0182
          35    0.0310   -0.0389   -0.0042   -0.0156   -0.0092   -0.0023   -0.0197    0.0016
          36   -0.0161    0.0265    0.0022   -0.0281   -0.0129    0.0050    0.0046   -0.0243
          37    0.0101    0.0121   -0.0003   -0.0078   -0.0157   -0.1954    0.0904   -0.0201
          38    0.0375   -0.0064    0.0072    0.0247    0.0004   -0.0871   -0.0074   -0.0084
          39    0.0217   -0.0348   -0.0080    0.0310   -0.0005   -0.1360   -0.0218   -0.0026
          40    0.0056    0.0040   -0.0070    0.0017    0.0141    0.0019    0.0356   -0.0322
          41    0.0399    0.0172    0.0080    0.0304    0.0294   -0.0017    0.0470   -0.0360
          42    0.0163   -0.0331   -0.0180    0.0497    0.0638    0.2276   -0.0757   -0.0383
          43    0.0102    0.0051   -0.0120    0.0283    0.0600    0.1906    0.0153   -0.0721
          44    0.0196    0.0174    0.0052   -0.0088    0.0129    0.0842    0.0155    0.0102
          45    0.0218   -0.0349   -0.0080    0.0308   -0.0014   -0.1400   -0.0214   -0.0021
          46    0.0788    0.0782   -0.1498    0.0639   -0.1040    0.0139    0.0115   -0.0237
          47   -0.0187    0.0087   -0.0489    0.0107   -0.0052   -0.0090   -0.0251   -0.0191
          48   -0.0214    0.0480   -0.1056    0.0239    0.0271   -0.0345   -0.0553   -0.0560
          49    0.0308    0.0196    0.0443    0.0106   -0.0225    0.0019    0.0022   -0.0217
          50   -0.0745   -0.0569    0.1663   -0.0525    0.0945   -0.0250   -0.0408   -0.0167
          51   -0.0402   -0.0147    0.1332    0.0249   -0.0238   -0.0039    0.0132   -0.0631
          52    0.0042   -0.0181    0.2000    0.0025   -0.0177    0.0033    0.0143   -0.0540
          53   -0.0133    0.0421   -0.1459    0.0263    0.0031   -0.0274   -0.0632   -0.0567
          54   -0.0189    0.0108   -0.0084    0.0086    0.0022   -0.0048    0.0024    0.0074
          55   -0.0012    0.0344    0.0177   -0.0179   -0.0342   -0.0001   -0.0589    0.0087
          56   -0.0218    0.0228    0.0036   -0.0190   -0.0144    0.0011   -0.0177   -0.0090
          57   -0.0377    0.0523    0.0068   -0.0324   -0.0203    0.0072   -0.0035   -0.0278
          58   -0.0174   -0.0469   -0.0339   -0.0371    0.0051    0.0027    0.0437   -0.0466
          59    0.0311   -0.0387   -0.0054   -0.0173   -0.0078   -0.0009   -0.0152   -0.0095
          60    0.0409   -0.0405   -0.0075   -0.0320   -0.0108    0.0036    0.0023   -0.0316
          61   -0.0257   -0.0506    0.0080    0.0244   -0.0843    0.0156   -0.0292    0.0263
          62    0.0244    0.0561    0.0002   -0.0244    0.0662   -0.0080    0.0260    0.0219
          63   -0.0011   -0.0023   -0.0100   -0.0144    0.0085    0.0070    0.0206    0.0425
          64    0.0442    0.0494   -0.0155   -0.0617    0.1155   -0.0211   -0.0168    0.0449
          65   -0.0160   -0.0461    0.0071    0.0249   -0.1007    0.0359    0.0323    0.0476
          66   -0.0218    0.0078    0.0032    0.0124   -0.0050   -0.0032    0.0047    0.0041
          67   -0.0163    0.0228    0.0237    0.0682    0.0089   -0.0037   -0.0292    0.0501
          68   -0.0567    0.0287   -0.0004    0.0166    0.0111    0.0002    0.0177   -0.0002
          69   -0.0039    0.0267    0.0219    0.0345    0.0006    0.0012   -0.0152    0.0191
          70   -0.0258   -0.0271   -0.0102    0.0558    0.0377   -0.0017    0.0505    0.0013
          71   -0.0246   -0.0090   -0.0075    0.0164    0.0175   -0.0005    0.0278   -0.0090
          72    0.0439   -0.0303    0.0110    0.0348    0.0107   -0.0001    0.0012    0.0061


   Root No.       9        10        11        12        13        14        15        16

                 9 A      10 A      11 A      12 A      13 A      14 A      15 A      16 A   

                 341.4     373.4     474.7     485.9     517.3     571.5     750.6     811.1
  
           1   -0.0042   -0.0041    0.0226    0.0060   -0.0181   -0.0315    0.0266    0.0001
           2   -0.0104   -0.0040   -0.0066    0.0413    0.0167   -0.0146    0.0103   -0.0006
           3    0.0004   -0.0053    0.0352    0.0364    0.0005    0.0290    0.0068   -0.0004
           4   -0.0030   -0.0177    0.0161    0.0139   -0.0113   -0.0292    0.0053    0.0004
           5    0.0275   -0.0107    0.0127    0.0060   -0.0149   -0.0082   -0.0168    0.0054
           6   -0.0168    0.0061    0.0088    0.0120    0.0002   -0.0214   -0.0248   -0.0020
           7    0.0426    0.0219    0.0097   -0.0208   -0.0150    0.0020    0.0049   -0.0009
           8    0.0060    0.0040   -0.0178    0.0391    0.0281   -0.0051   -0.0002    0.0028
           9   -0.0174   -0.0181    0.0007   -0.0203   -0.0080    0.0001    0.0002    0.0003
          10   -0.0250    0.0055    0.0161   -0.0070   -0.0032    0.0170   -0.0038    0.0001
          11   -0.0267    0.0212    0.0161   -0.0052   -0.0011    0.0216   -0.0033   -0.0001
          12    0.0186   -0.0151   -0.0052    0.0143    0.0015   -0.0156    0.0048    0.0002
          13    0.0022    0.0578   -0.0188   -0.0008    0.0098   -0.0031    0.0013    0.0002
          14   -0.0254   -0.0255   -0.0035   -0.0304   -0.0082   -0.0086   -0.0011    0.0008
          15    0.0042    0.0004    0.0123   -0.0031   -0.0034    0.0378   -0.0091   -0.0035
          16    0.0158   -0.0419   -0.0249    0.0100   -0.0169    0.0237   -0.0129   -0.0339
          17    0.0166   -0.0012   -0.0069   -0.0063   -0.0170    0.0066    0.0174   -0.0087
          18   -0.0175    0.0075   -0.0232    0.0016    0.0010    0.0058   -0.0173   -0.0123
          19   -0.0165   -0.0305   -0.0120   -0.0045    0.0437    0.0073   -0.0127    0.0324
          20    0.0287   -0.0144    0.0037   -0.0083    0.0016    0.0109   -0.0225    0.0086
          21    0.0023    0.0031   -0.0030   -0.0163    0.0188    0.0007    0.0096    0.0108
          22   -0.0078    0.0301   -0.0153   -0.0096    0.0067   -0.0018   -0.0037    0.0008
          23   -0.0214    0.0013   -0.0047   -0.0279   -0.0062   -0.0047    0.0007    0.0004
          24    0.0245   -0.0111   -0.0293   -0.0079    0.0021   -0.0295    0.0014    0.0010
          25    0.0145   -0.0197    0.0206   -0.0033    0.0257   -0.0030   -0.0187   -0.0284
          26    0.0034    0.0128    0.0113   -0.0106    0.0107   -0.0081    0.0050   -0.0112
          27    0.0010    0.0205    0.0134   -0.0129    0.0183   -0.0124    0.0021    0.0010
          28   -0.0239   -0.0044   -0.0156    0.0229   -0.0214    0.0017   -0.0192    0.0290
          29    0.0040    0.0110   -0.0007    0.0009   -0.0202    0.0000   -0.0001   -0.0057
          30    0.0019    0.0201   -0.0044    0.0022   -0.0300   -0.0022    0.0048    0.0094
          31   -0.0112   -0.0171    0.0406    0.0131   -0.0344   -0.0712    0.0272    0.0016
          32   -0.0135   -0.0027   -0.0221    0.0513    0.0305   -0.0284    0.0192    0.0025
          33    0.0054   -0.0018    0.0352    0.0264   -0.0009    0.0510    0.0001   -0.0027
          34   -0.0089   -0.0119    0.0478    0.0462   -0.0193   -0.0419    0.0621    0.0007
          35    0.0442   -0.0186    0.0278   -0.0157    0.0109   -0.0035   -0.0287    0.0605
          36   -0.0251    0.0095   -0.0161    0.0115   -0.0127   -0.0170   -0.0409   -0.0389
          37    0.0724    0.0437    0.0115   -0.0181   -0.0101    0.0382   -0.0198   -0.0009
          38   -0.0221   -0.0131   -0.0382   -0.0019    0.0179   -0.0458    0.0041    0.0014
          39   -0.0252   -0.0220   -0.0118   -0.0461   -0.0130   -0.0129   -0.0057   -0.0003
          40    0.0434    0.0224    0.0096   -0.0213   -0.0152    0.0024    0.0041   -0.0009
          41    0.0563    0.0299   -0.0323    0.0144    0.0329    0.0394   -0.0558    0.0024
          42   -0.0224   -0.0289   -0.0112   -0.0447   -0.0140   -0.0158   -0.0064    0.0001
          43    0.0654    0.0284   -0.0056   -0.0518   -0.0183    0.0133   -0.0280   -0.0022
          44    0.0058    0.0057    0.0093    0.0959    0.0382    0.0082    0.0249    0.0044
          45   -0.0257   -0.0219   -0.0113   -0.0470   -0.0139   -0.0129   -0.0045   -0.0003
          46   -0.0297   -0.0061    0.0251   -0.0159   -0.0120    0.0178    0.0020   -0.0006
          47   -0.0280    0.0181    0.0180   -0.0080   -0.0033    0.0217   -0.0020   -0.0002
          48    0.0175    0.0108    0.0131    0.0481    0.0129    0.0164   -0.0048   -0.0019
          49   -0.0258    0.0052    0.0178   -0.0064   -0.0035    0.0189   -0.0040    0.0000
          50   -0.0240    0.0360    0.0102    0.0043    0.0081    0.0279   -0.0120    0.0004
          51    0.0022   -0.0443    0.0335    0.0189   -0.0130    0.0074    0.0124   -0.0031
          52   -0.0383   -0.0135    0.0464   -0.0017   -0.0126    0.0388   -0.0013   -0.0021
          53   -0.0328    0.0355    0.0408    0.0195    0.0033    0.0542   -0.0102   -0.0023
          54    0.0263   -0.0132   -0.0275    0.0020    0.0035   -0.0375    0.0067    0.0020
          55    0.0409   -0.0763   -0.0739    0.0094   -0.0383    0.1068    0.0834    0.1907
          56    0.0200   -0.0118   -0.0310   -0.0081   -0.0234    0.0409    0.0678    0.0913
          57   -0.0235   -0.0016   -0.0607   -0.0031   -0.0041    0.0508    0.0644    0.1289
          58   -0.0335   -0.0529   -0.0446   -0.0268    0.1268    0.0527    0.0859   -0.1854
          59    0.0407   -0.0257   -0.0051   -0.0234    0.0236    0.0316    0.0325   -0.0767
          60    0.0081   -0.0138   -0.0208   -0.0367    0.0639    0.0334    0.0897   -0.1332
          61    0.0196    0.1175   -0.0619    0.0162    0.0431   -0.0071   -0.0213    0.0002
          62   -0.0335   -0.0721   -0.0074   -0.0846   -0.0348   -0.0377    0.0080    0.0054
          63    0.0006   -0.0048    0.0304    0.0120   -0.0058    0.0498   -0.0037   -0.0052
          64   -0.0199   -0.0035   -0.0004   -0.0387   -0.0132    0.0034    0.0047   -0.0035
          65   -0.0168    0.0405   -0.0163   -0.0188    0.0085    0.0140   -0.0160    0.0014
          66    0.0269   -0.0134   -0.0292    0.0005    0.0039   -0.0377    0.0047    0.0021
          67    0.0390   -0.0180    0.0614   -0.0374    0.0951    0.0024    0.0972    0.0834
          68   -0.0079    0.0206    0.0237   -0.0221    0.0591   -0.0104    0.0356    0.0599
          69    0.0154    0.0228    0.0411   -0.0363    0.0686   -0.0093    0.0804    0.0816
          70   -0.0514    0.0187   -0.0556    0.0507   -0.0866    0.0274    0.0981   -0.0796
          71   -0.0145    0.0249   -0.0203    0.0132   -0.0470    0.0091    0.0601   -0.0513
          72    0.0042    0.0249   -0.0275    0.0224   -0.0878    0.0251    0.0644   -0.0830


   Root No.      17        18        19        20        21        22        23        24

                17 A      18 A      19 A      20 A      21 A      22 A      23 A      24 A   

                 824.0     825.8     866.6     923.7     936.2     949.3     967.2     980.2
  
           1    0.0015   -0.0063   -0.0001   -0.0054   -0.0122    0.0105   -0.0015    0.0009
           2   -0.0007   -0.0032   -0.0017    0.0000   -0.0081    0.0025   -0.0002   -0.0026
           3    0.0016   -0.0040    0.0009   -0.0043   -0.0074   -0.0127    0.0005   -0.0002
           4    0.0013   -0.0049   -0.0067    0.0105    0.0198   -0.0052    0.0065    0.0004
           5    0.0348    0.0343   -0.0005    0.0033    0.0070   -0.0031    0.0071    0.0048
           6   -0.0340    0.0436    0.0028    0.0042    0.0101   -0.0054    0.0097   -0.0040
           7    0.0007    0.0015   -0.0041   -0.0042   -0.0236    0.0124   -0.0154    0.0007
           8   -0.0001   -0.0072    0.0087   -0.0013    0.0098    0.0127    0.0004    0.0024
           9    0.0001   -0.0002    0.0022   -0.0089   -0.0080   -0.0184   -0.0076    0.0016
          10   -0.0033    0.0026   -0.0184   -0.0022   -0.0053   -0.0176   -0.0015   -0.0017
          11    0.0009    0.0008    0.0165   -0.0022   -0.0018   -0.0175    0.0005   -0.0027
          12    0.0005   -0.0010    0.0010   -0.0010   -0.0028   -0.0022   -0.0002   -0.0008
          13    0.0037   -0.0013    0.0334   -0.0297    0.0103    0.0095    0.0032    0.0000
          14   -0.0046    0.0031   -0.0278    0.0250   -0.0085   -0.0007   -0.0025    0.0018
          15    0.0033   -0.0048   -0.0039    0.0099    0.0111    0.0238   -0.0001   -0.0016
          16   -0.0162   -0.0161   -0.0004    0.0023    0.0098   -0.0026   -0.0214   -0.0147
          17    0.0619   -0.0404   -0.0109    0.0084    0.0162   -0.0074   -0.0123   -0.0190
          18    0.0097    0.0179    0.0064   -0.0070   -0.0105    0.0071   -0.0133    0.0031
          19    0.0217   -0.0134   -0.0015    0.0025    0.0096   -0.0023   -0.0221    0.0134
          20    0.0038    0.0339    0.0055   -0.0093   -0.0198    0.0090   -0.0098   -0.0087
          21   -0.0488   -0.0409   -0.0009    0.0044    0.0140   -0.0037   -0.0154    0.0153
          22   -0.0059    0.0043   -0.0194   -0.0109    0.0010   -0.0011    0.0012    0.0000
          23    0.0015    0.0010    0.0175    0.0071   -0.0033   -0.0035   -0.0009    0.0005
          24   -0.0021    0.0030    0.0019   -0.0015   -0.0024   -0.0084   -0.0001   -0.0001
          25   -0.0415   -0.0033    0.0036   -0.0040   -0.0101    0.0008    0.0159    0.0323
          26   -0.0144   -0.0194   -0.0006   -0.0003   -0.0021   -0.0001    0.0064    0.0176
          27    0.0883   -0.0107   -0.0056    0.0003   -0.0043   -0.0019    0.0109    0.0237
          28    0.0408    0.0024   -0.0002   -0.0025   -0.0113    0.0028    0.0155   -0.0312
          29   -0.0842   -0.0177    0.0039   -0.0005   -0.0006   -0.0008    0.0089   -0.0153
          30   -0.0123   -0.0256   -0.0012    0.0002   -0.0034    0.0008    0.0107   -0.0249
          31   -0.0096    0.0423   -0.0175    0.0183    0.0138    0.0075    0.0561    0.0005
          32   -0.0092   -0.0184    0.0190   -0.0324   -0.0412   -0.0163   -0.0377   -0.0025
          33    0.0104   -0.0131   -0.0042    0.0059    0.0037   -0.0003    0.0008   -0.0002
          34    0.0043   -0.0217   -0.0239    0.0308    0.0249   -0.0225    0.0753    0.0014
          35    0.0008    0.0335    0.0047    0.0035    0.0070   -0.0049   -0.0081    0.1951
          36   -0.0127    0.0516    0.0073   -0.0055    0.0058    0.0042   -0.0111   -0.1313
          37    0.0090    0.0147    0.0108   -0.0089    0.0233   -0.0730    0.0198   -0.0005
          38   -0.0067   -0.0041   -0.0178    0.0431    0.0248    0.1297    0.0174   -0.0015
          39   -0.0014    0.0067   -0.0102    0.0185    0.0180    0.0267    0.0161   -0.0013
          40    0.0010    0.0025   -0.0039   -0.0036   -0.0215    0.0114   -0.0135    0.0006
          41    0.0119    0.0244    0.0222    0.0256    0.1357   -0.0797    0.0941   -0.0003
          42   -0.0029    0.0090   -0.0120    0.0205    0.0155    0.0286    0.0152   -0.0008
          43    0.0054    0.0263   -0.0079    0.0301    0.0561   -0.0083    0.0515   -0.0052
          44    0.0006   -0.0310    0.0321   -0.0626   -0.0639   -0.0447   -0.0671    0.0110
          45   -0.0020    0.0068   -0.0121    0.0191    0.0119    0.0278    0.0129   -0.0015
          46    0.0123   -0.0048    0.0879    0.0026    0.0053   -0.0087    0.0033   -0.0033
          47    0.0045   -0.0007    0.0427   -0.0013    0.0002   -0.0178    0.0016   -0.0034
          48   -0.0116   -0.0012   -0.1300    0.0098    0.0157    0.0938   -0.0028    0.0131
          49   -0.0031    0.0022   -0.0188   -0.0014   -0.0040   -0.0135   -0.0014   -0.0012
          50   -0.0161    0.0092   -0.0995   -0.0070   -0.0118   -0.0290   -0.0047   -0.0014
          51    0.0248   -0.0187    0.1185    0.0223    0.0357    0.1095    0.0076    0.0092
          52    0.0111   -0.0084    0.0452    0.0142    0.0220    0.0607    0.0032    0.0063
          53   -0.0017   -0.0029   -0.0430    0.0104    0.0214    0.0709    0.0007    0.0091
          54   -0.0041    0.0049    0.0000   -0.0126   -0.0232   -0.0693   -0.0021   -0.0089
          55   -0.0339    0.0443   -0.0028    0.0012   -0.0204   -0.0134    0.1031    0.0472
          56    0.0161   -0.0225   -0.0090    0.0044   -0.0070   -0.0024    0.0420    0.0189
          57   -0.1119    0.0322    0.0137   -0.0179   -0.0575    0.0285    0.0624    0.0702
          58    0.0185    0.0570   -0.0018   -0.0003   -0.0202   -0.0098    0.1094   -0.0510
          59    0.0928    0.0587    0.0011   -0.0219   -0.0586    0.0244    0.0356   -0.0474
          60    0.0286    0.0021   -0.0050   -0.0078   -0.0296    0.0078    0.0658   -0.0397
          61   -0.0274    0.0191   -0.0592    0.2263   -0.0494   -0.0134   -0.0120    0.0082
          62    0.0146   -0.0020    0.0534   -0.1948    0.0522    0.0217    0.0123    0.0097
          63    0.0077   -0.0105    0.0003   -0.0035    0.0105    0.0244    0.0000   -0.0080
          64    0.0215   -0.0084    0.1643    0.1703   -0.0204    0.0217   -0.0066    0.0030
          65   -0.0212    0.0108   -0.1405   -0.1336    0.0389    0.0492    0.0085    0.0037
          66   -0.0037    0.0039   -0.0073   -0.0162   -0.0102   -0.0361   -0.0006   -0.0024
          67   -0.1126    0.1138    0.0005    0.0209    0.0663   -0.0074   -0.0763   -0.1579
          68   -0.0152    0.0948    0.0106   -0.0092   -0.0104    0.0200   -0.0337   -0.0192
          69    0.0441    0.0783   -0.0063    0.0151    0.0434   -0.0046   -0.0532   -0.1027
          70    0.0711    0.1337   -0.0087    0.0193    0.0664   -0.0176   -0.0779    0.1517
          71   -0.0582    0.0278   -0.0030    0.0148    0.0477   -0.0163   -0.0339    0.0801
          72   -0.0411    0.1189    0.0048   -0.0044    0.0031    0.0097   -0.0544    0.0597


   Root No.      25        26        27        28        29        30        31        32

                25 A      26 A      27 A      28 A      29 A      30 A      31 A      32 A   

                 991.4    1006.1    1025.8    1030.9    1081.2    1088.3    1097.5    1115.1
  
           1    0.0036    0.0018    0.0018   -0.0053    0.0010    0.0007   -0.0141    0.0226
           2   -0.0013    0.0011   -0.0010    0.0064   -0.0070    0.0098    0.0280   -0.0007
           3    0.0032    0.0027    0.0001    0.0021    0.0002    0.0050    0.0100    0.0136
           4   -0.0013    0.0131   -0.0020    0.0012    0.0009   -0.0102   -0.0119   -0.0461
           5   -0.0037   -0.0147    0.0138    0.0004   -0.0043   -0.0025    0.0021   -0.0159
           6   -0.0058   -0.0240   -0.0077   -0.0017    0.0015   -0.0058   -0.0001   -0.0244
           7    0.0035   -0.0160    0.0034    0.0034   -0.0010    0.0003    0.0082   -0.0070
           8    0.0130   -0.0041    0.0012   -0.0108    0.0061   -0.0083   -0.0305    0.0140
           9   -0.0223    0.0014   -0.0001    0.0031    0.0023   -0.0049   -0.0161    0.0089
          10    0.0130    0.0004    0.0047   -0.0350    0.0002   -0.0004    0.0002   -0.0030
          11    0.0212   -0.0047   -0.0020    0.0268    0.0002   -0.0017   -0.0028   -0.0034
          12    0.0061   -0.0004    0.0006    0.0012   -0.0013    0.0012    0.0017    0.0009
          13   -0.0037    0.0000    0.0013   -0.0234   -0.0004    0.0027    0.0067    0.0021
          14   -0.0118    0.0027   -0.0022    0.0216   -0.0002   -0.0004   -0.0037    0.0044
          15    0.0092   -0.0048    0.0008   -0.0031   -0.0011   -0.0034   -0.0053   -0.0146
          16    0.0013    0.0050    0.0235    0.0040   -0.0019    0.0041    0.0024    0.0064
          17   -0.0003   -0.0057   -0.0067    0.0006    0.0205    0.0038   -0.0077   -0.0103
          18    0.0033    0.0207    0.0301    0.0045   -0.0031    0.0030    0.0168    0.0242
          19    0.0034    0.0027   -0.0244   -0.0013    0.0018    0.0044    0.0046    0.0065
          20    0.0046    0.0163   -0.0314   -0.0016    0.0094   -0.0001    0.0185    0.0257
          21    0.0021    0.0032   -0.0062    0.0000   -0.0169    0.0076   -0.0012    0.0007
          22   -0.0014   -0.0023   -0.0056    0.0486    0.0000   -0.0006   -0.0029    0.0039
          23   -0.0080    0.0029    0.0030   -0.0395   -0.0003    0.0022    0.0050    0.0027
          24   -0.0022    0.0000   -0.0009   -0.0017    0.0011   -0.0007   -0.0004    0.0001
          25    0.0010   -0.0010   -0.0235   -0.0030   -0.0032   -0.0043   -0.0046   -0.0070
          26    0.0011    0.0063   -0.0100   -0.0008   -0.0012    0.0031   -0.0114   -0.0133
          27   -0.0011   -0.0135   -0.0144   -0.0019    0.0011    0.0016    0.0116    0.0125
          28   -0.0027    0.0018    0.0231    0.0025    0.0030   -0.0052   -0.0045   -0.0075
          29   -0.0034   -0.0125    0.0115   -0.0002   -0.0037    0.0002    0.0135    0.0175
          30   -0.0018    0.0029    0.0143    0.0014    0.0023    0.0034   -0.0064   -0.0075
          31    0.0054    0.0067   -0.0020   -0.0020    0.0120    0.0010   -0.0879    0.2446
          32   -0.0545   -0.0079   -0.0141    0.0095   -0.0192    0.0183    0.1178   -0.1576
          33    0.0335    0.0056    0.0090   -0.0015    0.0031   -0.0005   -0.0144    0.0174
          34    0.0046    0.1199   -0.0152    0.0330   -0.0018    0.0619    0.1676    0.0295
          35   -0.0028   -0.0309    0.2455    0.0225    0.0712   -0.0220   -0.0253   -0.0394
          36   -0.0087   -0.0587   -0.1564   -0.0303   -0.0478   -0.0246   -0.0591   -0.0405
          37   -0.0598    0.0351   -0.0054    0.0098   -0.0033    0.0041    0.0014    0.0160
          38    0.1319   -0.0339    0.0083   -0.0261    0.0031    0.0025    0.0092   -0.0121
          39    0.0322   -0.0003    0.0011   -0.0041   -0.0011    0.0041    0.0073    0.0014
          40    0.0034   -0.0148    0.0034    0.0033   -0.0011    0.0008    0.0084   -0.0048
          41   -0.0255    0.0870   -0.0098   -0.0155    0.0074   -0.0029   -0.0398    0.0363
          42    0.0341   -0.0046    0.0025   -0.0023   -0.0035    0.0066    0.0130   -0.0011
          43    0.0167    0.0314   -0.0041    0.0016   -0.0082    0.0175    0.0406    0.0057
          44   -0.0757   -0.0240    0.0042   -0.0043    0.0182   -0.0351   -0.0994    0.0238
          45    0.0323   -0.0033    0.0013   -0.0008   -0.0027    0.0061    0.0162   -0.0015
          46    0.0245   -0.0104   -0.0104    0.0979    0.0006   -0.0037   -0.0066   -0.0050
          47    0.0265   -0.0077   -0.0057    0.0601    0.0003   -0.0027   -0.0047   -0.0046
          48   -0.1049    0.0218    0.0106   -0.1424   -0.0006    0.0066    0.0111    0.0119
          49    0.0092    0.0008    0.0046   -0.0364    0.0003   -0.0004    0.0002   -0.0031
          50    0.0115    0.0057    0.0141   -0.1183    0.0011   -0.0006    0.0016   -0.0072
          51   -0.0768   -0.0015   -0.0223    0.1522   -0.0014    0.0016   -0.0010    0.0128
          52   -0.0514    0.0017   -0.0092    0.0454    0.0021   -0.0016   -0.0028    0.0022
          53   -0.0737    0.0093   -0.0018   -0.0294    0.0027   -0.0008   -0.0003    0.0024
          54    0.0711   -0.0067    0.0061   -0.0080   -0.0033    0.0014    0.0020   -0.0036
          55   -0.0201   -0.1129   -0.0614   -0.0151   -0.1239    0.0946   -0.0058    0.0160
          56   -0.0006   -0.0023   -0.0447   -0.0050    0.0458   -0.0300   -0.0193   -0.0402
          57    0.0159    0.1009   -0.0249    0.0000    0.1384   -0.1473   -0.0072   -0.0603
          58   -0.0277   -0.1050    0.0769    0.0013    0.1279    0.0828    0.0243    0.0056
          59    0.0099    0.0973   -0.0089    0.0028   -0.1218   -0.1213   -0.0353   -0.0329
          60   -0.0026    0.0437    0.0446    0.0047   -0.0978   -0.0771   -0.0455   -0.0544
          61   -0.0590    0.0083   -0.0122    0.0718    0.0071   -0.0081   -0.0190    0.0154
          62   -0.0521    0.0085    0.0037   -0.0436    0.0093    0.0039    0.0218    0.0041
          63    0.0452   -0.0103    0.0032   -0.0144   -0.0079   -0.0009   -0.0052   -0.0193
          64   -0.0488    0.0071    0.0031   -0.1112   -0.0025    0.0033    0.0131   -0.0031
          65   -0.0378   -0.0048   -0.0146    0.0999   -0.0005   -0.0024   -0.0035    0.0003
          66    0.0262   -0.0006    0.0024    0.0056    0.0020   -0.0003   -0.0031    0.0037
          67   -0.0051   -0.0124    0.0426    0.0037    0.0588   -0.0791    0.0308    0.0123
          68    0.0079    0.0930    0.1000    0.0156   -0.1508    0.2062   -0.1022   -0.0648
          69   -0.0041   -0.0100    0.0416    0.0044    0.0239   -0.0219    0.0245    0.0200
          70    0.0088   -0.0211   -0.0386   -0.0046   -0.0743   -0.0717    0.0250    0.0152
          71   -0.0013   -0.0435    0.0072   -0.0026   -0.0991   -0.0868    0.0493    0.0473
          72    0.0180    0.0634   -0.1171   -0.0068    0.1642    0.1642   -0.0644   -0.0574


   Root No.      33        34        35        36        37        38        39        40

                33 A      34 A      35 A      36 A      37 A      38 A      39 A      40 A   

                1125.9    1149.8    1177.8    1200.3    1205.1    1231.7    1244.1    1305.5
  
           1   -0.0218    0.0152   -0.0017   -0.0019   -0.0160    0.0468    0.0029   -0.0050
           2   -0.0299    0.0228    0.0097    0.0028    0.0117   -0.0280    0.0015   -0.0348
           3   -0.0066    0.0205    0.0253    0.0229    0.0145    0.0108    0.0057    0.0282
           4    0.0129    0.0005   -0.0123   -0.0037   -0.0073    0.0177    0.0017   -0.0181
           5    0.0022    0.0059   -0.0078   -0.0156    0.0233   -0.0110   -0.0006   -0.0406
           6    0.0114   -0.0054    0.0036    0.0132   -0.0060   -0.0210   -0.0009    0.0413
           7    0.0094   -0.0028    0.0009    0.0003    0.0081   -0.0160   -0.0001   -0.0005
           8    0.0241   -0.0114   -0.0078   -0.0009   -0.0039    0.0072    0.0016    0.0049
           9    0.0070   -0.0034   -0.0120   -0.0064   -0.0019   -0.0075   -0.0009   -0.0068
          10    0.0030   -0.0088    0.0029    0.0002    0.0021    0.0025    0.0002   -0.0009
          11    0.0043   -0.0098    0.0050   -0.0010    0.0017    0.0030    0.0011   -0.0008
          12   -0.0169   -0.0122   -0.0267    0.0167    0.0087    0.0022   -0.0157   -0.0046
          13   -0.0034    0.0135   -0.0066   -0.0003   -0.0027   -0.0150   -0.0144    0.0083
          14   -0.0067    0.0173   -0.0119   -0.0026   -0.0088   -0.0022   -0.0145    0.0112
          15   -0.0001   -0.0342    0.0025   -0.0192   -0.0068    0.0044   -0.0409   -0.0282
          16    0.0000   -0.0017    0.0030   -0.0031    0.0090   -0.0018    0.0003    0.0173
          17   -0.0007   -0.0038    0.0087    0.0072    0.0023   -0.0120   -0.0004    0.0251
          18    0.0031   -0.0003   -0.0059    0.0040   -0.0169    0.0077    0.0008   -0.0341
          19   -0.0022   -0.0004    0.0035    0.0056   -0.0029   -0.0108   -0.0006   -0.0118
          20    0.0051   -0.0026   -0.0074   -0.0090   -0.0027    0.0252    0.0014    0.0293
          21   -0.0024    0.0018    0.0004   -0.0056    0.0109   -0.0056   -0.0004   -0.0043
          22   -0.0047    0.0086   -0.0057   -0.0018   -0.0062   -0.0057    0.0020    0.0159
          23   -0.0056    0.0106   -0.0073   -0.0002   -0.0048   -0.0123   -0.0016    0.0187
          24    0.0140    0.0014    0.0316   -0.0129   -0.0036    0.0024    0.0625   -0.0030
          25   -0.0016    0.0015    0.0012   -0.0021    0.0073   -0.0050   -0.0004    0.0039
          26   -0.0016   -0.0005    0.0055    0.0114   -0.0075   -0.0146   -0.0008   -0.0087
          27    0.0030   -0.0005   -0.0069   -0.0061   -0.0044    0.0170    0.0008   -0.0018
          28   -0.0006   -0.0011    0.0037    0.0049   -0.0012   -0.0081   -0.0004    0.0018
          29    0.0051   -0.0006   -0.0064    0.0026   -0.0162    0.0139    0.0008   -0.0197
          30   -0.0006    0.0012   -0.0010   -0.0073    0.0108    0.0030    0.0001    0.0115
          31   -0.0641   -0.1438    0.0953   -0.0309    0.0342   -0.1104   -0.0489    0.0011
          32   -0.0937   -0.1353    0.0873   -0.0375   -0.0504    0.0849   -0.0525    0.0562
          33    0.0455    0.1703   -0.0527    0.0570    0.0309    0.0085    0.0536   -0.0258
          34    0.1548   -0.0826   -0.0602   -0.0239   -0.0041   -0.0699    0.0008    0.0337
          35   -0.0255   -0.0043    0.0287    0.0487   -0.0494   -0.0100    0.0023    0.0415
          36   -0.0333    0.0398    0.0008   -0.0200    0.0412    0.0184   -0.0026   -0.0359
          37   -0.0411    0.0150   -0.0039   -0.0067   -0.0035   -0.0115   -0.0025   -0.0316
          38    0.0346   -0.0091    0.0288    0.0222    0.0042    0.0456    0.0008    0.0561
          39   -0.0037    0.0069    0.0097    0.0075    0.0002    0.0156   -0.0013    0.0133
          40    0.0072   -0.0018    0.0017    0.0004    0.0086   -0.0172   -0.0002   -0.0028
          41   -0.0594    0.0110   -0.0019   -0.0065   -0.0410    0.0981   -0.0027    0.0271
          42   -0.0084    0.0146    0.0131    0.0130    0.0041    0.0052    0.0027    0.0091
          43   -0.0579    0.0258    0.0271    0.0086    0.0049    0.0007   -0.0007   -0.0181
          44    0.0802   -0.0575   -0.0536   -0.0307   -0.0180    0.0033   -0.0080    0.0112
          45   -0.0053    0.0170    0.0091    0.0109    0.0083   -0.0083    0.0050   -0.0020
          46    0.0139   -0.0150    0.0286   -0.0115    0.0012    0.0117    0.0564   -0.0357
          47    0.0082   -0.0141    0.0142   -0.0041    0.0026    0.0074    0.0223   -0.0148
          48   -0.0203    0.0409   -0.0353    0.0008   -0.0158   -0.0285   -0.0497    0.0535
          49    0.0049   -0.0088    0.0071   -0.0019    0.0016    0.0034    0.0096   -0.0053
          50    0.0171   -0.0187    0.0328   -0.0117    0.0032    0.0135    0.0619   -0.0403
          51   -0.0212    0.0400   -0.0345   -0.0001   -0.0168   -0.0274   -0.0473    0.0515
          52    0.0270    0.0209    0.0523   -0.0270   -0.0109    0.0038    0.0721   -0.0197
          53    0.0349    0.0276    0.0671   -0.0346   -0.0140    0.0042    0.0911   -0.0248
          54   -0.0419   -0.0402   -0.0771    0.0426    0.0200   -0.0008   -0.0868    0.0172
          55    0.0289   -0.0090   -0.0036    0.0438   -0.0734    0.0074    0.0002   -0.0260
          56   -0.0080    0.0024    0.0067   -0.0072    0.0249   -0.0133   -0.0009    0.0310
          57   -0.0334    0.0212   -0.0094   -0.0652    0.0931    0.0037   -0.0003    0.0066
          58    0.0019    0.0114   -0.0309   -0.0551    0.0410    0.0479    0.0022    0.0092
          59    0.0090   -0.0158    0.0283    0.0644   -0.0618   -0.0322   -0.0015    0.0071
          60    0.0021   -0.0065    0.0230    0.0427   -0.0280   -0.0418   -0.0022   -0.0168
          61    0.0637   -0.0065    0.0598    0.0567    0.0560    0.0783   -0.1288   -0.0386
          62    0.0826   -0.0018    0.0810    0.0768    0.0833    0.0642   -0.1533   -0.0499
          63   -0.0604   -0.0184   -0.0564   -0.0724   -0.0650   -0.0564    0.0531    0.0126
          64   -0.0304   -0.1000   -0.0439    0.0693    0.0544    0.0149    0.1456   -0.0085
          65   -0.0406   -0.1255   -0.0609    0.0824    0.0599    0.0373    0.1746   -0.0099
          66    0.0359    0.0931    0.0671   -0.0725   -0.0521   -0.0252   -0.0557    0.0183
          67    0.0006   -0.0013    0.0066    0.0274   -0.0287   -0.0219   -0.0009   -0.0247
          68   -0.0026    0.0043   -0.0063   -0.0629    0.0866    0.0274    0.0010    0.0700
          69    0.0046   -0.0017   -0.0058    0.0035   -0.0173    0.0134    0.0008   -0.0123
          70   -0.0010    0.0043   -0.0053   -0.0260    0.0349    0.0083    0.0003    0.0362
          71    0.0059    0.0052   -0.0181   -0.0362    0.0274    0.0380    0.0019    0.0237
          72   -0.0025   -0.0076    0.0173    0.0598   -0.0670   -0.0365   -0.0016   -0.0691


   Root No.      41        42        43        44        45        46        47        48

                41 A      42 A      43 A      44 A      45 A      46 A      47 A      48 A   

                1344.2    1375.6    1393.3    1396.6    1400.8    1404.9    1408.5    1417.4
  
           1    0.0167   -0.0496   -0.0193    0.0005   -0.0064   -0.0080   -0.0020   -0.0197
           2   -0.0433   -0.0136   -0.0032   -0.0011    0.0301    0.0139   -0.0008    0.0073
           3    0.0254    0.0330    0.0129    0.0003   -0.0110   -0.0048    0.0024    0.0054
           4   -0.0387    0.0526    0.0127    0.0000    0.0009    0.0032    0.0002    0.0381
           5    0.0609    0.0030    0.0006    0.0004   -0.0101   -0.0042    0.0004   -0.0148
           6   -0.0153   -0.0325   -0.0066   -0.0003    0.0059    0.0019    0.0016   -0.0226
           7    0.0040    0.0092    0.0109   -0.0011    0.0280   -0.0088   -0.0237    0.0018
           8   -0.0050    0.0028   -0.0133    0.0026   -0.0486   -0.0355   -0.0091   -0.0105
           9   -0.0055   -0.0058   -0.0011   -0.0005    0.0130   -0.0206    0.0251    0.0011
          10    0.0018    0.0121   -0.0219   -0.0315    0.0023   -0.0001    0.0001    0.0032
          11    0.0023    0.0155   -0.0252    0.0273    0.0039    0.0002    0.0007    0.0047
          12   -0.0060   -0.0165   -0.0012    0.0009    0.0101    0.0047   -0.0038   -0.0133
          13   -0.0019    0.0007    0.0061   -0.0005    0.0016    0.0014   -0.0008   -0.0016
          14    0.0083   -0.0005    0.0063    0.0001   -0.0026   -0.0006   -0.0002   -0.0038
          15   -0.0191   -0.0206   -0.0086   -0.0001    0.0061    0.0016   -0.0024   -0.0023
          16   -0.0054   -0.0026    0.0011   -0.0002    0.0018    0.0018    0.0026   -0.0199
          17   -0.0085   -0.0125   -0.0022   -0.0001    0.0025    0.0007    0.0005   -0.0077
          18    0.0182    0.0080   -0.0008    0.0004   -0.0051   -0.0039   -0.0043    0.0314
          19    0.0117    0.0018    0.0018   -0.0001    0.0004    0.0014    0.0023   -0.0193
          20   -0.0360   -0.0050   -0.0032    0.0000    0.0030   -0.0004   -0.0039    0.0316
[...]
 RED. MASS   0.7713        C  3 --  H 15          +15.3% ( 46.0%)     0.4%
 EFF. MASS   4.1446

 VIBRATION   46   46A       ATOM PAIR        ENERGY CONTRIBUTION    RADIAL
 FREQ.      1404.86        C  3 --  H 13          +37.4% ( 57.8%)     0.1%
 T-DIPOLE    0.0533        C  3 --  H 15          +23.3% ( 45.6%)    13.7%
 TRAVEL      0.1496        C  3 --  H 14          +22.5% ( 44.8%)     0.8%
 RED. MASS   0.3821        C  1 --  C  3           +8.4% ( 27.4%)    78.0%
 EFF. MASS   2.1445

 VIBRATION   47   47A       ATOM PAIR        ENERGY CONTRIBUTION    RADIAL
 FREQ.      1408.48        C  3 --  H 15          +47.3% ( 60.9%)     0.3%
 T-DIPOLE    0.0491        C  3 --  H 14          +28.7% ( 47.5%)     4.6%
 TRAVEL      0.1670        C  3 --  H 13          +12.2% ( 30.9%)    27.3%
 RED. MASS   0.3988        C  1 --  C  3           +4.7% ( 19.1%)     0.0%
 EFF. MASS   1.7157

 VIBRATION   48   48A       ATOM PAIR        ENERGY CONTRIBUTION    RADIAL
 FREQ.      1417.42        C  9 --  C 10          +19.0% ( 69.9%)   100.0%
 T-DIPOLE    0.1940        C  6 --  C 10           +8.6% ( 47.1%)    99.9%
 TRAVEL      0.0705        C  7 --  C  9           +8.6% ( 47.0%)    99.9%
 RED. MASS   1.6310        C  6 --  C  9           +8.3% ( 46.0%)     0.1%
 EFF. MASS   9.5627

 VIBRATION   49   49A       ATOM PAIR        ENERGY CONTRIBUTION    RADIAL
 FREQ.      1430.51        C  4 --  H 18          +18.4% ( 59.2%)     5.5%
 T-DIPOLE    0.0835        C  4 --  C  8          +18.2% ( 58.9%)    99.2%
 TRAVEL      0.0833        C  4 --  H 17          +14.9% ( 53.3%)     2.9%
 RED. MASS   1.3083        C  4 --  H 16          +14.9% ( 53.2%)     2.8%
 EFF. MASS   6.7978

 VIBRATION   50   50A       ATOM PAIR        ENERGY CONTRIBUTION    RADIAL
 FREQ.      1733.07        C  6 --  C  9          +18.3% ( 72.9%)    99.9%
 T-DIPOLE    0.4164        C  7 --  C 10          +18.1% ( 72.4%)    99.9%
 TRAVEL      0.0569        C  7 --  C  9          +10.7% ( 55.7%)    25.7%
 RED. MASS   2.7224        C  6 --  C 10          +10.7% ( 55.7%)    26.1%
 EFF. MASS  12.0253

 VIBRATION   51   51A       ATOM PAIR        ENERGY CONTRIBUTION    RADIAL
 FREQ.      1789.98        C  7 --  C 10          +18.0% ( 70.4%)    99.8%
 T-DIPOLE    0.3188        C  6 --  C  9          +17.7% ( 69.8%)    99.8%
 TRAVEL      0.0565        C  9 --  C 10          +12.1% ( 57.7%)     0.0%
 RED. MASS   2.6851        C  7 --  C  9          +10.9% ( 54.7%)    67.5%
 EFF. MASS  11.7992        C  6 --  C 10          +10.9% ( 54.6%)    64.8%

 VIBRATION   52   52A       ATOM PAIR        ENERGY CONTRIBUTION    RADIAL
 FREQ.      1888.47        C  5 --  C  8          +44.0% ( 97.7%)    96.5%
 T-DIPOLE    0.3849        C  4 --  C  8          +14.5% ( 56.0%)    56.4%
 TRAVEL      0.0550        C  1 --  C  5          +13.9% ( 55.0%)    53.4%
 RED. MASS   5.3847        C  8 --  H 22          +13.4% ( 53.9%)     3.4%
 EFF. MASS  11.7926        C  5 --  H 21          +13.2% ( 53.4%)     3.9%

 VIBRATION   53   53A       ATOM PAIR        ENERGY CONTRIBUTION    RADIAL
 FREQ.      2873.55        C  1 --  H 11          +87.2% ( 95.1%)   100.0%
 T-DIPOLE    0.0324        C  2 --  H 12           +9.3% ( 31.1%)    99.9%
 TRAVEL      0.1272        C  1 --  C  2           +1.1% ( 10.9%)     9.0%
 RED. MASS   0.7662        C  1 --  C  5           +1.0% ( 10.0%)    12.4%
 EFF. MASS   1.4492

 VIBRATION   54   54A       ATOM PAIR        ENERGY CONTRIBUTION    RADIAL
 FREQ.      2887.68        C  2 --  H 12          +87.8% ( 95.0%)   100.0%
 T-DIPOLE    0.2032        C  1 --  H 11           +9.2% ( 30.8%)   100.0%
 TRAVEL      0.1277        C  1 --  C  2           +0.9% (  9.7%)    10.1%
 RED. MASS   0.7684        C  2 --  C  6           +0.9% (  9.6%)    10.6%
 EFF. MASS   1.4319

 VIBRATION   55   55A       ATOM PAIR        ENERGY CONTRIBUTION    RADIAL
 FREQ.      3036.67        C  5 --  H 21          +51.6% ( 72.5%)   100.0%
 T-DIPOLE    0.3469        C  8 --  H 22          +45.8% ( 68.4%)   100.0%
 TRAVEL      0.1244        C  5 --  C  8           +0.8% (  8.8%)    62.9%
 RED. MASS   0.4610        C  1 --  C  5           +0.6% (  8.1%)    19.6%
 EFF. MASS   1.4341

 VIBRATION   56   56A       ATOM PAIR        ENERGY CONTRIBUTION    RADIAL
 FREQ.      3037.78        C  8 --  H 22          +49.2% ( 71.5%)    99.9%
 T-DIPOLE    0.0149        C  5 --  H 21          +45.4% ( 68.6%)    99.9%
 TRAVEL      0.1180        C  5 --  C  8           +2.2% ( 15.1%)    39.7%
 RED. MASS   0.4517        C  4 --  H 18           +1.1% ( 10.5%)    98.4%
 EFF. MASS   1.5937

 VIBRATION   57   57A       ATOM PAIR        ENERGY CONTRIBUTION    RADIAL
 FREQ.      3070.38        C  4 --  H 16          +50.3% ( 73.1%)    97.2%
 T-DIPOLE    0.0271        C  4 --  H 17          +47.8% ( 71.3%)    96.9%
 TRAVEL      0.1210        C  4 --  C  8           +1.0% ( 10.2%)     0.0%
 RED. MASS   0.5095        C  4 --  H 18           +0.9% ( 10.0%)     0.5%
 EFF. MASS   1.5012

 VIBRATION   58   58A       ATOM PAIR        ENERGY CONTRIBUTION    RADIAL
 FREQ.      3076.07        C  4 --  H 18          +62.8% ( 81.7%)    98.9%
 T-DIPOLE    0.0596        C  4 --  H 17          +18.1% ( 43.9%)    85.9%
 TRAVEL      0.1205        C  4 --  H 16          +16.0% ( 41.2%)    83.7%
 RED. MASS   0.4807        C  8 --  H 22           +1.9% ( 14.1%)   100.0%
 EFF. MASS   1.5088

 VIBRATION   59   59A       ATOM PAIR        ENERGY CONTRIBUTION    RADIAL
 FREQ.      3077.72        C  3 --  H 15          +48.9% ( 72.2%)    97.1%
 T-DIPOLE    0.0248        C  3 --  H 13          +48.8% ( 72.1%)    97.1%
 TRAVEL      0.1206        C  1 --  C  3           +1.0% ( 10.4%)     0.0%
 RED. MASS   0.5069        C  3 --  H 14           +1.0% ( 10.1%)     0.1%
 EFF. MASS   1.5052

 VIBRATION   60   60A       ATOM PAIR        ENERGY CONTRIBUTION    RADIAL
 FREQ.      3083.94        C  3 --  H 14          +60.6% ( 80.3%)    98.7%
 T-DIPOLE    0.0288        C  3 --  H 13          +19.4% ( 45.5%)    86.4%
 TRAVEL      0.1205        C  3 --  H 15          +18.9% ( 44.9%)    85.9%
 RED. MASS   0.4704        C  1 --  C  3           +1.0% ( 10.4%)     0.1%
 EFF. MASS   1.5064

 VIBRATION   61   61A       ATOM PAIR        ENERGY CONTRIBUTION    RADIAL
 FREQ.      3129.32        C  6 --  H 19          +49.2% ( 71.8%)   100.0%
 T-DIPOLE    0.3094        C  9 --  H 23          +39.3% ( 64.2%)   100.0%
 TRAVEL      0.1208        C 10 --  H 24           +4.4% ( 21.4%)   100.0%
 RED. MASS   0.4046        C  7 --  H 20           +2.7% ( 17.0%)   100.0%
 EFF. MASS   1.4760

 VIBRATION   62   62A       ATOM PAIR        ENERGY CONTRIBUTION    RADIAL
 FREQ.      3131.85        C 10 --  H 24          +44.6% ( 68.3%)   100.0%
 T-DIPOLE    0.4362        C  7 --  H 20          +43.8% ( 67.8%)   100.0%
 TRAVEL      0.1209        C  6 --  H 19           +6.0% ( 25.1%)   100.0%
 RED. MASS   0.3987        C  9 --  H 23           +1.5% ( 12.5%)    99.9%
 EFF. MASS   1.4733

 VIBRATION   63   63A       ATOM PAIR        ENERGY CONTRIBUTION    RADIAL
 FREQ.      3142.73        C  9 --  H 23          +30.4% ( 56.7%)    99.9%
 T-DIPOLE    0.5273        C  6 --  H 19          +24.5% ( 50.9%)    99.9%
 TRAVEL      0.1157        C  7 --  H 20          +23.4% ( 49.8%)    99.9%
 RED. MASS   0.2440        C 10 --  H 24          +15.9% ( 41.0%)    99.9%
 EFF. MASS   1.6038

 VIBRATION   64   64A       ATOM PAIR        ENERGY CONTRIBUTION    RADIAL
 FREQ.      3153.50        C 10 --  H 24          +30.0% ( 56.4%)   100.0%
 T-DIPOLE    0.2487        C  7 --  H 20          +24.8% ( 51.3%)    99.9%
 TRAVEL      0.1121        C  9 --  H 23          +23.5% ( 49.9%)   100.0%
 RED. MASS   0.2468        C  6 --  H 19          +14.9% ( 39.7%)    99.9%
 EFF. MASS   1.7008

 VIBRATION   65   65A       ATOM PAIR        ENERGY CONTRIBUTION    RADIAL
 FREQ.      3169.88        C  4 --  H 18          +34.3% ( 56.4%)    97.2%
 T-DIPOLE    0.0755        C  4 --  H 17          +32.9% ( 55.2%)    97.1%
 TRAVEL      0.1366        C  4 --  H 16          +32.5% ( 54.9%)    97.0%
 RED. MASS   0.3271        C  4 --  C  8           +0.3% (  5.4%)   100.0%
 EFF. MASS   1.1395

 VIBRATION   66   66A       ATOM PAIR        ENERGY CONTRIBUTION    RADIAL
 FREQ.      3178.12        C  3 --  H 14          +38.2% ( 59.5%)    97.8%
 T-DIPOLE    0.0249        C  3 --  H 15          +30.8% ( 53.4%)    96.6%
 TRAVEL      0.1367        C  3 --  H 13          +30.5% ( 53.2%)    96.6%
 RED. MASS   0.3288        C  1 --  C  3           +0.3% (  5.0%)    98.8%
 EFF. MASS   1.1361

 SYMMETRY NUMBER FOR POINT-GROUP C1  =  1


          SYSTEM IS A GROUND STATE


    NULL



          MOLECULE IS NOT LINEAR

          THERE ARE 66 GENUINE VIBRATIONS IN THIS SYSTEM
          THIS THERMODYNAMICS CALCULATION IS LIMITED TO
          MOLECULES WHICH HAVE NO INTERNAL ROTATIONS




                    CALCULATED THERMODYNAMIC PROPERTIES
                                          *
   TEMP. (K)   PARTITION FUNCTION   H.O.F.    ENTHALPY  HEAT CAPACITY ENTROPY
                                   KCAL/MOL   CAL/MOLE    CAL/K/MOL  CAL/K/MOL


 298.00  VIB.     0.1038D+04                  4861.5873    33.6461    30.1152
         ROT.     0.7892D+06                   888.2813     2.9808    29.9647
         INT.     0.8192D+09                  5749.8686    36.6269    60.0799
         TRA.     0.1503D+28                  1480.4688     4.9680    40.5931
         TOT.                       32.584    7230.3374    41.5949   100.6729

 200.00  VIB.     0.7098D+02                  2171.0608    21.6592    19.3256
         ROT.     0.4339D+06                   596.1620     2.9808    28.7760
         INT.     0.3080D+08                  2767.2227    24.6400    48.1017
         TRA.     0.8266D+27                   993.6033     4.9680    38.6119
         TOT.                       29.114    3760.8260    29.6080    86.7136

 210.00  VIB.     0.9327D+02                  2393.1237    22.7589    20.4089
         ROT.     0.4669D+06                   625.9700     2.9808    28.9215
         INT.     0.4355D+08                  3019.0938    25.7397    49.3303
         TRA.     0.8893D+27                  1043.2834     4.9680    38.8543
         TOT.                       29.416    4062.3772    30.7077    88.1847

 220.00  VIB.     0.1226D+03                  2626.3480    23.8915    21.4936
         ROT.     0.5006D+06                   655.7781     2.9808    29.0601
         INT.     0.6136D+08                  3282.1261    26.8723    50.5538
         TRA.     0.9536D+27                  1092.9636     4.9680    39.0854
         TOT.                       29.728    4375.0897    31.8403    89.6392

 230.00  VIB.     0.1610D+03                  2871.0611    25.0565    22.5812
         ROT.     0.5351D+06                   685.5862     2.9808    29.1926
         INT.     0.8618D+08                  3556.6473    28.0373    51.7739
         TRA.     0.1019D+28                  1142.6437     4.9680    39.3063
         TOT.                       30.053    4699.2911    33.0053    91.0801

 240.00  VIB.     0.2116D+03                  3127.5802    26.2523    23.6728
         ROT.     0.5704D+06                   715.3943     2.9808    29.3195
         INT.     0.1207D+09                  3842.9746    29.2331    52.9923
         TRA.     0.1087D+28                  1192.3239     4.9680    39.5177
         TOT.                       30.389    5035.2985    34.2012    92.5100

 250.00  VIB.     0.2782D+03                  3396.2026    27.4767    24.7692
         ROT.     0.6064D+06                   745.2024     2.9808    29.4412
         INT.     0.1687D+09                  4141.4050    30.4575    54.2104
         TRA.     0.1155D+28                  1242.0041     4.9680    39.7205
         TOT.                       30.737    5383.4091    35.4255    93.9309

 260.00  VIB.     0.3657D+03                  3677.1984    28.7265    25.8711
         ROT.     0.6432D+06                   775.0105     2.9808    29.5581
         INT.     0.2352D+09                  4452.2090    31.7073    55.4292
         TRA.     0.1225D+28                  1291.6842     4.9680    39.9154
         TOT.                       31.097    5743.8932    36.6753    95.3446

 270.00  VIB.     0.4809D+03                  3970.8060    29.9984    26.9790
         ROT.     0.6806D+06                   804.8186     2.9808    29.6706
         INT.     0.3273D+09                  4775.6247    32.9792    56.6496
         TRA.     0.1297D+28                  1341.3644     4.9680    40.1029
         TOT.                       31.470    6116.9891    37.9472    96.7525

 280.00  VIB.     0.6327D+03                  4277.2284    31.2888    28.0933
         ROT.     0.7188D+06                   834.6267     2.9808    29.7790
         INT.     0.4548D+09                  5111.8552    34.2696    57.8723
         TRA.     0.1369D+28                  1391.0445     4.9680    40.2835
         TOT.                       31.856    6502.8997    39.2376    98.1558

 290.00  VIB.     0.8328D+03                  4596.6314    32.5939    29.2140
         ROT.     0.7577D+06                   864.4348     2.9808    29.8836
         INT.     0.6310D+09                  5461.0663    35.5747    59.0976
         TRA.     0.1443D+28                  1440.7247     4.9680    40.4579
         TOT.                       32.255    6901.7910    40.5427    99.5554

 300.00  VIB.     0.1097D+04                  4929.1432    33.9100    30.3411
         ROT.     0.7972D+06                   894.2429     2.9808    29.9846
         INT.     0.8743D+09                  5823.3862    36.8908    60.3258
         TRA.     0.1518D+28                  1490.4049     4.9680    40.6263
         TOT.                       32.667    7313.7910    41.8588   100.9521

 310.00  VIB.     0.1445D+04                  5274.8549    35.2333    31.4746
         ROT.     0.8374D+06                   924.0510     2.9808    30.0824
         INT.     0.1210D+10                  6198.9060    38.2141    61.5570
         TRA.     0.1595D+28                  1540.0850     4.9680    40.7892
         TOT.                       33.092    7738.9910    43.1821   102.3462

 320.00  VIB.     0.1906D+04                  5633.8216    36.5604    32.6141
         ROT.     0.8782D+06                   953.8591     2.9808    30.1770
         INT.     0.1674D+10                  6587.6807    39.5412    62.7912
         TRA.     0.1673D+28                  1589.7652     4.9680    40.9469
         TOT.                       33.531    8177.4459    44.5092   103.7381

 330.00  VIB.     0.2514D+04                  6006.0644    37.8880    33.7595
         ROT.     0.9197D+06                   983.6672     2.9808    30.2687
         INT.     0.2312D+10                  6989.7316    40.8688    64.0282
         TRA.     0.1752D+28                  1639.4454     4.9680    41.0998
         TOT.                       33.983    8629.1770    45.8368   105.1280

 340.00  VIB.     0.3320D+04                  6391.5725    39.2130    34.9102
         ROT.     0.9618D+06                  1013.4753     2.9808    30.3577
         INT.     0.3193D+10                  7405.0478    42.1938    65.2680
         TRA.     0.1832D+28                  1689.1255     4.9680    41.2481
         TOT.                       34.448    9094.1733    47.1618   106.5161

 350.00  VIB.     0.4386D+04                  6790.3059    40.5326    36.0660
         ROT.     0.1005D+07                  1043.2834     2.9808    30.4441
         INT.     0.4406D+10                  7833.5893    43.5134    66.5101
         TRA.     0.1914D+28                  1738.8057     4.9680    41.3921
         TOT.                       34.926    9572.3950    48.4814   107.9022

 360.00  VIB.     0.5799D+04                  7202.1981    41.8443    37.2262
         ROT.     0.1048D+07                  1073.0915     2.9808    30.5281
         INT.     0.6077D+10                  8275.2896    44.8251    67.7543
         TRA.     0.1996D+28                  1788.4859     4.9680    41.5321
         TOT.                       35.417   10063.7755    49.7932   109.2864

 370.00  VIB.     0.7673D+04                  7627.1587    43.1459    38.3905
         ROT.     0.1092D+07                  1102.8996     2.9808    30.6098
         INT.     0.8378D+10                  8730.0583    46.1267    69.0003
         TRA.     0.2080D+28                  1838.1660     4.9680    41.6682
         TOT.                       35.922   10568.2243    51.0947   110.6685

 380.00  VIB.     0.1016D+05                  8065.0761    44.4354    39.5583
         ROT.     0.1136D+07                  1132.7077     2.9808    30.6893
         INT.     0.1155D+11                  9197.7838    47.4162    70.2475
         TRA.     0.2165D+28                  1887.8462     4.9680    41.8007
         TOT.                       36.439   11085.6300    52.3842   112.0482

 390.00  VIB.     0.1346D+05                  8515.8204    45.7110    40.7290
         ROT.     0.1182D+07                  1162.5158     2.9808    30.7667
         INT.     0.1591D+11                  9678.3362    48.6918    71.4957
         TRA.     0.2251D+28                  1937.5263     4.9680    41.9297
         TOT.                       36.969   11615.8626    53.6599   113.4255

 400.00  VIB.     0.1785D+05                  8979.2458    46.9714    41.9023
         ROT.     0.1227D+07                  1192.3239     2.9808    30.8422
         INT.     0.2191D+11                 10171.5697    49.9522    72.7444
         TRA.     0.2338D+28                  1987.2065     4.9680    42.0555
         TOT.                       37.512   12158.7762    54.9202   114.7999

   *: NOTE: HEATS OF FORMATION ARE RELATIVE TO THE
            ELEMENTS IN THEIR STANDARD STATE AT 298K
              (=  Standard Enthalpy of Formation).

            Hvib:  Zero-point energy is not included.
                   frequencies of less than zero cm-1 are not included.
            Hrot = (3/2)RT
            Htra = (3/2)RT + pV = (5/2)RT

            Heat capacity is Cp, not Cv

           For more information, see: HTTP://OpenMOPAC.net/Manual/thermochemistry.html


           FORCE CONSTANT IN CARTESIAN COORDINATES (Millidynes/A)

    ATOM   CHEMICAL       X               Y               Z
   NUMBER   SYMBOL  FORCE CONSTANT  FORCE CONSTANT  FORCE CONSTANT

      1       C        7.990349        8.344181        8.836222
      2       C        8.547362        8.214901        8.622381
      3       C        8.373162        8.095918        8.304694
      4       C        8.217166        8.351024        8.887755
      5       C        7.992589       10.146311        9.097596
      6       C        6.777896       12.704635        7.270624
      7       C        6.856707        8.470657       11.456764
      8       C        7.836040        9.960515        9.423657
      9       C        7.530364        9.795880       10.154549
     10       C        7.509073       10.338763        9.633405
     11       H        1.096346        1.567242        3.370496
     12       H        1.143631        1.689816        3.052440
     13       H        1.106281        1.832234        3.818115
     14       H        5.398913        0.724113        0.665888
     15       H        1.155141        1.884826        3.735892
     16       H        0.928193        5.049370        0.687055
     17       H        5.314368        0.672622        0.678133
     18       H        1.331551        1.400846        4.038352
     19       H        0.668503        4.646549        1.112208
     20       H        0.707602        2.666871        3.062887
     21       H        1.020359        1.091685        4.105237
     22       H        1.011646        1.087078        4.117291
     23       H        1.860827        0.702730        3.898293
     24       H        1.827058        3.796943        0.838562



 TOTAL CPU TIME:             3.98 SECONDS

 == MOPAC DONE ==
