 *******************************************************************************
 ** Site#: 14399           For non-commercial use only        Version 13.159M **
 *******************************************************************************
 ** Cite this work as: MOPAC2012, James J. P. Stewart, Stewart Computational  **
 ** Chemistry, Version 13.159M web: HTTP://OpenMOPAC.net  Days remaining:   6 **
 *******************************************************************************
 **                                                                           **
 **                                MOPAC2012                                  **
 **                                                                           **
 *******************************************************************************

                            PM3 CALCULATION RESULTS


 *******************************************************************************
 *  CALCULATION DONE:                                Mon Jun  2 11:05:58 2014  *
 *  PM3      - The PM3 Hamiltonian to be used
 *  PRECISE  - CRITERIA TO BE INCREASED BY 100 TIMES
 *  NOSYM    - POINT-GROUP SYMMETRY SET TO C1
 *  T=       - A TIME OF 172800.0 SECONDS REQUESTED
 *  DUMP=N   - RESTART FILE WRITTEN EVERY  7200.000 SECONDS
 *******************************************************************************
pm3  precise nosym
 InChI=1S/C11H18/c1-3-5-7-11-8-10(9-11)6-4-2/h4-7,10-11H,3,8-9H2,1-2H3

   ATOM   CHEMICAL          X               Y               Z
  NUMBER   SYMBOL      (ANGSTROMS)     (ANGSTROMS)     (ANGSTROMS)
 
     1       C          1.57580000  *   0.14380000  *  -1.15390000  *
     2       C         -0.56490000  *  -0.10800000  *  -1.27280000  *
     3       C          0.61590000  *  -1.07300000  *  -1.33310000  *
     4       C          0.35470000  *   1.05800000  *  -1.11240000  *
     5       C         -3.69650000  *  -0.70900000  *   0.96060000  *
     6       C         -3.77670000  *   0.49620000  *   1.89150000  *
     7       C          4.44630000  *   0.24130000  *   1.45170000  *
     8       C         -1.46840000  *  -0.33870000  *  -0.08820000  *
     9       C          2.35700000  *   0.10820000  *   0.13380000  *
    10       C         -2.79520000  *  -0.47210000  *  -0.21790000  *
    11       C          3.68400000  *   0.27970000  *   0.16420000  *
    12       H          2.19550000  *   0.31630000  *  -2.06680000  *
    13       H         -1.10640000  *  -0.07160000  *  -2.24940000  *
    14       H          0.72650000  *  -1.54780000  *  -2.33610000  *
    15       H          0.66050000  *  -1.82920000  *  -0.51290000  *
    16       H          0.23520000  *   1.63850000  *  -0.16560000  *
    17       H          0.32250000  *   1.74420000  *  -1.99140000  *
    18       H         -4.72320000  *  -0.92940000  *   0.58730000  *
    19       H         -3.35470000  *  -1.60680000  *   1.52580000  *
    20       H         -2.78520000  *   0.72240000  *   2.34550000  *
    21       H         -4.13840000  *   1.39590000  *   1.34310000  *
    22       H         -4.49010000  *   0.28460000  *   2.71990000  *
    23       H          4.08720000  *   1.04190000  *   2.13750000  *
    24       H          5.53040000  *   0.40490000  *   1.25880000  *
    25       H          4.32320000  *  -0.74980000  *   1.94440000  *
    26       H          1.81550000  *  -0.06360000  *   1.06490000  *
    27       H         -3.25160000  *  -0.43000000  *  -1.20650000  *
    28       H         -1.01670000  *  -0.39910000  *   0.90270000  *
    29       H          4.23790000  *   0.45210000  *  -0.75820000  *
 


          CARTESIAN COORDINATES 

    NO.       ATOM         X         Y         Z

     1         C        1.5758    0.1438   -1.1539
     2         C       -0.5649   -0.1080   -1.2728
     3         C        0.6159   -1.0730   -1.3331
     4         C        0.3547    1.0580   -1.1124
     5         C       -3.6965   -0.7090    0.9606
     6         C       -3.7767    0.4962    1.8915
     7         C        4.4463    0.2413    1.4517
     8         C       -1.4684   -0.3387   -0.0882
     9         C        2.3570    0.1082    0.1338
    10         C       -2.7952   -0.4721   -0.2179
    11         C        3.6840    0.2797    0.1642
    12         H        2.1955    0.3163   -2.0668
    13         H       -1.1064   -0.0716   -2.2494
    14         H        0.7265   -1.5478   -2.3361
    15         H        0.6605   -1.8292   -0.5129
    16         H        0.2352    1.6385   -0.1656
    17         H        0.3225    1.7442   -1.9914
    18         H       -4.7232   -0.9294    0.5873
    19         H       -3.3547   -1.6068    1.5258
    20         H       -2.7852    0.7224    2.3455
    21         H       -4.1384    1.3959    1.3431
    22         H       -4.4901    0.2846    2.7199
    23         H        4.0872    1.0419    2.1375
    24         H        5.5304    0.4049    1.2588
    25         H        4.3232   -0.7498    1.9444
    26         H        1.8155   -0.0636    1.0649
    27         H       -3.2516   -0.4300   -1.2065
    28         H       -1.0167   -0.3991    0.9027
    29         H        4.2379    0.4521   -0.7582

  H: (PM3): J. J. P. STEWART, J. COMP. CHEM. 10, 209 (1989).
  C: (PM3): J. J. P. STEWART, J. COMP. CHEM. 10, 209 (1989).

           Empirical Formula: C11 H18  =    29 atoms



      MOLECULAR POINT GROUP   :   C1  


      RHF CALCULATION, NO. OF DOUBLY OCCUPIED LEVELS =   31

      Geometry optimization using EF

          DIAGONAL MATRIX USED AS START HESSIAN

 CYCLE:     1 TIME:   0.014 TIME LEFT:  2.00D  GRAD.:   108.942 HEAT: 15.20780
 CYCLE:     2 TIME:   0.021 TIME LEFT:  2.00D  GRAD.:   103.548 HEAT: 13.84054
 CYCLE:     3 TIME:   0.012 TIME LEFT:  2.00D  GRAD.:   110.675 HEAT: 13.62080
 CYCLE:     4 TIME:   0.021 TIME LEFT:  2.00D  GRAD.:    39.354 HEAT: 10.95338
 CYCLE:     5 TIME:   0.020 TIME LEFT:  2.00D  GRAD.:    24.210 HEAT: 10.46879
 CYCLE:     6 TIME:   0.021 TIME LEFT:  2.00D  GRAD.:    24.708 HEAT: 10.29832
 CYCLE:     7 TIME:   0.012 TIME LEFT:  2.00D  GRAD.:    31.073 HEAT: 10.16469
 CYCLE:     8 TIME:   0.012 TIME LEFT:  2.00D  GRAD.:    37.609 HEAT: 10.13822
 CYCLE:     9 TIME:   0.021 TIME LEFT:  2.00D  GRAD.:    13.712 HEAT: 9.862928
 CYCLE:    10 TIME:   0.021 TIME LEFT:  2.00D  GRAD.:    12.293 HEAT: 9.824016
 CYCLE:    11 TIME:   0.011 TIME LEFT:  2.00D  GRAD.:    10.518 HEAT: 9.787689
 CYCLE:    12 TIME:   0.011 TIME LEFT:  2.00D  GRAD.:    13.488 HEAT: 9.779224
 CYCLE:    13 TIME:   0.020 TIME LEFT:  2.00D  GRAD.:     9.036 HEAT: 9.740930
 CYCLE:    14 TIME:   0.020 TIME LEFT:  2.00D  GRAD.:     4.685 HEAT: 9.723412
 CYCLE:    15 TIME:   0.011 TIME LEFT:  2.00D  GRAD.:     3.802 HEAT: 9.710971
 CYCLE:    16 TIME:   0.012 TIME LEFT:  2.00D  GRAD.:     7.919 HEAT: 9.709442
 CYCLE:    17 TIME:   0.012 TIME LEFT:  2.00D  GRAD.:     9.415 HEAT: 9.704050
 CYCLE:    18 TIME:   0.021 TIME LEFT:  2.00D  GRAD.:     6.454 HEAT: 9.691827
 CYCLE:    19 TIME:   0.011 TIME LEFT:  2.00D  GRAD.:     5.375 HEAT: 9.688043
 CYCLE:    20 TIME:   0.023 TIME LEFT:  2.00D  GRAD.:     3.315 HEAT: 9.681121
 CYCLE:    21 TIME:   0.012 TIME LEFT:  2.00D  GRAD.:     3.742 HEAT: 9.680493
 CYCLE:    22 TIME:   0.011 TIME LEFT:  2.00D  GRAD.:     4.317 HEAT: 9.677358
 CYCLE:    23 TIME:   0.011 TIME LEFT:  2.00D  GRAD.:     5.273 HEAT: 9.675899
 CYCLE:    24 TIME:   0.011 TIME LEFT:  2.00D  GRAD.:     4.850 HEAT: 9.672352
 CYCLE:    25 TIME:   0.020 TIME LEFT:  2.00D  GRAD.:     4.023 HEAT: 9.667893
 CYCLE:    26 TIME:   0.011 TIME LEFT:  2.00D  GRAD.:     3.133 HEAT: 9.664505
 CYCLE:    27 TIME:   0.011 TIME LEFT:  2.00D  GRAD.:     3.620 HEAT: 9.660590
 CYCLE:    28 TIME:   0.011 TIME LEFT:  2.00D  GRAD.:     2.938 HEAT: 9.655341
 CYCLE:    29 TIME:   0.011 TIME LEFT:  2.00D  GRAD.:     4.412 HEAT: 9.653014
 CYCLE:    30 TIME:   0.011 TIME LEFT:  2.00D  GRAD.:     4.071 HEAT: 9.648358
 CYCLE:    31 TIME:   0.011 TIME LEFT:  2.00D  GRAD.:     3.434 HEAT: 9.645220
 CYCLE:    32 TIME:   0.011 TIME LEFT:  2.00D  GRAD.:     2.338 HEAT: 9.642043
 CYCLE:    33 TIME:   0.011 TIME LEFT:  2.00D  GRAD.:     1.826 HEAT: 9.639726
 CYCLE:    34 TIME:   0.011 TIME LEFT:  2.00D  GRAD.:     2.089 HEAT: 9.637880
 CYCLE:    35 TIME:   0.011 TIME LEFT:  2.00D  GRAD.:     1.725 HEAT: 9.634343
 CYCLE:    36 TIME:   0.011 TIME LEFT:  2.00D  GRAD.:     2.154 HEAT: 9.629606
 CYCLE:    37 TIME:   0.011 TIME LEFT:  2.00D  GRAD.:     2.265 HEAT: 9.627014
 CYCLE:    38 TIME:   0.011 TIME LEFT:  2.00D  GRAD.:     2.594 HEAT: 9.625526
 CYCLE:    39 TIME:   0.011 TIME LEFT:  2.00D  GRAD.:     1.579 HEAT: 9.622380
 CYCLE:    40 TIME:   0.011 TIME LEFT:  2.00D  GRAD.:     1.372 HEAT: 9.619917
 CYCLE:    41 TIME:   0.011 TIME LEFT:  2.00D  GRAD.:     1.312 HEAT: 9.617006
 CYCLE:    42 TIME:   0.012 TIME LEFT:  2.00D  GRAD.:     1.213 HEAT: 9.613549
 CYCLE:    43 TIME:   0.012 TIME LEFT:  2.00D  GRAD.:     1.254 HEAT: 9.610732
 CYCLE:    44 TIME:   0.012 TIME LEFT:  2.00D  GRAD.:     1.427 HEAT: 9.606052
 CYCLE:    45 TIME:   0.011 TIME LEFT:  2.00D  GRAD.:     1.456 HEAT: 9.601760
 CYCLE:    46 TIME:   0.012 TIME LEFT:  2.00D  GRAD.:     1.557 HEAT: 9.597553
 CYCLE:    47 TIME:   0.012 TIME LEFT:  2.00D  GRAD.:     1.515 HEAT: 9.592977
 CYCLE:    48 TIME:   0.012 TIME LEFT:  2.00D  GRAD.:     1.702 HEAT: 9.587171
 CYCLE:    49 TIME:   0.012 TIME LEFT:  2.00D  GRAD.:     1.928 HEAT: 9.580416
 CYCLE:    50 TIME:   0.012 TIME LEFT:  2.00D  GRAD.:     2.327 HEAT: 9.571489
 CYCLE:    51 TIME:   0.012 TIME LEFT:  2.00D  GRAD.:     2.176 HEAT: 9.560790
 CYCLE:    52 TIME:   0.012 TIME LEFT:  2.00D  GRAD.:     2.073 HEAT: 9.550365
 CYCLE:    53 TIME:   0.011 TIME LEFT:  2.00D  GRAD.:     1.915 HEAT: 9.541429
 CYCLE:    54 TIME:   0.012 TIME LEFT:  2.00D  GRAD.:     2.308 HEAT: 9.533261
 CYCLE:    55 TIME:   0.012 TIME LEFT:  2.00D  GRAD.:     2.488 HEAT: 9.522091
 CYCLE:    56 TIME:   0.012 TIME LEFT:  2.00D  GRAD.:     3.124 HEAT: 9.510531
 CYCLE:    57 TIME:   0.011 TIME LEFT:  2.00D  GRAD.:     1.881 HEAT: 9.500172
 CYCLE:    58 TIME:   0.012 TIME LEFT:  2.00D  GRAD.:     2.327 HEAT: 9.488824
 CYCLE:    59 TIME:   0.012 TIME LEFT:  2.00D  GRAD.:     2.623 HEAT: 9.472751
 CYCLE:    60 TIME:   0.012 TIME LEFT:  2.00D  GRAD.:     2.836 HEAT: 9.453917
 CYCLE:    61 TIME:   0.012 TIME LEFT:  2.00D  GRAD.:     2.861 HEAT: 9.437231
 CYCLE:    62 TIME:   0.021 TIME LEFT:  2.00D  GRAD.:     2.896 HEAT: 9.426387
 CYCLE:    63 TIME:   0.011 TIME LEFT:  2.00D  GRAD.:     3.325 HEAT: 9.414160
 CYCLE:    64 TIME:   0.012 TIME LEFT:  2.00D  GRAD.:     3.372 HEAT: 9.402191
 CYCLE:    65 TIME:   0.011 TIME LEFT:  2.00D  GRAD.:     3.414 HEAT: 9.378312
 CYCLE:    66 TIME:   0.011 TIME LEFT:  2.00D  GRAD.:     3.408 HEAT: 9.361002
 CYCLE:    67 TIME:   0.012 TIME LEFT:  2.00D  GRAD.:     3.710 HEAT: 9.346584
 CYCLE:    68 TIME:   0.011 TIME LEFT:  2.00D  GRAD.:     6.054 HEAT: 9.336521
 CYCLE:    69 TIME:   0.011 TIME LEFT:  2.00D  GRAD.:     2.581 HEAT: 9.318812
 CYCLE:    70 TIME:   0.011 TIME LEFT:  2.00D  GRAD.:     2.415 HEAT: 9.306248
 CYCLE:    71 TIME:   0.011 TIME LEFT:  2.00D  GRAD.:     2.671 HEAT: 9.294521
 CYCLE:    72 TIME:   0.012 TIME LEFT:  2.00D  GRAD.:     2.592 HEAT: 9.279519
 CYCLE:    73 TIME:   0.012 TIME LEFT:  2.00D  GRAD.:     2.923 HEAT: 9.263654
 CYCLE:    74 TIME:   0.011 TIME LEFT:  2.00D  GRAD.:     2.756 HEAT: 9.245565
 CYCLE:    75 TIME:   0.012 TIME LEFT:  2.00D  GRAD.:     3.436 HEAT: 9.227691
 CYCLE:    76 TIME:   0.011 TIME LEFT:  2.00D  GRAD.:     3.933 HEAT: 9.207624
 CYCLE:    77 TIME:   0.012 TIME LEFT:  2.00D  GRAD.:     3.699 HEAT: 9.182967
 CYCLE:    78 TIME:   0.011 TIME LEFT:  2.00D  GRAD.:     3.525 HEAT: 9.148455
 CYCLE:    79 TIME:   0.011 TIME LEFT:  2.00D  GRAD.:     2.983 HEAT: 9.116573
 CYCLE:    80 TIME:   0.012 TIME LEFT:  2.00D  GRAD.:     3.718 HEAT: 9.091505
 CYCLE:    81 TIME:   0.012 TIME LEFT:  2.00D  GRAD.:     3.392 HEAT: 9.059755
 CYCLE:    82 TIME:   0.012 TIME LEFT:  2.00D  GRAD.:     5.771 HEAT: 9.036861
 CYCLE:    83 TIME:   0.011 TIME LEFT:  2.00D  GRAD.:     3.576 HEAT: 8.999373
 CYCLE:    84 TIME:   0.012 TIME LEFT:  2.00D  GRAD.:     2.950 HEAT: 8.973363
 CYCLE:    85 TIME:   0.012 TIME LEFT:  2.00D  GRAD.:     2.342 HEAT: 8.945379
 CYCLE:    86 TIME:   0.011 TIME LEFT:  2.00D  GRAD.:     2.512 HEAT: 8.934550
 CYCLE:    87 TIME:   0.012 TIME LEFT:  2.00D  GRAD.:     2.810 HEAT: 8.927496
 CYCLE:    88 TIME:   0.011 TIME LEFT:  2.00D  GRAD.:     1.803 HEAT: 8.919303
 CYCLE:    89 TIME:   0.011 TIME LEFT:  2.00D  GRAD.:     1.777 HEAT: 8.912682
 CYCLE:    90 TIME:   0.011 TIME LEFT:  2.00D  GRAD.:     1.674 HEAT: 8.904048
 CYCLE:    91 TIME:   0.012 TIME LEFT:  2.00D  GRAD.:     1.829 HEAT: 8.897977
 CYCLE:    92 TIME:   0.012 TIME LEFT:  2.00D  GRAD.:     1.841 HEAT: 8.890749
 CYCLE:    93 TIME:   0.012 TIME LEFT:  2.00D  GRAD.:     2.212 HEAT: 8.883498
 CYCLE:    94 TIME:   0.012 TIME LEFT:  2.00D  GRAD.:     2.680 HEAT: 8.870941
 CYCLE:    95 TIME:   0.012 TIME LEFT:  2.00D  GRAD.:     3.295 HEAT: 8.852206
 CYCLE:    96 TIME:   0.012 TIME LEFT:  2.00D  GRAD.:     4.587 HEAT: 8.820434
 CYCLE:    97 TIME:   0.011 TIME LEFT:  2.00D  GRAD.:     3.372 HEAT: 8.796776
 CYCLE:    98 TIME:   0.012 TIME LEFT:  2.00D  GRAD.:     4.906 HEAT: 8.758962
 CYCLE:    99 TIME:   0.011 TIME LEFT:  2.00D  GRAD.:     4.179 HEAT: 8.745236
 CYCLE:   100 TIME:   0.011 TIME LEFT:  2.00D  GRAD.:     9.017 HEAT: 8.739400
 CYCLE:   101 TIME:   0.011 TIME LEFT:  2.00D  GRAD.:     3.861 HEAT: 8.701399
 CYCLE:   102 TIME:   0.011 TIME LEFT:  2.00D  GRAD.:     3.399 HEAT: 8.685103
 CYCLE:   103 TIME:   0.011 TIME LEFT:  2.00D  GRAD.:     3.498 HEAT: 8.668306
 CYCLE:   104 TIME:   0.011 TIME LEFT:  2.00D  GRAD.:     3.263 HEAT: 8.653470
 CYCLE:   105 TIME:   0.011 TIME LEFT:  2.00D  GRAD.:     3.143 HEAT: 8.644605
 CYCLE:   106 TIME:   0.011 TIME LEFT:  2.00D  GRAD.:     2.831 HEAT: 8.632176
 CYCLE:   107 TIME:   0.012 TIME LEFT:  2.00D  GRAD.:     3.909 HEAT: 8.610227
 CYCLE:   108 TIME:   0.011 TIME LEFT:  2.00D  GRAD.:     3.917 HEAT: 8.592009
 CYCLE:   109 TIME:   0.011 TIME LEFT:  2.00D  GRAD.:     3.631 HEAT: 8.571567
 CYCLE:   110 TIME:   0.011 TIME LEFT:  2.00D  GRAD.:     3.378 HEAT: 8.555421
 CYCLE:   111 TIME:   0.011 TIME LEFT:  2.00D  GRAD.:     4.004 HEAT: 8.544640
 CYCLE:   112 TIME:   0.011 TIME LEFT:  2.00D  GRAD.:     3.567 HEAT: 8.533672
 CYCLE:   113 TIME:   0.011 TIME LEFT:  2.00D  GRAD.:     2.837 HEAT: 8.521449
 CYCLE:   114 TIME:   0.011 TIME LEFT:  2.00D  GRAD.:     2.176 HEAT: 8.507857
 CYCLE:   115 TIME:   0.011 TIME LEFT:  2.00D  GRAD.:     1.962 HEAT: 8.497622
 CYCLE:   116 TIME:   0.011 TIME LEFT:  2.00D  GRAD.:     1.666 HEAT: 8.491455
 CYCLE:   117 TIME:   0.012 TIME LEFT:  2.00D  GRAD.:     1.569 HEAT: 8.487308
 CYCLE:   118 TIME:   0.011 TIME LEFT:  2.00D  GRAD.:     2.045 HEAT: 8.483509
 CYCLE:   119 TIME:   0.011 TIME LEFT:  2.00D  GRAD.:     1.872 HEAT: 8.480396
 CYCLE:   120 TIME:   0.011 TIME LEFT:  2.00D  GRAD.:     1.621 HEAT: 8.477998
 CYCLE:   121 TIME:   0.011 TIME LEFT:  2.00D  GRAD.:     1.174 HEAT: 8.476002
 CYCLE:   122 TIME:   0.012 TIME LEFT:  2.00D  GRAD.:     0.984 HEAT: 8.473825
 CYCLE:   123 TIME:   0.012 TIME LEFT:  2.00D  GRAD.:     1.246 HEAT: 8.471391
 CYCLE:   124 TIME:   0.012 TIME LEFT:  2.00D  GRAD.:     1.394 HEAT: 8.468407
 CYCLE:   125 TIME:   0.012 TIME LEFT:  2.00D  GRAD.:     1.690 HEAT: 8.464288
 CYCLE:   126 TIME:   0.012 TIME LEFT:  2.00D  GRAD.:     1.712 HEAT: 8.458596
 CYCLE:   127 TIME:   0.012 TIME LEFT:  2.00D  GRAD.:     1.766 HEAT: 8.451187
 CYCLE:   128 TIME:   0.012 TIME LEFT:  2.00D  GRAD.:     1.930 HEAT: 8.443552
 CYCLE:   129 TIME:   0.012 TIME LEFT:  2.00D  GRAD.:     1.956 HEAT: 8.436556
 CYCLE:   130 TIME:   0.011 TIME LEFT:  2.00D  GRAD.:     1.929 HEAT: 8.431235
 CYCLE:   131 TIME:   0.012 TIME LEFT:  2.00D  GRAD.:     2.854 HEAT: 8.427951
 CYCLE:   132 TIME:   0.011 TIME LEFT:  2.00D  GRAD.:     1.768 HEAT: 8.422618
 CYCLE:   133 TIME:   0.011 TIME LEFT:  2.00D  GRAD.:     1.421 HEAT: 8.418604
 CYCLE:   134 TIME:   0.012 TIME LEFT:  2.00D  GRAD.:     1.327 HEAT: 8.415219
 CYCLE:   135 TIME:   0.012 TIME LEFT:  2.00D  GRAD.:     1.265 HEAT: 8.413167
 CYCLE:   136 TIME:   0.012 TIME LEFT:  2.00D  GRAD.:     1.353 HEAT: 8.410435
 CYCLE:   137 TIME:   0.012 TIME LEFT:  2.00D  GRAD.:     1.077 HEAT: 8.407019
 CYCLE:   138 TIME:   0.012 TIME LEFT:  2.00D  GRAD.:     1.039 HEAT: 8.404489
 CYCLE:   139 TIME:   0.011 TIME LEFT:  2.00D  GRAD.:     0.808 HEAT: 8.402999
 CYCLE:   140 TIME:   0.011 TIME LEFT:  2.00D  GRAD.:     0.718 HEAT: 8.401761
 CYCLE:   141 TIME:   0.012 TIME LEFT:  2.00D  GRAD.:     0.699 HEAT: 8.400426
 CYCLE:   142 TIME:   0.011 TIME LEFT:  2.00D  GRAD.:     0.688 HEAT: 8.399338
 CYCLE:   143 TIME:   0.011 TIME LEFT:  2.00D  GRAD.:     0.603 HEAT: 8.398340
 CYCLE:   144 TIME:   0.012 TIME LEFT:  2.00D  GRAD.:     0.783 HEAT: 8.397118
 CYCLE:   145 TIME:   0.012 TIME LEFT:  2.00D  GRAD.:     0.757 HEAT: 8.396084
 CYCLE:   146 TIME:   0.011 TIME LEFT:  2.00D  GRAD.:     0.856 HEAT: 8.394896
 CYCLE:   147 TIME:   0.011 TIME LEFT:  2.00D  GRAD.:     0.767 HEAT: 8.393903
 CYCLE:   148 TIME:   0.011 TIME LEFT:  2.00D  GRAD.:     0.894 HEAT: 8.392494
 CYCLE:   149 TIME:   0.011 TIME LEFT:  2.00D  GRAD.:     0.962 HEAT: 8.390823
 CYCLE:   150 TIME:   0.012 TIME LEFT:  2.00D  GRAD.:     1.060 HEAT: 8.388517
 CYCLE:   151 TIME:   0.014 TIME LEFT:  2.00D  GRAD.:     1.154 HEAT: 8.386019
 CYCLE:   152 TIME:   0.012 TIME LEFT:  2.00D  GRAD.:     1.213 HEAT: 8.383317
 CYCLE:   153 TIME:   0.012 TIME LEFT:  2.00D  GRAD.:     1.342 HEAT: 8.380050
 CYCLE:   154 TIME:   0.012 TIME LEFT:  2.00D  GRAD.:     1.325 HEAT: 8.376087
 CYCLE:   155 TIME:   0.012 TIME LEFT:  2.00D  GRAD.:     1.218 HEAT: 8.371602
 CYCLE:   156 TIME:   0.012 TIME LEFT:  2.00D  GRAD.:     0.768 HEAT: 8.369927
 CYCLE:   157 TIME:   0.012 TIME LEFT:  2.00D  GRAD.:     0.884 HEAT: 8.368388
 CYCLE:   158 TIME:   0.012 TIME LEFT:  2.00D  GRAD.:     0.800 HEAT: 8.367466
 CYCLE:   159 TIME:   0.012 TIME LEFT:  2.00D  GRAD.:     0.902 HEAT: 8.366012
 CYCLE:   160 TIME:   0.012 TIME LEFT:  2.00D  GRAD.:     0.779 HEAT: 8.363901
 CYCLE:   161 TIME:   0.012 TIME LEFT:  2.00D  GRAD.:     0.853 HEAT: 8.362583
 CYCLE:   162 TIME:   0.011 TIME LEFT:  2.00D  GRAD.:     1.019 HEAT: 8.360741
 CYCLE:   163 TIME:   0.012 TIME LEFT:  2.00D  GRAD.:     1.264 HEAT: 8.357818
 CYCLE:   164 TIME:   0.012 TIME LEFT:  2.00D  GRAD.:     1.713 HEAT: 8.352764
 CYCLE:   165 TIME:   0.012 TIME LEFT:  2.00D  GRAD.:     1.977 HEAT: 8.346493
 CYCLE:   166 TIME:   0.012 TIME LEFT:  2.00D  GRAD.:     3.576 HEAT: 8.334022
 CYCLE:   167 TIME:   0.011 TIME LEFT:  2.00D  GRAD.:     3.244 HEAT: 8.323741
 CYCLE:   168 TIME:   0.020 TIME LEFT:  2.00D  GRAD.:     4.655 HEAT: 8.311330
 CYCLE:   169 TIME:   0.011 TIME LEFT:  2.00D  GRAD.:     1.701 HEAT: 8.299878
 CYCLE:   170 TIME:   0.012 TIME LEFT:  2.00D  GRAD.:     2.652 HEAT: 8.290241
 CYCLE:   171 TIME:   0.012 TIME LEFT:  2.00D  GRAD.:     2.885 HEAT: 8.279049
 CYCLE:   172 TIME:   0.012 TIME LEFT:  2.00D  GRAD.:     5.036 HEAT: 8.265344
 CYCLE:   173 TIME:   0.011 TIME LEFT:  2.00D  GRAD.:     4.775 HEAT: 8.256002
 CYCLE:   174 TIME:   0.011 TIME LEFT:  2.00D  GRAD.:     3.135 HEAT: 8.238703
 CYCLE:   175 TIME:   0.011 TIME LEFT:  2.00D  GRAD.:     3.949 HEAT: 8.231956
 CYCLE:   176 TIME:   0.011 TIME LEFT:  2.00D  GRAD.:     2.280 HEAT: 8.222643
 CYCLE:   177 TIME:   0.012 TIME LEFT:  2.00D  GRAD.:     3.344 HEAT: 8.213714
 CYCLE:   178 TIME:   0.011 TIME LEFT:  2.00D  GRAD.:     5.155 HEAT: 8.210067
 CYCLE:   179 TIME:   0.011 TIME LEFT:  2.00D  GRAD.:     2.501 HEAT: 8.195887
 CYCLE:   180 TIME:   0.012 TIME LEFT:  2.00D  GRAD.:     5.034 HEAT: 8.194319
 CYCLE:   181 TIME:   0.011 TIME LEFT:  2.00D  GRAD.:     2.852 HEAT: 8.181918
 CYCLE:   182 TIME:   0.011 TIME LEFT:  2.00D  GRAD.:     2.561 HEAT: 8.175598
 CYCLE:   183 TIME:   0.011 TIME LEFT:  2.00D  GRAD.:     2.949 HEAT: 8.167762
 CYCLE:   184 TIME:   0.011 TIME LEFT:  2.00D  GRAD.:     2.919 HEAT: 8.162272
 CYCLE:   185 TIME:   0.011 TIME LEFT:  2.00D  GRAD.:     1.596 HEAT: 8.158641
 CYCLE:   186 TIME:   0.012 TIME LEFT:  2.00D  GRAD.:     1.271 HEAT: 8.151733
 CYCLE:   187 TIME:   0.012 TIME LEFT:  2.00D  GRAD.:     3.295 HEAT: 8.148842
 CYCLE:   188 TIME:   0.011 TIME LEFT:  2.00D  GRAD.:     1.570 HEAT: 8.143616
 CYCLE:   189 TIME:   0.011 TIME LEFT:  2.00D  GRAD.:     1.144 HEAT: 8.140996
 CYCLE:   190 TIME:   0.012 TIME LEFT:  2.00D  GRAD.:     1.370 HEAT: 8.138270
 CYCLE:   191 TIME:   0.011 TIME LEFT:  2.00D  GRAD.:     1.184 HEAT: 8.136579
 CYCLE:   192 TIME:   0.012 TIME LEFT:  2.00D  GRAD.:     1.217 HEAT: 8.135006
 CYCLE:   193 TIME:   0.012 TIME LEFT:  2.00D  GRAD.:     1.264 HEAT: 8.133881
 CYCLE:   194 TIME:   0.012 TIME LEFT:  2.00D  GRAD.:     1.240 HEAT: 8.132654
 CYCLE:   195 TIME:   0.012 TIME LEFT:  2.00D  GRAD.:     1.460 HEAT: 8.130858
 CYCLE:   196 TIME:   0.011 TIME LEFT:  2.00D  GRAD.:     1.812 HEAT: 8.130099
 CYCLE:   197 TIME:   0.012 TIME LEFT:  2.00D  GRAD.:     1.342 HEAT: 8.127527
 CYCLE:   198 TIME:   0.012 TIME LEFT:  2.00D  GRAD.:     1.201 HEAT: 8.125801
 CYCLE:   199 TIME:   0.012 TIME LEFT:  2.00D  GRAD.:     1.479 HEAT: 8.123298
 CYCLE:   200 TIME:   0.012 TIME LEFT:  2.00D  GRAD.:     1.608 HEAT: 8.121134
 CYCLE:   201 TIME:   0.012 TIME LEFT:  2.00D  GRAD.:     1.832 HEAT: 8.118085
 CYCLE:   202 TIME:   0.022 TIME LEFT:  2.00D  GRAD.:     1.924 HEAT: 8.114696
 CYCLE:   203 TIME:   0.012 TIME LEFT:  2.00D  GRAD.:     1.953 HEAT: 8.111669
 CYCLE:   204 TIME:   0.012 TIME LEFT:  2.00D  GRAD.:     2.318 HEAT: 8.108035
 CYCLE:   205 TIME:   0.011 TIME LEFT:  2.00D  GRAD.:     1.664 HEAT: 8.105783
 CYCLE:   206 TIME:   0.012 TIME LEFT:  2.00D  GRAD.:     1.455 HEAT: 8.103666
 CYCLE:   207 TIME:   0.012 TIME LEFT:  2.00D  GRAD.:     1.212 HEAT: 8.102018
 CYCLE:   208 TIME:   0.012 TIME LEFT:  2.00D  GRAD.:     2.141 HEAT: 8.101837
 CYCLE:   209 TIME:   0.012 TIME LEFT:  2.00D  GRAD.:     1.060 HEAT: 8.098736
 CYCLE:   210 TIME:   0.012 TIME LEFT:  2.00D  GRAD.:     1.068 HEAT: 8.097262
 CYCLE:   211 TIME:   0.012 TIME LEFT:  2.00D  GRAD.:     0.942 HEAT: 8.095746
 CYCLE:   212 TIME:   0.012 TIME LEFT:  2.00D  GRAD.:     1.267 HEAT: 8.095132
 CYCLE:   213 TIME:   0.011 TIME LEFT:  2.00D  GRAD.:     0.745 HEAT: 8.094546
 CYCLE:   214 TIME:   0.012 TIME LEFT:  2.00D  GRAD.:     0.719 HEAT: 8.093969
 CYCLE:   215 TIME:   0.011 TIME LEFT:  2.00D  GRAD.:     0.902 HEAT: 8.093394
 CYCLE:   216 TIME:   0.012 TIME LEFT:  2.00D  GRAD.:     0.664 HEAT: 8.092808
 CYCLE:   217 TIME:   0.012 TIME LEFT:  2.00D  GRAD.:     0.590 HEAT: 8.092392
 CYCLE:   218 TIME:   0.012 TIME LEFT:  2.00D  GRAD.:     0.597 HEAT: 8.092067
 CYCLE:   219 TIME:   0.011 TIME LEFT:  2.00D  GRAD.:     0.559 HEAT: 8.091824
 CYCLE:   220 TIME:   0.011 TIME LEFT:  2.00D  GRAD.:     0.467 HEAT: 8.091637
 CYCLE:   221 TIME:   0.012 TIME LEFT:  2.00D  GRAD.:     0.727 HEAT: 8.091463
 CYCLE:   222 TIME:   0.012 TIME LEFT:  2.00D  GRAD.:     0.471 HEAT: 8.090987
 CYCLE:   223 TIME:   0.012 TIME LEFT:  2.00D  GRAD.:     0.469 HEAT: 8.090374
 CYCLE:   224 TIME:   0.012 TIME LEFT:  2.00D  GRAD.:     0.669 HEAT: 8.089853
 CYCLE:   225 TIME:   0.012 TIME LEFT:  2.00D  GRAD.:     0.492 HEAT: 8.089331
 CYCLE:   226 TIME:   0.012 TIME LEFT:  2.00D  GRAD.:     0.422 HEAT: 8.088719
 CYCLE:   227 TIME:   0.012 TIME LEFT:  2.00D  GRAD.:     0.426 HEAT: 8.088110
 CYCLE:   228 TIME:   0.012 TIME LEFT:  2.00D  GRAD.:     0.536 HEAT: 8.087636
 CYCLE:   229 TIME:   0.012 TIME LEFT:  2.00D  GRAD.:     0.555 HEAT: 8.087121
 CYCLE:   230 TIME:   0.012 TIME LEFT:  2.00D  GRAD.:     0.542 HEAT: 8.086422
 CYCLE:   231 TIME:   0.012 TIME LEFT:  2.00D  GRAD.:     0.520 HEAT: 8.086077
 CYCLE:   232 TIME:   0.012 TIME LEFT:  2.00D  GRAD.:     0.609 HEAT: 8.085479
 CYCLE:   233 TIME:   0.012 TIME LEFT:  2.00D  GRAD.:     0.692 HEAT: 8.085035
 CYCLE:   234 TIME:   0.012 TIME LEFT:  2.00D  GRAD.:     1.063 HEAT: 8.084726
 CYCLE:   235 TIME:   0.012 TIME LEFT:  2.00D  GRAD.:     0.838 HEAT: 8.083887
 CYCLE:   236 TIME:   0.011 TIME LEFT:  2.00D  GRAD.:     0.679 HEAT: 8.083370
 CYCLE:   237 TIME:   0.012 TIME LEFT:  2.00D  GRAD.:     0.897 HEAT: 8.082301
 CYCLE:   238 TIME:   0.011 TIME LEFT:  2.00D  GRAD.:     0.626 HEAT: 8.081823
 CYCLE:   239 TIME:   0.012 TIME LEFT:  2.00D  GRAD.:     0.606 HEAT: 8.080982
 CYCLE:   240 TIME:   0.012 TIME LEFT:  2.00D  GRAD.:     0.809 HEAT: 8.079046
 CYCLE:   241 TIME:   0.012 TIME LEFT:  2.00D  GRAD.:     1.652 HEAT: 8.077922
 CYCLE:   242 TIME:   0.012 TIME LEFT:  2.00D  GRAD.:     1.847 HEAT: 8.076515
 CYCLE:   243 TIME:   0.012 TIME LEFT:  2.00D  GRAD.:     1.045 HEAT: 8.074407
 CYCLE:   244 TIME:   0.012 TIME LEFT:  2.00D  GRAD.:     1.172 HEAT: 8.073032
 CYCLE:   245 TIME:   0.011 TIME LEFT:  2.00D  GRAD.:     0.651 HEAT: 8.071803
 CYCLE:   246 TIME:   0.012 TIME LEFT:  2.00D  GRAD.:     0.536 HEAT: 8.071171
 CYCLE:   247 TIME:   0.012 TIME LEFT:  2.00D  GRAD.:     0.429 HEAT: 8.070970
 CYCLE:   248 TIME:   0.011 TIME LEFT:  2.00D  GRAD.:     0.225 HEAT: 8.070830
 CYCLE:   249 TIME:   0.011 TIME LEFT:  2.00D  GRAD.:     0.186 HEAT: 8.070753
 CYCLE:   250 TIME:   0.011 TIME LEFT:  2.00D  GRAD.:     0.216 HEAT: 8.070646
 CYCLE:   251 TIME:   0.011 TIME LEFT:  2.00D  GRAD.:     0.277 HEAT: 8.070586
 CYCLE:   252 TIME:   0.012 TIME LEFT:  2.00D  GRAD.:     0.448 HEAT: 8.070497
 CYCLE:   253 TIME:   0.011 TIME LEFT:  2.00D  GRAD.:     0.359 HEAT: 8.070403
 CYCLE:   254 TIME:   0.012 TIME LEFT:  2.00D  GRAD.:     0.250 HEAT: 8.070279
 CYCLE:   255 TIME:   0.011 TIME LEFT:  2.00D  GRAD.:     0.253 HEAT: 8.070204
 CYCLE:   256 TIME:   0.011 TIME LEFT:  2.00D  GRAD.:     0.222 HEAT: 8.070123
 CYCLE:   257 TIME:   0.011 TIME LEFT:  2.00D  GRAD.:     0.333 HEAT: 8.069988
 CYCLE:   258 TIME:   0.012 TIME LEFT:  2.00D  GRAD.:     0.461 HEAT: 8.069835
 CYCLE:   259 TIME:   0.012 TIME LEFT:  2.00D  GRAD.:     0.474 HEAT: 8.069649
 CYCLE:   260 TIME:   0.012 TIME LEFT:  2.00D  GRAD.:     0.403 HEAT: 8.069380
 CYCLE:   261 TIME:   0.011 TIME LEFT:  2.00D  GRAD.:     0.336 HEAT: 8.069193
 CYCLE:   262 TIME:   0.012 TIME LEFT:  2.00D  GRAD.:     0.421 HEAT: 8.068871
 CYCLE:   263 TIME:   0.011 TIME LEFT:  2.00D  GRAD.:     0.409 HEAT: 8.068697
 CYCLE:   264 TIME:   0.012 TIME LEFT:  2.00D  GRAD.:     0.547 HEAT: 8.068069
 CYCLE:   265 TIME:   0.012 TIME LEFT:  2.00D  GRAD.:     0.474 HEAT: 8.067688
 CYCLE:   266 TIME:   0.012 TIME LEFT:  2.00D  GRAD.:     1.373 HEAT: 8.067277
 CYCLE:   267 TIME:   0.012 TIME LEFT:  2.00D  GRAD.:     1.293 HEAT: 8.066804
 CYCLE:   268 TIME:   0.011 TIME LEFT:  2.00D  GRAD.:     0.425 HEAT: 8.065998
 CYCLE:   269 TIME:   0.012 TIME LEFT:  2.00D  GRAD.:     0.613 HEAT: 8.065529
 CYCLE:   270 TIME:   0.011 TIME LEFT:  2.00D  GRAD.:     0.338 HEAT: 8.065221
 CYCLE:   271 TIME:   0.012 TIME LEFT:  2.00D  GRAD.:     0.356 HEAT: 8.064996
 CYCLE:   272 TIME:   0.012 TIME LEFT:  2.00D  GRAD.:     0.143 HEAT: 8.064938
 CYCLE:   273 TIME:   0.011 TIME LEFT:  2.00D  GRAD.:     0.114 HEAT: 8.064899
 CYCLE:   274 TIME:   0.011 TIME LEFT:  2.00D  GRAD.:     0.175 HEAT: 8.064842
 CYCLE:   275 TIME:   0.012 TIME LEFT:  2.00D  GRAD.:     0.090 HEAT: 8.064790
 CYCLE:   276 TIME:   0.012 TIME LEFT:  2.00D  GRAD.:     0.116 HEAT: 8.064780
 CYCLE:   277 TIME:   0.012 TIME LEFT:  2.00D  GRAD.:     0.067 HEAT: 8.064762
 CYCLE:   278 TIME:   0.011 TIME LEFT:  2.00D  GRAD.:     0.050 HEAT: 8.064759

     RMS GRADIENT =  0.04963  IS LESS THAN CUTOFF =  0.05000



 -------------------------------------------------------------------------------
pm3  precise nosym
 InChI=1S/C11H18/c1-3-5-7-11-8-10(9-11)6-4-2/h4-7,10-11H,3,8-9H2,1-2H3



     GEOMETRY OPTIMISED USING EIGENVECTOR FOLLOWING (EF).     
     SCF FIELD WAS ACHIEVED                                   


                              PM3 CALCULATION
                                                       MOPAC2012 (Version: 13.159M)
                                                       Mon Jun  2 11:06:01 2014
                                                       No. of days left =   6




          FINAL HEAT OF FORMATION =          8.06476 KCAL/MOL =      33.74295 KJ/MOL


          TOTAL ENERGY            =      -1580.68307 EV
          ELECTRONIC ENERGY       =      -9092.85037 EV  POINT GROUP:     C1  
          CORE-CORE REPULSION     =       7512.16730 EV
          COSMO AREA              =        229.46 SQUARE ANGSTROMS
          COSMO VOLUME            =        227.62 CUBIC ANGSTROMS

          GRADIENT NORM           =          0.04963
          IONIZATION POTENTIAL    =          9.720707 EV
          HOMO LUMO ENERGIES (EV) =         -9.721  0.980
          NO. OF FILLED LEVELS    =         31
          MOLECULAR WEIGHT        =        150.263

          MOLECULAR DIMENSIONS (Angstroms)

            Atom       Atom       Distance
            H    24    H    21    10.88398
            H    18    H    17     5.06321
            H    20    H    14     4.56692


          SCF CALCULATIONS        =        293
          COMPUTATION TIME        =          3.351 SECONDS




   ATOM   CHEMICAL          X               Y               Z
  NUMBER   SYMBOL      (ANGSTROMS)     (ANGSTROMS)     (ANGSTROMS)
 
     1       C          1.64018715  *   0.22830249  *  -1.09589062  *
     2       C         -0.55115403  *   0.05633776  *  -1.08092209  *
     3       C          0.62708252  *  -0.92800905  *  -1.29363818  *
     4       C          0.46261774  *   1.20629152  *  -0.85246263  *
     5       C         -3.55975584  *  -0.67752300  *   1.22382089  *
     6       C         -4.71868904  *   0.28692638  *   1.35755759  *
     7       C          4.75450382  *  -0.01391992  *   1.16097491  *
     8       C         -1.38921992  *  -0.25324992  *   0.10352206  *
     9       C          2.53238553  *   0.05396553  *   0.07639867  *
    10       C         -2.71792808  *  -0.35037570  *   0.04120677  *
    11       C          3.85976928  *   0.15990179  *  -0.00445407  *
    12       H          2.22038591  *   0.46271192  *  -2.01340821  *
    13       H         -1.17339483  *   0.19641707  *  -1.99009961  *
    14       H          0.65724587  *  -1.39914667  *  -2.28660851  *
    15       H          0.69547580  *  -1.73279848  *  -0.54519574  *
    16       H          0.43445474  *   1.65162604  *   0.15424970  *
    17       H          0.39299934  *   2.02948756  *  -1.57798811  *
    18       H         -3.93587686  *  -1.71403768  *   1.10744694  *
    19       H         -2.95882810  *  -0.67983838  *   2.15533571  *
    20       H         -4.37090314  *   1.31743760  *   1.50570844  *
    21       H         -5.35583607  *   0.28342790  *   0.46317327  *
    22       H         -5.35342741  *   0.02761019  *   2.21442728  *
    23       H          5.34787067  *   0.89482532  *   1.32965267  *
    24       H          5.45738374  *  -0.83969699  *   0.98650722  *
    25       H          4.21113922  *  -0.23202645  *   2.09006816  *
    26       H          2.03466784  *  -0.17109714  *   1.02926613  *
    27       H         -3.25673512  *  -0.19521299  *  -0.90257228  *
    28       H         -0.84844454  *  -0.40204201  *   1.04792931  *
    29       H          4.35258369  *   0.38480213  *  -0.95885052  *

           Empirical Formula: C11 H18  =    29 atoms



      MOLECULAR POINT GROUP   :   C1  


                  EIGENVALUES  
 -41.12911 -36.84377 -34.68556 -30.22676 -27.05107 -25.47971 -23.71047 -21.32046
 -20.25628 -19.27791 -18.51884 -16.98704 -16.72636 -15.60839 -15.47461 -14.75437
 -14.55023 -14.41129 -13.94871 -13.65743 -13.28933 -13.24467 -12.85250 -12.47744
 -12.14132 -12.09678 -11.90722 -11.47486 -11.39327  -9.78102  -9.72071   0.97994
   1.10371   3.21180   3.30878   3.58056   3.62506   3.68315   3.79416   3.80139
   3.90153   3.94708   3.96330   4.01810   4.10106   4.21123   4.28983   4.40206
   4.41433   4.51466   4.52763   4.53106   4.57163   4.68012   4.78819   4.85938
   5.12212   5.32053   5.71282   5.89634   5.98807   6.06513


              NET ATOMIC CHARGES AND DIPOLE CONTRIBUTIONS

  ATOM NO.   TYPE          CHARGE      No. of ELECS.   s-Pop       p-Pop       
    1          C          -0.059638        4.0596     1.17811     2.88153
    2          C          -0.060149        4.0601     1.17824     2.88191
    3          C          -0.102575        4.1026     1.17718     2.92540
    4          C          -0.102433        4.1024     1.17717     2.92526
    5          C          -0.062534        4.0625     1.14591     2.91662
    6          C          -0.105845        4.1058     1.13765     2.96820
    7          C          -0.074826        4.0748     1.12527     2.94956
    8          C          -0.143212        4.1432     1.19514     2.94807
    9          C          -0.145714        4.1457     1.19525     2.95046
   10          C          -0.144257        4.1443     1.19781     2.94644
   11          C          -0.141913        4.1419     1.19386     2.94805
   12          H           0.072594        0.9274     0.92741
   13          H           0.072798        0.9272     0.92720
   14          H           0.056038        0.9440     0.94396
   15          H           0.064922        0.9351     0.93508
   16          H           0.065132        0.9349     0.93487
   17          H           0.056061        0.9439     0.94394
   18          H           0.053173        0.9468     0.94683
   19          H           0.051325        0.9487     0.94867
   20          H           0.040153        0.9598     0.95985
   21          H           0.037825        0.9622     0.96217
   22          H           0.036745        0.9633     0.96325
   23          H           0.043992        0.9560     0.95601
   24          H           0.044026        0.9560     0.95597
   25          H           0.040961        0.9590     0.95904
   26          H           0.103772        0.8962     0.89623
   27          H           0.101546        0.8985     0.89845
   28          H           0.103612        0.8964     0.89639
   29          H           0.098422        0.9016     0.90158
 DIPOLE           X         Y         Z       TOTAL
 POINT-CHG.     0.025    -0.037     0.119     0.127
 HYBRID         0.011    -0.004     0.019     0.023
 SUM            0.037    -0.041     0.138     0.149


          ATOMIC ORBITAL ELECTRON POPULATIONS

    Atom      s        px        py        pz   
    1  C   1.17811   0.94542   0.96745   0.96865
    2  C   1.17824   0.94822   0.96579   0.96791
    3  C   1.17718   0.94979   0.95828   1.01733
    4  C   1.17717   0.94958   0.95448   1.02120
    5  C   1.14591   0.96802   0.98467   0.96393
    6  C   1.13765   0.97196   0.98917   1.00707
    7  C   1.12527   0.98453   1.00340   0.96163
    8  C   1.19514   0.95309   1.01191   0.98307
    9  C   1.19525   0.95124   1.01569   0.98353
   10  C   1.19781   0.95549   1.00404   0.98692
   11  C   1.19386   0.95462   1.00602   0.98741
   12  H   0.92741
   13  H   0.92720
   14  H   0.94396
   15  H   0.93508
   16  H   0.93487
   17  H   0.94394
   18  H   0.94683
   19  H   0.94867
   20  H   0.95985
   21  H   0.96217
   22  H   0.96325
   23  H   0.95601
   24  H   0.95597
   25  H   0.95904
   26  H   0.89623
   27  H   0.89845
   28  H   0.89639
   29  H   0.90158
 *******************************************************************************
 ** Site#: 14399           For non-commercial use only        Version 13.159M **
 *******************************************************************************
 ** Cite this work as: MOPAC2012, James J. P. Stewart, Stewart Computational  **
 ** Chemistry, Version 13.159M web: HTTP://OpenMOPAC.net  Days remaining:   6 **
 *******************************************************************************
 **                                                                           **
 **                                MOPAC2012                                  **
 **                                                                           **
 *******************************************************************************

                            PM3 CALCULATION RESULTS


 *******************************************************************************
 *  CALCULATION DONE:                                Mon Jun  2 11:06:01 2014  *
 *  PM3      - The PM3 Hamiltonian to be used
 *  OLDGEO   - PREVIOUS GEOMETRY TO BE USED
 *  PRECISE  - CRITERIA TO BE INCREASED BY 100 TIMES
 *  NOSYM    - POINT-GROUP SYMMETRY SET TO C1
 *  T=       - A TIME OF 172800.0 SECONDS REQUESTED
 *  DUMP=N   - RESTART FILE WRITTEN EVERY  7200.000 SECONDS
 *  THERMO   - THERMODYNAMIC QUANTITIES TO BE CALCULATED
 *******************************************************************************
oldgeo thermo nosym precise  pm3

   ATOM   CHEMICAL          X               Y               Z
  NUMBER   SYMBOL      (ANGSTROMS)     (ANGSTROMS)     (ANGSTROMS)
 
     1       C          1.64018715  *   0.22830249  *  -1.09589062  *
     2       C         -0.55115403  *   0.05633776  *  -1.08092209  *
     3       C          0.62708252  *  -0.92800905  *  -1.29363818  *
     4       C          0.46261774  *   1.20629152  *  -0.85246263  *
     5       C         -3.55975584  *  -0.67752300  *   1.22382089  *
     6       C         -4.71868904  *   0.28692638  *   1.35755759  *
     7       C          4.75450382  *  -0.01391992  *   1.16097491  *
     8       C         -1.38921992  *  -0.25324992  *   0.10352206  *
     9       C          2.53238553  *   0.05396553  *   0.07639867  *
    10       C         -2.71792808  *  -0.35037570  *   0.04120677  *
    11       C          3.85976928  *   0.15990179  *  -0.00445407  *
    12       H          2.22038591  *   0.46271192  *  -2.01340821  *
    13       H         -1.17339483  *   0.19641707  *  -1.99009961  *
    14       H          0.65724587  *  -1.39914667  *  -2.28660851  *
    15       H          0.69547580  *  -1.73279848  *  -0.54519574  *
    16       H          0.43445474  *   1.65162604  *   0.15424970  *
    17       H          0.39299934  *   2.02948756  *  -1.57798811  *
    18       H         -3.93587686  *  -1.71403768  *   1.10744694  *
    19       H         -2.95882810  *  -0.67983838  *   2.15533571  *
    20       H         -4.37090314  *   1.31743760  *   1.50570844  *
    21       H         -5.35583607  *   0.28342790  *   0.46317327  *
    22       H         -5.35342741  *   0.02761019  *   2.21442728  *
    23       H          5.34787067  *   0.89482532  *   1.32965267  *
    24       H          5.45738374  *  -0.83969699  *   0.98650722  *
    25       H          4.21113922  *  -0.23202645  *   2.09006816  *
    26       H          2.03466784  *  -0.17109714  *   1.02926613  *
    27       H         -3.25673512  *  -0.19521299  *  -0.90257228  *
    28       H         -0.84844454  *  -0.40204201  *   1.04792931  *
    29       H          4.35258369  *   0.38480213  *  -0.95885052  *
 


          CARTESIAN COORDINATES 

    NO.       ATOM         X         Y         Z

     1         C        1.6402    0.2283   -1.0959
     2         C       -0.5512    0.0563   -1.0809
     3         C        0.6271   -0.9280   -1.2936
     4         C        0.4626    1.2063   -0.8525
     5         C       -3.5598   -0.6775    1.2238
     6         C       -4.7187    0.2869    1.3576
     7         C        4.7545   -0.0139    1.1610
     8         C       -1.3892   -0.2532    0.1035
     9         C        2.5324    0.0540    0.0764
    10         C       -2.7179   -0.3504    0.0412
    11         C        3.8598    0.1599   -0.0045
    12         H        2.2204    0.4627   -2.0134
    13         H       -1.1734    0.1964   -1.9901
    14         H        0.6572   -1.3991   -2.2866
    15         H        0.6955   -1.7328   -0.5452
    16         H        0.4345    1.6516    0.1542
    17         H        0.3930    2.0295   -1.5780
    18         H       -3.9359   -1.7140    1.1074
    19         H       -2.9588   -0.6798    2.1553
    20         H       -4.3709    1.3174    1.5057
    21         H       -5.3558    0.2834    0.4632
    22         H       -5.3534    0.0276    2.2144
    23         H        5.3479    0.8948    1.3297
    24         H        5.4574   -0.8397    0.9865
    25         H        4.2111   -0.2320    2.0901
    26         H        2.0347   -0.1711    1.0293
    27         H       -3.2567   -0.1952   -0.9026
    28         H       -0.8484   -0.4020    1.0479
    29         H        4.3526    0.3848   -0.9589

  H: (PM3): J. J. P. STEWART, J. COMP. CHEM. 10, 209 (1989).
  C: (PM3): J. J. P. STEWART, J. COMP. CHEM. 10, 209 (1989).

           Empirical Formula: C11 H18  =    29 atoms



      MOLECULAR POINT GROUP   :   C1  


      RHF CALCULATION, NO. OF DOUBLY OCCUPIED LEVELS =   31



          HEAT OF FORMATION =       8.064759 KCALS/MOLE


          INTERNAL COORDINATE DERIVATIVES

   NUMBER  ATOM       BOND         ANGLE      DIHEDRAL

     1       C      0.000947    -0.001583    -0.002109
     2       C     -0.000287     0.000384    -0.002626
     3       C     -0.001227    -0.001263    -0.000203
     4       C      0.001583    -0.000822    -0.002514
     5       C     -0.013390    -0.004123     0.002622
     6       C      0.001991    -0.002803    -0.010197
     7       C     -0.004132     0.001158     0.008995
     8       C     -0.003077    -0.000364    -0.005673
     9       C      0.002651    -0.004486    -0.004045
    10       C      0.000675    -0.002770    -0.004521
    11       C      0.001879     0.003074     0.002747
    12       H      0.000215    -0.000002    -0.000296
    13       H      0.001111    -0.001667    -0.000658
    14       H      0.000766    -0.000926    -0.002209
    15       H     -0.003516    -0.001182    -0.002502
    16       H      0.002883    -0.001160    -0.001463
    17       H      0.000150     0.001437    -0.000752
    18       H      0.000999     0.010615    -0.001348
    19       H     -0.012955    -0.003114     0.004284
    20       H     -0.010318    -0.008741     0.000974
    21       H     -0.000876     0.007509     0.003670
    22       H     -0.005099     0.003068     0.005980
    23       H      0.012780     0.010679     0.002834
    24       H      0.020659    -0.006828     0.005891
    25       H      0.003412    -0.004505    -0.009585
    26       H      0.011693     0.000836     0.005361
    27       H     -0.000709     0.004502     0.005162
    28       H     -0.007211     0.002269     0.004424
    29       H     -0.001598     0.000809    -0.002239


          GRADIENT NORM =   0.04978


          TIME FOR SCF CALCULATION =    0.01

          TIME FOR DERIVATIVES     =    0.01

          MOLECULAR WEIGHT =  150.26



          ROTATIONAL CONSTANTS IN CM(-1)

          A =    0.08432761   B =    0.01214052   C =    0.01140165



           PRINCIPAL MOMENTS OF INERTIA IN UNITS OF 10**(-40)*GRAM-CM**2

          A =      331.9526   B =     2305.7309   C =     2455.1502


          ORIENTATION OF MOLECULE IN FORCE CALCULATION

    NO.       ATOM         X         Y         Z

     1          C      -1.5967    0.0817   -1.0855
     2          C       0.6014    0.0817   -1.0855
     3          C      -0.4976    1.1746   -1.0855
     4          C      -0.4977   -1.0108   -1.0541
     5          C       3.6738    0.1402    1.2509
     6          C       4.7546   -0.9170    1.1775
     7          C      -4.6671    0.1304    1.2429
     8          C       1.4692    0.0991    0.1178
     9          C      -2.4646    0.0997    0.1175
    10          C       2.8009    0.1055    0.0463
    11          C      -3.7967    0.1114    0.0467
    12          H      -2.1997    0.0682   -2.0180
    13          H       1.2046    0.0682   -2.0179
    14          H      -0.4976    1.8247   -1.9722
    15          H      -0.4978    1.8274   -0.1987
    16          H      -0.4976   -1.6381   -0.1491
    17          H      -0.4976   -1.6860   -1.9219
    18          H       4.1291    1.1487    1.3221
    19          H       3.0813    0.0130    2.1791
    20          H       4.3283   -1.9277    1.1381
    21          H       5.3840   -0.7938    0.2861
    22          H       5.4135   -0.8719    2.0540
    23          H      -5.3286   -0.7463    1.2516
    24          H      -5.3044    1.0250    1.2407
    25          H      -4.1020    0.1285    2.1846
    26          H      -1.9443    0.1035    1.0848
    27          H       3.3195    0.0901   -0.9211
    28          H       0.9481    0.1083    1.0847
    29          H      -4.3121    0.1076   -0.9222


    FIRST DERIVATIVES WILL BE USED IN THE CALCULATION OF SECOND DERIVATIVES

          ESTIMATED TIME TO COMPLETE CALCULATION =        5.34 SECONDS

    FOR POINT-GROUP C1   THERE ARE   1 UNIQUE SYMMETRY FUNCTIONS.

 STEP:   1 TIME =     0.05 SECS, INTEGRAL =      0.05 TIME LEFT: 172799.94
 STEP:   2 TIME =     0.05 SECS, INTEGRAL =      0.10 TIME LEFT: 172799.89
 STEP:   3 TIME =     0.05 SECS, INTEGRAL =      0.15 TIME LEFT: 172799.83
 STEP:   4 TIME =     0.05 SECS, INTEGRAL =      0.20 TIME LEFT: 172799.78
 STEP:   5 TIME =     0.05 SECS, INTEGRAL =      0.25 TIME LEFT: 172799.73
 STEP:   6 TIME =     0.05 SECS, INTEGRAL =      0.30 TIME LEFT: 172799.68
 STEP:   7 TIME =     0.05 SECS, INTEGRAL =      0.35 TIME LEFT: 172799.63
 STEP:   8 TIME =     0.05 SECS, INTEGRAL =      0.40 TIME LEFT: 172799.58
 STEP:   9 TIME =     0.05 SECS, INTEGRAL =      0.45 TIME LEFT: 172799.53
 STEP:  10 TIME =     0.05 SECS, INTEGRAL =      0.50 TIME LEFT: 172799.48
 STEP:  11 TIME =     0.05 SECS, INTEGRAL =      0.55 TIME LEFT: 172799.43
 STEP:  12 TIME =     0.05 SECS, INTEGRAL =      0.60 TIME LEFT: 172799.38
 STEP:  13 TIME =     0.05 SECS, INTEGRAL =      0.65 TIME LEFT: 172799.33
 STEP:  14 TIME =     0.05 SECS, INTEGRAL =      0.70 TIME LEFT: 172799.28
 STEP:  15 TIME =     0.05 SECS, INTEGRAL =      0.75 TIME LEFT: 172799.23
 STEP:  16 TIME =     0.05 SECS, INTEGRAL =      0.80 TIME LEFT: 172799.18
 STEP:  17 TIME =     0.05 SECS, INTEGRAL =      0.85 TIME LEFT: 172799.13
 STEP:  18 TIME =     0.05 SECS, INTEGRAL =      0.90 TIME LEFT: 172799.09
 STEP:  19 TIME =     0.05 SECS, INTEGRAL =      0.95 TIME LEFT: 172799.04
 STEP:  20 TIME =     0.05 SECS, INTEGRAL =      0.99 TIME LEFT: 172798.99
 STEP:  21 TIME =     0.05 SECS, INTEGRAL =      1.04 TIME LEFT: 172798.94
 STEP:  22 TIME =     0.05 SECS, INTEGRAL =      1.09 TIME LEFT: 172798.89
 STEP:  23 TIME =     0.05 SECS, INTEGRAL =      1.14 TIME LEFT: 172798.84
 STEP:  24 TIME =     0.05 SECS, INTEGRAL =      1.19 TIME LEFT: 172798.79
 STEP:  25 TIME =     0.05 SECS, INTEGRAL =      1.24 TIME LEFT: 172798.74
 STEP:  26 TIME =     0.05 SECS, INTEGRAL =      1.30 TIME LEFT: 172798.69
 STEP:  27 TIME =     0.05 SECS, INTEGRAL =      1.34 TIME LEFT: 172798.64
 STEP:  28 TIME =     0.05 SECS, INTEGRAL =      1.39 TIME LEFT: 172798.59
 STEP:  29 TIME =     0.05 SECS, INTEGRAL =      1.45 TIME LEFT: 172798.54
 STEP:  30 TIME =     0.05 SECS, INTEGRAL =      1.50 TIME LEFT: 172798.49
 STEP:  31 TIME =     0.05 SECS, INTEGRAL =      1.54 TIME LEFT: 172798.44
 STEP:  32 TIME =     0.05 SECS, INTEGRAL =      1.60 TIME LEFT: 172798.39
 STEP:  33 TIME =     0.05 SECS, INTEGRAL =      1.65 TIME LEFT: 172798.34
 STEP:  34 TIME =     0.05 SECS, INTEGRAL =      1.69 TIME LEFT: 172798.29
 STEP:  35 TIME =     0.05 SECS, INTEGRAL =      1.75 TIME LEFT: 172798.24
 STEP:  36 TIME =     0.05 SECS, INTEGRAL =      1.79 TIME LEFT: 172798.19
 STEP:  37 TIME =     0.05 SECS, INTEGRAL =      1.84 TIME LEFT: 172798.14
 STEP:  38 TIME =     0.05 SECS, INTEGRAL =      1.89 TIME LEFT: 172798.09
 STEP:  39 TIME =     0.05 SECS, INTEGRAL =      1.94 TIME LEFT: 172798.04
 STEP:  40 TIME =     0.05 SECS, INTEGRAL =      1.99 TIME LEFT: 172797.99
 STEP:  41 TIME =     0.05 SECS, INTEGRAL =      2.04 TIME LEFT: 172797.94
 STEP:  42 TIME =     0.05 SECS, INTEGRAL =      2.09 TIME LEFT: 172797.89
 STEP:  43 TIME =     0.05 SECS, INTEGRAL =      2.14 TIME LEFT: 172797.84
 STEP:  44 TIME =     0.05 SECS, INTEGRAL =      2.19 TIME LEFT: 172797.79
 STEP:  45 TIME =     0.05 SECS, INTEGRAL =      2.24 TIME LEFT: 172797.75
 STEP:  46 TIME =     0.05 SECS, INTEGRAL =      2.29 TIME LEFT: 172797.70
 STEP:  47 TIME =     0.05 SECS, INTEGRAL =      2.34 TIME LEFT: 172797.65
 STEP:  48 TIME =     0.05 SECS, INTEGRAL =      2.39 TIME LEFT: 172797.60
 STEP:  49 TIME =     0.05 SECS, INTEGRAL =      2.44 TIME LEFT: 172797.54
 STEP:  50 TIME =     0.05 SECS, INTEGRAL =      2.49 TIME LEFT: 172797.49
 STEP:  51 TIME =     0.05 SECS, INTEGRAL =      2.54 TIME LEFT: 172797.44
 STEP:  52 TIME =     0.05 SECS, INTEGRAL =      2.59 TIME LEFT: 172797.39
 STEP:  53 TIME =     0.05 SECS, INTEGRAL =      2.64 TIME LEFT: 172797.34
 STEP:  54 TIME =     0.05 SECS, INTEGRAL =      2.69 TIME LEFT: 172797.29
 STEP:  55 TIME =     0.05 SECS, INTEGRAL =      2.74 TIME LEFT: 172797.24
 STEP:  56 TIME =     0.05 SECS, INTEGRAL =      2.79 TIME LEFT: 172797.19
 STEP:  57 TIME =     0.05 SECS, INTEGRAL =      2.84 TIME LEFT: 172797.14
 STEP:  58 TIME =     0.05 SECS, INTEGRAL =      2.89 TIME LEFT: 172797.10
 STEP:  59 TIME =     0.05 SECS, INTEGRAL =      2.94 TIME LEFT: 172797.05
 STEP:  60 TIME =     0.05 SECS, INTEGRAL =      2.99 TIME LEFT: 172797.00
 STEP:  61 TIME =     0.05 SECS, INTEGRAL =      3.04 TIME LEFT: 172796.95
 STEP:  62 TIME =     0.05 SECS, INTEGRAL =      3.09 TIME LEFT: 172796.90
 STEP:  63 TIME =     0.05 SECS, INTEGRAL =      3.14 TIME LEFT: 172796.85
 STEP:  64 TIME =     0.05 SECS, INTEGRAL =      3.19 TIME LEFT: 172796.80
 STEP:  65 TIME =     0.05 SECS, INTEGRAL =      3.24 TIME LEFT: 172796.75
 STEP:  66 TIME =     0.06 SECS, INTEGRAL =      3.30 TIME LEFT: 172796.68
 STEP:  67 TIME =     0.05 SECS, INTEGRAL =      3.35 TIME LEFT: 172796.63
 STEP:  68 TIME =     0.05 SECS, INTEGRAL =      3.40 TIME LEFT: 172796.59
 STEP:  69 TIME =     0.05 SECS, INTEGRAL =      3.45 TIME LEFT: 172796.54
 STEP:  70 TIME =     0.05 SECS, INTEGRAL =      3.50 TIME LEFT: 172796.49
 STEP:  71 TIME =     0.05 SECS, INTEGRAL =      3.55 TIME LEFT: 172796.44
 STEP:  72 TIME =     0.05 SECS, INTEGRAL =      3.60 TIME LEFT: 172796.39
 STEP:  73 TIME =     0.05 SECS, INTEGRAL =      3.65 TIME LEFT: 172796.34
 STEP:  74 TIME =     0.05 SECS, INTEGRAL =      3.70 TIME LEFT: 172796.29
 STEP:  75 TIME =     0.05 SECS, INTEGRAL =      3.74 TIME LEFT: 172796.24
 STEP:  76 TIME =     0.05 SECS, INTEGRAL =      3.79 TIME LEFT: 172796.19
 STEP:  77 TIME =     0.05 SECS, INTEGRAL =      3.85 TIME LEFT: 172796.14
 STEP:  78 TIME =     0.05 SECS, INTEGRAL =      3.89 TIME LEFT: 172796.09
 STEP:  79 TIME =     0.05 SECS, INTEGRAL =      3.94 TIME LEFT: 172796.04
 STEP:  80 TIME =     0.05 SECS, INTEGRAL =      4.00 TIME LEFT: 172795.99
 STEP:  81 TIME =     0.05 SECS, INTEGRAL =      4.04 TIME LEFT: 172795.94
 STEP:  82 TIME =     0.05 SECS, INTEGRAL =      4.09 TIME LEFT: 172795.89
 STEP:  83 TIME =     0.05 SECS, INTEGRAL =      4.15 TIME LEFT: 172795.84
 STEP:  84 TIME =     0.05 SECS, INTEGRAL =      4.19 TIME LEFT: 172795.79
 STEP:  85 TIME =     0.05 SECS, INTEGRAL =      4.24 TIME LEFT: 172795.74
 STEP:  86 TIME =     0.05 SECS, INTEGRAL =      4.30 TIME LEFT: 172795.69
 STEP:  87 TIME =     0.05 SECS, INTEGRAL =      4.34 TIME LEFT: 172795.64

(To convert to Hartree/Bohr^2, multiply by (10^(-21) x N x a0^2)/(4.184 x 627.51) = 0.0642)


           FORCE MATRIX IN MILLIDYNES/ANGSTROM


                  C  1       C  2       C  3       C  4       C  5       C  6
 ------------------------------------------------------------------------------
     C    1  14.909622
     C    2   1.787578  14.908190
     C    3   3.386626   3.388368  14.259226
     C    4   3.388975   3.389969   1.828056  14.261210
     C    5   0.001950   0.143984   0.018898   0.018374  14.693736
     C    6   0.000639   0.019115   0.001837   0.003323   4.409192  14.351233
     C    7   0.146661   0.001648   0.019790   0.019097   0.000546   0.000670
     C    8   0.042770   5.061400   0.596357   0.595640   0.822209   0.041039
     C    9   5.065799   0.042725   0.596604   0.596040   0.000674   0.000411
     C   10   0.003409   0.845834   0.032311   0.033528   4.963116   0.716771
     C   11   0.846469   0.003334   0.032627   0.032953   0.000680   0.000548
     H   12   4.420137   0.027542   0.425716   0.425645   0.000355   0.000158
     H   13   0.027562   4.420546   0.425779   0.425785   0.001769   0.000620
     H   14   0.444099   0.444130   4.724012   0.030977   0.002481   0.000207
     H   15   0.452819   0.452867   4.672925   0.027814   0.001123   0.000233
     H   16   0.452884   0.452874   0.027798   4.672315   0.000956   0.000370
     H   17   0.444243   0.444300   0.030876   4.723834   0.002199   0.000713
     H   18   0.000369   0.019436   0.003234   0.002233   4.421696   0.445151
     H   19   0.000210   0.002920   0.000760   0.000340   4.441419   0.434780
     H   20   0.000186   0.000883   0.000236   0.000419   0.460117   4.746688
     H   21   0.000167   0.000958   0.000211   0.000243   0.464086   4.726025
     H   22   0.000214   0.003170   0.000338   0.000857   0.449648   4.750469
     H   23   0.019686   0.000271   0.002178   0.003219   0.000152   0.000193
     H   24   0.019688   0.000343   0.003262   0.002159   0.000152   0.000154
     H   25   0.002187   0.000326   0.000653   0.000650   0.000176   0.000150
     H   26   0.434364   0.002110   0.018082   0.018927   0.000328   0.000414
     H   27   0.000745   0.085875   0.008196   0.008302   0.430694   0.026385
     H   28   0.002167   0.434719   0.018247   0.018465   0.083212   0.008307
     H   29   0.085477   0.000746   0.007993   0.007852   0.000234   0.000328


                  C  7       C  8       C  9       C 10       C 11       H 12
 ------------------------------------------------------------------------------
     C    7  14.714592
     C    8   0.000409  18.336319
     C    9   0.847903   0.010052  18.330661
     C   10   0.000494  10.685993   0.000832  18.192882
     C   11   5.266174   0.001010  10.665688   0.001233  18.181215
     H   12   0.002077   0.003472   0.445266   0.000612   0.055120   4.915069
     H   13   0.000441   0.445418   0.003512   0.055089   0.000487   0.002498
     H   14   0.002505   0.032008   0.031934   0.003285   0.003228   0.026972
     H   15   0.000979   0.031191   0.031456   0.003189   0.003130   0.030267
     H   16   0.001011   0.031468   0.031488   0.003204   0.003123   0.030172
     H   17   0.002512   0.031772   0.032015   0.003527   0.003264   0.026961
     H   18   0.000244   0.032157   0.000233   0.408554   0.000175   0.000077
     H   19   0.000214   0.050670   0.000207   0.458797   0.000181   0.000072
     H   20   0.000162   0.002213   0.000306   0.016304   0.000438   0.000060
     H   21   0.000231   0.001987   0.000233   0.027521   0.000208   0.000092
     H   22   0.000231   0.007146   0.000290   0.052362   0.000226   0.000082
     H   23   4.706662   0.000280   0.035763   0.000131   0.438667   0.000425
     H   24   4.705985   0.000194   0.035536   0.000214   0.438529   0.000474
     H   25   4.724291   0.000148   0.041858   0.000226   0.479166   0.000570
     H   26   0.083460   0.004040   4.743291   0.001617   0.467881   0.036586
     H   27   0.000343   0.469037   0.000436   4.759718   0.000248   0.000162
     H   28   0.000337   4.740557   0.004000   0.468149   0.001628   0.000880
     H   29   0.424253   0.000393   0.470555   0.000225   4.771537   0.029870


                  H 13       H 14       H 15       H 16       H 17       H 18
 ------------------------------------------------------------------------------
     H   13   4.915563
     H   14   0.027104   5.339267
     H   15   0.030111   0.548491   5.302703
     H   16   0.030091   0.001045   0.002830   5.302265
     H   17   0.027134   0.003393   0.001045   0.548587   5.339120
     H   18   0.000449   0.000663   0.000325   0.000147   0.000133   5.019848
     H   19   0.000620   0.000160   0.000238   0.000203   0.000101   0.566164
     H   20   0.000166   0.000132   0.000162   0.000136   0.000114   0.047587
     H   21   0.000192   0.000097   0.000110   0.000070   0.000121   0.024088
     H   22   0.000184   0.000099   0.000087   0.000114   0.000249   0.028698
     H   23   0.000104   0.000188   0.000175   0.000300   0.000584   0.000091
     H   24   0.000096   0.000601   0.000299   0.000165   0.000194   0.000092
     H   25   0.000127   0.000103   0.000217   0.000290   0.000153   0.000104
     H   26   0.000845   0.001380   0.016976   0.017999   0.001429   0.000134
     H   27   0.029899   0.001344   0.000648   0.000727   0.001414   0.017656
     H   28   0.036610   0.001423   0.017297   0.017885   0.001450   0.009795
     H   29   0.000211   0.001294   0.000730   0.000704   0.001298   0.000099


                  H 19       H 20       H 21       H 22       H 23       H 24
 ------------------------------------------------------------------------------
     H   19   5.052835
     H   20   0.024940   5.485061
     H   21   0.047462   0.578253   5.470928
     H   22   0.030230   0.573920   0.572202   5.488053
     H   23   0.000063   0.000108   0.000081   0.000117   5.426608
     H   24   0.000086   0.000108   0.000058   0.000060   0.574731   5.425909
     H   25   0.000057   0.000086   0.000053   0.000073   0.565160   0.565253
     H   26   0.000192   0.000100   0.000104   0.000116   0.009212   0.009270
     H   27   0.038319   0.002578   0.020059   0.002038   0.000113   0.000097
     H   28   0.030003   0.000543   0.000565   0.001455   0.000100   0.000131
     H   29   0.000069   0.000147   0.000061   0.000064   0.024113   0.023736


                  H 25       H 26       H 27       H 28       H 29
 ------------------------------------------------------------------
     H   25   5.451148
     H   26   0.029595   5.122286
     H   27   0.000096   0.000349   5.141186
     H   28   0.000203   0.007217   0.104951   5.119260
     H   29   0.041030   0.104706   0.000145   0.000359   5.149787


          HEAT OF FORMATION =       8.064759 KCALS/MOLE

          ZERO POINT ENERGY     162.975 KCAL/MOL


           NORMAL COORDINATE ANALYSIS (Total motion = 1 Angstrom)


   Root No.       1         2         3         4         5         6         7         8

                 1 A       2 A       3 A       4 A       5 A       6 A       7 A       8 A   

                  29.6      41.5      68.3      79.9     115.2     141.5     172.1     175.9
  
           1   -0.0015   -0.0017   -0.0008   -0.0025    0.0037   -0.0010   -0.0012    0.0008
           2    0.0016    0.0056    0.0290   -0.0132   -0.0120   -0.0043    0.0009    0.0016
           3    0.0111   -0.0124   -0.0005   -0.0032   -0.0034    0.0018   -0.0170    0.0005
           4   -0.0017   -0.0015   -0.0008   -0.0023    0.0032   -0.0007   -0.0020    0.0006
           5   -0.0117   -0.0130   -0.0079    0.0269    0.0021    0.0063   -0.0011   -0.0103
           6    0.0188   -0.0111   -0.0012   -0.0016    0.0063   -0.0030    0.0178    0.0006
           7    0.0050    0.0076    0.0171   -0.0219   -0.0029   -0.0060   -0.0002    0.0060
           8   -0.0050   -0.0037    0.0105    0.0068   -0.0051    0.0012   -0.0001   -0.0048
           9    0.0229   -0.0113   -0.0171   -0.0188   -0.0149    0.0182   -0.0072   -0.0204
          10   -0.0083   -0.0107   -0.0187    0.0171    0.0099    0.0042   -0.0024   -0.0046
          11   -0.0049   -0.0041    0.0109    0.0072   -0.0050    0.0008   -0.0004   -0.0043
          12    0.0203   -0.0269    0.0154    0.0104    0.0117   -0.0172   -0.0030    0.0214
          13    0.0136   -0.0271   -0.0004   -0.0078   -0.0039    0.0002    0.0103   -0.0001
          14   -0.0090   -0.0120   -0.0060   -0.0300   -0.0077    0.0000    0.0037    0.0018
          15   -0.0020    0.0228   -0.0018    0.0070    0.0157   -0.0037    0.0012    0.0007
          16    0.0440    0.0154    0.0052    0.0243   -0.0149    0.0035    0.0042   -0.0037
          17    0.0243    0.0331   -0.0006    0.0035   -0.0164    0.0029   -0.0021   -0.0018
          18   -0.0349    0.0002    0.0057   -0.0013   -0.0332    0.0100   -0.0177   -0.0037
          19   -0.0319    0.0224   -0.0005    0.0020    0.0067   -0.0024    0.0161   -0.0002
          20    0.0108    0.0069   -0.0280    0.0046    0.0134    0.0135   -0.0069   -0.0374
          21   -0.0297    0.0198    0.0012    0.0026   -0.0004   -0.0002    0.0055    0.0001
          22    0.0052   -0.0137   -0.0003   -0.0057   -0.0051    0.0023   -0.0148    0.0001
          23   -0.0172   -0.0259   -0.0031    0.0465    0.0109   -0.0057    0.0017    0.0073
          24    0.0138   -0.0020   -0.0016    0.0006    0.0123   -0.0051    0.0284    0.0006
          25   -0.0164    0.0097   -0.0002   -0.0006    0.0046   -0.0012   -0.0006    0.0007
          26    0.0051    0.0040    0.0502   -0.0095    0.0021   -0.0160    0.0005    0.0071
          27    0.0002   -0.0040   -0.0003   -0.0019   -0.0031    0.0019   -0.0173    0.0004
          28    0.0048   -0.0131   -0.0002   -0.0050   -0.0053    0.0024   -0.0151    0.0001
          29   -0.0061   -0.0058   -0.0164   -0.0377    0.0365   -0.0083   -0.0034    0.0029
          30    0.0044    0.0124   -0.0017    0.0052    0.0157   -0.0053    0.0211    0.0006
          31   -0.0155    0.0091   -0.0010   -0.0007    0.0045   -0.0011   -0.0007    0.0011
          32    0.0078    0.0095   -0.0345   -0.0050   -0.0139    0.0049    0.0091    0.0529
          33   -0.0176    0.0101    0.0009    0.0007   -0.0016    0.0010   -0.0072   -0.0004
          34    0.0092   -0.0096   -0.0013   -0.0037    0.0040   -0.0013    0.0026    0.0007
          35    0.0063    0.0174    0.0262   -0.0369   -0.0278    0.0067    0.0002   -0.0106
          36    0.0040   -0.0073   -0.0001   -0.0020   -0.0032    0.0018   -0.0190    0.0007
          37   -0.0062    0.0071   -0.0012    0.0002    0.0098   -0.0033    0.0121    0.0008
          38   -0.0144   -0.0117   -0.0319    0.0266   -0.0043    0.0242   -0.0037   -0.0318
          39    0.0157   -0.0054   -0.0011    0.0000    0.0106   -0.0049    0.0264    0.0011
          40    0.0120    0.0136    0.0277   -0.0332   -0.0029   -0.0112    0.0150    0.0095
          41    0.0023   -0.0042   -0.0030   -0.0071   -0.0187    0.0172   -0.0071   -0.0226
          42    0.0283   -0.0117   -0.0269   -0.0290   -0.0249    0.0300   -0.0124   -0.0335
          43    0.0060    0.0127    0.0287   -0.0349   -0.0104   -0.0074   -0.0138    0.0090
          44   -0.0123   -0.0033    0.0241    0.0207    0.0084   -0.0146    0.0069    0.0123
          45    0.0283   -0.0117   -0.0271   -0.0291   -0.0249    0.0299   -0.0124   -0.0332
          46   -0.0153   -0.0167   -0.0294    0.0284    0.0096    0.0093   -0.0171   -0.0075
          47    0.0003   -0.0175    0.0249    0.0181    0.0031   -0.0131   -0.0040    0.0129
          48    0.0240   -0.0362    0.0250    0.0180    0.0174   -0.0270   -0.0056    0.0336
          49   -0.0094   -0.0160   -0.0303    0.0300    0.0181    0.0056    0.0114   -0.0082
          50   -0.0099    0.0088   -0.0022   -0.0031   -0.0129    0.0144    0.0030   -0.0215
          51    0.0242   -0.0369    0.0256    0.0185    0.0179   -0.0279   -0.0057    0.0349
          52   -0.0149   -0.0672   -0.0056   -0.0371    0.0049   -0.0025    0.0173    0.0025
          53    0.0025    0.0035   -0.0032   -0.0175   -0.0147    0.0018    0.0023    0.0003
          54    0.0174    0.0604   -0.0078    0.0201    0.0537   -0.0111   -0.0228    0.0039
          55    0.0247   -0.0321   -0.0002   -0.0069   -0.0023   -0.0019    0.0331   -0.0008
          56   -0.0474   -0.0653   -0.0032   -0.0580   -0.0394    0.0066    0.0173    0.0005
          57   -0.0002    0.0122   -0.0012    0.0037    0.0123   -0.0041    0.0171    0.0001
          58    0.0732    0.0559    0.0107    0.0550   -0.0264    0.0073    0.0007   -0.0085
          59    0.0128    0.0174   -0.0031   -0.0086   -0.0093    0.0006   -0.0059    0.0022
          60   -0.0571   -0.0343    0.0122   -0.0205   -0.0919    0.0284    0.1168   -0.0562
          61    0.0350    0.0185    0.0051    0.0280   -0.0070    0.0002   -0.0881    0.0256
          62    0.0646    0.0851   -0.0031    0.0362    0.0250   -0.0096   -0.0815    0.0285
          63   -0.0356    0.0095    0.0052    0.0058   -0.0220    0.0060   -0.0940    0.0212
          64    0.0480    0.0059    0.0046    0.0161   -0.0207    0.0062    0.0955   -0.0318
          65    0.0219    0.0327    0.0088    0.0095   -0.0721    0.0202    0.0761   -0.0390
          66   -0.0378    0.0073    0.0057    0.0046   -0.0261    0.0072   -0.0904    0.0192
          67   -0.0320    0.0208    0.0393   -0.0013    0.0300    0.1272    0.0298    0.0673
          68    0.0109    0.0081   -0.0577    0.0071   -0.0037   -0.0836   -0.0172   -0.0891
          69   -0.0367    0.0239    0.0365    0.0090    0.0387    0.0973    0.0117   -0.0285
          70   -0.0319    0.0241   -0.0412    0.0054   -0.0169   -0.1347    0.0025   -0.0691
          71    0.0108    0.0081   -0.0570    0.0070   -0.0035   -0.0812   -0.0167   -0.0869
          72   -0.0407    0.0303   -0.0334   -0.0010   -0.0373   -0.0984    0.0193    0.0293
          73   -0.0449    0.0329    0.0006    0.0041    0.0090   -0.0013    0.0300   -0.0001
          74    0.0131    0.0022    0.0349    0.0077    0.0688    0.2015   -0.0025   -0.0253
          75   -0.0219    0.0136    0.0007    0.0013   -0.0016   -0.0005   -0.0027    0.0001
          76   -0.0291    0.0197    0.0009    0.0012    0.0058   -0.0017    0.0036   -0.0001
          77    0.0051   -0.0025    0.1310   -0.0078    0.0311   -0.0321   -0.0113   -0.0548
          78    0.0070   -0.0093   -0.0012   -0.0028   -0.0038    0.0022   -0.0191    0.0010
          79   -0.0023   -0.0026   -0.0002   -0.0031   -0.0044    0.0032   -0.0286    0.0003
          80    0.0071    0.0189   -0.0338   -0.1141    0.0758   -0.0106   -0.0113   -0.0066
          81    0.0004    0.0177   -0.0014    0.0073    0.0154   -0.0047    0.0132    0.0009
          82    0.0117   -0.0241    0.0000   -0.0087   -0.0097    0.0036   -0.0174    0.0000
          83   -0.0300   -0.0504    0.0138    0.1251   -0.0187   -0.0073    0.0091    0.0201
          84    0.0173   -0.0073   -0.0017   -0.0018    0.0099   -0.0043    0.0262    0.0004
          85   -0.0024   -0.0013   -0.0020   -0.0027    0.0030   -0.0002   -0.0109    0.0021
          86    0.0077    0.0160   -0.1145   -0.0072   -0.0460    0.0137    0.0238    0.1321
          87   -0.0246    0.0156    0.0018    0.0018   -0.0007    0.0005   -0.0016   -0.0012


   Root No.       9        10        11        12        13        14        15        16

                 9 A      10 A      11 A      12 A      13 A      14 A      15 A      16 A   

                 208.6     245.4     324.9     379.4     414.5     430.1     478.8     490.1
  
           1    0.0049    0.0064    0.0155    0.0043   -0.0012    0.0168   -0.0142    0.0087
           2   -0.0022    0.0030    0.0020    0.0058   -0.0387   -0.0075   -0.0009    0.0021
           3    0.0202    0.0127    0.0055    0.0057   -0.0004    0.0158    0.0019    0.0414
           4    0.0042    0.0009   -0.0003    0.0160   -0.0015    0.0219   -0.0147    0.0033
           5    0.0020   -0.0039   -0.0051   -0.0213    0.0039    0.0242    0.0043   -0.0070
           6   -0.0190    0.0035   -0.0004   -0.0171    0.0011   -0.0202   -0.0323   -0.0169
           7    0.0020    0.0069    0.0120    0.0255   -0.0248    0.0064   -0.0256    0.0117
           8   -0.0001    0.0005    0.0027   -0.0127   -0.0234    0.0103    0.0037   -0.0031
           9   -0.0102   -0.0056    0.0363    0.0070    0.0260   -0.0135    0.0046    0.0002
          10    0.0064    0.0006    0.0051   -0.0021    0.0214    0.0422   -0.0188    0.0013
          11   -0.0002   -0.0021   -0.0056   -0.0072   -0.0243    0.0133    0.0027   -0.0056
          12    0.0053   -0.0200    0.0275   -0.0202   -0.0251    0.0094    0.0091   -0.0057
          13   -0.0180    0.0019   -0.0333    0.0024    0.0005   -0.0041    0.0236    0.0054
          14   -0.0148    0.0156    0.0037    0.0140   -0.0011    0.0117    0.0138   -0.0124
          15    0.0110   -0.0092   -0.0055    0.0246   -0.0003    0.0018    0.0276   -0.0155
          16   -0.0039   -0.0096   -0.0294   -0.0114    0.0011   -0.0118    0.0100    0.0161
          17    0.0007    0.0043    0.0126    0.0015   -0.0007    0.0076   -0.0049   -0.0076
          18   -0.0015   -0.0145   -0.0162   -0.0163    0.0009   -0.0100   -0.0037    0.0100
          19   -0.0194   -0.0125    0.0285   -0.0160    0.0009   -0.0117    0.0193    0.0230
          20   -0.0038    0.0013    0.0000    0.0011   -0.0107   -0.0009   -0.0004   -0.0001
          21   -0.0133   -0.0203   -0.0096    0.0143   -0.0008    0.0141   -0.0127   -0.0052
          22    0.0039   -0.0216   -0.0074    0.0118    0.0002   -0.0070   -0.0028   -0.0225
          23    0.0023    0.0000    0.0040    0.0263    0.0066   -0.0413   -0.0110    0.0164
          24   -0.0199    0.0198   -0.0046   -0.0124    0.0000    0.0000   -0.0303    0.0027
          25    0.0113    0.0261    0.0099   -0.0188    0.0016   -0.0202    0.0077   -0.0174
          26    0.0023   -0.0013   -0.0008   -0.0019    0.0627    0.0049    0.0003   -0.0004
          27    0.0262    0.0281   -0.0055   -0.0057   -0.0003   -0.0065    0.0105    0.0155
          28    0.0040   -0.0226   -0.0112    0.0126    0.0004   -0.0092    0.0014   -0.0221
          29    0.0127   -0.0190   -0.0148   -0.0036    0.0022   -0.0284   -0.0082    0.0190
          30   -0.0061    0.0125   -0.0157    0.0161   -0.0006    0.0112    0.0349    0.0046
          31    0.0117    0.0270    0.0123   -0.0215    0.0014   -0.0233    0.0112   -0.0160
          32    0.0052   -0.0024   -0.0010   -0.0019    0.0288    0.0033    0.0001   -0.0008
          33    0.0104    0.0111   -0.0192    0.0057   -0.0007   -0.0003   -0.0123   -0.0320
          34   -0.0063   -0.0123    0.0326    0.0081   -0.0021    0.0265   -0.0210    0.0030
          35   -0.0100    0.0114    0.0083    0.0288   -0.0590   -0.0345   -0.0059    0.0098
          36    0.0268    0.0240   -0.0053    0.0026    0.0004    0.0094    0.0061    0.0430
          37   -0.0016    0.0174   -0.0140    0.0158   -0.0020    0.0293   -0.0382    0.0106
          38   -0.0021   -0.0013   -0.0062   -0.0312    0.0427    0.0442    0.0089   -0.0146
          39   -0.0220    0.0139   -0.0086   -0.0166    0.0003   -0.0151   -0.0456   -0.0115
          40   -0.0160    0.0050    0.0118    0.0238   -0.0382   -0.0204   -0.0489   -0.0167
          41   -0.0099   -0.0137    0.0405    0.0017    0.0110   -0.0061    0.0310   -0.0191
          42   -0.0175   -0.0162    0.0648    0.0178    0.0520   -0.0259    0.0253   -0.0119
          43    0.0168    0.0127    0.0173    0.0464   -0.0421    0.0142   -0.0153    0.0465
          44    0.0093    0.0150   -0.0325   -0.0260   -0.0535    0.0242   -0.0226    0.0129
          45   -0.0174   -0.0164    0.0637    0.0174    0.0502   -0.0249    0.0248   -0.0119
          46    0.0239    0.0028    0.0062    0.0006    0.0360    0.0749   -0.0035    0.0282
          47    0.0033   -0.0294    0.0218   -0.0228   -0.0548    0.0280    0.0362   -0.0314
          48    0.0078   -0.0394    0.0475   -0.0322   -0.0483    0.0204    0.0337   -0.0247
          49   -0.0087   -0.0053    0.0006   -0.0212    0.0366    0.0372   -0.0380   -0.0332
          50   -0.0039    0.0247   -0.0334    0.0105    0.0092   -0.0025   -0.0315    0.0205
          51    0.0082   -0.0412    0.0497   -0.0344   -0.0520    0.0220    0.0366   -0.0267
          52   -0.0316    0.0110   -0.0482    0.0070    0.0006   -0.0040    0.0437    0.0132
          53   -0.0114    0.0146    0.0095    0.0109   -0.0013    0.0149    0.0078   -0.0150
          54    0.0496   -0.0519    0.0040    0.0301    0.0024   -0.0411   -0.0118   -0.0214
          55   -0.0318    0.0238   -0.0410    0.0063   -0.0006    0.0132    0.0518    0.0124
          56   -0.0504    0.0478   -0.0090    0.0083   -0.0029    0.0417    0.0452   -0.0074
          57   -0.0025    0.0087   -0.0119    0.0257   -0.0011    0.0162    0.0481   -0.0103
          58    0.0123   -0.0226   -0.0256   -0.0300    0.0020   -0.0218   -0.0112    0.0325
          59   -0.0098    0.0111    0.0106    0.0093   -0.0010    0.0121    0.0045   -0.0144
          60    0.0921   -0.0495   -0.0125   -0.0238    0.0014   -0.0201   -0.0183    0.0183
          61   -0.0695    0.0085   -0.0421   -0.0362    0.0018   -0.0173   -0.0044    0.0357
          62   -0.0433    0.0195    0.0169    0.0073   -0.0010    0.0129    0.0009   -0.0133
          63   -0.0540    0.0003   -0.0248   -0.0336    0.0014   -0.0134   -0.0136    0.0237
          64    0.0581   -0.0255   -0.0183    0.0161    0.0003   -0.0056    0.0288   -0.0048
          65    0.0673   -0.0275    0.0150   -0.0264    0.0005   -0.0084   -0.0380    0.0162
          66   -0.0514   -0.0012   -0.0252   -0.0364    0.0014   -0.0144   -0.0165    0.0256
          67   -0.0156   -0.0146    0.0291   -0.0180    0.0185   -0.0100    0.0209    0.0246
          68   -0.0070    0.0026    0.0000    0.0026   -0.0250   -0.0023   -0.0013   -0.0003
          69   -0.0371   -0.0429    0.0015    0.0221   -0.0374    0.0208   -0.0088    0.0280
          70   -0.0240   -0.0112    0.0298   -0.0150   -0.0171   -0.0143    0.0202    0.0256
          71   -0.0070    0.0024    0.0006    0.0020   -0.0240   -0.0027    0.0000    0.0013
          72   -0.0267   -0.0472   -0.0005    0.0170    0.0359    0.0289   -0.0080    0.0256
          73   -0.0452   -0.0462    0.0429   -0.0102    0.0005    0.0008    0.0269    0.0657
          74   -0.0062    0.0031    0.0006    0.0029   -0.0404   -0.0043   -0.0008    0.0002
          75    0.0019   -0.0006   -0.0178    0.0108   -0.0007    0.0068   -0.0169   -0.0294
          76    0.0080    0.0283    0.0014   -0.0241    0.0032   -0.0343    0.0071   -0.0526
          77   -0.0005   -0.0017   -0.0018   -0.0067    0.1629    0.0154    0.0014   -0.0025
          78    0.0272    0.0259   -0.0004   -0.0025   -0.0016    0.0015    0.0106    0.0343
          79    0.0170   -0.0359   -0.0096    0.0285    0.0002   -0.0086    0.0215   -0.0360
          80    0.0377   -0.0576   -0.0491   -0.0729   -0.0015   -0.0074   -0.0146    0.0369
          81    0.0007    0.0052   -0.0138    0.0253   -0.0007    0.0105    0.0448   -0.0034
          82   -0.0013   -0.0285   -0.0043   -0.0008    0.0012   -0.0238   -0.0276   -0.0383
          83   -0.0160    0.0313    0.0363    0.1022    0.0112   -0.0892   -0.0145    0.0137
          84   -0.0220    0.0150   -0.0029   -0.0196    0.0005   -0.0088   -0.0427   -0.0062
          85    0.0302    0.0502    0.0127   -0.0312    0.0015   -0.0346    0.0206   -0.0146
          86    0.0105   -0.0041   -0.0006    0.0002   -0.0375   -0.0026   -0.0005    0.0006
          87   -0.0001   -0.0022   -0.0188    0.0110   -0.0005    0.0062   -0.0171   -0.0314


   Root No.      17        18        19        20        21        22        23        24

                17 A      18 A      19 A      20 A      21 A      22 A      23 A      24 A   

                 513.7     795.7     816.1     858.0     893.5     916.0     923.3     926.8
  
           1   -0.0090   -0.0342    0.0115    0.0002    0.0003   -0.0002    0.0000    0.0001
           2   -0.0005   -0.0002    0.0002    0.0052   -0.0047   -0.0006   -0.0070   -0.0067
           3    0.0217   -0.0108    0.0043    0.0000    0.0002    0.0001    0.0002    0.0002
           4   -0.0058    0.0344   -0.0108    0.0000    0.0000    0.0007    0.0001   -0.0002
           5    0.0045   -0.0004   -0.0012   -0.0011   -0.0011    0.0100    0.0055   -0.0076
           6    0.0261   -0.0131   -0.0034   -0.0002   -0.0002    0.0000   -0.0002    0.0000
           7   -0.0146   -0.0014   -0.0040   -0.0079    0.0029    0.0074    0.0079   -0.0005
           8    0.0013   -0.0361    0.0160   -0.0061    0.0098   -0.0113    0.0016    0.0149
           9   -0.0102   -0.0082    0.0017   -0.0070   -0.0232    0.0074   -0.0007   -0.0066
          10   -0.0081    0.0000    0.0021    0.0076   -0.0035   -0.0082   -0.0080    0.0007
          11    0.0044    0.0377   -0.0099   -0.0061    0.0098   -0.0102    0.0017    0.0146
          12   -0.0069   -0.0096   -0.0003    0.0070    0.0230   -0.0053    0.0009    0.0057
          13   -0.0057    0.0036    0.0231    0.0009    0.0021    0.0035   -0.0009    0.0003
          14    0.0098    0.0047    0.0237    0.0009    0.0014    0.0000    0.0001    0.0002
          15    0.0123   -0.0101   -0.0088   -0.0003   -0.0006   -0.0015    0.0005   -0.0002
          16   -0.0147   -0.0024    0.0097    0.0003    0.0011    0.0040   -0.0010    0.0000
          17    0.0069    0.0027    0.0012    0.0006    0.0030    0.0107   -0.0024   -0.0002
          18   -0.0075   -0.0016   -0.0004    0.0000   -0.0002   -0.0006   -0.0005    0.0006
          19    0.0203    0.0053   -0.0016   -0.0001    0.0001    0.0004    0.0001    0.0000
          20   -0.0004    0.0000    0.0003   -0.0215    0.0045   -0.0008   -0.0005    0.0005
          21   -0.0092   -0.0063    0.0020    0.0002    0.0000    0.0000    0.0000    0.0000
          22    0.0253    0.0027   -0.0096   -0.0001    0.0003    0.0017   -0.0002   -0.0002
          23   -0.0115   -0.0041   -0.0169    0.0008    0.0117    0.0327    0.0220   -0.0290
          24    0.0026    0.0249    0.0008    0.0002   -0.0002   -0.0022   -0.0001    0.0007
          25   -0.0068   -0.0036    0.0011    0.0003    0.0000    0.0000   -0.0003   -0.0003
          26    0.0005    0.0000   -0.0006    0.0418   -0.0041   -0.0046   -0.0267   -0.0262
          27    0.0167    0.0235   -0.0071   -0.0005   -0.0003   -0.0007    0.0001    0.0003
          28    0.0254    0.0022   -0.0055    0.0000    0.0003    0.0009    0.0001   -0.0003
          29   -0.0146    0.0008    0.0066   -0.0017   -0.0098   -0.0367    0.0149   -0.0059
          30   -0.0109   -0.0024    0.0004    0.0001    0.0010    0.0040   -0.0005   -0.0005
          31   -0.0046   -0.0024    0.0007   -0.0002    0.0001    0.0002   -0.0001   -0.0001
          32    0.0001    0.0002    0.0005   -0.0260    0.0043   -0.0022   -0.0090   -0.0084
          33   -0.0229   -0.0052    0.0013    0.0003    0.0000    0.0003    0.0001    0.0000
          34   -0.0259   -0.0713    0.0230   -0.0002    0.0007    0.0006    0.0004    0.0002
          35   -0.0052   -0.0006   -0.0022   -0.0341   -0.0704    0.0407   -0.0005   -0.0434
          36    0.0312    0.0137   -0.0033    0.0008    0.0009   -0.0011   -0.0001    0.0007
          37   -0.0037    0.0712   -0.0192   -0.0001   -0.0004   -0.0009    0.0001    0.0002
          38    0.0100    0.0026    0.0107   -0.0043   -0.0805    0.0208   -0.0083   -0.0421
          39    0.0261    0.0112   -0.0087   -0.0001    0.0008   -0.0012    0.0000    0.0008
          40   -0.0156   -0.0048   -0.0148   -0.0080    0.0011    0.0043    0.0016   -0.0007
          41   -0.0519    0.0130    0.0034    0.0278    0.1009   -0.0376    0.0041    0.0422
          42   -0.0507    0.0312   -0.0086    0.0193    0.0481   -0.0135    0.0013    0.0152
          43   -0.0222   -0.0004    0.0004   -0.0174    0.0074    0.0179    0.0273   -0.0008
          44    0.0512   -0.0959    0.0328   -0.0394   -0.0826    0.0161   -0.0012   -0.0110
          45   -0.0492    0.0376   -0.0113    0.0195    0.0488   -0.0135    0.0014    0.0137
          46   -0.0104    0.0026    0.0134    0.0173   -0.0073   -0.0204   -0.0271    0.0022
          47   -0.0402    0.1020   -0.0111   -0.0393   -0.0852    0.0115   -0.0017   -0.0109
          48   -0.0395    0.0371   -0.0007   -0.0179   -0.0468    0.0102   -0.0016   -0.0130
          49   -0.0053   -0.0032   -0.0081    0.0067   -0.0039   -0.0056   -0.0029    0.0001
          50    0.0495   -0.0138   -0.0136    0.0262    0.0993   -0.0293    0.0048    0.0402
[...]
 FREQ.      1468.37        C  1 --  C  2          +11.7% ( 57.6%)   100.0%
 T-DIPOLE    0.0612        C  1 --  C  9           +8.3% ( 48.4%)    92.6%
 TRAVEL      0.0684        C  2 --  C  8           +8.0% ( 47.5%)    93.3%
 RED. MASS   1.3851        C  1 --  C  4           +6.9% ( 44.1%)    60.5%
 EFF. MASS   9.8257

 VIBRATION   62   62A       ATOM PAIR        ENERGY CONTRIBUTION    RADIAL
 FREQ.      1891.04        C  9 --  C 11          +30.8% ( 82.0%)    96.3%
 T-DIPOLE    0.3230        C  8 --  C 10          +12.8% ( 52.8%)    96.4%
 TRAVEL      0.0550        C  1 --  C  9          +10.2% ( 47.1%)    56.0%
 RED. MASS   3.1428        C  7 --  C 11          +10.0% ( 46.6%)    56.3%
 EFF. MASS  11.7917

 VIBRATION   63   63A       ATOM PAIR        ENERGY CONTRIBUTION    RADIAL
 FREQ.      1891.90        C  8 --  C 10          +30.8% ( 82.0%)    96.4%
 T-DIPOLE    0.1140        C  9 --  C 11          +12.7% ( 52.6%)    96.2%
 TRAVEL      0.0550        C  2 --  C  8          +10.3% ( 47.4%)    55.9%
 RED. MASS   3.1308        C  5 --  C 10           +9.8% ( 46.3%)    54.6%
 EFF. MASS  11.7948

 VIBRATION   64   64A       ATOM PAIR        ENERGY CONTRIBUTION    RADIAL
 FREQ.      2945.11        C  5 --  H 18          +52.1% ( 75.0%)    96.8%
 T-DIPOLE    0.0179        C  5 --  H 19          +45.1% ( 69.7%)    96.1%
 TRAVEL      0.1218        C  5 --  C  6           +1.2% ( 11.2%)     0.0%
 RED. MASS   0.5162        C  5 --  C 10           +1.2% ( 11.1%)     0.2%
 EFF. MASS   1.5437

 VIBRATION   65   65A       ATOM PAIR        ENERGY CONTRIBUTION    RADIAL
 FREQ.      2947.81        C  1 --  H 12          +53.2% ( 74.6%)   100.0%
 T-DIPOLE    0.0650        C  2 --  H 13          +42.3% ( 66.5%)   100.0%
 TRAVEL      0.1261        C  1 --  C  2           +1.0% ( 10.2%)     0.1%
 RED. MASS   0.4686        C  1 --  C  9           +0.6% (  8.0%)    14.1%
 EFF. MASS   1.4396

 VIBRATION   66   66A       ATOM PAIR        ENERGY CONTRIBUTION    RADIAL
 FREQ.      2948.81        C  2 --  H 13          +52.3% ( 74.1%)   100.0%
 T-DIPOLE    0.0779        C  1 --  H 12          +41.4% ( 66.0%)   100.0%
 TRAVEL      0.1246        C  1 --  C  2           +1.2% ( 11.1%)    99.3%
 RED. MASS   0.4564        C  2 --  C  4           +0.6% (  8.2%)    12.7%
 EFF. MASS   1.4729

 VIBRATION   67   67A       ATOM PAIR        ENERGY CONTRIBUTION    RADIAL
 FREQ.      3024.39        C  5 --  H 19          +49.8% ( 69.7%)    98.1%
 T-DIPOLE    0.0485        C  5 --  H 18          +43.8% ( 65.4%)    97.3%
 TRAVEL      0.1313        C  8 --  H 28           +2.8% ( 16.6%)    99.9%
 RED. MASS   0.4413        C 10 --  H 27           +1.5% ( 12.2%)    99.6%
 EFF. MASS   1.2926

 VIBRATION   68   68A       ATOM PAIR        ENERGY CONTRIBUTION    RADIAL
 FREQ.      3028.97        C  8 --  H 28          +61.4% ( 79.4%)   100.0%
 T-DIPOLE    0.2370        C  9 --  H 26          +32.3% ( 57.5%)   100.0%
 TRAVEL      0.1221        C 10 --  H 27           +1.5% ( 12.4%)    99.4%
 RED. MASS   0.4714        C  5 --  H 19           +1.0% ( 10.1%)    98.5%
 EFF. MASS   1.4926

 VIBRATION   69   69A       ATOM PAIR        ENERGY CONTRIBUTION    RADIAL
 FREQ.      3031.29        C  9 --  H 26          +64.1% ( 81.1%)   100.0%
 T-DIPOLE    0.3100        C  8 --  H 28          +30.8% ( 56.2%)   100.0%
 TRAVEL      0.1220        C 10 --  H 27           +1.5% ( 12.4%)    99.7%
 RED. MASS   0.4965        C  9 --  C 11           +0.9% (  9.8%)    40.1%
 EFF. MASS   1.4945

 VIBRATION   70   70A       ATOM PAIR        ENERGY CONTRIBUTION    RADIAL
 FREQ.      3036.30        C 10 --  H 27          +91.8% ( 97.2%)   100.0%
 T-DIPOLE    0.2192        C  8 --  H 28           +2.1% ( 14.8%)    99.0%
 TRAVEL      0.1205        C  5 --  H 19           +1.7% ( 13.4%)    99.4%
 RED. MASS   0.8330        C  8 --  C 10           +1.7% ( 13.1%)    40.1%
 EFF. MASS   1.5293

 VIBRATION   71   71A       ATOM PAIR        ENERGY CONTRIBUTION    RADIAL
 FREQ.      3037.98        C 11 --  H 29          +92.8% ( 97.9%)   100.0%
 T-DIPOLE    0.2433        C  9 --  C 11           +1.5% ( 12.6%)    39.0%
 TRAVEL      0.1206        C  7 --  H 25           +1.4% ( 12.0%)    98.0%
 RED. MASS   0.8553        C  7 --  C 11           +1.4% ( 11.9%)    11.0%
 EFF. MASS   1.5257

 VIBRATION   72   72A       ATOM PAIR        ENERGY CONTRIBUTION    RADIAL
 FREQ.      3038.30        C  4 --  H 16          +30.4% ( 57.4%)    97.8%
 T-DIPOLE    0.0375        C  3 --  H 15          +27.1% ( 54.3%)    97.8%
 TRAVEL      0.1201        C  4 --  H 17          +20.6% ( 47.3%)    95.6%
 RED. MASS   0.2683        C  3 --  H 14          +18.5% ( 44.8%)    95.6%
 EFF. MASS   1.5384

 VIBRATION   73   73A       ATOM PAIR        ENERGY CONTRIBUTION    RADIAL
 FREQ.      3041.09        C  3 --  H 15          +29.8% ( 56.8%)    97.9%
 T-DIPOLE    0.1024        C  4 --  H 16          +26.2% ( 53.3%)    97.9%
 TRAVEL      0.1198        C  3 --  H 14          +20.0% ( 46.5%)    95.5%
 RED. MASS   0.2524        C  4 --  H 17          +17.5% ( 43.5%)    95.5%
 EFF. MASS   1.5455

 VIBRATION   74   74A       ATOM PAIR        ENERGY CONTRIBUTION    RADIAL
 FREQ.      3070.13        C  7 --  H 24          +49.8% ( 72.8%)    97.1%
 T-DIPOLE    0.0227        C  7 --  H 23          +48.3% ( 71.7%)    96.9%
 TRAVEL      0.1210        C  7 --  C 11           +1.0% ( 10.2%)     0.0%
 RED. MASS   0.5093        C  7 --  H 25           +0.9% (  9.9%)     0.2%
 EFF. MASS   1.5010

 VIBRATION   75   75A       ATOM PAIR        ENERGY CONTRIBUTION    RADIAL
 FREQ.      3075.76        C  7 --  H 25          +62.6% ( 81.6%)    98.9%
 T-DIPOLE    0.0595        C  7 --  H 23          +17.8% ( 43.5%)    85.5%
 TRAVEL      0.1206        C  7 --  H 24          +16.5% ( 41.9%)    84.2%
 RED. MASS   0.4789        C 11 --  H 29           +2.0% ( 14.5%)   100.0%
 EFF. MASS   1.5083

 VIBRATION   76   76A       ATOM PAIR        ENERGY CONTRIBUTION    RADIAL
 FREQ.      3081.37        C  6 --  H 21          +64.0% ( 82.6%)    98.7%
 T-DIPOLE    0.0085        C  6 --  H 20          +28.3% ( 54.9%)    92.1%
 TRAVEL      0.1207        C  6 --  H 22           +6.4% ( 26.1%)    62.3%
 RED. MASS   0.5219        C  5 --  C  6           +1.0% ( 10.2%)     0.0%
 EFF. MASS   1.5012

 VIBRATION   77   77A       ATOM PAIR        ENERGY CONTRIBUTION    RADIAL
 FREQ.      3086.01        C  6 --  H 22          +58.2% ( 78.7%)    98.3%
 T-DIPOLE    0.0148        C  6 --  H 20          +36.6% ( 62.4%)    94.6%
 TRAVEL      0.1205        C  6 --  H 21           +3.8% ( 20.1%)    44.8%
 RED. MASS   0.5025        C  5 --  C  6           +1.0% ( 10.3%)     0.1%
 EFF. MASS   1.5041

 VIBRATION   78   78A       ATOM PAIR        ENERGY CONTRIBUTION    RADIAL
 FREQ.      3103.18        C  4 --  H 17          +30.3% ( 54.6%)    98.4%
 T-DIPOLE    0.1140        C  3 --  H 14          +29.0% ( 53.4%)    98.4%
 TRAVEL      0.1312        C  4 --  H 16          +19.8% ( 44.1%)    95.6%
 RED. MASS   0.2509        C  3 --  H 15          +19.1% ( 43.3%)    95.6%
 EFF. MASS   1.2626

 VIBRATION   79   79A       ATOM PAIR        ENERGY CONTRIBUTION    RADIAL
 FREQ.      3105.99        C  3 --  H 14          +30.2% ( 54.5%)    98.2%
 T-DIPOLE    0.0069        C  4 --  H 17          +29.0% ( 53.5%)    98.2%
 TRAVEL      0.1290        C  3 --  H 15          +19.7% ( 44.1%)    95.1%
 RED. MASS   0.2514        C  4 --  H 16          +18.8% ( 43.1%)    95.1%
 EFF. MASS   1.3051

 VIBRATION   80   80A       ATOM PAIR        ENERGY CONTRIBUTION    RADIAL
 FREQ.      3169.73        C  7 --  H 25          +34.5% ( 56.6%)    97.2%
 T-DIPOLE    0.0703        C  7 --  H 23          +32.6% ( 55.0%)    97.1%
 TRAVEL      0.1366        C  7 --  H 24          +32.5% ( 54.9%)    97.0%
 RED. MASS   0.3272        C  7 --  C 11           +0.3% (  5.4%)   100.0%
 EFF. MASS   1.1393

 VIBRATION   81   81A       ATOM PAIR        ENERGY CONTRIBUTION    RADIAL
 FREQ.      3183.08        C  6 --  H 22          +34.4% ( 56.4%)    97.3%
 T-DIPOLE    0.0238        C  6 --  H 20          +34.4% ( 56.4%)    97.3%
 TRAVEL      0.1366        C  6 --  H 21          +30.9% ( 53.5%)    96.7%
 RED. MASS   0.3277        C  5 --  C  6           +0.3% (  5.1%)    99.8%
 EFF. MASS   1.1361

 SYMMETRY NUMBER FOR POINT-GROUP C1  =  1


          SYSTEM IS A GROUND STATE


    NULL



          MOLECULE IS NOT LINEAR

          THERE ARE 81 GENUINE VIBRATIONS IN THIS SYSTEM
          THIS THERMODYNAMICS CALCULATION IS LIMITED TO
          MOLECULES WHICH HAVE NO INTERNAL ROTATIONS




                    CALCULATED THERMODYNAMIC PROPERTIES
                                          *
   TEMP. (K)   PARTITION FUNCTION   H.O.F.    ENTHALPY  HEAT CAPACITY ENTROPY
                                   KCAL/MOL   CAL/MOLE    CAL/K/MOL  CAL/K/MOL


 298.00  VIB.     0.5222D+05                  6289.6254    40.7970    42.6935
         ROT.     0.1546D+07                   888.2813     2.9808    31.3014
         INT.     0.8075D+11                  7177.9067    43.7778    73.9949
         TRA.     0.1781D+28                  1480.4688     4.9680    40.9296
         TOT.                        8.065    8658.3756    48.7458   114.9245

 200.00  VIB.     0.1475D+04                  2987.3127    27.1771    29.4359
         ROT.     0.8502D+06                   596.1620     2.9808    30.1127
         INT.     0.1254D+10                  3583.4746    30.1579    59.5486
         TRA.     0.9791D+27                   993.6033     4.9680    38.9485
         TOT.                        3.983    4577.0779    35.1259    98.4971

 210.00  VIB.     0.2144D+04                  3265.1320    28.3937    30.7912
         ROT.     0.9148D+06                   625.9700     2.9808    30.2581
         INT.     0.1962D+10                  3891.1020    31.3746    61.0493
         TRA.     0.1053D+28                  1043.2834     4.9680    39.1909
         TOT.                        4.341    4934.3854    36.3426   100.2402

 220.00  VIB.     0.3108D+04                  3555.3306    29.6532    32.1410
         ROT.     0.9809D+06                   655.7781     2.9808    30.3968
         INT.     0.3048D+10                  4211.1088    32.6341    62.5378
         TRA.     0.1130D+28                  1092.9636     4.9680    39.4220
         TOT.                        4.710    5304.0724    37.6021   101.9597

 230.00  VIB.     0.4492D+04                  3858.3423    30.9563    33.4877
         ROT.     0.1049D+07                   685.5862     2.9808    30.5293
         INT.     0.4710D+10                  4543.9285    33.9371    64.0170
         TRA.     0.1207D+28                  1142.6437     4.9680    39.6428
         TOT.                        5.093    5686.5723    38.9052   103.6598

 240.00  VIB.     0.6476D+04                  4174.5999    32.3022    34.8335
         ROT.     0.1118D+07                   715.3943     2.9808    30.6562
         INT.     0.7238D+10                  4889.9943    35.2830    65.4896
         TRA.     0.1287D+28                  1192.3239     4.9680    39.8543
         TOT.                        5.489    6082.3182    40.2510   105.3439

 250.00  VIB.     0.9316D+04                  4504.5219    33.6888    36.1801
         ROT.     0.1188D+07                   745.2024     2.9808    30.7778
         INT.     0.1107D+11                  5249.7244    36.6696    66.9579
         TRA.     0.1368D+28                  1242.0041     4.9680    40.0571
         TOT.                        5.898    6491.7284    41.6376   107.0150

 260.00  VIB.     0.1338D+05                  4848.5010    35.1130    37.5290
         ROT.     0.1260D+07                   775.0105     2.9808    30.8947
         INT.     0.1686D+11                  5623.5115    38.0938    68.4238
         TRA.     0.1451D+28                  1291.6842     4.9680    40.2519
         TOT.                        6.322    6915.1957    43.0618   108.6757

 270.00  VIB.     0.1918D+05                  5206.8954    36.5712    38.8814
         ROT.     0.1334D+07                   804.8186     2.9808    31.0072
         INT.     0.2557D+11                  6011.7140    39.5520    69.8887
         TRA.     0.1536D+28                  1341.3644     4.9680    40.4394
         TOT.                        6.759    7353.0784    44.5200   110.3281

 280.00  VIB.     0.2745D+05                  5580.0233    38.0590    40.2382
         ROT.     0.1408D+07                   834.6267     2.9808    31.1156
         INT.     0.3866D+11                  6414.6500    41.0398    71.3539
         TRA.     0.1622D+28                  1391.0445     4.9680    40.6201
         TOT.                        7.212    7805.6945    46.0078   111.9740

 290.00  VIB.     0.3925D+05                  5968.1582    39.5718    41.6001
         ROT.     0.1485D+07                   864.4348     2.9808    31.2202
         INT.     0.5827D+11                  6832.5930    42.5526    72.8204
         TRA.     0.1710D+28                  1440.7247     4.9680    40.7944
         TOT.                        7.680    8273.3177    47.5206   113.6148

 300.00  VIB.     0.5608D+05                  6371.5273    41.1050    42.9674
         ROT.     0.1562D+07                   894.2429     2.9808    31.3213
         INT.     0.8759D+11                  7265.7702    44.0858    74.2887
         TRA.     0.1799D+28                  1490.4049     4.9680    40.9628
         TOT.                        8.163    8756.1751    49.0538   115.2516

 310.00  VIB.     0.8005D+05                  6790.3108    42.6539    44.3405
         ROT.     0.1641D+07                   924.0510     2.9808    31.4190
         INT.     0.1313D+12                  7714.3618    45.6347    75.7595
         TRA.     0.1889D+28                  1540.0850     4.9680    41.1257
         TOT.                        8.661    9254.4469    50.6027   116.8853

 320.00  VIB.     0.1142D+06                  7224.6425    44.2139    45.7193
         ROT.     0.1721D+07                   953.8591     2.9808    31.5137
         INT.     0.1965D+12                  8178.5016    47.1947    77.2330
         TRA.     0.1982D+28                  1589.7652     4.9680    41.2835
         TOT.                        9.175    9768.2668    52.1627   118.5165

 330.00  VIB.     0.1628D+06                  7674.6112    45.7806    47.1038
         ROT.     0.1802D+07                   983.6672     2.9808    31.6054
         INT.     0.2934D+12                  8658.2785    48.7614    78.7092
         TRA.     0.2075D+28                  1639.4454     4.9680    41.4364
         TOT.                        9.704   10297.7238    53.7295   120.1456

 340.00  VIB.     0.2321D+06                  8140.2638    47.3500    48.4938
         ROT.     0.1885D+07                  1013.4753     2.9808    31.6944
         INT.     0.4374D+12                  9153.7391    50.3308    80.1882
         TRA.     0.2170D+28                  1689.1255     4.9680    41.5847
         TOT.                       10.249   10842.8646    55.2988   121.7729

 350.00  VIB.     0.3308D+06                  8621.6072    48.9182    49.8890
         ROT.     0.1968D+07                  1043.2834     2.9808    31.7808
         INT.     0.6511D+12                  9664.8906    51.8990    81.6698
         TRA.     0.2267D+28                  1738.8057     4.9680    41.7287
         TOT.                       10.810   11403.6963    56.8670   123.3985

 360.00  VIB.     0.4713D+06                  9118.6121    50.4817    51.2890
         ROT.     0.2053D+07                  1073.0915     2.9808    31.8648
         INT.     0.9678D+12                 10191.7036    53.4626    83.1538
         TRA.     0.2364D+28                  1788.4859     4.9680    41.8686
         TOT.                       11.387   11980.1894    58.4306   125.0224

 370.00  VIB.     0.6716D+06                  9631.2161    52.0375    52.6934
         ROT.     0.2139D+07                  1102.8996     2.9808    31.9464
         INT.     0.1437D+13                 10734.1157    55.0183    84.6398
         TRA.     0.2464D+28                  1838.1660     4.9680    42.0047
         TOT.                       11.979   12572.2818    59.9864   126.6446

 380.00  VIB.     0.9568D+06                 10159.3274    53.5827    54.1017
         ROT.     0.2227D+07                  1132.7077     2.9808    32.0259
         INT.     0.2131D+13                 11292.0351    56.5636    86.1276
         TRA.     0.2564D+28                  1887.8462     4.9680    42.1372
         TOT.                       12.586   13179.8813    61.5316   128.2648

 390.00  VIB.     0.1363D+07                 10702.8277    55.1150    55.5134
         ROT.     0.2315D+07                  1162.5158     2.9808    32.1034
         INT.     0.3156D+13                 11865.3435    58.0958    87.6167
         TRA.     0.2666D+28                  1937.5263     4.9680    42.2663
         TOT.                       13.209   13802.8698    63.0638   129.8830

 400.00  VIB.     0.1943D+07                 11261.5759    56.6320    56.9279
         ROT.     0.2405D+07                  1192.3239     2.9808    32.1788
         INT.     0.4672D+13                 12453.8998    59.6128    89.1067
         TRA.     0.2769D+28                  1987.2065     4.9680    42.3921
         TOT.                       13.847   14441.1063    64.5808   131.4988

   *: NOTE: HEATS OF FORMATION ARE RELATIVE TO THE
            ELEMENTS IN THEIR STANDARD STATE AT 298K
              (=  Standard Enthalpy of Formation).

            Hvib:  Zero-point energy is not included.
                   frequencies of less than zero cm-1 are not included.
            Hrot = (3/2)RT
            Htra = (3/2)RT + pV = (5/2)RT

            Heat capacity is Cp, not Cv

           For more information, see: HTTP://OpenMOPAC.net/Manual/thermochemistry.html


           FORCE CONSTANT IN CARTESIAN COORDINATES (Millidynes/A)

    ATOM   CHEMICAL       X               Y               Z
   NUMBER   SYMBOL  FORCE CONSTANT  FORCE CONSTANT  FORCE CONSTANT

      1       C       10.038651        5.932934        9.284447
      2       C       10.037505        5.934992        9.282181
      3       C        5.898084        9.666094        8.665518
      4       C        5.899474        9.670996        8.662822
      5       C        8.571171        8.025690        8.825185
      6       C        8.311621        8.214143        8.328952
      7       C        8.617316        7.941698        8.885909
      8       C       15.578179        2.487330        9.345196
      9       C       15.567447        2.484670        9.351995
     10       C       15.463670        2.453473        9.263012
     11       C       15.359408        2.382576        9.430397
     12       H        2.004087        0.656006        3.599750
     13       H        2.005224        0.656046        3.599538
     14       H        0.666581        2.255870        3.719467
     15       H        0.682672        2.281467        3.671054
     16       H        0.683139        2.162538        3.790325
     17       H        0.666701        2.379007        3.596157
     18       H        1.430761        4.180991        0.668430
     19       H        1.984705        0.771043        3.645200
     20       H        1.498408        4.612926        0.674330
     21       H        2.185098        0.784922        3.815405
     22       H        2.326700        0.717030        3.749238
     23       H        2.287994        3.701030        0.677769
     24       H        2.166488        3.820401        0.678446
     25       H        2.056980        0.656606        4.056880
     26       H        1.722121        0.360407        4.110377
     27       H        1.729772        0.358773        4.125735
     28       H        1.723922        0.360768        4.104764
     29       H        1.721298        0.358232        4.137549



 TOTAL CPU TIME:             7.74 SECONDS

 == MOPAC DONE ==
