 *******************************************************************************
 ** Site#: 14399           For non-commercial use only        Version 13.159M **
 *******************************************************************************
 ** Cite this work as: MOPAC2012, James J. P. Stewart, Stewart Computational  **
 ** Chemistry, Version 13.159M web: HTTP://OpenMOPAC.net  Days remaining:   6 **
 *******************************************************************************
 **                                                                           **
 **                                MOPAC2012                                  **
 **                                                                           **
 *******************************************************************************

                            PM3 CALCULATION RESULTS


 *******************************************************************************
 *  CALCULATION DONE:                                Mon Jun  2 11:12:06 2014  *
 *  PM3      - The PM3 Hamiltonian to be used
 *  PRECISE  - CRITERIA TO BE INCREASED BY 100 TIMES
 *  NOSYM    - POINT-GROUP SYMMETRY SET TO C1
 *  T=       - A TIME OF 172800.0 SECONDS REQUESTED
 *  DUMP=N   - RESTART FILE WRITTEN EVERY  7200.000 SECONDS
 *******************************************************************************
pm3  precise nosym
 InChI=1S/C5H4/c1-2-4-5-3-1/h1-4H

   ATOM   CHEMICAL          X               Y               Z
  NUMBER   SYMBOL      (ANGSTROMS)     (ANGSTROMS)     (ANGSTROMS)
 
     1       C          0.65020000  *   0.75450000  *  -0.04640000  *
     2       C         -0.66280000  *   0.72900000  *   0.16200000  *
     3       C          1.08930000  *  -0.62870000  *  -0.21050000  *
     4       C         -1.07830000  *  -0.67090000  *   0.13360000  *
     5       C          0.01140000  *  -1.34070000  *  -0.08630000  *
     6       H          1.27060000  *   1.64380000  *  -0.08540000  *
     7       H         -1.29810000  *   1.59380000  *   0.32230000  *
     8       H          2.09150000  *  -0.99980000  *  -0.39610000  *
     9       H         -2.07390000  *  -1.08090000  *   0.26510000  *
 


          CARTESIAN COORDINATES 

    NO.       ATOM         X         Y         Z

     1         C        0.6502    0.7545   -0.0464
     2         C       -0.6628    0.7290    0.1620
     3         C        1.0893   -0.6287   -0.2105
     4         C       -1.0783   -0.6709    0.1336
     5         C        0.0114   -1.3407   -0.0863
     6         H        1.2706    1.6438   -0.0854
     7         H       -1.2981    1.5938    0.3223
     8         H        2.0915   -0.9998   -0.3961
     9         H       -2.0739   -1.0809    0.2651

  H: (PM3): J. J. P. STEWART, J. COMP. CHEM. 10, 209 (1989).
  C: (PM3): J. J. P. STEWART, J. COMP. CHEM. 10, 209 (1989).

           Empirical Formula: C5 H4  =     9 atoms



      MOLECULAR POINT GROUP   :   C1  


      RHF CALCULATION, NO. OF DOUBLY OCCUPIED LEVELS =   12

      Geometry optimization using EF

          DIAGONAL MATRIX USED AS START HESSIAN

 CYCLE:     1 TIME:   0.047 TIME LEFT:  2.00D  GRAD.:   249.425 HEAT: 165.8431
 CYCLE:     2 TIME:   0.003 TIME LEFT:  2.00D  GRAD.:   105.140 HEAT: 156.7110
 CYCLE:     3 TIME:   0.002 TIME LEFT:  2.00D  GRAD.:    53.314 HEAT: 151.9174
 CYCLE:     4 TIME:   0.002 TIME LEFT:  2.00D  GRAD.:   114.017 HEAT: 151.3264
 CYCLE:     5 TIME:   0.001 TIME LEFT:  2.00D  GRAD.:    33.887 HEAT: 148.4155
 CYCLE:     6 TIME:   0.002 TIME LEFT:  2.00D  GRAD.:    50.276 HEAT: 148.3509
 CYCLE:     7 TIME:   0.002 TIME LEFT:  2.00D  GRAD.:    20.156 HEAT: 147.4655
 CYCLE:     8 TIME:   0.002 TIME LEFT:  2.00D  GRAD.:    23.467 HEAT: 147.2047
 CYCLE:     9 TIME:   0.001 TIME LEFT:  2.00D  GRAD.:    23.850 HEAT: 146.9452
 CYCLE:    10 TIME:   0.002 TIME LEFT:  2.00D  GRAD.:    23.006 HEAT: 146.7423
 CYCLE:    11 TIME:   0.002 TIME LEFT:  2.00D  GRAD.:    10.197 HEAT: 146.6227
 CYCLE:    12 TIME:   0.002 TIME LEFT:  2.00D  GRAD.:    10.353 HEAT: 146.6019
 CYCLE:    13 TIME:   0.002 TIME LEFT:  2.00D  GRAD.:     8.081 HEAT: 146.5859
 CYCLE:    14 TIME:   0.001 TIME LEFT:  2.00D  GRAD.:     2.809 HEAT: 146.5618
 CYCLE:    15 TIME:   0.001 TIME LEFT:  2.00D  GRAD.:     1.606 HEAT: 146.5520
 CYCLE:    16 TIME:   0.002 TIME LEFT:  2.00D  GRAD.:     2.568 HEAT: 146.5473
 CYCLE:    17 TIME:   0.002 TIME LEFT:  2.00D  GRAD.:     1.544 HEAT: 146.5466
 CYCLE:    18 TIME:   0.002 TIME LEFT:  2.00D  GRAD.:     0.233 HEAT: 146.5457
 CYCLE:    19 TIME:   0.002 TIME LEFT:  2.00D  GRAD.:     0.109 HEAT: 146.5457
 CYCLE:    20 TIME:   0.002 TIME LEFT:  2.00D  GRAD.:     0.073 HEAT: 146.5457
 CYCLE:    21 TIME:   0.002 TIME LEFT:  2.00D  GRAD.:     0.047 HEAT: 146.5456

     RMS GRADIENT =  0.04689  IS LESS THAN CUTOFF =  0.05000



 -------------------------------------------------------------------------------
pm3  precise nosym
 InChI=1S/C5H4/c1-2-4-5-3-1/h1-4H



     GEOMETRY OPTIMISED USING EIGENVECTOR FOLLOWING (EF).     
     SCF FIELD WAS ACHIEVED                                   


                              PM3 CALCULATION
                                                       MOPAC2012 (Version: 13.159M)
                                                       Mon Jun  2 11:12:06 2014
                                                       No. of days left =   6




          FINAL HEAT OF FORMATION =        146.54565 KCAL/MOL =     613.14699 KJ/MOL


          TOTAL ENERGY            =       -648.17797 EV
          ELECTRONIC ENERGY       =      -2228.17567 EV  POINT GROUP:     C1  
          CORE-CORE REPULSION     =       1579.99771 EV
          COSMO AREA              =        105.79 SQUARE ANGSTROMS
          COSMO VOLUME            =         92.60 CUBIC ANGSTROMS

          GRADIENT NORM           =          0.04689
          IONIZATION POTENTIAL    =          9.044915 EV
          HOMO LUMO ENERGIES (EV) =         -9.045 -1.992
          NO. OF FILLED LEVELS    =         12
          MOLECULAR WEIGHT        =         64.087

          MOLECULAR DIMENSIONS (Angstroms)

            Atom       Atom       Distance
            H     9    H     8     4.37031
            C     5    H     6     2.97278
            H     7    C     3     0.73084


          SCF CALCULATIONS        =         23
          COMPUTATION TIME        =          0.090 SECONDS




   ATOM   CHEMICAL          X               Y               Z
  NUMBER   SYMBOL      (ANGSTROMS)     (ANGSTROMS)     (ANGSTROMS)
 
     1       C          0.67899599  *   0.74800349  *   0.06838060  *
     2       C         -0.69171262  *   0.73786427  *   0.04723040  *
     3       C          1.15501949  *  -0.64540785  *  -0.20332941  *
     4       C         -1.14369005  *  -0.68746577  *   0.12424155  *
     5       C          0.01140866  *  -1.34877681  *  -0.08705795  *
     6       H          1.33654527  *   1.61353271  *   0.07050048  *
     7       H         -1.36384972  *   1.58418711  *   0.16335435  *
     8       H          2.10894407  *  -0.89389936  *  -0.65789124  *
     9       H         -2.09230415  *  -1.01234915  *   0.54006761  *

           Empirical Formula: C5 H4  =     9 atoms



      MOLECULAR POINT GROUP   :   C1  


                  EIGENVALUES  
 -39.15481 -26.74823 -26.32300 -19.10832 -18.77514 -16.61776 -14.81087 -14.23057
 -13.23599 -12.66191  -9.43352  -9.04491  -1.99177   1.24596   1.69661   2.98810
   3.10530   3.63616   3.92316   4.05519   4.78019   5.35320   5.50449   5.92920


              NET ATOMIC CHARGES AND DIPOLE CONTRIBUTIONS

  ATOM NO.   TYPE          CHARGE      No. of ELECS.   s-Pop       p-Pop       
    1          C          -0.134293        4.1343     1.21199     2.92230
    2          C          -0.134600        4.1346     1.21196     2.92265
    3          C          -0.032207        4.0322     1.18511     2.84709
    4          C          -0.031990        4.0320     1.18512     2.84687
    5          C          -0.161414        4.1614     1.30308     2.85834
    6          H           0.116042        0.8840     0.88396
    7          H           0.116078        0.8839     0.88392
    8          H           0.131197        0.8688     0.86880
    9          H           0.131188        0.8688     0.86881
 DIPOLE           X         Y         Z       TOTAL
 POINT-CHG.    -0.007     0.873     0.061     0.875
 HYBRID         0.000    -0.076    -0.005     0.077
 SUM           -0.007     0.797     0.056     0.799


          ATOMIC ORBITAL ELECTRON POPULATIONS

    Atom      s        px        py        pz   
    1  C   1.21199   0.95002   0.95110   1.02118
    2  C   1.21196   0.95107   0.93562   1.03596
    3  C   1.18511   1.00910   0.87249   0.96551
    4  C   1.18512   1.00879   0.89271   0.94536
    5  C   1.30308   0.95245   0.85814   1.04774
    6  H   0.88396
    7  H   0.88392
    8  H   0.86880
    9  H   0.86881
 *******************************************************************************
 ** Site#: 14399           For non-commercial use only        Version 13.159M **
 *******************************************************************************
 ** Cite this work as: MOPAC2012, James J. P. Stewart, Stewart Computational  **
 ** Chemistry, Version 13.159M web: HTTP://OpenMOPAC.net  Days remaining:   6 **
 *******************************************************************************
 **                                                                           **
 **                                MOPAC2012                                  **
 **                                                                           **
 *******************************************************************************

                            PM3 CALCULATION RESULTS


 *******************************************************************************
 *  CALCULATION DONE:                                Mon Jun  2 11:12:06 2014  *
 *  PM3      - The PM3 Hamiltonian to be used
 *  OLDGEO   - PREVIOUS GEOMETRY TO BE USED
 *  PRECISE  - CRITERIA TO BE INCREASED BY 100 TIMES
 *  NOSYM    - POINT-GROUP SYMMETRY SET TO C1
 *  T=       - A TIME OF 172800.0 SECONDS REQUESTED
 *  DUMP=N   - RESTART FILE WRITTEN EVERY  7200.000 SECONDS
 *  THERMO   - THERMODYNAMIC QUANTITIES TO BE CALCULATED
 *******************************************************************************
oldgeo thermo nosym precise  pm3

   ATOM   CHEMICAL          X               Y               Z
  NUMBER   SYMBOL      (ANGSTROMS)     (ANGSTROMS)     (ANGSTROMS)
 
     1       C          0.67899599  *   0.74800349  *   0.06838060  *
     2       C         -0.69171262  *   0.73786427  *   0.04723040  *
     3       C          1.15501949  *  -0.64540785  *  -0.20332941  *
     4       C         -1.14369005  *  -0.68746577  *   0.12424155  *
     5       C          0.01140866  *  -1.34877681  *  -0.08705795  *
     6       H          1.33654527  *   1.61353271  *   0.07050048  *
     7       H         -1.36384972  *   1.58418711  *   0.16335435  *
     8       H          2.10894407  *  -0.89389936  *  -0.65789124  *
     9       H         -2.09230415  *  -1.01234915  *   0.54006761  *
 


          CARTESIAN COORDINATES 

    NO.       ATOM         X         Y         Z

     1         C        0.6790    0.7480    0.0684
     2         C       -0.6917    0.7379    0.0472
     3         C        1.1550   -0.6454   -0.2033
     4         C       -1.1437   -0.6875    0.1242
     5         C        0.0114   -1.3488   -0.0871
     6         H        1.3365    1.6135    0.0705
     7         H       -1.3638    1.5842    0.1634
     8         H        2.1089   -0.8939   -0.6579
     9         H       -2.0923   -1.0123    0.5401

  H: (PM3): J. J. P. STEWART, J. COMP. CHEM. 10, 209 (1989).
  C: (PM3): J. J. P. STEWART, J. COMP. CHEM. 10, 209 (1989).

           Empirical Formula: C5 H4  =     9 atoms



      MOLECULAR POINT GROUP   :   C1  


      RHF CALCULATION, NO. OF DOUBLY OCCUPIED LEVELS =   12



          HEAT OF FORMATION =     146.545647 KCALS/MOLE


          INTERNAL COORDINATE DERIVATIVES

   NUMBER  ATOM       BOND         ANGLE      DIHEDRAL

     1       C     -0.012079     0.001799    -0.001883
     2       C      0.004783    -0.003762    -0.003558
     3       C      0.008133     0.007166    -0.001151
     4       C      0.003226    -0.006726     0.000749
     5       C      0.007129    -0.006338    -0.011118
     6       H      0.022909    -0.011094     0.008950
     7       H     -0.013929    -0.003264    -0.008083
     8       H     -0.016208     0.011742     0.002338
     9       H     -0.003966     0.010477     0.013758


          GRADIENT NORM =   0.04807


          TIME FOR SCF CALCULATION =    0.00

          TIME FOR DERIVATIVES     =    0.00

          MOLECULAR WEIGHT =   64.09



          ROTATIONAL CONSTANTS IN CM(-1)

          A =    0.33165254   B =    0.29585130   C =    0.15778472



           PRINCIPAL MOMENTS OF INERTIA IN UNITS OF 10**(-40)*GRAM-CM**2

          A =       84.4039   B =       94.6177   C =      177.4112


          ORIENTATION OF MOLECULE IN FORCE CALCULATION

    NO.       ATOM         X         Y         Z

     1          C      -0.6854   -0.9413   -0.1212
     2          C       0.6855   -0.9413   -0.1212
     3          C      -1.1469    0.4832   -0.1212
     4          C       1.1468    0.4367    0.2397
     5          C       0.0000    1.1384    0.1463
     6          H      -1.3493   -1.7837   -0.2976
     7          H       1.3495   -1.8008   -0.1639
     8          H      -2.0918    0.8256   -0.5312
     9          H       2.0912    0.6641    0.7241


    FIRST DERIVATIVES WILL BE USED IN THE CALCULATION OF SECOND DERIVATIVES

          ESTIMATED TIME TO COMPLETE CALCULATION =        0.43 SECONDS

    FOR POINT-GROUP C1   THERE ARE   1 UNIQUE SYMMETRY FUNCTIONS.

 STEP:   1 TIME =     0.01 SECS, INTEGRAL =      0.01 TIME LEFT: 172799.99
 STEP:   2 TIME =     0.01 SECS, INTEGRAL =      0.02 TIME LEFT: 172799.98
 STEP:   3 TIME =     0.01 SECS, INTEGRAL =      0.03 TIME LEFT: 172799.97
 STEP:   4 TIME =     0.01 SECS, INTEGRAL =      0.03 TIME LEFT: 172799.96
 STEP:   5 TIME =     0.01 SECS, INTEGRAL =      0.04 TIME LEFT: 172799.96
 STEP:   6 TIME =     0.01 SECS, INTEGRAL =      0.05 TIME LEFT: 172799.95
 STEP:   7 TIME =     0.01 SECS, INTEGRAL =      0.05 TIME LEFT: 172799.94
 STEP:   8 TIME =     0.01 SECS, INTEGRAL =      0.06 TIME LEFT: 172799.93
 STEP:   9 TIME =     0.01 SECS, INTEGRAL =      0.07 TIME LEFT: 172799.93
 STEP:  10 TIME =     0.01 SECS, INTEGRAL =      0.08 TIME LEFT: 172799.92
 STEP:  11 TIME =     0.01 SECS, INTEGRAL =      0.08 TIME LEFT: 172799.91
 STEP:  12 TIME =     0.01 SECS, INTEGRAL =      0.09 TIME LEFT: 172799.90
 STEP:  13 TIME =     0.01 SECS, INTEGRAL =      0.10 TIME LEFT: 172799.90
 STEP:  14 TIME =     0.01 SECS, INTEGRAL =      0.10 TIME LEFT: 172799.89
 STEP:  15 TIME =     0.01 SECS, INTEGRAL =      0.11 TIME LEFT: 172799.88
 STEP:  16 TIME =     0.01 SECS, INTEGRAL =      0.12 TIME LEFT: 172799.88
 STEP:  17 TIME =     0.01 SECS, INTEGRAL =      0.13 TIME LEFT: 172799.87
 STEP:  18 TIME =     0.01 SECS, INTEGRAL =      0.13 TIME LEFT: 172799.86
 STEP:  19 TIME =     0.01 SECS, INTEGRAL =      0.14 TIME LEFT: 172799.85
 STEP:  20 TIME =     0.01 SECS, INTEGRAL =      0.15 TIME LEFT: 172799.85
 STEP:  21 TIME =     0.01 SECS, INTEGRAL =      0.16 TIME LEFT: 172799.84
 STEP:  22 TIME =     0.01 SECS, INTEGRAL =      0.16 TIME LEFT: 172799.83
 STEP:  23 TIME =     0.01 SECS, INTEGRAL =      0.17 TIME LEFT: 172799.83
 STEP:  24 TIME =     0.01 SECS, INTEGRAL =      0.18 TIME LEFT: 172799.82
 STEP:  25 TIME =     0.01 SECS, INTEGRAL =      0.19 TIME LEFT: 172799.81
 STEP:  26 TIME =     0.01 SECS, INTEGRAL =      0.19 TIME LEFT: 172799.80
 STEP:  27 TIME =     0.01 SECS, INTEGRAL =      0.20 TIME LEFT: 172799.79

(To convert to Hartree/Bohr^2, multiply by (10^(-21) x N x a0^2)/(4.184 x 627.51) = 0.0642)


           FORCE MATRIX IN MILLIDYNES/ANGSTROM


                  C  1       C  2       C  3       C  4       C  5       H  6
 ------------------------------------------------------------------------------
     C    1  16.834637
     C    2   8.807797  16.833544
     C    3   4.031178   1.429593  16.653902
     C    4   1.429374   4.030995   1.949274  16.649677
     C    5   1.752902   1.754122   8.682686   8.678076  15.199351
     H    6   5.110140   0.444407   0.408562   0.156615   0.093032   5.491835
     H    7   0.444752   5.110367   0.155382   0.408324   0.091407   0.039075
     H    8   0.392225   0.061377   5.139085   0.113928   0.467349   0.007679
     H    9   0.061648   0.392264   0.112403   5.138889   0.468189   0.012885


                  H  7       H  8       H  9
 ------------------------------------------
     H    7   5.491912
     H    8   0.012863   5.534099
     H    9   0.007483   0.024435   5.534199


          HEAT OF FORMATION =     146.545647 KCALS/MOLE

          ZERO POINT ENERGY      42.931 KCAL/MOL


           NORMAL COORDINATE ANALYSIS (Total motion = 1 Angstrom)


   Root No.       1         2         3         4         5         6         7         8

                 1 A       2 A       3 A       4 A       5 A       6 A       7 A       8 A   

                 315.1     448.2     684.4     721.3     818.7     853.9     864.0     944.2
  
           1   -0.0228   -0.0035    0.0200   -0.0012    0.0792    0.0023   -0.0090    0.0026
           2   -0.0082    0.0177   -0.0701    0.0052    0.0639    0.0050   -0.0086   -0.0039
           3    0.0106   -0.0669   -0.0467   -0.0274    0.0055   -0.0031   -0.0374   -0.0682
           4   -0.0228    0.0033   -0.0202   -0.0013    0.0792   -0.0014   -0.0091   -0.0025
           5    0.0053    0.0004   -0.0796    0.0016   -0.0634    0.0030    0.0178   -0.0210
           6    0.0110    0.0694    0.0280   -0.0277   -0.0110    0.0050   -0.0339    0.0650
           7    0.0195   -0.0252    0.0995    0.0056   -0.0576   -0.0026   -0.0001   -0.0090
           8   -0.0166   -0.0050   -0.0144   -0.0105    0.0729    0.0017   -0.0135    0.0071
           9   -0.0655    0.0353    0.0248   -0.0165   -0.0006   -0.0600    0.0546    0.0225
          10    0.0192    0.0255   -0.0993    0.0051   -0.0578    0.0021   -0.0001    0.0089
          11    0.0327    0.0044   -0.0076    0.0142   -0.0702   -0.0141   -0.0011    0.0125
          12   -0.0586   -0.0363   -0.0277   -0.0134   -0.0200    0.0568    0.0575   -0.0199
          13   -0.0066   -0.0001    0.0000    0.0066   -0.0457   -0.0003    0.0050    0.0000
          14   -0.0160   -0.0254    0.1853   -0.0014   -0.0031    0.0005    0.0047   -0.0117
          15    0.1250   -0.0025    0.0239    0.0140    0.0254    0.0007   -0.0364   -0.0016
          16   -0.0206    0.0183   -0.0276   -0.0211    0.0445   -0.0007   -0.0297   -0.0529
          17   -0.0258    0.0317   -0.0300   -0.0357    0.0692   -0.0160   -0.0333   -0.0299
          18    0.0904   -0.2188   -0.0665    0.2494    0.1319    0.1136    0.1608    0.2737
          19   -0.0203   -0.0185    0.0276   -0.0208    0.0445    0.0017   -0.0294    0.0527
          20    0.0026   -0.0246   -0.0454   -0.0286   -0.1008    0.0124   -0.0081    0.0402
          21    0.0894    0.2210    0.0519    0.2508    0.1124   -0.1169    0.1617   -0.2718
          22    0.1008   -0.0563    0.0412   -0.0670   -0.0276   -0.1519    0.1062    0.0509
          23    0.0196    0.0276   -0.0604    0.0174    0.0165   -0.0097   -0.0035    0.1024
          24   -0.2262    0.1359    0.1186    0.1783   -0.1201    0.2817   -0.1878   -0.0376
          25    0.0999    0.0577   -0.0398   -0.0673   -0.0301    0.1492    0.1098   -0.0511
          26    0.0369    0.0615   -0.0268   -0.0624    0.0135    0.0611    0.0524    0.0897
          27   -0.2208   -0.1274   -0.1330    0.1674   -0.1160   -0.2714   -0.1871    0.0623


   Root No.       9        10        11        12        13        14        15        16

                 9 A      10 A      11 A      12 A      13 A      14 A      15 A      16 A   

                1002.3    1026.0    1074.3    1152.5    1239.0    1265.7    1564.2    1671.2
  
           1   -0.0013   -0.0078    0.0118    0.0201    0.0072   -0.0315   -0.0227    0.2147
           2   -0.0389   -0.0378    0.0091    0.0144   -0.0935    0.1025   -0.0111   -0.0037
           3    0.0016    0.0229   -0.0038    0.0070   -0.0065    0.0062    0.0065    0.0077
           4   -0.0013    0.0077   -0.0118    0.0201   -0.0074   -0.0315    0.0226   -0.2147
           5    0.0372   -0.0306    0.0081   -0.0158   -0.0925   -0.1005   -0.0091   -0.0016
           6    0.0114   -0.0316    0.0059    0.0031   -0.0176   -0.0197   -0.0090   -0.0084
           7   -0.0145    0.0059   -0.0083   -0.0066   -0.0576   -0.0006   -0.1381   -0.0262
           8    0.0285    0.0165    0.0017   -0.0450    0.1119   -0.0511   -0.0768   -0.0131
           9   -0.0023   -0.0081    0.0021   -0.0024    0.0036    0.0053   -0.0228   -0.0047
          10   -0.0146   -0.0059    0.0082   -0.0066    0.0575   -0.0008    0.1384    0.0262
          11   -0.0271    0.0138    0.0021    0.0442    0.1093    0.0478   -0.0801   -0.0139
          12   -0.0095    0.0118   -0.0016    0.0091    0.0250    0.0179    0.0026    0.0012
          13   -0.0001    0.0000    0.0000   -0.0235    0.0001    0.0144   -0.0002    0.0000
          14    0.0005   -0.0149    0.0158    0.0014    0.0004    0.0008    0.1574   -0.0080
          15   -0.0036   -0.0020    0.0020   -0.0113    0.0000   -0.0066    0.0202   -0.0011
          16    0.1463   -0.0159    0.3472   -0.1048   -0.0290    0.2702   -0.0667    0.0372
          17   -0.1544   -0.0140   -0.2570    0.1179   -0.0663   -0.1267    0.0123    0.1800
          18    0.0039   -0.0714    0.0109   -0.0159   -0.0395   -0.0255   -0.0040   -0.0054
          19    0.1475    0.0164   -0.3464   -0.1047    0.0304    0.2701    0.0668   -0.0373
          20    0.1493   -0.0309   -0.2451   -0.1100   -0.0733    0.1293    0.0110    0.1728
          21    0.0426    0.0661   -0.0750   -0.0452    0.0215    0.0073    0.0071    0.0509
          22    0.0425    0.0860    0.0088    0.0834   -0.1319    0.0282   -0.0676    0.0068
          23    0.2080    0.3346    0.0340    0.2416   -0.1381    0.0186    0.1195    0.0664
          24    0.0177    0.0775   -0.0115    0.0292   -0.0493   -0.0065   -0.0947   -0.0096
          25    0.0428   -0.0860   -0.0086    0.0835    0.1316    0.0278    0.0677   -0.0069
          26   -0.2067    0.3430    0.0288   -0.2407   -0.1462   -0.0154    0.0916    0.0618
          27   -0.0358    0.0098    0.0196   -0.0330    0.0134   -0.0112    0.1219    0.0261


   Root No.      17        18        19        20        21

                17 A      18 A      19 A      20 A      21 A   

                1760.1    3141.8    3154.2    3161.8    3168.2
  
           1    0.0199    0.0231   -0.0196   -0.0005    0.0097
           2   -0.0195    0.0295   -0.0209   -0.0011    0.0105
           3   -0.0002    0.0060   -0.0042   -0.0002    0.0020
           4    0.0200    0.0230    0.0197   -0.0005   -0.0098
           5    0.0190   -0.0300   -0.0214    0.0011    0.0107
           6    0.0048   -0.0017   -0.0012    0.0000    0.0007
           7   -0.1346   -0.0013    0.0112   -0.0349    0.0259
           8   -0.0476    0.0008   -0.0031    0.0107   -0.0077
           9   -0.0135   -0.0006    0.0047   -0.0139    0.0100
          10   -0.1344   -0.0013   -0.0112   -0.0348   -0.0260
          11    0.0491   -0.0006   -0.0018   -0.0068   -0.0049
          12   -0.0011   -0.0007   -0.0053   -0.0163   -0.0117
          13    0.2564   -0.0006    0.0000    0.0046    0.0000
          14   -0.0033    0.0000   -0.0001   -0.0001   -0.0035
          15    0.0269    0.0002    0.0000    0.0005   -0.0005
          16   -0.0462   -0.2704    0.1911    0.0095   -0.0873
          17    0.0320   -0.3456    0.2413    0.0136   -0.1114
          18   -0.0198   -0.0702    0.0495    0.0024   -0.0227
          19   -0.0461   -0.2698   -0.1917    0.0094    0.0875
          20   -0.0260    0.3511    0.2467   -0.0136   -0.1138
          21   -0.0265    0.0195    0.0133   -0.0013   -0.0062
          22   -0.1166    0.0148   -0.1277    0.3856   -0.2716
          23    0.0129   -0.0041    0.0456   -0.1401    0.0988
          24   -0.0774    0.0059   -0.0540    0.1631   -0.1143
          25   -0.1164    0.0147    0.1280    0.3842    0.2724
          26    0.0079    0.0025    0.0305    0.0940    0.0669
          27   -0.0783    0.0067    0.0640    0.1927    0.1363


           MASS-WEIGHTED COORDINATE ANALYSIS (NORMAL COORDINATES)


   Root No.       1         2         3         4         5         6         7         8

                 1 A       2 A       3 A       4 A       5 A       6 A       7 A       8 A   

                 315.1     448.2     684.4     721.3     818.7     853.9     864.0     944.2
  
           1   -0.1155   -0.0218    0.0727   -0.0087    0.3635    0.0144   -0.0587    0.0158
           2   -0.0415    0.1091   -0.2549    0.0376    0.2932    0.0305   -0.0561   -0.0239
           3    0.0536   -0.4125   -0.1698   -0.1963    0.0254   -0.0188   -0.2430   -0.4203
           4   -0.1159    0.0201   -0.0736   -0.0093    0.3636   -0.0085   -0.0590   -0.0152
           5    0.0267    0.0022   -0.2895    0.0113   -0.2910    0.0183    0.1160   -0.1293
           6    0.0556    0.4280    0.1019   -0.1985   -0.0506    0.0307   -0.2206    0.4003
           7    0.0989   -0.1551    0.3618    0.0401   -0.2642   -0.0163   -0.0003   -0.0552
           8   -0.0842   -0.0310   -0.0524   -0.0754    0.3348    0.0106   -0.0879    0.0438
           9   -0.3326    0.2178    0.0903   -0.1180   -0.0027   -0.3698    0.3551    0.1385
          10    0.0977    0.1569   -0.3612    0.0366   -0.2653    0.0131   -0.0005    0.0548
          11    0.1659    0.0269   -0.0275    0.1020   -0.3222   -0.0871   -0.0069    0.0768
          12   -0.2974   -0.2236   -0.1006   -0.0958   -0.0918    0.3502    0.3739   -0.1226
          13   -0.0333   -0.0007   -0.0001    0.0471   -0.2096   -0.0017    0.0328    0.0000
          14   -0.0811   -0.1568    0.6739   -0.0097   -0.0142    0.0030    0.0308   -0.0719
          15    0.6345   -0.0151    0.0869    0.1001    0.1166    0.0042   -0.2368   -0.0096
          16   -0.0303    0.0328   -0.0291   -0.0438    0.0592   -0.0013   -0.0559   -0.0944
          17   -0.0379    0.0565   -0.0316   -0.0741    0.0920   -0.0286   -0.0628   -0.0533
          18    0.1329   -0.3906   -0.0701    0.5175    0.1754    0.2027    0.3028    0.4883
          19   -0.0298   -0.0331    0.0291   -0.0431    0.0592    0.0030   -0.0554    0.0940
          20    0.0038   -0.0439   -0.0478   -0.0594   -0.1340    0.0221   -0.0153    0.0718
          21    0.1314    0.3945    0.0546    0.5205    0.1495   -0.2087    0.3046   -0.4851
          22    0.1482   -0.1006    0.0434   -0.1390   -0.0367   -0.2710    0.2001    0.0909
          23    0.0288    0.0492   -0.0637    0.0361    0.0220   -0.0173   -0.0066    0.1828
          24   -0.3326    0.2426    0.1250    0.3700   -0.1597    0.5026   -0.3538   -0.0670
          25    0.1469    0.1031   -0.0419   -0.1396   -0.0401    0.2662    0.2069   -0.0913
          26    0.0543    0.1097   -0.0282   -0.1295    0.0180    0.1090    0.0987    0.1600
          27   -0.3246   -0.2274   -0.1401    0.3473   -0.1542   -0.4843   -0.3525    0.1112


   Root No.       9        10        11        12        13        14        15        16

                 9 A      10 A      11 A      12 A      13 A      14 A      15 A      16 A   

                1002.3    1026.0    1074.3    1152.5    1239.0    1265.7    1564.2    1671.2
  
           1   -0.0090   -0.0477    0.0657    0.1373    0.0302   -0.1507   -0.0788    0.6769
           2   -0.2722   -0.2306    0.0507    0.0983   -0.3911    0.4900   -0.0384   -0.0117
           3    0.0115    0.1399   -0.0209    0.0477   -0.0271    0.0297    0.0225    0.0244
           4   -0.0089    0.0472   -0.0658    0.1373   -0.0308   -0.1508    0.0786   -0.6768
           5    0.2606   -0.1863    0.0450   -0.1078   -0.3870   -0.4802   -0.0317   -0.0049
           6    0.0801   -0.1927    0.0331    0.0211   -0.0736   -0.0943   -0.0313   -0.0265
           7   -0.1015    0.0362   -0.0460   -0.0450   -0.2409   -0.0028   -0.4792   -0.0827
           8    0.1997    0.1004    0.0096   -0.3073    0.4681   -0.2444   -0.2665   -0.0414
           9   -0.0164   -0.0491    0.0116   -0.0162    0.0150    0.0251   -0.0790   -0.0148
          10   -0.1023   -0.0360    0.0456   -0.0448    0.2404   -0.0036    0.4801    0.0825
          11   -0.1895    0.0841    0.0116    0.3019    0.4573    0.2285   -0.2780   -0.0439
          12   -0.0663    0.0720   -0.0089    0.0620    0.1046    0.0855    0.0090    0.0038
          13   -0.0010    0.0001    0.0001   -0.1605    0.0006    0.0687   -0.0007    0.0001
          14    0.0037   -0.0910    0.0879    0.0099    0.0015    0.0038    0.5463   -0.0253
          15   -0.0255   -0.0119    0.0111   -0.0774    0.0001   -0.0317    0.0700   -0.0033
          16    0.2965   -0.0280    0.5591   -0.2071   -0.0352    0.3742   -0.0670    0.0340
          17   -0.3130   -0.0247   -0.4139    0.2330   -0.0803   -0.1754    0.0123    0.1644
          18    0.0079   -0.1260    0.0176   -0.0315   -0.0478   -0.0353   -0.0040   -0.0049
          19    0.2989    0.0289   -0.5579   -0.2069    0.0369    0.3740    0.0672   -0.0341
          20    0.3027   -0.0546   -0.3948   -0.2175   -0.0889    0.1790    0.0110    0.1578
          21    0.0864    0.1167   -0.1207   -0.0893    0.0261    0.0101    0.0071    0.0464
          22    0.0861    0.1518    0.0142    0.1649   -0.1598    0.0390   -0.0679    0.0062
          23    0.4217    0.5906    0.0547    0.4776   -0.1674    0.0258    0.1201    0.0607
          24    0.0358    0.1368   -0.0186    0.0576   -0.0598   -0.0090   -0.0952   -0.0088
          25    0.0867   -0.1519   -0.0138    0.1650    0.1595    0.0384    0.0681   -0.0063
          26   -0.4191    0.6054    0.0463   -0.4758   -0.1771   -0.0213    0.0921    0.0564
          27   -0.0727    0.0173    0.0316   -0.0653    0.0162   -0.0156    0.1225    0.0238


   Root No.      17        18        19        20        21

                17 A      18 A      19 A      20 A      21 A   

                1760.1    3141.8    3154.2    3161.8    3168.2
  
           1    0.0592    0.1218   -0.1326   -0.0028    0.0659
           2   -0.0580    0.1554   -0.1412   -0.0059    0.0710
           3   -0.0007    0.0315   -0.0283   -0.0011    0.0137
           4    0.0596    0.1214    0.1329   -0.0027   -0.0661
           5    0.0565   -0.1579   -0.1442    0.0060    0.0723
           6    0.0143   -0.0089   -0.0083   -0.0001    0.0049
           7   -0.4006   -0.0069    0.0757   -0.1849    0.1753
           8   -0.1416    0.0041   -0.0210    0.0568   -0.0521
           9   -0.0401   -0.0029    0.0315   -0.0735    0.0678
          10   -0.3998   -0.0069   -0.0758   -0.1840   -0.1758
          11    0.1462   -0.0032   -0.0125   -0.0361   -0.0333
          12   -0.0032   -0.0039   -0.0360   -0.0862   -0.0794
          13    0.7628   -0.0034    0.0000    0.0243    0.0001
          14   -0.0098   -0.0001   -0.0006   -0.0003   -0.0240
          15    0.0800    0.0011   -0.0001    0.0024   -0.0032
          16   -0.0398   -0.4130    0.3737    0.0145   -0.1711
          17    0.0276   -0.5278    0.4719    0.0208   -0.2185
          18   -0.0170   -0.1072    0.0968    0.0037   -0.0446
          19   -0.0398   -0.4120   -0.3748    0.0144    0.1715
          20   -0.0224    0.5363    0.4823   -0.0208   -0.2232
          21   -0.0229    0.0298    0.0260   -0.0020   -0.0122
          22   -0.1005    0.0225   -0.2497    0.5910   -0.5326
          23    0.0111   -0.0063    0.0891   -0.2148    0.1937
          24   -0.0667    0.0090   -0.1055    0.2500   -0.2242
          25   -0.1003    0.0224    0.2503    0.5888    0.5342
          26    0.0068    0.0038    0.0597    0.1440    0.1311
          27   -0.0675    0.0102    0.1252    0.2953    0.2674


          DESCRIPTION OF VIBRATIONS


 VIBRATION    1    1A       ATOM PAIR        ENERGY CONTRIBUTION    RADIAL
 FREQ.       315.10        C  3 --  C  5          +16.7% (106.4%)     0.7%
 T-DIPOLE    0.6622        C  4 --  C  5          +16.6% (105.9%)     0.7%
 TRAVEL      0.1144        C  1 --  C  5          +10.7% ( 85.0%)     1.0%
 RED. MASS   2.4499        C  2 --  C  5          +10.6% ( 84.7%)     0.9%
 EFF. MASS  16.3411        C  1 --  C  3          +10.6% ( 84.5%)     5.8%
                           C  2 --  C  4          +10.4% ( 83.9%)     6.2%

 VIBRATION    2    2A       ATOM PAIR        ENERGY CONTRIBUTION    RADIAL
 FREQ.       448.24        C  1 --  C  2          +21.1% ( 94.3%)     0.2%
 T-DIPOLE    0.6357        C  2 --  C  4          +14.1% ( 77.0%)     1.9%
 TRAVEL      0.1109        C  1 --  C  3          +13.9% ( 76.5%)     2.0%
 RED. MASS   1.0045        C  2 --  C  5          +10.4% ( 66.1%)    17.5%
 EFF. MASS  12.2365        C  1 --  C  5          +10.3% ( 65.9%)    16.8%

 VIBRATION    3    3A       ATOM PAIR        ENERGY CONTRIBUTION    RADIAL
 FREQ.       684.37        C  1 --  C  5          +16.3% (112.4%)    83.7%
 T-DIPOLE    2.6692        C  2 --  C  5          +16.3% (112.4%)    83.6%
 TRAVEL      0.0823        C  3 --  C  5          +13.4% (102.0%)     0.3%
 RED. MASS   3.2790        C  4 --  C  5          +13.4% (102.0%)     0.3%
 EFF. MASS  14.5356

 VIBRATION    4    4A       ATOM PAIR        ENERGY CONTRIBUTION    RADIAL
 FREQ.       721.35        C  2 --  H  7          +27.9% ( 65.4%)     0.0%
 T-DIPOLE    0.7946        C  1 --  H  6          +27.9% ( 65.3%)     0.0%
 TRAVEL      0.2161        C  3 --  H  8          +14.7% ( 47.4%)     0.0%
 RED. MASS   0.2537        C  4 --  H  9          +14.6% ( 47.3%)     0.0%
 EFF. MASS   2.0010

 VIBRATION    5    5A       ATOM PAIR        ENERGY CONTRIBUTION    RADIAL
 FREQ.       818.72        C  2 --  C  4          +13.9% ( 96.0%)    13.6%
 T-DIPOLE    0.2700        C  1 --  C  3          +13.9% ( 95.7%)    13.7%
 TRAVEL      0.0750        C  1 --  C  2          +12.9% ( 92.5%)     0.0%
 RED. MASS   1.9962        C  2 --  C  5          +12.1% ( 89.3%)    48.7%
 EFF. MASS  14.6403        C  1 --  C  5          +12.0% ( 89.2%)    48.4%

 VIBRATION    6    6A       ATOM PAIR        ENERGY CONTRIBUTION    RADIAL
 FREQ.       853.93        C  3 --  H  8          +34.8% ( 65.4%)     1.6%
 T-DIPOLE    0.0490        C  4 --  H  9          +33.6% ( 64.3%)     1.3%
 TRAVEL      0.1545        C  3 --  C  5           +6.5% ( 28.2%)     4.9%
 RED. MASS   0.6426        C  1 --  C  3           +6.4% ( 28.0%)     0.1%
 EFF. MASS   3.3080

 VIBRATION    7    7A       ATOM PAIR        ENERGY CONTRIBUTION    RADIAL
 FREQ.       864.05        C  4 --  H  9          +17.4% ( 53.4%)     2.3%
 T-DIPOLE    0.5147        C  3 --  H  8          +16.5% ( 51.9%)     2.6%
 TRAVEL      0.1201        C  1 --  H  6          +10.3% ( 41.1%)     2.4%
 RED. MASS   0.6723        C  2 --  H  7          +10.1% ( 40.7%)     2.5%
 EFF. MASS   5.4122

 VIBRATION    8    8A       ATOM PAIR        ENERGY CONTRIBUTION    RADIAL
 FREQ.       944.18        C  1 --  H  6          +25.3% ( 58.9%)     0.4%
 T-DIPOLE    0.1242        C  2 --  H  7          +25.2% ( 58.8%)     0.4%
 TRAVEL      0.1236        C  1 --  C  2          +14.1% ( 44.0%)     0.1%
 RED. MASS   0.8998        C  1 --  C  3           +6.9% ( 30.9%)     2.3%
 EFF. MASS   4.6717

 VIBRATION    9    9A       ATOM PAIR        ENERGY CONTRIBUTION    RADIAL
 FREQ.      1002.26        C  2 --  H  7          +12.7% ( 48.8%)    24.7%
 T-DIPOLE    0.0723        C  1 --  H  6          +12.5% ( 48.6%)    25.1%
 TRAVEL      0.1179        C  1 --  C  2          +12.3% ( 48.1%)     0.0%
 RED. MASS   0.3358        C  2 --  C  4          +11.9% ( 47.3%)    98.3%
 EFF. MASS   4.8384        C  1 --  C  3          +11.9% ( 47.2%)    98.2%
                           C  4 --  H  9          +10.8% ( 45.1%)    14.7%
                           C  3 --  H  8          +10.7% ( 44.9%)    14.6%

 VIBRATION   10   10A       ATOM PAIR        ENERGY CONTRIBUTION    RADIAL
 FREQ.      1025.96        C  3 --  H  8          +25.6% ( 61.5%)     0.1%
 T-DIPOLE    0.0345        C  4 --  H  9          +25.5% ( 61.4%)     0.1%
 TRAVEL      0.1407        C  1 --  C  2          +10.1% ( 38.7%)     7.4%
 RED. MASS   0.4464        C  1 --  C  3           +7.3% ( 32.8%)    54.8%
 EFF. MASS   3.3220

 VIBRATION   11   11A       ATOM PAIR        ENERGY CONTRIBUTION    RADIAL
 FREQ.      1074.26        C  1 --  H  6          +44.1% ( 69.8%)     0.6%
 T-DIPOLE    0.1734        C  2 --  H  7          +43.9% ( 69.7%)     0.6%
 TRAVEL      0.2101        C  1 --  C  2           +2.9% ( 18.0%)    85.5%
 RED. MASS   0.4723        C  2 --  C  5           +1.5% ( 12.7%)     4.5%
 EFF. MASS   1.4222

 VIBRATION   12   12A       ATOM PAIR        ENERGY CONTRIBUTION    RADIAL
 FREQ.      1152.49        C  3 --  H  8          +21.5% ( 59.1%)     0.2%
 T-DIPOLE    0.1615        C  4 --  H  9          +21.5% ( 59.0%)     0.2%
 TRAVEL      0.1282        C  2 --  C  4           +8.7% ( 37.7%)    54.0%
 RED. MASS   0.4143        C  1 --  C  3           +8.7% ( 37.6%)    53.9%
 EFF. MASS   3.5594

 VIBRATION   13   13A       ATOM PAIR        ENERGY CONTRIBUTION    RADIAL
 FREQ.      1238.97        C  2 --  C  4          +19.3% ( 69.6%)    99.8%
 T-DIPOLE    0.6316        C  1 --  C  3          +19.2% ( 69.5%)    99.8%
 TRAVEL      0.0685        C  1 --  C  2           +9.0% ( 47.6%)    63.1%
 RED. MASS   2.4378        C  4 --  H  9           +8.8% ( 47.0%)    14.2%
 EFF. MASS  11.5883

 VIBRATION   14   14A       ATOM PAIR        ENERGY CONTRIBUTION    RADIAL
 FREQ.      1265.74        C  1 --  C  2          +18.7% ( 65.8%)     0.0%
 T-DIPOLE    0.3692        C  1 --  H  6          +15.1% ( 59.3%)     5.9%
 TRAVEL      0.0813        C  2 --  H  7          +15.1% ( 59.2%)     5.8%
 RED. MASS   1.8070        C  1 --  C  3          +13.3% ( 55.6%)    98.7%
 EFF. MASS   8.0584        C  2 --  C  4          +13.2% ( 55.4%)    98.7%

 VIBRATION   15   15A       ATOM PAIR        ENERGY CONTRIBUTION    RADIAL
 FREQ.      1564.17        C  4 --  C  5          +23.4% ( 72.8%)    76.1%
 T-DIPOLE    0.8116        C  3 --  C  5          +23.3% ( 72.7%)    75.9%
 TRAVEL      0.0604        C  2 --  C  4          +10.4% ( 48.6%)     3.9%
 RED. MASS   3.3780        C  1 --  C  3          +10.4% ( 48.5%)     3.9%
 EFF. MASS  11.8132

 VIBRATION   16   16A       ATOM PAIR        ENERGY CONTRIBUTION    RADIAL
 FREQ.      1671.23        C  1 --  C  2          +35.5% (100.0%)    99.9%
 T-DIPOLE    0.7447        C  1 --  C  3          +11.2% ( 56.1%)     7.3%
 TRAVEL      0.0584        C  2 --  C  4          +11.2% ( 56.1%)     7.3%
 RED. MASS   5.0625        C  1 --  C  5          +10.8% ( 55.0%)    11.2%
 EFF. MASS  11.8440        C  2 --  C  5          +10.8% ( 55.0%)    11.2%

 VIBRATION   17   17A       ATOM PAIR        ENERGY CONTRIBUTION    RADIAL
 FREQ.      1760.07        C  3 --  C  5          +26.9% ( 83.1%)    83.9%
 T-DIPOLE    1.0994        C  4 --  C  5          +26.8% ( 83.0%)    83.8%
 TRAVEL      0.0567        C  2 --  C  5          +14.4% ( 60.8%)    14.8%
 RED. MASS   4.9511        C  1 --  C  5          +14.4% ( 60.8%)    14.9%
 EFF. MASS  11.9217

 VIBRATION   18   18A       ATOM PAIR        ENERGY CONTRIBUTION    RADIAL
 FREQ.      3141.75        C  1 --  H  6          +48.0% ( 70.9%)   100.0%
 T-DIPOLE    0.3611        C  2 --  H  7          +47.7% ( 70.7%)   100.0%
 TRAVEL      0.1205        C  1 --  C  2           +1.2% ( 11.1%)     0.0%
 RED. MASS   0.4637        C  1 --  C  5           +0.7% (  8.8%)    87.8%
 EFF. MASS   1.4781

 VIBRATION   19   19A       ATOM PAIR        ENERGY CONTRIBUTION    RADIAL
 FREQ.      3154.20        C  2 --  H  7          +39.0% ( 64.1%)    99.9%
 T-DIPOLE    0.4054        C  1 --  H  6          +38.8% ( 63.9%)    99.9%
 TRAVEL      0.1162        C  4 --  H  9           +8.5% ( 29.9%)   100.0%
 RED. MASS   0.3302        C  3 --  H  8           +8.5% ( 29.8%)   100.0%
 EFF. MASS   1.5838

 VIBRATION   20   20A       ATOM PAIR        ENERGY CONTRIBUTION    RADIAL
 FREQ.      3161.77        C  3 --  H  8          +48.4% ( 70.8%)   100.0%
 T-DIPOLE    0.6738        C  4 --  H  9          +48.0% ( 70.5%)   100.0%
 TRAVEL      0.1178        C  3 --  C  5           +0.9% (  9.7%)    51.8%
 RED. MASS   0.4635        C  4 --  C  5           +0.9% (  9.7%)    51.7%
 EFF. MASS   1.5368

 VIBRATION   21   21A       ATOM PAIR        ENERGY CONTRIBUTION    RADIAL
 FREQ.      3168.19        C  4 --  H  9          +39.6% ( 64.1%)   100.0%
 T-DIPOLE    0.0935        C  3 --  H  8          +39.3% ( 63.9%)   100.0%
 TRAVEL      0.1143        C  2 --  H  7           +8.5% ( 29.6%)   100.0%
 RED. MASS   0.3300        C  1 --  H  6           +8.4% ( 29.6%)   100.0%
 EFF. MASS   1.6297

 SYMMETRY NUMBER FOR POINT-GROUP C1  =  1


          SYSTEM IS A GROUND STATE


    NULL



          MOLECULE IS NOT LINEAR

          THERE ARE 21 GENUINE VIBRATIONS IN THIS SYSTEM
          THIS THERMODYNAMICS CALCULATION IS LIMITED TO
          MOLECULES WHICH HAVE NO INTERNAL ROTATIONS




                    CALCULATED THERMODYNAMIC PROPERTIES
                                          *
   TEMP. (K)   PARTITION FUNCTION   H.O.F.    ENTHALPY  HEAT CAPACITY ENTROPY
                                   KCAL/MOL   CAL/MOLE    CAL/K/MOL  CAL/K/MOL


 298.00  VIB.     0.1697D+01                   806.8862     8.5717     3.7591
         ROT.     0.4246D+05                   888.2813     2.9808    24.1572
         INT.     0.7208D+05                  1695.1675    11.5525    27.9163
         TRA.     0.4960D+27                  1480.4688     4.9680    38.3895
         TOT.                      146.546    3175.6363    16.5205    66.3058

 200.00  VIB.     0.1189D+01                   209.9970     3.7527     1.3943
         ROT.     0.2335D+05                   596.1620     2.9808    22.9685
         INT.     0.2776D+05                   806.1590     6.7335    24.3628
         TRA.     0.2727D+27                   993.6033     4.9680    36.4084
         TOT.                      145.170    1799.7622    11.7015    60.7712

 210.00  VIB.     0.1222D+01                   249.7077     4.1926     1.5879
         ROT.     0.2512D+05                   625.9700     2.9808    23.1140
         INT.     0.3070D+05                   875.6777     7.1734    24.7019
         TRA.     0.2934D+27                  1043.2834     4.9680    36.6508
         TOT.                      145.289    1918.9612    12.1414    61.3527

 220.00  VIB.     0.1259D+01                   293.9069     4.6500     1.7935
         ROT.     0.2693D+05                   655.7781     2.9808    23.2526
         INT.     0.3391D+05                   949.6850     7.6308    25.0461
         TRA.     0.3146D+27                  1092.9636     4.9680    36.8819
         TOT.                      145.413    2042.6486    12.5989    61.9280

 230.00  VIB.     0.1299D+01                   342.7597     5.1229     2.0106
         ROT.     0.2879D+05                   685.5862     2.9808    23.3851
         INT.     0.3741D+05                  1028.3459     8.1037    25.3957
         TRA.     0.3363D+27                  1142.6437     4.9680    37.1027
         TOT.                      145.541    2170.9896    13.0717    62.4984

 240.00  VIB.     0.1344D+01                   396.4082     5.6088     2.2388
         ROT.     0.3069D+05                   715.3943     2.9808    23.5120
         INT.     0.4124D+05                  1111.8025     8.5896    25.7508
         TRA.     0.3585D+27                  1192.3239     4.9680    37.3141
         TOT.                      145.674    2304.1264    13.5576    63.0649

 250.00  VIB.     0.1392D+01                   454.9715     6.1055     2.4778
         ROT.     0.3263D+05                   745.2024     2.9808    23.6337
         INT.     0.4543D+05                  1200.1739     9.0863    26.1115
         TRA.     0.3811D+27                  1242.0041     4.9680    37.5169
         TOT.                      145.812    2442.1780    14.0543    63.6284

 260.00  VIB.     0.1446D+01                   518.5458     6.6106     2.7271
         ROT.     0.3460D+05                   775.0105     2.9808    23.7506
         INT.     0.5003D+05                  1293.5563     9.5914    26.4777
         TRA.     0.4042D+27                  1291.6842     4.9680    37.7118
         TOT.                      145.955    2585.2405    14.5595    64.1895

 270.00  VIB.     0.1504D+01                   587.2053     7.1222     2.9862
         ROT.     0.3662D+05                   804.8186     2.9808    23.8631
         INT.     0.5508D+05                  1392.0239    10.1030    26.8492
         TRA.     0.4278D+27                  1341.3644     4.9680    37.8993
         TOT.                      146.103    2733.3883    15.0710    64.7485

 280.00  VIB.     0.1568D+01                   661.0033     7.6380     3.2545
         ROT.     0.3867D+05                   834.6267     2.9808    23.9715
         INT.     0.6064D+05                  1495.6300    10.6188    27.2260
         TRA.     0.4517D+27                  1391.0445     4.9680    38.0800
         TOT.                      146.257    2886.6746    15.5868    65.3059

 290.00  VIB.     0.1637D+01                   739.9740     8.1564     3.5315
         ROT.     0.4076D+05                   864.4348     2.9808    24.0761
         INT.     0.6675D+05                  1604.4088    11.1372    27.6076
         TRA.     0.4762D+27                  1440.7247     4.9680    38.2543
         TOT.                      146.415    3045.1335    16.1052    65.8619

 300.00  VIB.     0.1713D+01                   824.1334     8.6755     3.8168
         ROT.     0.4289D+05                   894.2429     2.9808    24.1771
         INT.     0.7347D+05                  1718.3763    11.6563    27.9939
         TRA.     0.5010D+27                  1490.4049     4.9680    38.4227
         TOT.                      146.579    3208.7812    16.6243    66.4167

 310.00  VIB.     0.1795D+01                   913.4817     9.1939     4.1097
         ROT.     0.4505D+05                   924.0510     2.9808    24.2749
         INT.     0.8089D+05                  1837.5327    12.1747    28.3846
         TRA.     0.5263D+27                  1540.0850     4.9680    38.5856
         TOT.                      146.748    3377.6178    17.1427    66.9702

 320.00  VIB.     0.1885D+01                  1008.0045     9.7102     4.4098
         ROT.     0.4725D+05                   953.8591     2.9808    24.3695
         INT.     0.8907D+05                  1961.8636    12.6910    28.7793
         TRA.     0.5519D+27                  1589.7652     4.9680    38.7434
         TOT.                      146.922    3551.6288    17.6590    67.5227

 330.00  VIB.     0.1982D+01                  1107.6743    10.2231     4.7165
         ROT.     0.4948D+05                   983.6672     2.9808    24.4612
         INT.     0.9809D+05                  2091.3415    13.2040    29.1777
         TRA.     0.5780D+27                  1639.4454     4.9680    38.8962
         TOT.                      147.101    3730.7869    18.1720    68.0739

 340.00  VIB.     0.2088D+01                  1212.4527    10.7317     5.0292
         ROT.     0.5175D+05                  1013.4753     2.9808    24.5502
         INT.     0.1081D+06                  2225.9280    13.7125    29.5794
         TRA.     0.6045D+27                  1689.1255     4.9680    39.0445
         TOT.                      147.285    3915.0535    18.6805    68.6240

 350.00  VIB.     0.2203D+01                  1322.2910    11.2350     5.3476
         ROT.     0.5405D+05                  1043.2834     2.9808    24.6366
         INT.     0.1191D+06                  2365.5744    14.2158    29.9842
         TRA.     0.6313D+27                  1738.8057     4.9680    39.1886
         TOT.                      147.474    4104.3801    19.1838    69.1728

 360.00  VIB.     0.2328D+01                  1437.1325    11.7322     5.6711
         ROT.     0.5638D+05                  1073.0915     2.9808    24.7206
         INT.     0.1312D+06                  2510.2240    14.7130    30.3917
         TRA.     0.6586D+27                  1788.4859     4.9680    39.3285
         TOT.                      147.669    4298.7098    19.6810    69.7202

 370.00  VIB.     0.2463D+01                  1556.9129    12.2227     5.9992
         ROT.     0.5875D+05                  1102.8996     2.9808    24.8023
         INT.     0.1447D+06                  2659.8125    15.2035    30.8015
         TRA.     0.6862D+27                  1838.1660     4.9680    39.4646
         TOT.                      147.868    4497.9785    20.1715    70.2661

 380.00  VIB.     0.2610D+01                  1681.5621    12.7059     6.3316
         ROT.     0.6114D+05                  1132.7077     2.9808    24.8818
         INT.     0.1596D+06                  2814.2698    15.6867    31.2134
         TRA.     0.7142D+27                  1887.8462     4.9680    39.5971
         TOT.                      148.072    4702.1160    20.6547    70.8105

 390.00  VIB.     0.2769D+01                  1811.0051    13.1814     6.6678
         ROT.     0.6357D+05                  1162.5158     2.9808    24.9592
         INT.     0.1761D+06                  2973.5209    16.1622    31.6270
         TRA.     0.7426D+27                  1937.5263     4.9680    39.7262
         TOT.                      148.281    4911.0472    21.1302    71.3532

 400.00  VIB.     0.2942D+01                  1945.1628    13.6488     7.0074
         ROT.     0.6603D+05                  1192.3239     2.9808    25.0347
         INT.     0.1943D+06                  3137.4867    16.6296    32.0421
         TRA.     0.7713D+27                  1987.2065     4.9680    39.8519
         TOT.                      148.495    5124.6932    21.5976    71.8940

   *: NOTE: HEATS OF FORMATION ARE RELATIVE TO THE
            ELEMENTS IN THEIR STANDARD STATE AT 298K
              (=  Standard Enthalpy of Formation).

            Hvib:  Zero-point energy is not included.
                   frequencies of less than zero cm-1 are not included.
            Hrot = (3/2)RT
            Htra = (3/2)RT + pV = (5/2)RT

            Heat capacity is Cp, not Cv

           For more information, see: HTTP://OpenMOPAC.net/Manual/thermochemistry.html


           FORCE CONSTANT IN CARTESIAN COORDINATES (Millidynes/A)

    ATOM   CHEMICAL       X               Y               Z
   NUMBER   SYMBOL  FORCE CONSTANT  FORCE CONSTANT  FORCE CONSTANT

      1       C       12.999484        9.647059        2.262918
      2       C       12.997740        9.638077        2.269073
      3       C       14.217350        7.074045        2.675793
      4       C       14.210678        6.680932        3.069959
      5       C       13.323364        6.931483        0.993442
      6       H        2.456104        3.545515        0.449851
      7       H        2.456550        3.652479        0.342264
      8       H        4.289456        1.124189        1.015193
      9       H        4.285908        0.837327        1.306267



 TOTAL CPU TIME:             0.31 SECONDS

 == MOPAC DONE ==
