 *******************************************************************************
 ** Site#: 14399           For non-commercial use only        Version 13.159M **
 *******************************************************************************
 ** Cite this work as: MOPAC2012, James J. P. Stewart, Stewart Computational  **
 ** Chemistry, Version 13.159M web: HTTP://OpenMOPAC.net  Days remaining:   6 **
 *******************************************************************************
 **                                                                           **
 **                                MOPAC2012                                  **
 **                                                                           **
 *******************************************************************************

                            PM3 CALCULATION RESULTS


 *******************************************************************************
 *  CALCULATION DONE:                                Mon Jun  2 11:04:36 2014  *
 *  PM3      - The PM3 Hamiltonian to be used
 *  PRECISE  - CRITERIA TO BE INCREASED BY 100 TIMES
 *  NOSYM    - POINT-GROUP SYMMETRY SET TO C1
 *  T=       - A TIME OF 172800.0 SECONDS REQUESTED
 *  DUMP=N   - RESTART FILE WRITTEN EVERY  7200.000 SECONDS
 *******************************************************************************
pm3  precise nosym
 InChI=1S/C5H8/c1-5-3-2-4-5/h2-3,5H,4H2,1H3

   ATOM   CHEMICAL          X               Y               Z
  NUMBER   SYMBOL      (ANGSTROMS)     (ANGSTROMS)     (ANGSTROMS)
 
     1       C          0.30270000  *  -0.55760000  *   0.00730000  *
     2       C         -1.07960000  *  -0.14640000  *  -0.66930000  *
     3       C          1.52420000  *   0.21050000  *  -0.49020000  *
     4       C         -0.30570000  *   0.01510000  *   1.23710000  *
     5       C         -1.42330000  *   0.33720000  *   0.69340000  *
     6       H          0.46290000  *  -1.65850000  *   0.08570000  *
     7       H         -1.70960000  *  -1.01240000  *  -0.97810000  *
     8       H         -1.02960000  *   0.68690000  *  -1.40850000  *
     9       H          2.39010000  *   0.01860000  *   0.18290000  *
    10       H          1.79040000  *  -0.14110000  *  -1.51230000  *
    11       H          1.34430000  *   1.30960000  *  -0.53250000  *
    12       H          0.03830000  *   0.12900000  *   2.26290000  *
    13       H         -2.30510000  *   0.80910000  *   1.12130000  *
 


          CARTESIAN COORDINATES 

    NO.       ATOM         X         Y         Z

     1         C        0.3027   -0.5576    0.0073
     2         C       -1.0796   -0.1464   -0.6693
     3         C        1.5242    0.2105   -0.4902
     4         C       -0.3057    0.0151    1.2371
     5         C       -1.4233    0.3372    0.6934
     6         H        0.4629   -1.6585    0.0857
     7         H       -1.7096   -1.0124   -0.9781
     8         H       -1.0296    0.6869   -1.4085
     9         H        2.3901    0.0186    0.1829
    10         H        1.7904   -0.1411   -1.5123
    11         H        1.3443    1.3096   -0.5325
    12         H        0.0383    0.1290    2.2629
    13         H       -2.3051    0.8091    1.1213

  H: (PM3): J. J. P. STEWART, J. COMP. CHEM. 10, 209 (1989).
  C: (PM3): J. J. P. STEWART, J. COMP. CHEM. 10, 209 (1989).

           Empirical Formula: C5 H8  =    13 atoms



      MOLECULAR POINT GROUP   :   C1  


      RHF CALCULATION, NO. OF DOUBLY OCCUPIED LEVELS =   14

      Geometry optimization using EF

          DIAGONAL MATRIX USED AS START HESSIAN

 CYCLE:     1 TIME:   0.004 TIME LEFT:  2.00D  GRAD.:   192.878 HEAT: 39.09280
 CYCLE:     2 TIME:   0.004 TIME LEFT:  2.00D  GRAD.:   192.837 HEAT: 38.94131
 CYCLE:     3 TIME:   0.002 TIME LEFT:  2.00D  GRAD.:    89.456 HEAT: 34.61955
 CYCLE:     4 TIME:   0.004 TIME LEFT:  2.00D  GRAD.:   106.519 HEAT: 33.79037
 CYCLE:     5 TIME:   0.002 TIME LEFT:  2.00D  GRAD.:    43.129 HEAT: 32.19005
 CYCLE:     6 TIME:   0.004 TIME LEFT:  2.00D  GRAD.:    42.669 HEAT: 31.76577
 CYCLE:     7 TIME:   0.004 TIME LEFT:  2.00D  GRAD.:    21.091 HEAT: 31.44337
 CYCLE:     8 TIME:   0.004 TIME LEFT:  2.00D  GRAD.:    17.393 HEAT: 31.32261
 CYCLE:     9 TIME:   0.002 TIME LEFT:  2.00D  GRAD.:    10.081 HEAT: 31.19068
 CYCLE:    10 TIME:   0.002 TIME LEFT:  2.00D  GRAD.:    13.615 HEAT: 31.09696
 CYCLE:    11 TIME:   0.003 TIME LEFT:  2.00D  GRAD.:    12.812 HEAT: 31.00783
 CYCLE:    12 TIME:   0.006 TIME LEFT:  2.00D  GRAD.:    13.768 HEAT: 31.00115
 CYCLE:    13 TIME:   0.003 TIME LEFT:  2.00D  GRAD.:     5.879 HEAT: 30.95266
 CYCLE:    14 TIME:   0.005 TIME LEFT:  2.00D  GRAD.:     3.594 HEAT: 30.94231
 CYCLE:    15 TIME:   0.003 TIME LEFT:  2.00D  GRAD.:     1.822 HEAT: 30.93482
 CYCLE:    16 TIME:   0.004 TIME LEFT:  2.00D  GRAD.:     2.770 HEAT: 30.92897
 CYCLE:    17 TIME:   0.003 TIME LEFT:  2.00D  GRAD.:     2.637 HEAT: 30.92523
 CYCLE:    18 TIME:   0.003 TIME LEFT:  2.00D  GRAD.:     1.516 HEAT: 30.92173
 CYCLE:    19 TIME:   0.004 TIME LEFT:  2.00D  GRAD.:     3.660 HEAT: 30.91946
 CYCLE:    20 TIME:   0.003 TIME LEFT:  2.00D  GRAD.:     1.989 HEAT: 30.91555
 CYCLE:    21 TIME:   0.003 TIME LEFT:  2.00D  GRAD.:     1.138 HEAT: 30.91328
 CYCLE:    22 TIME:   0.003 TIME LEFT:  2.00D  GRAD.:     1.295 HEAT: 30.91039
 CYCLE:    23 TIME:   0.003 TIME LEFT:  2.00D  GRAD.:     1.531 HEAT: 30.90868
 CYCLE:    24 TIME:   0.002 TIME LEFT:  2.00D  GRAD.:     0.829 HEAT: 30.90736
 CYCLE:    25 TIME:   0.002 TIME LEFT:  2.00D  GRAD.:     0.489 HEAT: 30.90645
 CYCLE:    26 TIME:   0.002 TIME LEFT:  2.00D  GRAD.:     0.485 HEAT: 30.90596
 CYCLE:    27 TIME:   0.003 TIME LEFT:  2.00D  GRAD.:     0.376 HEAT: 30.90574
 CYCLE:    28 TIME:   0.004 TIME LEFT:  2.00D  GRAD.:     0.309 HEAT: 30.90550
 CYCLE:    29 TIME:   0.004 TIME LEFT:  2.00D  GRAD.:     0.392 HEAT: 30.90526
 CYCLE:    30 TIME:   0.004 TIME LEFT:  2.00D  GRAD.:     0.408 HEAT: 30.90498
 CYCLE:    31 TIME:   0.004 TIME LEFT:  2.00D  GRAD.:     0.229 HEAT: 30.90479
 CYCLE:    32 TIME:   0.004 TIME LEFT:  2.00D  GRAD.:     0.153 HEAT: 30.90473
 CYCLE:    33 TIME:   0.003 TIME LEFT:  2.00D  GRAD.:     0.147 HEAT: 30.90467
 CYCLE:    34 TIME:   0.003 TIME LEFT:  2.00D  GRAD.:     0.131 HEAT: 30.90464
 CYCLE:    35 TIME:   0.003 TIME LEFT:  2.00D  GRAD.:     0.103 HEAT: 30.90460
 CYCLE:    36 TIME:   0.003 TIME LEFT:  2.00D  GRAD.:     0.078 HEAT: 30.90459
 CYCLE:    37 TIME:   0.003 TIME LEFT:  2.00D  GRAD.:     0.087 HEAT: 30.90456
 CYCLE:    38 TIME:   0.002 TIME LEFT:  2.00D  GRAD.:     0.082 HEAT: 30.90455
 CYCLE:    39 TIME:   0.002 TIME LEFT:  2.00D  GRAD.:     0.091 HEAT: 30.90453
 CYCLE:    40 TIME:   0.002 TIME LEFT:  2.00D  GRAD.:     0.056 HEAT: 30.90452
 CYCLE:    41 TIME:   0.002 TIME LEFT:  2.00D  GRAD.:     0.050 HEAT: 30.90451
 CYCLE:    42 TIME:   0.002 TIME LEFT:  2.00D  GRAD.:     0.038 HEAT: 30.90451

     RMS GRADIENT =  0.03755  IS LESS THAN CUTOFF =  0.05000



 -------------------------------------------------------------------------------
pm3  precise nosym
 InChI=1S/C5H8/c1-5-3-2-4-5/h2-3,5H,4H2,1H3



     GEOMETRY OPTIMISED USING EIGENVECTOR FOLLOWING (EF).     
     SCF FIELD WAS ACHIEVED                                   


                              PM3 CALCULATION
                                                       MOPAC2012 (Version: 13.159M)
                                                       Mon Jun  2 11:04:36 2014
                                                       No. of days left =   6




          FINAL HEAT OF FORMATION =         30.90451 KCAL/MOL =     129.30445 KJ/MOL


          TOTAL ENERGY            =       -714.52336 EV
          ELECTRONIC ENERGY       =      -2820.18083 EV  POINT GROUP:     C1  
          CORE-CORE REPULSION     =       2105.65747 EV
          COSMO AREA              =        117.62 SQUARE ANGSTROMS
          COSMO VOLUME            =        105.50 CUBIC ANGSTROMS

          GRADIENT NORM           =          0.03755
          IONIZATION POTENTIAL    =          9.846622 EV
          HOMO LUMO ENERGIES (EV) =         -9.847  1.045
          NO. OF FILLED LEVELS    =         14
          MOLECULAR WEIGHT        =         68.118

          MOLECULAR DIMENSIONS (Angstroms)

            Atom       Atom       Distance
            H    13    H    10     4.99845
            H    12    H     7     3.91593
            H     6    H    11     2.96314


          SCF CALCULATIONS        =         50
          COMPUTATION TIME        =          0.142 SECONDS




   ATOM   CHEMICAL          X               Y               Z
  NUMBER   SYMBOL      (ANGSTROMS)     (ANGSTROMS)     (ANGSTROMS)
 
     1       C          0.30682831  *  -0.53540695  *   0.00974812  *
     2       C         -1.06298143  *  -0.13890498  *  -0.66007539  *
     3       C          1.51803632  *   0.18837803  *  -0.50629971  *
     4       C         -0.29896650  *   0.02302084  *   1.29425876  *
     5       C         -1.47306762  *   0.34693908  *   0.71764844  *
     6       H          0.48150199  *  -1.63015345  *   0.04553045  *
     7       H         -1.65181850  *  -0.97504030  *  -1.06178788  *
     8       H         -0.99792448  *   0.64072663  *  -1.43265466  *
     9       H          2.38583038  *   0.01603378  *   0.14309823  *
    10       H          1.78170912  *  -0.15537760  *  -1.51472900  *
    11       H          1.35692750  *   1.27319745  *  -0.55975229  *
    12       H          0.12722282  *   0.09901989  *   2.28503415  *
    13       H         -2.40353393  *   0.78571137  *   1.05091906  *

           Empirical Formula: C5 H8  =    13 atoms



      MOLECULAR POINT GROUP   :   C1  


                  EIGENVALUES  
 -39.75534 -29.76276 -24.74033 -21.92643 -17.66028 -17.39952 -15.63267 -15.02161
 -13.60805 -13.24735 -12.61678 -11.75581 -11.51747  -9.84662   1.04495   3.23813
   3.38358   3.41250   3.87743   4.00612   4.22538   4.41662   4.45012   4.66831
   4.81124   5.11530   5.14980   6.17707


              NET ATOMIC CHARGES AND DIPOLE CONTRIBUTIONS

  ATOM NO.   TYPE          CHARGE      No. of ELECS.   s-Pop       p-Pop       
    1          C          -0.066454        4.0665     1.18526     2.88120
    2          C          -0.085864        4.0859     1.17246     2.91340
    3          C          -0.097125        4.0971     1.13372     2.96340
    4          C          -0.163611        4.1636     1.22130     2.94231
    5          C          -0.158811        4.1588     1.21770     2.94111
    6          H           0.074629        0.9254     0.92537
    7          H           0.060908        0.9391     0.93909
    8          H           0.064738        0.9353     0.93526
    9          H           0.040553        0.9594     0.95945
   10          H           0.039351        0.9606     0.96065
   11          H           0.042795        0.9572     0.95720
   12          H           0.125019        0.8750     0.87498
   13          H           0.123871        0.8761     0.87613
 DIPOLE           X         Y         Z       TOTAL
 POINT-CHG.     0.097    -0.050    -0.175     0.206
 HYBRID        -0.027     0.026     0.041     0.055
 SUM            0.070    -0.024    -0.134     0.153


          ATOMIC ORBITAL ELECTRON POPULATIONS

    Atom      s        px        py        pz   
    1  C   1.18526   0.94237   0.99175   0.94707
    2  C   1.17246   0.96089   1.00179   0.95072
    3  C   1.13372   0.96587   0.99861   0.99892
    4  C   1.22130   0.96898   1.00108   0.97225
    5  C   1.21770   0.97604   0.99970   0.96536
    6  H   0.92537
    7  H   0.93909
    8  H   0.93526
    9  H   0.95945
   10  H   0.96065
   11  H   0.95720
   12  H   0.87498
   13  H   0.87613
 *******************************************************************************
 ** Site#: 14399           For non-commercial use only        Version 13.159M **
 *******************************************************************************
 ** Cite this work as: MOPAC2012, James J. P. Stewart, Stewart Computational  **
 ** Chemistry, Version 13.159M web: HTTP://OpenMOPAC.net  Days remaining:   6 **
 *******************************************************************************
 **                                                                           **
 **                                MOPAC2012                                  **
 **                                                                           **
 *******************************************************************************

                            PM3 CALCULATION RESULTS


 *******************************************************************************
 *  CALCULATION DONE:                                Mon Jun  2 11:04:36 2014  *
 *  PM3      - The PM3 Hamiltonian to be used
 *  OLDGEO   - PREVIOUS GEOMETRY TO BE USED
 *  PRECISE  - CRITERIA TO BE INCREASED BY 100 TIMES
 *  NOSYM    - POINT-GROUP SYMMETRY SET TO C1
 *  T=       - A TIME OF 172800.0 SECONDS REQUESTED
 *  DUMP=N   - RESTART FILE WRITTEN EVERY  7200.000 SECONDS
 *  THERMO   - THERMODYNAMIC QUANTITIES TO BE CALCULATED
 *******************************************************************************
oldgeo thermo nosym precise  pm3

   ATOM   CHEMICAL          X               Y               Z
  NUMBER   SYMBOL      (ANGSTROMS)     (ANGSTROMS)     (ANGSTROMS)
 
     1       C          0.30682831  *  -0.53540695  *   0.00974812  *
     2       C         -1.06298143  *  -0.13890498  *  -0.66007539  *
     3       C          1.51803632  *   0.18837803  *  -0.50629971  *
     4       C         -0.29896650  *   0.02302084  *   1.29425876  *
     5       C         -1.47306762  *   0.34693908  *   0.71764844  *
     6       H          0.48150199  *  -1.63015345  *   0.04553045  *
     7       H         -1.65181850  *  -0.97504030  *  -1.06178788  *
     8       H         -0.99792448  *   0.64072663  *  -1.43265466  *
     9       H          2.38583038  *   0.01603378  *   0.14309823  *
    10       H          1.78170912  *  -0.15537760  *  -1.51472900  *
    11       H          1.35692750  *   1.27319745  *  -0.55975229  *
    12       H          0.12722282  *   0.09901989  *   2.28503415  *
    13       H         -2.40353393  *   0.78571137  *   1.05091906  *
 


          CARTESIAN COORDINATES 

    NO.       ATOM         X         Y         Z

     1         C        0.3068   -0.5354    0.0097
     2         C       -1.0630   -0.1389   -0.6601
     3         C        1.5180    0.1884   -0.5063
     4         C       -0.2990    0.0230    1.2943
     5         C       -1.4731    0.3469    0.7176
     6         H        0.4815   -1.6302    0.0455
     7         H       -1.6518   -0.9750   -1.0618
     8         H       -0.9979    0.6407   -1.4327
     9         H        2.3858    0.0160    0.1431
    10         H        1.7817   -0.1554   -1.5147
    11         H        1.3569    1.2732   -0.5598
    12         H        0.1272    0.0990    2.2850
    13         H       -2.4035    0.7857    1.0509

  H: (PM3): J. J. P. STEWART, J. COMP. CHEM. 10, 209 (1989).
  C: (PM3): J. J. P. STEWART, J. COMP. CHEM. 10, 209 (1989).

           Empirical Formula: C5 H8  =    13 atoms



      MOLECULAR POINT GROUP   :   C1  


      RHF CALCULATION, NO. OF DOUBLY OCCUPIED LEVELS =   14



          HEAT OF FORMATION =      30.904505 KCALS/MOLE


          INTERNAL COORDINATE DERIVATIVES

   NUMBER  ATOM       BOND         ANGLE      DIHEDRAL

     1       C     -0.000077     0.000951     0.004052
     2       C      0.007897    -0.003632     0.000934
     3       C     -0.000050     0.004493    -0.003880
     4       C     -0.014826     0.005226    -0.003342
     5       C      0.002095    -0.005100     0.000359
     6       H      0.007347     0.004991    -0.001184
     7       H     -0.000298     0.002518     0.005851
     8       H      0.005312     0.000940    -0.006906
     9       H      0.009810    -0.007812    -0.005963
    10       H     -0.021207     0.001547     0.006864
    11       H      0.006705    -0.006839     0.005921
    12       H     -0.002652     0.004047     0.000222
    13       H     -0.000057    -0.001329    -0.002928


          GRADIENT NORM =   0.03832


          TIME FOR SCF CALCULATION =    0.00

          TIME FOR DERIVATIVES     =    0.00

          MOLECULAR WEIGHT =   68.12



          ROTATIONAL CONSTANTS IN CM(-1)

          A =    0.33623790   B =    0.15747698   C =    0.12538412



           PRINCIPAL MOMENTS OF INERTIA IN UNITS OF 10**(-40)*GRAM-CM**2

          A =       83.2529   B =      177.7579   C =      223.2561


          ORIENTATION OF MOLECULE IN FORCE CALCULATION

    NO.       ATOM         X         Y         Z

     1          C      -0.4841   -0.0413    0.5154
     2          C       1.0914   -0.0413    0.5154
     3          C      -1.1357    1.3125    0.5154
     4          C      -0.3630   -0.7161   -0.8480
     5          C       0.9845   -0.7251   -0.8349
     6          H      -0.9267   -0.6969    1.2929
     7          H       1.5637   -0.6347    1.3104
     8          H       1.5595    0.9535    0.5021
     9          H      -2.2096    1.2324    0.3040
    10          H      -1.0227    1.8034    1.4905
    11          H      -0.6998    1.9785   -0.2411
    12          H      -1.1356   -1.0436   -1.5297
    13          H       1.7622   -1.0757   -1.4994


    FIRST DERIVATIVES WILL BE USED IN THE CALCULATION OF SECOND DERIVATIVES

          ESTIMATED TIME TO COMPLETE CALCULATION =        0.47 SECONDS

    FOR POINT-GROUP C1   THERE ARE   1 UNIQUE SYMMETRY FUNCTIONS.

 STEP:   1 TIME =     0.01 SECS, INTEGRAL =      0.01 TIME LEFT: 172799.99
 STEP:   2 TIME =     0.01 SECS, INTEGRAL =      0.02 TIME LEFT: 172799.98
 STEP:   3 TIME =     0.01 SECS, INTEGRAL =      0.03 TIME LEFT: 172799.96
 STEP:   4 TIME =     0.01 SECS, INTEGRAL =      0.05 TIME LEFT: 172799.95
 STEP:   5 TIME =     0.01 SECS, INTEGRAL =      0.06 TIME LEFT: 172799.94
 STEP:   6 TIME =     0.01 SECS, INTEGRAL =      0.07 TIME LEFT: 172799.93
 STEP:   7 TIME =     0.01 SECS, INTEGRAL =      0.08 TIME LEFT: 172799.92
 STEP:   8 TIME =     0.01 SECS, INTEGRAL =      0.08 TIME LEFT: 172799.91
 STEP:   9 TIME =     0.01 SECS, INTEGRAL =      0.09 TIME LEFT: 172799.90
 STEP:  10 TIME =     0.01 SECS, INTEGRAL =      0.10 TIME LEFT: 172799.89
 STEP:  11 TIME =     0.01 SECS, INTEGRAL =      0.11 TIME LEFT: 172799.88
 STEP:  12 TIME =     0.01 SECS, INTEGRAL =      0.12 TIME LEFT: 172799.87
 STEP:  13 TIME =     0.01 SECS, INTEGRAL =      0.13 TIME LEFT: 172799.86
 STEP:  14 TIME =     0.01 SECS, INTEGRAL =      0.14 TIME LEFT: 172799.85
 STEP:  15 TIME =     0.01 SECS, INTEGRAL =      0.15 TIME LEFT: 172799.85
 STEP:  16 TIME =     0.02 SECS, INTEGRAL =      0.17 TIME LEFT: 172799.83
 STEP:  17 TIME =     0.01 SECS, INTEGRAL =      0.18 TIME LEFT: 172799.82
 STEP:  18 TIME =     0.01 SECS, INTEGRAL =      0.19 TIME LEFT: 172799.80
 STEP:  19 TIME =     0.02 SECS, INTEGRAL =      0.21 TIME LEFT: 172799.79
 STEP:  20 TIME =     0.01 SECS, INTEGRAL =      0.22 TIME LEFT: 172799.77
 STEP:  21 TIME =     0.01 SECS, INTEGRAL =      0.23 TIME LEFT: 172799.76
 STEP:  22 TIME =     0.01 SECS, INTEGRAL =      0.25 TIME LEFT: 172799.75
 STEP:  23 TIME =     0.01 SECS, INTEGRAL =      0.26 TIME LEFT: 172799.74
 STEP:  24 TIME =     0.01 SECS, INTEGRAL =      0.27 TIME LEFT: 172799.73
 STEP:  25 TIME =     0.01 SECS, INTEGRAL =      0.28 TIME LEFT: 172799.72
 STEP:  26 TIME =     0.01 SECS, INTEGRAL =      0.28 TIME LEFT: 172799.71
 STEP:  27 TIME =     0.01 SECS, INTEGRAL =      0.29 TIME LEFT: 172799.70
 STEP:  28 TIME =     0.01 SECS, INTEGRAL =      0.31 TIME LEFT: 172799.69
 STEP:  29 TIME =     0.01 SECS, INTEGRAL =      0.32 TIME LEFT: 172799.68
 STEP:  30 TIME =     0.01 SECS, INTEGRAL =      0.33 TIME LEFT: 172799.67
 STEP:  31 TIME =     0.01 SECS, INTEGRAL =      0.34 TIME LEFT: 172799.66
 STEP:  32 TIME =     0.01 SECS, INTEGRAL =      0.35 TIME LEFT: 172799.65
 STEP:  33 TIME =     0.01 SECS, INTEGRAL =      0.36 TIME LEFT: 172799.64
 STEP:  34 TIME =     0.01 SECS, INTEGRAL =      0.37 TIME LEFT: 172799.63
 STEP:  35 TIME =     0.01 SECS, INTEGRAL =      0.38 TIME LEFT: 172799.62
 STEP:  36 TIME =     0.01 SECS, INTEGRAL =      0.39 TIME LEFT: 172799.61
 STEP:  37 TIME =     0.01 SECS, INTEGRAL =      0.40 TIME LEFT: 172799.60
 STEP:  38 TIME =     0.01 SECS, INTEGRAL =      0.41 TIME LEFT: 172799.59
 STEP:  39 TIME =     0.01 SECS, INTEGRAL =      0.42 TIME LEFT: 172799.58

(To convert to Hartree/Bohr^2, multiply by (10^(-21) x N x a0^2)/(4.184 x 627.51) = 0.0642)


           FORCE MATRIX IN MILLIDYNES/ANGSTROM


                  C  1       C  2       C  3       C  4       C  5       H  6
 ------------------------------------------------------------------------------
     C    1  14.475456
     C    2   2.863175  14.281011
     C    3   4.701425   0.508342  14.534614
     C    4   3.871107   2.263459   0.563268  18.330438
     C    5   2.243053   4.156592   0.051677  10.348690  18.420067
     H    6   4.445929   0.414905   0.429499   0.414787   0.043607   4.956373
     H    7   0.421264   4.722104   0.027030   0.040213   0.435010   0.026137
     H    8   0.434286   4.697906   0.021418   0.040812   0.434474   0.024283
     H    9   0.452841   0.046163   4.748395   0.011255   0.004098   0.027502
     H   10   0.452956   0.009220   4.743608   0.048104   0.006538   0.028064
     H   11   0.469216   0.018261   4.733196   0.012990   0.003113   0.045503
     H   12   0.339274   0.112961   0.008824   5.287027   0.423421   0.005554
     H   13   0.114586   0.341312   0.016523   0.424514   5.282587   0.013980


                  H  7       H  8       H  9       H 10       H 11       H 12
 ------------------------------------------------------------------------------
     H    7   5.339106
     H    8   0.530232   5.317197
     H    9   0.004868   0.002450   5.472870
     H   10   0.001867   0.003384   0.568361   5.469062
     H   11   0.001446   0.015873   0.570829   0.570947   5.465452
     H   12   0.014644   0.014921   0.003196   0.001618   0.002296   5.671635
     H   13   0.005647   0.005760   0.001345   0.002533   0.001472   0.029711


                  H 13
 ------------------
     H   13   5.668024


          HEAT OF FORMATION =      30.904505 KCALS/MOLE

          ZERO POINT ENERGY      71.867 KCAL/MOL


           NORMAL COORDINATE ANALYSIS (Total motion = 1 Angstrom)


   Root No.       1         2         3         4         5         6         7         8

                 1 A       2 A       3 A       4 A       5 A       6 A       7 A       8 A   

                 167.0     247.9     341.8     493.6     765.4     817.8     884.8     903.3
  
           1   -0.0094   -0.0041    0.0328   -0.0039   -0.0164    0.0400   -0.0347   -0.0046
           2   -0.0065   -0.0260    0.0219   -0.0406   -0.0013    0.0169   -0.0132   -0.0013
           3   -0.0066    0.0322    0.0248    0.0269    0.0131   -0.0381   -0.0279    0.0017
           4   -0.0099   -0.0044    0.0368   -0.0083   -0.0014    0.0009    0.0750   -0.0036
           5   -0.0061   -0.0181   -0.0360    0.0279   -0.0230    0.0186    0.0018    0.0303
           6    0.0124    0.0195    0.0074    0.0000   -0.0090    0.0285    0.0067   -0.0198
           7    0.0044    0.0310   -0.0451    0.0315   -0.0166    0.0261   -0.0266   -0.0061
           8    0.0001   -0.0068   -0.0158   -0.0331    0.0244   -0.0226   -0.0085   -0.0052
           9   -0.0013   -0.0456   -0.0285   -0.0174    0.0040   -0.0119   -0.0190   -0.0023
          10    0.0068   -0.0144   -0.0055   -0.0135    0.0179   -0.0326   -0.0143    0.0008
          11    0.0044   -0.0168    0.0510    0.0436   -0.0249   -0.0221    0.0074   -0.0348
          12   -0.0107    0.0273    0.0103   -0.0119    0.0178   -0.0143    0.0150    0.0148
          13    0.0069   -0.0136   -0.0067   -0.0143    0.0178   -0.0317   -0.0153    0.0025
          14    0.0078    0.0669   -0.0112   -0.0115   -0.0269   -0.0015    0.0136    0.0065
          15    0.0044   -0.0233   -0.0036    0.0195   -0.0027    0.0284    0.0319   -0.0018
          16   -0.0185   -0.0180    0.0451    0.0075   -0.0275    0.0511   -0.0444    0.0630
          17   -0.0084    0.0071    0.0224   -0.0610    0.0342    0.0283   -0.0492    0.0339
          18   -0.0136    0.0490    0.0329    0.0127    0.0348   -0.0180   -0.0661    0.0703
          19   -0.0195   -0.0011    0.0177    0.0697    0.0332   -0.0668    0.0931   -0.0583
          20   -0.0140   -0.0834   -0.0748    0.1255    0.0648    0.0316   -0.0004   -0.1172
          21    0.0122   -0.0303   -0.0094    0.0227    0.0315    0.0812   -0.0075   -0.0906
          22   -0.0122   -0.0023    0.0806   -0.0848   -0.0319    0.0576    0.1019    0.0503
          23   -0.0049   -0.0187   -0.0578    0.0664   -0.0075   -0.0077   -0.0126    0.0017
          24    0.0295    0.0971    0.0205   -0.0897   -0.1170    0.0196   -0.0265    0.1416
          25   -0.0467    0.0368   -0.0391    0.0354   -0.0190    0.0251   -0.0461   -0.0114
          26   -0.0059    0.0139   -0.1159   -0.0038    0.0485   -0.1117    0.1719    0.0582
          27    0.2634   -0.0821   -0.0285   -0.0447    0.0054    0.0246    0.0235    0.0078
          28    0.2457    0.0103   -0.0899    0.0283   -0.0129    0.0214    0.0918    0.0328
          29    0.1019    0.0373    0.0491    0.0063    0.0291   -0.0967   -0.1092   -0.0314
          30   -0.0802   -0.0659   -0.0573   -0.0381    0.0021    0.0265    0.0201    0.0076
          31   -0.1655    0.0778   -0.0972    0.0764   -0.0088   -0.0563    0.0440    0.0275
          32   -0.0884   -0.0559   -0.0264   -0.0849    0.0218    0.0680   -0.0031   -0.0108
          33   -0.1768   -0.0629   -0.0672   -0.0397    0.0061    0.0238    0.0258    0.0117
          34    0.0161   -0.0209   -0.0304   -0.0172    0.0313   -0.0485    0.0228    0.0155
          35    0.0075   -0.0473    0.1213    0.1563    0.1838    0.0653   -0.0207    0.2133
          36   -0.0226    0.0494    0.0046   -0.0617   -0.0977   -0.0389   -0.0148   -0.1211
          37    0.0154   -0.0171   -0.0319   -0.0155    0.0203   -0.0152   -0.0745    0.0118
          38    0.0168    0.1570   -0.0358   -0.0416    0.2413    0.1499    0.0090   -0.0931
          39    0.0096   -0.0748   -0.0199    0.0344   -0.1421   -0.0301   -0.0349    0.0614


   Root No.       9        10        11        12        13        14        15        16

                 9 A      10 A      11 A      12 A      13 A      14 A      15 A      16 A   

                 937.0     948.9    1008.5    1023.9    1037.4    1044.8    1153.7    1164.7
  
           1   -0.0009    0.0035    0.0016    0.0068   -0.0004    0.0350   -0.0094    0.0508
           2    0.0007   -0.0070   -0.0013    0.0015   -0.0006    0.0025    0.0413    0.0447
           3   -0.0119   -0.0047   -0.0144    0.0005    0.0136   -0.0096   -0.0376    0.0185
           4   -0.0198    0.0098    0.0161   -0.0073   -0.0083    0.0022    0.0129   -0.0438
           5    0.0069   -0.0220    0.0269    0.0106    0.0051   -0.0141   -0.0104   -0.0027
           6    0.0029    0.0151    0.0113   -0.0159    0.0034    0.0369    0.0014    0.0125
           7    0.0025    0.0090    0.0047   -0.0080   -0.0005   -0.0323    0.0012   -0.0137
           8   -0.0174    0.0195    0.0105   -0.0014   -0.0052    0.0081   -0.0501   -0.0198
           9   -0.0235   -0.0147    0.0222   -0.0077   -0.0125    0.0050    0.0315   -0.0069
          10    0.0201   -0.0048    0.0017   -0.0030    0.0048   -0.0052   -0.0002    0.0008
          11    0.0236   -0.0169   -0.0090    0.0229    0.0246   -0.0203   -0.0008   -0.0052
          12    0.0472    0.0043    0.0038   -0.0129   -0.0123   -0.0245   -0.0012    0.0183
          13    0.0232   -0.0045   -0.0025    0.0008   -0.0013   -0.0038    0.0032   -0.0108
          14   -0.0154    0.0181   -0.0242   -0.0414   -0.0212    0.0039    0.0040    0.0024
          15   -0.0324   -0.0030   -0.0003    0.0248    0.0053   -0.0237    0.0018   -0.0061
          16   -0.0625   -0.0630   -0.0664    0.0369    0.0996    0.1472   -0.1915   -0.0789
          17    0.0035    0.0352   -0.1010   -0.0156    0.0945   -0.0176    0.3202   -0.0749
          18   -0.0413   -0.0092   -0.1381    0.0024    0.1509    0.0364    0.0883   -0.1550
          19   -0.0889    0.1866    0.0134    0.1026   -0.0088    0.0368    0.0647    0.0724
          20    0.0241    0.0160   -0.0236   -0.1028   -0.0067    0.0810    0.0164   -0.0459
          21    0.0554   -0.0665   -0.0232   -0.1636   -0.0035    0.0879   -0.0136   -0.0911
          22   -0.0516   -0.1626   -0.0471   -0.0741   -0.0663   -0.0954   -0.0727   -0.0041
          23    0.0214    0.0635    0.0573    0.0424    0.0332    0.0359    0.0331   -0.0213
          24    0.0395    0.0308    0.1565    0.1152    0.0827    0.0473    0.0162   -0.0880
          25   -0.0102    0.0055    0.0186   -0.0136   -0.0074   -0.0394    0.0124   -0.0182
          26    0.0266   -0.0718   -0.0513    0.0531    0.0227    0.1681   -0.0277    0.0683
          27    0.0308    0.0269   -0.0329    0.0053    0.0175   -0.0076   -0.0290    0.0000
          28    0.0757   -0.0120   -0.0702    0.0296    0.0373    0.0219    0.0109    0.0637
          29   -0.1407   -0.0470    0.1270   -0.0344   -0.0696    0.0339    0.0192   -0.0675
          30    0.0319    0.0228   -0.0308    0.0053    0.0176   -0.0129   -0.0068    0.0076
          31   -0.0163   -0.0990    0.0114    0.0121   -0.0082    0.0679    0.1097    0.0585
          32    0.0558    0.1324   -0.0585    0.0045    0.0381   -0.0581   -0.1902   -0.0581
          33    0.0324    0.0261   -0.0370    0.0083    0.0224   -0.0004   -0.0288    0.0003
          34   -0.0981    0.0028    0.0048   -0.0881    0.1535   -0.0870   -0.0270    0.1199
          35    0.0792    0.0499    0.0197   -0.0338   -0.1325    0.0320    0.0180   -0.0277
          36    0.1552   -0.0367   -0.0145    0.1109   -0.1044    0.0411    0.0193   -0.1023
          37   -0.0456   -0.0121   -0.1219    0.1223   -0.1323   -0.0033    0.0026   -0.0149
          38   -0.0514   -0.0805   -0.0053    0.1793   -0.0113   -0.0375    0.0011   -0.0046
          39   -0.0934    0.0404   -0.1498    0.0503   -0.1528   -0.0020    0.0021   -0.0041


   Root No.      17        18        19        20        21        22        23        24

                17 A      18 A      19 A      20 A      21 A      22 A      23 A      24 A   

                1186.1    1207.6    1294.6    1343.0    1398.1    1404.7    1408.4    1441.4
  
           1   -0.0206    0.0111    0.0391    0.0342    0.0044    0.0020   -0.0028    0.0564
           2    0.0252    0.0033   -0.0029   -0.0446   -0.0101    0.0042   -0.0025   -0.0762
           3   -0.0654    0.0118    0.0255   -0.0417   -0.0026   -0.0017    0.0002   -0.0327
           4   -0.0131    0.0364    0.0052   -0.0123    0.0070   -0.0281    0.0210   -0.0229
           5   -0.0430   -0.0113   -0.0255    0.0105    0.0053   -0.0159    0.0109    0.0020
           6   -0.0289   -0.0280   -0.0606    0.0112    0.0082   -0.0301    0.0211   -0.0139
           7    0.0107   -0.0037   -0.0074    0.0090   -0.0286   -0.0098   -0.0177   -0.0401
           8   -0.0057   -0.0021   -0.0039   -0.0219   -0.0021   -0.0215    0.0018    0.0780
           9    0.0112   -0.0032   -0.0040    0.0066    0.0269   -0.0102   -0.0215    0.0035
          10   -0.0049   -0.0231    0.0041   -0.0099   -0.0009   -0.0007    0.0005   -0.0128
          11    0.0161    0.0114   -0.0137    0.0206    0.0010    0.0019   -0.0008    0.0174
          12    0.0612    0.0250   -0.0297    0.0329    0.0007    0.0049   -0.0027    0.0223
          13    0.0095   -0.0167    0.0109   -0.0034   -0.0017    0.0061   -0.0047    0.0037
          14    0.0252   -0.0131    0.0344   -0.0024   -0.0016    0.0063   -0.0045    0.0046
          15    0.0329   -0.0259    0.0706   -0.0015   -0.0024    0.0122   -0.0086    0.0151
          16    0.2686   -0.0693   -0.0920   -0.0344   -0.0078   -0.0085    0.0022   -0.0703
          17   -0.1101   -0.0180    0.0120    0.0798    0.0097   -0.0025   -0.0015    0.0800
          18   -0.0108   -0.0522   -0.0398    0.0224    0.0078   -0.0131    0.0037    0.0250
          19   -0.0061   -0.1210   -0.1560   -0.0230   -0.0384    0.1252   -0.0903    0.0136
          20   -0.0165    0.0776   -0.0376   -0.0588   -0.0501    0.1703   -0.1221    0.0370
          21   -0.0173    0.1326    0.0238   -0.0376   -0.0104    0.0338   -0.0239   -0.0032
          22   -0.1464   -0.1103   -0.1319    0.0041   -0.0285    0.1224   -0.0922    0.0646
          23    0.0184    0.0611    0.0380   -0.0020    0.0176   -0.0714    0.0536   -0.0349
          24   -0.0383    0.1398   -0.0159   -0.0687   -0.0474    0.1579   -0.1134    0.0278
          25    0.0263   -0.0063   -0.0188   -0.0204    0.0563   -0.0128   -0.0289   -0.0114
          26   -0.0738    0.0207    0.0843    0.1792   -0.0657   -0.0363   -0.1300   -0.1416
          27   -0.0300    0.0002    0.0088    0.0182   -0.3066    0.0562    0.1652    0.0107
          28   -0.0030    0.0079   -0.0077   -0.1115    0.3177    0.0605    0.0315    0.0464
          29    0.0221   -0.0133    0.0148    0.1620    0.0821    0.1355    0.0922   -0.1035
          30   -0.0067    0.0012   -0.0094   -0.0596   -0.0688   -0.0827   -0.0565    0.0696
          31    0.0420   -0.0003   -0.0189   -0.0936   -0.0695    0.0908    0.2102    0.1274
          32   -0.0729    0.0011    0.0300    0.0977    0.0967    0.1026    0.0483   -0.1324
          33   -0.0308    0.0012    0.0155    0.0371    0.0579    0.1483    0.1586   -0.0608
          34    0.0599    0.1110   -0.0734    0.0522    0.0026    0.0011   -0.0002    0.0267
          35    0.0136   -0.0484    0.0209   -0.0153   -0.0024    0.0024   -0.0022   -0.0110
          36   -0.0071   -0.0993    0.0441   -0.0184   -0.0021    0.0044   -0.0024   -0.0068
          37   -0.0216    0.1405   -0.1199    0.0151    0.0041   -0.0158    0.0115   -0.0104
          38    0.0066    0.0589   -0.0238    0.0080    0.0011   -0.0031    0.0028   -0.0008
          39    0.0099    0.1192   -0.0487    0.0180    0.0031   -0.0078    0.0061    0.0054


   Root No.      25        26        27        28        29        30        31        32

                25 A      26 A      27 A      28 A      29 A      30 A      31 A      32 A   

                1775.0    2963.5    3049.0    3080.5    3083.9    3104.7    3179.1    3195.4
  
           1   -0.0048    0.0262   -0.0012    0.0010   -0.0003   -0.0010   -0.0003    0.0005
           2    0.0151    0.0377   -0.0018    0.0013   -0.0002   -0.0001    0.0003   -0.0001
           3    0.0180   -0.0458    0.0019   -0.0017    0.0000   -0.0004    0.0002   -0.0006
           4    0.0013    0.0008   -0.0017    0.0004    0.0001   -0.0302   -0.0001    0.0008
           5    0.0092   -0.0040   -0.0525    0.0006   -0.0009   -0.0097   -0.0002    0.0003
           6    0.0182    0.0015    0.0248    0.0002    0.0003   -0.0271    0.0000    0.0007
           7    0.0018   -0.0021    0.0007    0.0261   -0.0403    0.0007   -0.0112    0.0000
           8   -0.0058   -0.0007    0.0005    0.0133   -0.0196    0.0001    0.0219    0.0000
           9   -0.0029    0.0026   -0.0001   -0.0407   -0.0323   -0.0007    0.0003    0.0000
          10   -0.2060    0.0008    0.0000   -0.0001   -0.0002    0.0000    0.0000   -0.0263
          11    0.0008   -0.0001   -0.0003    0.0002    0.0002   -0.0001   -0.0001   -0.0112
          12   -0.0032   -0.0007    0.0002    0.0001    0.0001   -0.0002   -0.0001   -0.0232
          13    0.2066   -0.0007    0.0000    0.0000    0.0000   -0.0006   -0.0001   -0.0285
          14   -0.0022    0.0005   -0.0003    0.0000    0.0000   -0.0002    0.0000    0.0127
          15    0.0006    0.0002    0.0001    0.0000    0.0000   -0.0006    0.0001    0.0241
          16   -0.0178   -0.3207    0.0179   -0.0087    0.0001   -0.0013    0.0006   -0.0014
          17   -0.0262   -0.4628    0.0191   -0.0186    0.0015   -0.0011    0.0022   -0.0017
          18   -0.0146    0.5558   -0.0231    0.0179   -0.0027    0.0006   -0.0017    0.0020
          19    0.0160   -0.0090   -0.1853   -0.0015   -0.0021    0.1971    0.0002   -0.0033
          20   -0.0338    0.0161    0.2141    0.0025    0.0026   -0.2776   -0.0005    0.0042
          21   -0.0168   -0.0231   -0.3013   -0.0029   -0.0037    0.3457    0.0004   -0.0051
          22    0.0138    0.0109    0.2069   -0.0049    0.0035    0.1711    0.0008   -0.0032
          23    0.0072    0.0304    0.4217   -0.0088    0.0061    0.3936    0.0029   -0.0065
          24   -0.0364    0.0000    0.0013   -0.0001   -0.0001   -0.0217   -0.0002    0.0004
          25   -0.0002    0.0155   -0.0105   -0.1724    0.4492   -0.0055    0.3164   -0.0012
          26    0.0026    0.0048   -0.0007   -0.0118    0.0377   -0.0006    0.0422   -0.0002
          27    0.0011    0.0040   -0.0022   -0.0577    0.0769   -0.0016    0.0638   -0.0003
          28    0.0039   -0.0043    0.0002    0.0459    0.0291    0.0008   -0.0426    0.0002
          29   -0.0083   -0.0054   -0.0005    0.1265    0.1722    0.0029   -0.1289    0.0003
          30   -0.0020   -0.0171   -0.0011    0.2311    0.3677    0.0055   -0.2919    0.0009
          31   -0.0029    0.0140   -0.0028   -0.1840    0.0040   -0.0032   -0.1376    0.0003
          32    0.0049    0.0143   -0.0028   -0.2745    0.0250   -0.0043   -0.1795    0.0004
          33    0.0030   -0.0210    0.0039    0.3125   -0.0578    0.0047    0.2244   -0.0005
          34   -0.1098    0.0005    0.0005   -0.0001   -0.0002    0.0127    0.0003    0.3124
          35   -0.0745    0.0010   -0.0002    0.0000    0.0001    0.0054    0.0003    0.1328
          36   -0.1508    0.0001    0.0006   -0.0002    0.0001    0.0112    0.0004    0.2761
          37    0.1103   -0.0051    0.0004   -0.0004    0.0003   -0.0011    0.0010    0.3334
          38   -0.0760    0.0028   -0.0010    0.0001   -0.0001    0.0005   -0.0004   -0.1504
          39   -0.1501    0.0042    0.0001    0.0003   -0.0002    0.0008   -0.0009   -0.2852


   Root No.      33

                33 A   

                3215.8
  
           1   -0.0014
           2    0.0005
           3    0.0014
           4    0.0018
           5    0.0009
           6    0.0019
           7    0.0000
           8    0.0000
           9    0.0000
          10   -0.0357
          11   -0.0122
          12   -0.0255
          13    0.0343
          14   -0.0124
          15   -0.0234
          16    0.0006
          17    0.0016
          18   -0.0019
          19   -0.0032
          20    0.0048
          21   -0.0062
          22   -0.0028
          23   -0.0072
          24    0.0003
          25    0.0007
          26   -0.0001
          27    0.0000
          28   -0.0001
          29   -0.0003
          30   -0.0004
          31   -0.0002
          32    0.0000
          33    0.0001
          34    0.3261
          35    0.1383
          36    0.2877
          37   -0.3092
          38    0.1393
          39    0.2641


           MASS-WEIGHTED COORDINATE ANALYSIS (NORMAL COORDINATES)


   Root No.       1         2         3         4         5         6         7         8

                 1 A       2 A       3 A       4 A       5 A       6 A       7 A       8 A   

                 167.0     247.9     341.8     493.6     765.4     817.8     884.8     903.3
  
           1   -0.0682   -0.0300    0.2457   -0.0302   -0.1256    0.3119   -0.2539   -0.0385
           2   -0.0471   -0.1886    0.1642   -0.3141   -0.0102    0.1321   -0.0967   -0.0107
           3   -0.0476    0.2336    0.1860    0.2086    0.1008   -0.2974   -0.2041    0.0138
           4   -0.0718   -0.0320    0.2758   -0.0640   -0.0111    0.0068    0.5494   -0.0299
           5   -0.0443   -0.1317   -0.2695    0.2157   -0.1763    0.1453    0.0132    0.2522
           6    0.0896    0.1417    0.0553   -0.0002   -0.0689    0.2223    0.0492   -0.1644
           7    0.0318    0.2251   -0.3383    0.2443   -0.1272    0.2036   -0.1946   -0.0505
           8    0.0007   -0.0493   -0.1182   -0.2566    0.1876   -0.1761   -0.0619   -0.0437
           9   -0.0093   -0.3311   -0.2138   -0.1349    0.0308   -0.0930   -0.1389   -0.0194
          10    0.0493   -0.1043   -0.0415   -0.1046    0.1372   -0.2544   -0.1045    0.0068
          11    0.0315   -0.1222    0.3819    0.3379   -0.1913   -0.1727    0.0545   -0.2898
          12   -0.0775    0.1982    0.0775   -0.0918    0.1363   -0.1114    0.1098    0.1228
          13    0.0498   -0.0987   -0.0505   -0.1105    0.1365   -0.2472   -0.1122    0.0206
          14    0.0564    0.4857   -0.0842   -0.0890   -0.2065   -0.0118    0.0997    0.0539
          15    0.0318   -0.1689   -0.0269    0.1510   -0.0205    0.2215    0.2334   -0.0147
          16   -0.0387   -0.0377    0.0978    0.0168   -0.0612    0.1153   -0.0942    0.1517
          17   -0.0176    0.0149    0.0486   -0.1368    0.0760    0.0640   -0.1043    0.0816
          18   -0.0284    0.1030    0.0715    0.0284    0.0774   -0.0405   -0.1403    0.1694
          19   -0.0408   -0.0023    0.0383    0.1563    0.0738   -0.1508    0.1975   -0.1404
          20   -0.0294   -0.1753   -0.1623    0.2816    0.1441    0.0714   -0.0008   -0.2825
          21    0.0255   -0.0637   -0.0204    0.0509    0.0701    0.1834   -0.0159   -0.2182
          22   -0.0256   -0.0048    0.1749   -0.1902   -0.0708    0.1300    0.2163    0.1213
          23   -0.0103   -0.0394   -0.1255    0.1490   -0.0168   -0.0173   -0.0268    0.0041
          24    0.0617    0.2042    0.0445   -0.2013   -0.2601    0.0443   -0.0563    0.3412
          25   -0.0976    0.0773   -0.0849    0.0795   -0.0422    0.0568   -0.0979   -0.0274
          26   -0.0124    0.0293   -0.2516   -0.0085    0.1078   -0.2523    0.3649    0.1402
          27    0.5511   -0.1726   -0.0620   -0.1002    0.0121    0.0556    0.0499    0.0187
          28    0.5141    0.0216   -0.1952    0.0635   -0.0288    0.0484    0.1948    0.0790
          29    0.2131    0.0784    0.1065    0.0141    0.0647   -0.2184   -0.2318   -0.0758
          30   -0.1678   -0.1386   -0.1244   -0.0856    0.0046    0.0599    0.0427    0.0184
          31   -0.3461    0.1635   -0.2109    0.1714   -0.0196   -0.1271    0.0934    0.0662
          32   -0.1848   -0.1176   -0.0573   -0.1904    0.0485    0.1535   -0.0065   -0.0261
          33   -0.3698   -0.1323   -0.1459   -0.0890    0.0135    0.0537    0.0548    0.0283
          34    0.0336   -0.0440   -0.0661   -0.0386    0.0697   -0.1096    0.0483    0.0374
          35    0.0158   -0.0995    0.2632    0.3507    0.4088    0.1476   -0.0440    0.5139
          36   -0.0473    0.1038    0.0101   -0.1385   -0.2173   -0.0880   -0.0315   -0.2919
          37    0.0323   -0.0359   -0.0692   -0.0347    0.0452   -0.0343   -0.1582    0.0283
          38    0.0352    0.3302   -0.0778   -0.0933    0.5365    0.3387    0.0192   -0.2243
          39    0.0201   -0.1573   -0.0432    0.0772   -0.3161   -0.0681   -0.0740    0.1479


   Root No.       9        10        11        12        13        14        15        16

                 9 A      10 A      11 A      12 A      13 A      14 A      15 A      16 A   

                 937.0     948.9    1008.5    1023.9    1037.4    1044.8    1153.7    1164.7
  
           1   -0.0074    0.0309    0.0137    0.0540   -0.0030    0.2927   -0.0600    0.3893
           2    0.0060   -0.0617   -0.0106    0.0117   -0.0053    0.0206    0.2629    0.3425
           3   -0.0955   -0.0414   -0.1227    0.0039    0.1113   -0.0807   -0.2389    0.1413
           4   -0.1592    0.0864    0.1367   -0.0583   -0.0682    0.0186    0.0819   -0.3357
           5    0.0551   -0.1944    0.2287    0.0841    0.0419   -0.1182   -0.0662   -0.0204
           6    0.0233    0.1334    0.0962   -0.1264    0.0278    0.3090    0.0090    0.0956
           7    0.0200    0.0793    0.0397   -0.0638   -0.0041   -0.2703    0.0075   -0.1045
           8   -0.1397    0.1730    0.0890   -0.0107   -0.0426    0.0680   -0.3184   -0.1519
           9   -0.1889   -0.1300    0.1888   -0.0610   -0.1028    0.0421    0.2003   -0.0528
          10    0.1610   -0.0422    0.0143   -0.0235    0.0397   -0.0438   -0.0011    0.0059
          11    0.1894   -0.1497   -0.0763    0.1815    0.2020   -0.1695   -0.0052   -0.0398
          12    0.3789    0.0385    0.0324   -0.1023   -0.1009   -0.2051   -0.0073    0.1402
          13    0.1860   -0.0401   -0.0212    0.0065   -0.0107   -0.0314    0.0202   -0.0824
          14   -0.1233    0.1604   -0.2053   -0.3283   -0.1741    0.0322    0.0255    0.0186
          15   -0.2596   -0.0262   -0.0024    0.1965    0.0436   -0.1984    0.0115   -0.0465
          16   -0.1454   -0.1616   -0.1633    0.0847    0.2366    0.3566   -0.3527   -0.1750
          17    0.0080    0.0904   -0.2483   -0.0358    0.2244   -0.0426    0.5899   -0.1662
          18   -0.0960   -0.0236   -0.3395    0.0055    0.3584    0.0881    0.1627   -0.3437
          19   -0.2066    0.4787    0.0330    0.2358   -0.0210    0.0891    0.1192    0.1605
          20    0.0560    0.0411   -0.0581   -0.2362   -0.0159    0.1964    0.0301   -0.1019
          21    0.1288   -0.1707   -0.0572   -0.3760   -0.0084    0.2128   -0.0251   -0.2020
          22   -0.1200   -0.4172   -0.1158   -0.1703   -0.1576   -0.2310   -0.1338   -0.0090
          23    0.0497    0.1629    0.1410    0.0974    0.0788    0.0870    0.0609   -0.0473
          24    0.0919    0.0790    0.3848    0.2647    0.1964    0.1147    0.0298   -0.1953
          25   -0.0237    0.0140    0.0458   -0.0312   -0.0175   -0.0955    0.0228   -0.0403
          26    0.0619   -0.1843   -0.1261    0.1220    0.0540    0.4073   -0.0510    0.1514
          27    0.0715    0.0691   -0.0809    0.0122    0.0415   -0.0183   -0.0534    0.0001
          28    0.1759   -0.0309   -0.1726    0.0680    0.0886    0.0530    0.0200    0.1412
          29   -0.3271   -0.1207    0.3122   -0.0790   -0.1654    0.0821    0.0353   -0.1498
          30    0.0741    0.0584   -0.0756    0.0122    0.0418   -0.0313   -0.0125    0.0168
          31   -0.0380   -0.2540    0.0281    0.0277   -0.0196    0.1645    0.2020    0.1296
          32    0.1297    0.3397   -0.1439    0.0102    0.0905   -0.1408   -0.3504   -0.1289
          33    0.0752    0.0670   -0.0911    0.0191    0.0533   -0.0010   -0.0531    0.0007
          34   -0.2281    0.0072    0.0119   -0.2025    0.3645   -0.2107   -0.0497    0.2659
          35    0.1842    0.1280    0.0485   -0.0776   -0.3147    0.0776    0.0331   -0.0614
          36    0.3608   -0.0942   -0.0356    0.2548   -0.2479    0.0995    0.0356   -0.2268
          37   -0.1059   -0.0311   -0.2998    0.2810   -0.3143   -0.0080    0.0048   -0.0330
          38   -0.1194   -0.2066   -0.0130    0.4121   -0.0269   -0.0909    0.0021   -0.0103
          39   -0.2171    0.1036   -0.3685    0.1156   -0.3630   -0.0049    0.0038   -0.0090


   Root No.      17        18        19        20        21        22        23        24

                17 A      18 A      19 A      20 A      21 A      22 A      23 A      24 A   

                1186.1    1207.6    1294.6    1343.0    1398.1    1404.7    1408.4    1441.4
  
           1   -0.1303    0.0853    0.2664    0.2600    0.0297    0.0152   -0.0218    0.3385
           2    0.1594    0.0256   -0.0199   -0.3386   -0.0685    0.0326   -0.0193   -0.4572
           3   -0.4130    0.0901    0.1736   -0.3172   -0.0174   -0.0133    0.0015   -0.1964
           4   -0.0825    0.2787    0.0352   -0.0934    0.0476   -0.2166    0.1622   -0.1373
           5   -0.2717   -0.0866   -0.1739    0.0794    0.0357   -0.1226    0.0841    0.0119
           6   -0.1826   -0.2145   -0.4128    0.0852    0.0553   -0.2324    0.1625   -0.0831
           7    0.0673   -0.0287   -0.0503    0.0687   -0.1934   -0.0754   -0.1366   -0.2406
           8   -0.0361   -0.0161   -0.0264   -0.1662   -0.0139   -0.1660    0.0141    0.4680
           9    0.0710   -0.0248   -0.0270    0.0499    0.1815   -0.0784   -0.1660    0.0212
          10   -0.0306   -0.1767    0.0277   -0.0749   -0.0062   -0.0056    0.0037   -0.0766
          11    0.1018    0.0876   -0.0936    0.1564    0.0070    0.0146   -0.0061    0.1044
          12    0.3864    0.1917   -0.2021    0.2500    0.0049    0.0375   -0.0209    0.1339
          13    0.0597   -0.1279    0.0745   -0.0256   -0.0118    0.0474   -0.0359    0.0222
          14    0.1592   -0.1003    0.2346   -0.0184   -0.0108    0.0489   -0.0346    0.0276
          15    0.2077   -0.1985    0.4807   -0.0114   -0.0165    0.0942   -0.0660    0.0904
          16    0.4915   -0.1538   -0.1815   -0.0756   -0.0153   -0.0189    0.0050   -0.1222
          17   -0.2014   -0.0400    0.0237    0.1757    0.0189   -0.0056   -0.0034    0.1390
          18   -0.0197   -0.1158   -0.0785    0.0493    0.0153   -0.0293    0.0082    0.0434
          19   -0.0111   -0.2684   -0.3077   -0.0506   -0.0751    0.2798   -0.2017    0.0237
          20   -0.0302    0.1722   -0.0741   -0.1294   -0.0981    0.3807   -0.2728    0.0643
          21   -0.0317    0.2942    0.0469   -0.0829   -0.0203    0.0755   -0.0533   -0.0056
          22   -0.2679   -0.2447   -0.2602    0.0090   -0.0558    0.2737   -0.2059    0.1122
          23    0.0337    0.1354    0.0750   -0.0043    0.0344   -0.1597    0.1197   -0.0607
          24   -0.0701    0.3102   -0.0313   -0.1512   -0.0928    0.3530   -0.2533    0.0482
          25    0.0481   -0.0140   -0.0372   -0.0448    0.1102   -0.0286   -0.0646   -0.0198
          26   -0.1351    0.0459    0.1664    0.3944   -0.1286   -0.0811   -0.2905   -0.2461
          27   -0.0548    0.0005    0.0174    0.0400   -0.6002    0.1256    0.3690    0.0187
          28   -0.0054    0.0176   -0.0153   -0.2454    0.6219    0.1352    0.0704    0.0806
          29    0.0405   -0.0294    0.0291    0.3566    0.1606    0.3029    0.2060   -0.1798
          30   -0.0123    0.0026   -0.0184   -0.1311   -0.1346   -0.1848   -0.1263    0.1210
          31    0.0768   -0.0008   -0.0372   -0.2061   -0.1360    0.2031    0.4695    0.2214
          32   -0.1334    0.0024    0.0592    0.2152    0.1893    0.2294    0.1079   -0.2300
          33   -0.0564    0.0027    0.0305    0.0818    0.1134    0.3315    0.3543   -0.1056
          34    0.1096    0.2462   -0.1448    0.1149    0.0051    0.0023   -0.0005    0.0465
          35    0.0249   -0.1073    0.0413   -0.0336   -0.0046    0.0053   -0.0049   -0.0192
          36   -0.0130   -0.2204    0.0869   -0.0405   -0.0041    0.0099   -0.0054   -0.0119
          37   -0.0395    0.3116   -0.2366    0.0332    0.0080   -0.0353    0.0256   -0.0181
          38    0.0120    0.1307   -0.0470    0.0177    0.0022   -0.0070    0.0063   -0.0014
          39    0.0182    0.2643   -0.0962    0.0396    0.0061   -0.0174    0.0136    0.0094


   Root No.      25        26        27        28        29        30        31        32

                25 A      26 A      27 A      28 A      29 A      30 A      31 A      32 A   

                1775.0    2963.5    3049.0    3080.5    3083.9    3104.7    3179.1    3195.4
  
           1   -0.0158    0.1097   -0.0062    0.0058   -0.0014   -0.0050   -0.0018    0.0027
           2    0.0496    0.1580   -0.0095    0.0076   -0.0010   -0.0004    0.0017   -0.0006
           3    0.0590   -0.1917    0.0102   -0.0098    0.0000   -0.0022    0.0011   -0.0030
           4    0.0042    0.0035   -0.0089    0.0022    0.0007   -0.1567   -0.0003    0.0041
           5    0.0300   -0.0166   -0.2755    0.0038   -0.0050   -0.0506   -0.0013    0.0018
           6    0.0597    0.0063    0.1299    0.0012    0.0014   -0.1407   -0.0002    0.0034
           7    0.0058   -0.0090    0.0035    0.1537   -0.2160    0.0034   -0.0688    0.0001
           8   -0.0191   -0.0029    0.0024    0.0786   -0.1052    0.0007    0.1341   -0.0001
           9   -0.0095    0.0109   -0.0003   -0.2399   -0.1730   -0.0038    0.0021    0.0001
          10   -0.6742    0.0033   -0.0002   -0.0004   -0.0008    0.0000    0.0000   -0.1367
          11    0.0028   -0.0004   -0.0017    0.0012    0.0010   -0.0004   -0.0003   -0.0580
          12   -0.0104   -0.0028    0.0011    0.0004    0.0006   -0.0010   -0.0005   -0.1205
          13    0.6763   -0.0028   -0.0001    0.0000    0.0000   -0.0032   -0.0006   -0.1481
          14   -0.0071    0.0019   -0.0016    0.0002    0.0000   -0.0013    0.0002    0.0661
          15    0.0019    0.0006    0.0007    0.0001    0.0002   -0.0029    0.0004    0.1252
          16   -0.0168   -0.3889    0.0272   -0.0148    0.0001   -0.0020    0.0011   -0.0021
          17   -0.0249   -0.5613    0.0290   -0.0317    0.0023   -0.0016    0.0039   -0.0026
          18   -0.0139    0.6740   -0.0352    0.0306   -0.0042    0.0009   -0.0029    0.0029
          19    0.0152   -0.0109   -0.2815   -0.0025   -0.0032    0.2967    0.0004   -0.0049
          20   -0.0320    0.0196    0.3252    0.0043    0.0040   -0.4179   -0.0008    0.0063
          21   -0.0159   -0.0280   -0.4578   -0.0050   -0.0058    0.5204    0.0007   -0.0076
          22    0.0131    0.0132    0.3142   -0.0084    0.0054    0.2576    0.0015   -0.0049
          23    0.0068    0.0369    0.6406   -0.0151    0.0094    0.5925    0.0051   -0.0098
          24   -0.0345    0.0000    0.0020   -0.0001   -0.0001   -0.0326   -0.0003    0.0005
          25   -0.0002    0.0188   -0.0159   -0.2946    0.6970   -0.0083    0.5608   -0.0017
          26    0.0024    0.0058   -0.0010   -0.0202    0.0585   -0.0010    0.0747   -0.0003
          27    0.0010    0.0048   -0.0033   -0.0987    0.1193   -0.0024    0.1132   -0.0004
          28    0.0037   -0.0052    0.0003    0.0785    0.0452    0.0012   -0.0755    0.0002
          29   -0.0079   -0.0065   -0.0007    0.2162    0.2672    0.0044   -0.2285    0.0005
          30   -0.0019   -0.0207   -0.0017    0.3949    0.5706    0.0082   -0.5173    0.0013
          31   -0.0027    0.0170   -0.0042   -0.3144    0.0062   -0.0049   -0.2439    0.0005
          32    0.0047    0.0174   -0.0042   -0.4691    0.0388   -0.0064   -0.3182    0.0006
          33    0.0029   -0.0255    0.0059    0.5341   -0.0898    0.0071    0.3976   -0.0008
          34   -0.1042    0.0006    0.0007   -0.0001   -0.0003    0.0191    0.0005    0.4703
          35   -0.0707    0.0012   -0.0003    0.0001    0.0002    0.0082    0.0005    0.1999
          36   -0.1430    0.0002    0.0009   -0.0003    0.0002    0.0169    0.0007    0.4155
          37    0.1046   -0.0062    0.0007   -0.0006    0.0004   -0.0017    0.0018    0.5019
          38   -0.0720    0.0034   -0.0015    0.0003   -0.0002    0.0007   -0.0008   -0.2263
          39   -0.1424    0.0051    0.0001    0.0006   -0.0003    0.0013   -0.0016   -0.4293


   Root No.      33

                33 A   

                3215.8
  
           1   -0.0071
           2    0.0029
           3    0.0074
           4    0.0094
           5    0.0046
           6    0.0099
           7   -0.0002
           8    0.0000
           9   -0.0002
          10   -0.1857
          11   -0.0634
          12   -0.1326
          13    0.1784
          14   -0.0647
          15   -0.1218
          16    0.0009
          17    0.0024
          18   -0.0029
          19   -0.0048
          20    0.0072
          21   -0.0093
          22   -0.0042
          23   -0.0108
          24    0.0005
          25    0.0010
          26   -0.0001
          27    0.0000
          28   -0.0001
          29   -0.0004
          30   -0.0005
          31   -0.0003
          32   -0.0001
          33    0.0002
          34    0.4914
          35    0.2084
          36    0.4335
          37   -0.4660
          38    0.2099
          39    0.3980


          DESCRIPTION OF VIBRATIONS


 VIBRATION    1    1A       ATOM PAIR        ENERGY CONTRIBUTION    RADIAL
 FREQ.       166.99        C  3 --  H 10          +30.4% (361.6%)     0.0%
 T-DIPOLE    0.0120        C  3 --  H  9          +29.5% (356.7%)     0.1%
 TRAVEL      0.2548        C  3 --  H 11          +27.7% (345.3%)     0.1%
 RED. MASS   0.3046        C  2 --  C  4           +1.8% ( 86.9%)     0.0%
 EFF. MASS   6.2215

 VIBRATION    2    2A       ATOM PAIR        ENERGY CONTRIBUTION    RADIAL
 FREQ.       247.91        C  1 --  C  3          +15.3% (223.4%)     0.1%
 T-DIPOLE    0.0363        C  1 --  C  5          +10.3% (183.2%)     0.0%
 TRAVEL      0.0744        C  2 --  C  5           +9.1% (172.6%)     0.0%
 RED. MASS   1.4168        C  3 --  H  9           +8.9% (170.1%)    22.1%
 EFF. MASS  49.1329

 VIBRATION    3    3A       ATOM PAIR        ENERGY CONTRIBUTION    RADIAL
 FREQ.       341.80        C  1 --  C  3          +14.9% (172.9%)     0.0%
 T-DIPOLE    0.0531        C  2 --  C  4           +9.9% (140.8%)     0.0%
 TRAVEL      0.0797        C  1 --  C  2           +9.4% (137.6%)     0.4%
 RED. MASS   1.1272        C  3 --  H 11           +9.1% (135.1%)     6.8%
 EFF. MASS  31.0785

 VIBRATION    4    4A       ATOM PAIR        ENERGY CONTRIBUTION    RADIAL
 FREQ.       493.61        C  1 --  C  4          +11.7% (105.5%)     0.1%
 T-DIPOLE    0.1292        C  1 --  C  2          +10.9% (102.0%)     0.4%
 TRAVEL      0.0937        C  1 --  C  3          +10.7% (100.8%)     2.3%
 RED. MASS   0.8097        C  1 --  C  5           +9.8% ( 96.9%)    14.0%
 EFF. MASS  15.5497

 VIBRATION    5    5A       ATOM PAIR        ENERGY CONTRIBUTION    RADIAL
 FREQ.       765.42        C  5 --  H 13          +20.6% ( 77.2%)     2.3%
 T-DIPOLE    0.6226        C  4 --  H 12          +14.4% ( 64.4%)     1.6%
 TRAVEL      0.1411        C  1 --  C  5           +7.8% ( 47.6%)    86.0%
 RED. MASS   0.3763        C  2 --  C  4           +7.1% ( 45.4%)    82.7%
 EFF. MASS   4.4240

 VIBRATION    6    6A       ATOM PAIR        ENERGY CONTRIBUTION    RADIAL
 FREQ.       817.81        C  1 --  C  5          +14.5% ( 91.3%)    75.6%
 T-DIPOLE    0.3516        C  1 --  C  4          +12.2% ( 83.9%)     1.3%
 TRAVEL      0.0889        C  1 --  C  2           +9.3% ( 73.0%)    25.6%
 RED. MASS   0.9485        C  1 --  C  3           +8.9% ( 71.7%)    35.9%
 EFF. MASS  10.4380

 VIBRATION    7    7A       ATOM PAIR        ENERGY CONTRIBUTION    RADIAL
 FREQ.       884.81        C  1 --  C  2          +15.8% ( 81.8%)    89.4%
 T-DIPOLE    0.0356        C  2 --  C  5          +13.8% ( 76.5%)     5.1%
 TRAVEL      0.0905        C  2 --  C  4          +10.8% ( 67.6%)    36.8%
 RED. MASS   1.4347        C  2 --  H  8           +8.8% ( 60.9%)    25.3%
 EFF. MASS   9.2947

 VIBRATION    8    8A       ATOM PAIR        ENERGY CONTRIBUTION    RADIAL
 FREQ.       903.34        C  4 --  H 12          +23.1% ( 65.1%)     0.0%
 T-DIPOLE    0.1976        C  2 --  H  8          +18.2% ( 57.7%)     8.1%
 TRAVEL      0.1571        C  2 --  H  7          +17.6% ( 56.8%)    13.6%
 RED. MASS   0.3916        C  2 --  C  4           +8.8% ( 40.1%)     0.4%
 EFF. MASS   3.0259

 VIBRATION    9    9A       ATOM PAIR        ENERGY CONTRIBUTION    RADIAL
 FREQ.       936.97        C  4 --  C  5          +17.0% ( 76.3%)     0.1%
 T-DIPOLE    0.0744        C  2 --  C  4          +13.0% ( 66.8%)    99.1%
 TRAVEL      0.0963        C  1 --  C  4          +13.0% ( 66.7%)    84.2%
 RED. MASS   0.7990        C  4 --  H 12          +12.6% ( 65.7%)    55.8%
 EFF. MASS   7.7667

 VIBRATION   10   10A       ATOM PAIR        ENERGY CONTRIBUTION    RADIAL
 FREQ.       948.85        C  2 --  H  7          +19.2% ( 61.0%)    10.6%
 T-DIPOLE    0.0748        C  2 --  H  8          +19.1% ( 60.8%)     3.1%
 TRAVEL      0.1490        C  3 --  H 11          +13.9% ( 52.0%)    15.7%
 RED. MASS   0.2518        C  3 --  H  9           +7.5% ( 38.1%)     1.6%
 EFF. MASS   3.2016

 VIBRATION   11   11A       ATOM PAIR        ENERGY CONTRIBUTION    RADIAL
 FREQ.      1008.53        C  5 --  H 13          +13.8% ( 48.6%)     0.5%
 T-DIPOLE    0.1959        C  2 --  H  8          +13.3% ( 47.8%)    23.4%
 TRAVEL      0.1409        C  1 --  H  6          +11.6% ( 44.7%)     2.6%
 RED. MASS   0.2728        C  3 --  H 10          +10.5% ( 42.5%)    14.9%
 EFF. MASS   3.3692

 VIBRATION   12   12A       ATOM PAIR        ENERGY CONTRIBUTION    RADIAL
 FREQ.      1023.94        C  5 --  H 13          +25.7% ( 57.3%)     0.0%
 T-DIPOLE    0.1078        C  2 --  H  7          +20.4% ( 51.1%)     5.6%
 TRAVEL      0.1472        C  2 --  H  8          +11.4% ( 38.1%)     1.0%
 RED. MASS   0.4486        C  4 --  H 12          +10.4% ( 36.4%)     0.2%
 EFF. MASS   3.0398

 VIBRATION   13   13A       ATOM PAIR        ENERGY CONTRIBUTION    RADIAL
 FREQ.      1037.37        C  4 --  H 12          +27.5% ( 55.4%)     0.1%
 T-DIPOLE    0.0343        C  5 --  H 13          +21.0% ( 48.4%)     0.1%
 TRAVEL      0.1754        C  1 --  H  6          +19.2% ( 46.3%)     2.0%
 RED. MASS   0.2527        C  2 --  H  8           +5.4% ( 24.6%)     0.1%
 EFF. MASS   2.1127

 VIBRATION   14   14A       ATOM PAIR        ENERGY CONTRIBUTION    RADIAL
 FREQ.      1044.79        C  2 --  C  4           +9.5% ( 48.5%)    56.9%
 T-DIPOLE    0.0268        C  1 --  C  3           +9.2% ( 47.7%)    24.6%
 TRAVEL      0.1034        C  1 --  C  2           +9.1% ( 47.4%)    30.5%
 RED. MASS   0.4777        C  3 --  H  9           +8.8% ( 46.8%)    22.7%
 EFF. MASS   6.0417

 VIBRATION   15   15A       ATOM PAIR        ENERGY CONTRIBUTION    RADIAL
 FREQ.      1153.70        C  1 --  H  6          +28.9% ( 70.4%)    11.9%
 T-DIPOLE    0.0650        C  1 --  C  3          +19.2% ( 57.3%)    57.1%
 TRAVEL      0.1140        C  3 --  H 11          +11.2% ( 43.8%)    52.4%
 RED. MASS   0.7241        C  3 --  H 10           +7.8% ( 36.5%)     0.5%
 EFF. MASS   4.4981

 VIBRATION   16   16A       ATOM PAIR        ENERGY CONTRIBUTION    RADIAL
 FREQ.      1164.65        C  1 --  H  6          +17.6% ( 61.9%)     4.3%
 T-DIPOLE    0.0963        C  1 --  C  2          +15.6% ( 58.2%)    79.7%
 TRAVEL      0.0989        C  1 --  C  3          +11.7% ( 50.5%)    10.2%
 RED. MASS   1.2625        C  1 --  C  5           +9.2% ( 44.8%)     2.9%
 EFF. MASS   5.9233

 VIBRATION   17   17A       ATOM PAIR        ENERGY CONTRIBUTION    RADIAL
 FREQ.      1186.11        C  1 --  H  6          +15.9% ( 64.5%)     8.6%
 T-DIPOLE    0.0785        C  1 --  C  4          +14.7% ( 62.1%)    71.1%
 TRAVEL      0.0856        C  2 --  C  4          +10.2% ( 51.8%)    59.0%
 RED. MASS   1.1626        C  1 --  C  2          +10.0% ( 51.1%)     0.9%
 EFF. MASS   7.7540

 VIBRATION   18   18A       ATOM PAIR        ENERGY CONTRIBUTION    RADIAL
 FREQ.      1207.55        C  2 --  H  7          +17.9% ( 52.0%)     0.0%
 T-DIPOLE    0.0495        C  2 --  H  8          +16.9% ( 50.6%)     0.1%
 TRAVEL      0.1344        C  5 --  H 13          +15.5% ( 48.4%)     0.5%
 RED. MASS   0.4473        C  4 --  H 12          +12.9% ( 44.0%)     0.1%
 EFF. MASS   3.0915

 VIBRATION   19   19A       ATOM PAIR        ENERGY CONTRIBUTION    RADIAL
 FREQ.      1294.60        C  2 --  C  5          +20.9% ( 70.8%)    99.7%
 T-DIPOLE    0.1454        C  1 --  C  5          +11.5% ( 52.6%)    87.0%
 TRAVEL      0.0802        C  4 --  C  5          +11.0% ( 51.3%)     0.5%
 RED. MASS   1.6897        C  5 --  H 13          +10.4% ( 50.0%)     9.9%
 EFF. MASS   8.1050

 VIBRATION   20   20A       ATOM PAIR        ENERGY CONTRIBUTION    RADIAL
 FREQ.      1343.04        C  1 --  C  4          +17.8% ( 59.6%)    83.3%
 T-DIPOLE    0.1170        C  1 --  H  6          +13.7% ( 52.2%)     1.5%
 TRAVEL      0.0970        C  1 --  C  2          +12.3% ( 49.6%)    27.1%
 RED. MASS   1.1644        C  1 --  C  5          +11.1% ( 47.1%)    89.5%
 EFF. MASS   5.3414

 VIBRATION   21   21A       ATOM PAIR        ENERGY CONTRIBUTION    RADIAL
 FREQ.      1398.10        C  3 --  H 10          +40.8% ( 57.3%)     1.8%
 T-DIPOLE    0.0502        C  3 --  H  9          +37.2% ( 54.7%)     2.7%
 TRAVEL      0.1655        C  3 --  H 11           +7.8% ( 25.0%)    75.6%
 RED. MASS   0.4050        C  1 --  C  3           +6.2% ( 22.4%)    23.1%
 EFF. MASS   1.7616

 VIBRATION   22   22A       ATOM PAIR        ENERGY CONTRIBUTION    RADIAL
 FREQ.      1404.75        C  2 --  H  7          +21.6% ( 49.9%)     4.5%
 T-DIPOLE    0.0393        C  2 --  H  8          +21.4% ( 49.6%)     4.8%
 TRAVEL      0.1328        C  3 --  H 11          +14.2% ( 40.5%)     1.2%
 RED. MASS   0.3497        C  3 --  H 10          +10.2% ( 34.4%)     6.8%
 EFF. MASS   2.7222

 VIBRATION   23   23A       ATOM PAIR        ENERGY CONTRIBUTION    RADIAL
 FREQ.      1408.44        C  3 --  H 11          +28.5% ( 51.8%)     0.6%
 T-DIPOLE    0.0320        C  3 --  H  9          +18.1% ( 41.3%)     6.0%
 TRAVEL      0.1511        C  2 --  H  8          +13.8% ( 36.0%)     4.6%
 RED. MASS   0.2820        C  2 --  H  7          +13.6% ( 35.7%)     4.7%
 EFF. MASS   2.0973

 VIBRATION   24   24A       ATOM PAIR        ENERGY CONTRIBUTION    RADIAL
 FREQ.      1441.38        C  1 --  C  3          +22.6% ( 76.1%)    95.0%
 T-DIPOLE    0.1173        C  1 --  C  4          +11.6% ( 54.4%)    55.7%
 TRAVEL      0.0736        C  1 --  H  6          +11.5% ( 54.3%)     0.0%
 RED. MASS   2.5443        C  1 --  C  2          +10.7% ( 52.3%)    49.3%
 EFF. MASS   8.6245        C  3 --  H 11          +10.5% ( 51.9%)     3.2%

 VIBRATION   25   25A       ATOM PAIR        ENERGY CONTRIBUTION    RADIAL
 FREQ.      1775.04        C  4 --  C  5          +36.3% (102.1%)   100.0%
 T-DIPOLE    0.0594        C  1 --  C  5          +11.2% ( 56.7%)    59.4%
 TRAVEL      0.0563        C  2 --  C  4          +11.1% ( 56.4%)    58.7%
 RED. MASS   4.9987        C  2 --  C  5          +10.9% ( 56.0%)     0.1%
 EFF. MASS  11.9867        C  1 --  C  4          +10.9% ( 56.0%)     0.2%

 VIBRATION   26   26A       ATOM PAIR        ENERGY CONTRIBUTION    RADIAL
 FREQ.      2963.51        C  1 --  H  6          +95.3% ( 99.7%)   100.0%
 T-DIPOLE    0.0960        C  1 --  C  2           +1.0% ( 10.4%)    13.9%
 TRAVEL      0.1256        C  1 --  C  3           +1.0% ( 10.4%)    10.8%
 RED. MASS   0.9196        C  1 --  C  5           +1.0% ( 10.3%)    30.7%
 EFF. MASS   1.4416

 VIBRATION   27   27A       ATOM PAIR        ENERGY CONTRIBUTION    RADIAL
 FREQ.      3049.03        C  2 --  H  8          +53.9% ( 76.3%)    97.6%
 T-DIPOLE    0.0746        C  2 --  H  7          +42.6% ( 67.9%)    96.3%
 TRAVEL      0.1199        C  2 --  C  4           +1.1% ( 10.9%)     0.1%
 RED. MASS   0.5218        C  2 --  C  5           +1.1% ( 10.9%)     0.1%
 EFF. MASS   1.5393

 VIBRATION   28   28A       ATOM PAIR        ENERGY CONTRIBUTION    RADIAL
 FREQ.      3080.51        C  3 --  H 11          +64.7% ( 83.0%)    98.8%
 T-DIPOLE    0.0251        C  3 --  H 10          +22.9% ( 49.4%)    89.3%
 TRAVEL      0.1206        C  3 --  H  9          +11.1% ( 34.3%)    76.0%
 RED. MASS   0.5130        C  1 --  C  3           +1.0% ( 10.3%)     0.0%
 EFF. MASS   1.5055

 VIBRATION   29   29A       ATOM PAIR        ENERGY CONTRIBUTION    RADIAL
 FREQ.      3083.92        C  3 --  H  9          +54.2% ( 75.9%)    97.8%
 T-DIPOLE    0.0259        C  3 --  H 10          +43.0% ( 67.7%)    96.0%
 TRAVEL      0.1205        C  3 --  H 11           +1.8% ( 13.7%)    18.1%
 RED. MASS   0.5084        C  1 --  C  3           +1.0% ( 10.4%)     0.0%
 EFF. MASS   1.5070

 VIBRATION   30   30A       ATOM PAIR        ENERGY CONTRIBUTION    RADIAL
 FREQ.      3104.73        C  2 --  H  7          +55.1% ( 73.8%)    97.7%
 T-DIPOLE    0.1199        C  2 --  H  8          +42.7% ( 64.9%)    96.0%
 TRAVEL      0.1302        C  2 --  C  4           +0.7% (  8.3%)    99.1%
 RED. MASS   0.4898        C  1 --  C  2           +0.7% (  8.3%)    51.5%
 EFF. MASS   1.2815

 VIBRATION   31   31A       ATOM PAIR        ENERGY CONTRIBUTION    RADIAL
 FREQ.      3179.05        C  3 --  H  9          +34.0% ( 56.2%)    97.2%
 T-DIPOLE    0.0337        C  3 --  H 10          +33.2% ( 55.5%)    97.1%
 TRAVEL      0.1366        C  3 --  H 11          +32.5% ( 54.8%)    97.0%
 RED. MASS   0.3271        C  1 --  C  3           +0.3% (  5.2%)   100.0%
 EFF. MASS   1.1366

 VIBRATION   32   32A       ATOM PAIR        ENERGY CONTRIBUTION    RADIAL
 FREQ.      3195.38        C  5 --  H 13          +50.7% ( 72.9%)   100.0%
 T-DIPOLE    0.4762        C  4 --  H 12          +45.1% ( 68.8%)   100.0%
 TRAVEL      0.1200        C  4 --  C  5           +1.1% ( 10.6%)     0.1%
 RED. MASS   0.4663        C  1 --  C  5           +0.9% (  9.5%)    99.9%
 EFF. MASS   1.4643

 VIBRATION   33   33A       ATOM PAIR        ENERGY CONTRIBUTION    RADIAL
 FREQ.      3215.75        C  4 --  H 12          +49.0% ( 72.4%)    99.9%
 T-DIPOLE    0.3664        C  5 --  H 13          +43.6% ( 68.3%)    99.9%
 TRAVEL      0.1099        C  4 --  C  5           +3.0% ( 17.9%)   100.0%
 RED. MASS   0.4716        C  2 --  C  4           +1.2% ( 11.1%)    98.4%
 EFF. MASS   1.7367

 SYMMETRY NUMBER FOR POINT-GROUP C1  =  1


          SYSTEM IS A GROUND STATE


    NULL



          MOLECULE IS NOT LINEAR

          THERE ARE 33 GENUINE VIBRATIONS IN THIS SYSTEM
          THIS THERMODYNAMICS CALCULATION IS LIMITED TO
          MOLECULES WHICH HAVE NO INTERNAL ROTATIONS




                    CALCULATED THERMODYNAMIC PROPERTIES
                                          *
   TEMP. (K)   PARTITION FUNCTION   H.O.F.    ENTHALPY  HEAT CAPACITY ENTROPY
                                   KCAL/MOL   CAL/MOLE    CAL/K/MOL  CAL/K/MOL


 298.00  VIB.     0.4070D+01                  1456.3276    12.7130     7.6764
         ROT.     0.6484D+05                   888.2813     2.9808    24.9985
         INT.     0.2639D+06                  2344.6089    15.6938    32.6748
         TRA.     0.5435D+27                  1480.4688     4.9680    38.5714
         TOT.                       30.905    3825.0778    20.6618    71.2462

 200.00  VIB.     0.1967D+01                   522.7941     6.6501     3.9579
         ROT.     0.3565D+05                   596.1620     2.9808    23.8098
         INT.     0.7011D+05                  1118.9560     9.6309    27.7677
         TRA.     0.2988D+27                   993.6033     4.9680    36.5902
         TOT.                       29.192    2112.5593    14.5989    64.3580

 210.00  VIB.     0.2102D+01                   591.8796     7.1715     4.2949
         ROT.     0.3836D+05                   625.9700     2.9808    23.9552
         INT.     0.8064D+05                  1217.8496    10.1523    28.2501
         TRA.     0.3215D+27                  1043.2834     4.9680    36.8326
         TOT.                       29.341    2261.1331    15.1203    65.0828

 220.00  VIB.     0.2251D+01                   666.3117     7.7193     4.6411
         ROT.     0.4113D+05                   655.7781     2.9808    24.0939
         INT.     0.9259D+05                  1322.0898    10.7001    28.7350
         TRA.     0.3448D+27                  1092.9636     4.9680    37.0637
         TOT.                       29.494    2415.0534    15.6682    65.7987

 230.00  VIB.     0.2415D+01                   746.3514     8.2928     4.9968
         ROT.     0.4397D+05                   685.5862     2.9808    24.2264
         INT.     0.1062D+06                  1431.9377    11.2736    29.2232
         TRA.     0.3685D+27                  1142.6437     4.9680    37.2846
         TOT.                       29.654    2574.5814    16.2416    66.5077

 240.00  VIB.     0.2594D+01                   832.2474     8.8903     5.3622
         ROT.     0.4686D+05                   715.3943     2.9808    24.3533
         INT.     0.1216D+06                  1547.6417    11.8711    29.7155
         TRA.     0.3928D+27                  1192.3239     4.9680    37.4960
         TOT.                       29.819    2739.9656    16.8391    67.2115

 250.00  VIB.     0.2792D+01                   924.2303     9.5098     5.7377
         ROT.     0.4982D+05                   745.2024     2.9808    24.4750
         INT.     0.1391D+06                  1669.4327    12.4906    30.2126
         TRA.     0.4176D+27                  1242.0041     4.9680    37.6988
         TOT.                       29.991    2911.4368    17.4586    67.9114

 260.00  VIB.     0.3011D+01                  1022.5091    10.1491     6.1230
         ROT.     0.5284D+05                   775.0105     2.9808    24.5919
         INT.     0.1591D+06                  1797.5196    13.1299    30.7149
         TRA.     0.4430D+27                  1291.6842     4.9680    37.8937
         TOT.                       30.169    3089.2039    18.0979    68.6085

 270.00  VIB.     0.3252D+01                  1127.2687    10.8055     6.5183
         ROT.     0.5592D+05                   804.8186     2.9808    24.7044
         INT.     0.1818D+06                  1932.0874    13.7863    31.2227
         TRA.     0.4687D+27                  1341.3644     4.9680    38.0812
         TOT.                       30.353    3273.4518    18.7544    69.3038

 280.00  VIB.     0.3518D+01                  1238.6683    11.4766     6.9234
         ROT.     0.5906D+05                   834.6267     2.9808    24.8128
         INT.     0.2077D+06                  2073.2950    14.4574    31.7361
         TRA.     0.4950D+27                  1391.0445     4.9680    38.2618
         TOT.                       30.544    3464.3396    19.4254    69.9980

 290.00  VIB.     0.3812D+01                  1356.8407    12.1597     7.3380
         ROT.     0.6225D+05                   864.4348     2.9808    24.9174
         INT.     0.2373D+06                  2221.2755    15.1405    32.2554
         TRA.     0.5218D+27                  1440.7247     4.9680    38.4362
         TOT.                       30.741    3662.0002    20.1085    70.6915

 300.00  VIB.     0.4138D+01                  1481.8927    12.8521     7.7619
         ROT.     0.6550D+05                   894.2429     2.9808    25.0184
         INT.     0.2710D+06                  2376.1356    15.8329    32.7803
         TRA.     0.5490D+27                  1490.4049     4.9680    38.6046
         TOT.                       30.946    3866.5405    20.8009    71.3849

 310.00  VIB.     0.4499D+01                  1613.9059    13.5515     8.1947
         ROT.     0.6880D+05                   924.0510     2.9808    25.1162
         INT.     0.3095D+06                  2537.9570    16.5323    33.3108
         TRA.     0.5767D+27                  1540.0850     4.9680    38.7675
         TOT.                       31.157    4078.0420    21.5003    72.0783

 320.00  VIB.     0.4900D+01                  1752.9378    14.2555     8.6360
         ROT.     0.7215D+05                   953.8591     2.9808    25.2108
         INT.     0.3535D+06                  2706.7969    17.2363    33.8468
         TRA.     0.6048D+27                  1589.7652     4.9680    38.9252
         TOT.                       31.376    4296.5621    22.2043    72.7720

 330.00  VIB.     0.5345D+01                  1899.0231    14.9618     9.0855
         ROT.     0.7556D+05                   983.6672     2.9808    25.3025
         INT.     0.4039D+06                  2882.6903    17.9426    34.3880
         TRA.     0.6334D+27                  1639.4454     4.9680    39.0781
         TOT.                       31.602    4522.1356    22.9106    73.4661

 340.00  VIB.     0.5840D+01                  2052.1755    15.6686     9.5427
         ROT.     0.7902D+05                  1013.4753     2.9808    25.3915
         INT.     0.4615D+06                  3065.6508    18.6494    34.9342
         TRA.     0.6624D+27                  1689.1255     4.9680    39.2264
         TOT.                       31.834    4754.7764    23.6174    74.1606

 350.00  VIB.     0.6391D+01                  2212.3899    16.3739    10.0070
         ROT.     0.8253D+05                  1043.2834     2.9808    25.4779
         INT.     0.5274D+06                  3255.6733    19.3547    35.4849
         TRA.     0.6918D+27                  1738.8057     4.9680    39.3704
         TOT.                       32.074    4994.4790    24.3227    74.8553

 360.00  VIB.     0.7004D+01                  2379.6436    17.0762    10.4781
         ROT.     0.8610D+05                  1073.0915     2.9808    25.5619
         INT.     0.6030D+06                  3452.7351    20.0570    36.0400
         TRA.     0.7217D+27                  1788.4859     4.9680    39.5104
         TOT.                       32.321    5241.2210    25.0250    75.5504

 370.00  VIB.     0.7688D+01                  2553.8987    17.7740    10.9555
         ROT.     0.8971D+05                  1102.8996     2.9808    25.6436
         INT.     0.6896D+06                  3656.7983    20.7548    36.5991
         TRA.     0.7520D+27                  1838.1660     4.9680    39.6465
         TOT.                       32.574    5494.9643    25.7228    76.2456

 380.00  VIB.     0.8450D+01                  2735.1034    18.4659    11.4387
         ROT.     0.9337D+05                  1132.7077     2.9808    25.7230
         INT.     0.7890D+06                  3867.8111    21.4468    37.1618
         TRA.     0.7827D+27                  1887.8462     4.9680    39.7790
         TOT.                       32.835    5755.6573    26.4148    76.9408

 390.00  VIB.     0.9302D+01                  2923.1945    19.1510    11.9273
         ROT.     0.9708D+05                  1162.5158     2.9808    25.8005
         INT.     0.9030D+06                  4085.7104    22.1319    37.7278
         TRA.     0.8138D+27                  1937.5263     4.9680    39.9080
         TOT.                       33.103    6023.2367    27.0999    77.6358

 400.00  VIB.     0.1025D+02                  3118.0984    19.8283    12.4207
         ROT.     0.1008D+06                  1192.3239     2.9808    25.8759
         INT.     0.1034D+07                  4310.4223    22.8091    38.2966
         TRA.     0.8452D+27                  1987.2065     4.9680    40.0338
         TOT.                       33.377    6297.6288    27.7772    78.3304

   *: NOTE: HEATS OF FORMATION ARE RELATIVE TO THE
            ELEMENTS IN THEIR STANDARD STATE AT 298K
              (=  Standard Enthalpy of Formation).

            Hvib:  Zero-point energy is not included.
                   frequencies of less than zero cm-1 are not included.
            Hrot = (3/2)RT
            Htra = (3/2)RT + pV = (5/2)RT

            Heat capacity is Cp, not Cv

           For more information, see: HTTP://OpenMOPAC.net/Manual/thermochemistry.html


           FORCE CONSTANT IN CARTESIAN COORDINATES (Millidynes/A)

    ATOM   CHEMICAL       X               Y               Z
   NUMBER   SYMBOL  FORCE CONSTANT  FORCE CONSTANT  FORCE CONSTANT

      1       C        7.543833        8.657627        8.247244
      2       C        7.316041        8.393985        8.310963
      3       C        8.385664        8.487803        8.298110
      4       C       15.181630        3.624252        7.684968
      5       C       15.218121        3.683382        7.750827
      6       H        1.384616        2.135907        2.710990
      7       H        1.509151        2.047282        3.024918
      8       H        1.499349        4.412942        0.650642
      9       H        5.168258        0.741679        0.837650
     10       H        0.719924        1.564472        4.459191
     11       H        1.480950        2.336941        2.945393
     12       H        3.180491        0.854307        2.559400
     13       H        3.214563        0.927064        2.456925



 TOTAL CPU TIME:             0.57 SECONDS

 == MOPAC DONE ==
