 *******************************************************************************
 ** Site#: 14399           For non-commercial use only        Version 13.159M **
 *******************************************************************************
 ** Cite this work as: MOPAC2012, James J. P. Stewart, Stewart Computational  **
 ** Chemistry, Version 13.159M web: HTTP://OpenMOPAC.net  Days remaining:   6 **
 *******************************************************************************
 **                                                                           **
 **                                MOPAC2012                                  **
 **                                                                           **
 *******************************************************************************

                            PM3 CALCULATION RESULTS


 *******************************************************************************
 *  CALCULATION DONE:                                Mon Jun  2 11:09:50 2014  *
 *  PM3      - The PM3 Hamiltonian to be used
 *  PRECISE  - CRITERIA TO BE INCREASED BY 100 TIMES
 *  NOSYM    - POINT-GROUP SYMMETRY SET TO C1
 *  T=       - A TIME OF 172800.0 SECONDS REQUESTED
 *  DUMP=N   - RESTART FILE WRITTEN EVERY  7200.000 SECONDS
 *******************************************************************************
pm3  precise nosym
 InChI=1S/C11H16/c1-3-8-9(4-2)11-7-5-6-10(8)11/h3,5,7-11H,1,4,6H2,2H3

   ATOM   CHEMICAL          X               Y               Z
  NUMBER   SYMBOL      (ANGSTROMS)     (ANGSTROMS)     (ANGSTROMS)
 
     1       C         -0.86810000  *  -0.36640000  *   0.32470000  *
     2       C          1.09870000  *   0.45630000  *   0.70630000  *
     3       C          0.37800000  *  -0.80900000  *   1.16390000  *
     4       C         -0.01130000  *   0.76400000  *  -0.26080000  *
     5       C         -1.43530000  *  -1.37940000  *  -0.67990000  *
     6       C          2.43560000  *   0.01060000  *   0.09830000  *
     7       C         -2.60480000  *  -0.80840000  *  -1.47380000  *
     8       C          1.23270000  *  -1.91960000  *   0.64480000  *
     9       C          2.34380000  *  -1.47520000  *   0.07830000  *
    10       C         -0.60210000  *   2.14270000  *  -0.12380000  *
    11       C          0.08130000  *   3.23250000  *  -0.48050000  *
    12       H          1.21650000  *   1.19460000  *   1.53640000  *
    13       H         -1.66180000  *  -0.01480000  *   1.02810000  *
    14       H          0.20720000  *  -0.86190000  *   2.26440000  *
    15       H          0.26050000  *   0.57250000  *  -1.32740000  *
    16       H         -0.65330000  *  -1.72480000  *  -1.39530000  *
    17       H         -1.78980000  *  -2.27500000  *  -0.11950000  *
    18       H          3.28720000  *   0.30900000  *   0.75120000  *
    19       H          2.60750000  *   0.41850000  *  -0.92400000  *
    20       H         -2.28370000  *   0.07030000  *  -2.07820000  *
    21       H         -3.43170000  *  -0.49780000  *  -0.79530000  *
    22       H         -3.00080000  *  -1.58100000  *  -2.17120000  *
    23       H          3.10620000  *  -2.12830000  *  -0.34150000  *
    24       H          0.97980000  *  -2.97430000  *   0.73010000  *
    25       H         -1.61710000  *   2.26610000  *   0.25190000  *
    26       H          1.09520000  *   3.16100000  *  -0.87180000  *
    27       H         -0.37020000  *   4.21780000  *  -0.38260000  *
 


          CARTESIAN COORDINATES 

    NO.       ATOM         X         Y         Z

     1         C       -0.8681   -0.3664    0.3247
     2         C        1.0987    0.4563    0.7063
     3         C        0.3780   -0.8090    1.1639
     4         C       -0.0113    0.7640   -0.2608
     5         C       -1.4353   -1.3794   -0.6799
     6         C        2.4356    0.0106    0.0983
     7         C       -2.6048   -0.8084   -1.4738
     8         C        1.2327   -1.9196    0.6448
     9         C        2.3438   -1.4752    0.0783
    10         C       -0.6021    2.1427   -0.1238
    11         C        0.0813    3.2325   -0.4805
    12         H        1.2165    1.1946    1.5364
    13         H       -1.6618   -0.0148    1.0281
    14         H        0.2072   -0.8619    2.2644
    15         H        0.2605    0.5725   -1.3274
    16         H       -0.6533   -1.7248   -1.3953
    17         H       -1.7898   -2.2750   -0.1195
    18         H        3.2872    0.3090    0.7512
    19         H        2.6075    0.4185   -0.9240
    20         H       -2.2837    0.0703   -2.0782
    21         H       -3.4317   -0.4978   -0.7953
    22         H       -3.0008   -1.5810   -2.1712
    23         H        3.1062   -2.1283   -0.3415
    24         H        0.9798   -2.9743    0.7301
    25         H       -1.6171    2.2661    0.2519
    26         H        1.0952    3.1610   -0.8718
    27         H       -0.3702    4.2178   -0.3826

  H: (PM3): J. J. P. STEWART, J. COMP. CHEM. 10, 209 (1989).
  C: (PM3): J. J. P. STEWART, J. COMP. CHEM. 10, 209 (1989).

           Empirical Formula: C11 H16  =    27 atoms



      MOLECULAR POINT GROUP   :   C1  


      RHF CALCULATION, NO. OF DOUBLY OCCUPIED LEVELS =   30

      Geometry optimization using EF

          DIAGONAL MATRIX USED AS START HESSIAN

 CYCLE:     1 TIME:   0.014 TIME LEFT:  2.00D  GRAD.:   106.219 HEAT: 30.06315
 CYCLE:     2 TIME:   0.019 TIME LEFT:  2.00D  GRAD.:   122.480 HEAT: 29.60818
 CYCLE:     3 TIME:   0.011 TIME LEFT:  2.00D  GRAD.:   101.757 HEAT: 28.48813
 CYCLE:     4 TIME:   0.019 TIME LEFT:  2.00D  GRAD.:    43.408 HEAT: 26.36885
 CYCLE:     5 TIME:   0.019 TIME LEFT:  2.00D  GRAD.:    33.026 HEAT: 25.85749
 CYCLE:     6 TIME:   0.019 TIME LEFT:  2.00D  GRAD.:    23.339 HEAT: 25.64528
 CYCLE:     7 TIME:   0.010 TIME LEFT:  2.00D  GRAD.:    20.748 HEAT: 25.43931
 CYCLE:     8 TIME:   0.010 TIME LEFT:  2.00D  GRAD.:    34.231 HEAT: 25.37894
 CYCLE:     9 TIME:   0.010 TIME LEFT:  2.00D  GRAD.:    22.766 HEAT: 25.13380
 CYCLE:    10 TIME:   0.026 TIME LEFT:  2.00D  GRAD.:    10.345 HEAT: 25.01738
 CYCLE:    11 TIME:   0.010 TIME LEFT:  2.00D  GRAD.:    15.180 HEAT: 25.01155
 CYCLE:    12 TIME:   0.010 TIME LEFT:  2.00D  GRAD.:    13.236 HEAT: 24.96892
 CYCLE:    13 TIME:   0.010 TIME LEFT:  2.00D  GRAD.:    15.107 HEAT: 24.96266
 CYCLE:    14 TIME:   0.010 TIME LEFT:  2.00D  GRAD.:    15.928 HEAT: 24.95336
 CYCLE:    15 TIME:   0.010 TIME LEFT:  2.00D  GRAD.:    15.810 HEAT: 24.93551
 CYCLE:    16 TIME:   0.018 TIME LEFT:  2.00D  GRAD.:     5.931 HEAT: 24.87192
 CYCLE:    17 TIME:   0.018 TIME LEFT:  2.00D  GRAD.:     5.761 HEAT: 24.86318
 CYCLE:    18 TIME:   0.010 TIME LEFT:  2.00D  GRAD.:     4.041 HEAT: 24.84908
 CYCLE:    19 TIME:   0.010 TIME LEFT:  2.00D  GRAD.:     9.192 HEAT: 24.84619
 CYCLE:    20 TIME:   0.010 TIME LEFT:  2.00D  GRAD.:     7.210 HEAT: 24.82503
 CYCLE:    21 TIME:   0.010 TIME LEFT:  2.00D  GRAD.:    10.172 HEAT: 24.81883
 CYCLE:    22 TIME:   0.010 TIME LEFT:  2.00D  GRAD.:     7.155 HEAT: 24.80123
 CYCLE:    23 TIME:   0.018 TIME LEFT:  2.00D  GRAD.:     7.051 HEAT: 24.79084
 CYCLE:    24 TIME:   0.010 TIME LEFT:  2.00D  GRAD.:     5.793 HEAT: 24.78190
 CYCLE:    25 TIME:   0.010 TIME LEFT:  2.00D  GRAD.:     3.694 HEAT: 24.76899
 CYCLE:    26 TIME:   0.010 TIME LEFT:  2.00D  GRAD.:     3.474 HEAT: 24.75990
 CYCLE:    27 TIME:   0.010 TIME LEFT:  2.00D  GRAD.:     4.589 HEAT: 24.74254
 CYCLE:    28 TIME:   0.011 TIME LEFT:  2.00D  GRAD.:     5.516 HEAT: 24.72087
 CYCLE:    29 TIME:   0.010 TIME LEFT:  2.00D  GRAD.:     5.633 HEAT: 24.69649
 CYCLE:    30 TIME:   0.011 TIME LEFT:  2.00D  GRAD.:     8.109 HEAT: 24.68419
 CYCLE:    31 TIME:   0.010 TIME LEFT:  2.00D  GRAD.:     4.187 HEAT: 24.64855
 CYCLE:    32 TIME:   0.010 TIME LEFT:  2.00D  GRAD.:     5.392 HEAT: 24.62104
 CYCLE:    33 TIME:   0.010 TIME LEFT:  2.00D  GRAD.:     5.156 HEAT: 24.58892
 CYCLE:    34 TIME:   0.010 TIME LEFT:  2.00D  GRAD.:     5.511 HEAT: 24.56160
 CYCLE:    35 TIME:   0.010 TIME LEFT:  2.00D  GRAD.:     5.828 HEAT: 24.53794
 CYCLE:    36 TIME:   0.010 TIME LEFT:  2.00D  GRAD.:     4.799 HEAT: 24.51279
 CYCLE:    37 TIME:   0.010 TIME LEFT:  2.00D  GRAD.:     5.010 HEAT: 24.48207
 CYCLE:    38 TIME:   0.010 TIME LEFT:  2.00D  GRAD.:     6.585 HEAT: 24.47461
 CYCLE:    39 TIME:   0.010 TIME LEFT:  2.00D  GRAD.:     2.711 HEAT: 24.45817
 CYCLE:    40 TIME:   0.010 TIME LEFT:  2.00D  GRAD.:     3.172 HEAT: 24.45157
 CYCLE:    41 TIME:   0.010 TIME LEFT:  2.00D  GRAD.:     2.097 HEAT: 24.44217
 CYCLE:    42 TIME:   0.010 TIME LEFT:  2.00D  GRAD.:     2.201 HEAT: 24.42948
 CYCLE:    43 TIME:   0.010 TIME LEFT:  2.00D  GRAD.:     1.695 HEAT: 24.42501
 CYCLE:    44 TIME:   0.010 TIME LEFT:  2.00D  GRAD.:     1.867 HEAT: 24.41858
 CYCLE:    45 TIME:   0.010 TIME LEFT:  2.00D  GRAD.:     1.970 HEAT: 24.41160
 CYCLE:    46 TIME:   0.010 TIME LEFT:  2.00D  GRAD.:     1.561 HEAT: 24.40775
 CYCLE:    47 TIME:   0.010 TIME LEFT:  2.00D  GRAD.:     1.519 HEAT: 24.40334
 CYCLE:    48 TIME:   0.010 TIME LEFT:  2.00D  GRAD.:     1.880 HEAT: 24.39754
 CYCLE:    49 TIME:   0.010 TIME LEFT:  2.00D  GRAD.:     1.919 HEAT: 24.39234
 CYCLE:    50 TIME:   0.010 TIME LEFT:  2.00D  GRAD.:     1.240 HEAT: 24.38805
 CYCLE:    51 TIME:   0.010 TIME LEFT:  2.00D  GRAD.:     0.900 HEAT: 24.38533
 CYCLE:    52 TIME:   0.010 TIME LEFT:  2.00D  GRAD.:     0.899 HEAT: 24.38394
 CYCLE:    53 TIME:   0.010 TIME LEFT:  2.00D  GRAD.:     0.781 HEAT: 24.38287
 CYCLE:    54 TIME:   0.010 TIME LEFT:  2.00D  GRAD.:     0.712 HEAT: 24.38180
 CYCLE:    55 TIME:   0.010 TIME LEFT:  2.00D  GRAD.:     0.785 HEAT: 24.38049
 CYCLE:    56 TIME:   0.010 TIME LEFT:  2.00D  GRAD.:     0.798 HEAT: 24.37913
 CYCLE:    57 TIME:   0.010 TIME LEFT:  2.00D  GRAD.:     0.758 HEAT: 24.37781
 CYCLE:    58 TIME:   0.010 TIME LEFT:  2.00D  GRAD.:     0.821 HEAT: 24.37640
 CYCLE:    59 TIME:   0.010 TIME LEFT:  2.00D  GRAD.:     0.953 HEAT: 24.37487
 CYCLE:    60 TIME:   0.010 TIME LEFT:  2.00D  GRAD.:     0.978 HEAT: 24.37328
 CYCLE:    61 TIME:   0.010 TIME LEFT:  2.00D  GRAD.:     0.767 HEAT: 24.37164
 CYCLE:    62 TIME:   0.010 TIME LEFT:  2.00D  GRAD.:     0.584 HEAT: 24.37015
 CYCLE:    63 TIME:   0.010 TIME LEFT:  2.00D  GRAD.:     0.566 HEAT: 24.36922
 CYCLE:    64 TIME:   0.010 TIME LEFT:  2.00D  GRAD.:     0.488 HEAT: 24.36845
 CYCLE:    65 TIME:   0.010 TIME LEFT:  2.00D  GRAD.:     0.403 HEAT: 24.36787
 CYCLE:    66 TIME:   0.010 TIME LEFT:  2.00D  GRAD.:     0.406 HEAT: 24.36740
 CYCLE:    67 TIME:   0.010 TIME LEFT:  2.00D  GRAD.:     0.439 HEAT: 24.36692
 CYCLE:    68 TIME:   0.010 TIME LEFT:  2.00D  GRAD.:     0.472 HEAT: 24.36633
 CYCLE:    69 TIME:   0.010 TIME LEFT:  2.00D  GRAD.:     0.483 HEAT: 24.36568
 CYCLE:    70 TIME:   0.010 TIME LEFT:  2.00D  GRAD.:     0.481 HEAT: 24.36505
 CYCLE:    71 TIME:   0.010 TIME LEFT:  2.00D  GRAD.:     0.468 HEAT: 24.36450
 CYCLE:    72 TIME:   0.010 TIME LEFT:  2.00D  GRAD.:     0.457 HEAT: 24.36400
 CYCLE:    73 TIME:   0.010 TIME LEFT:  2.00D  GRAD.:     0.489 HEAT: 24.36337
 CYCLE:    74 TIME:   0.010 TIME LEFT:  2.00D  GRAD.:     0.638 HEAT: 24.36232
 CYCLE:    75 TIME:   0.010 TIME LEFT:  2.00D  GRAD.:     0.929 HEAT: 24.36062
 CYCLE:    76 TIME:   0.011 TIME LEFT:  2.00D  GRAD.:     1.183 HEAT: 24.35818
 CYCLE:    77 TIME:   0.011 TIME LEFT:  2.00D  GRAD.:     2.647 HEAT: 24.35340
 CYCLE:    78 TIME:   0.010 TIME LEFT:  2.00D  GRAD.:     1.703 HEAT: 24.34831
 CYCLE:    79 TIME:   0.011 TIME LEFT:  2.00D  GRAD.:     1.969 HEAT: 24.33617
 CYCLE:    80 TIME:   0.020 TIME LEFT:  2.00D  GRAD.:     5.770 HEAT: 24.32075
 CYCLE:    81 TIME:   0.019 TIME LEFT:  2.00D  GRAD.:     4.110 HEAT: 24.31003
 CYCLE:    82 TIME:   0.012 TIME LEFT:  2.00D  GRAD.:     2.119 HEAT: 24.29146
 CYCLE:    83 TIME:   0.010 TIME LEFT:  2.00D  GRAD.:     1.568 HEAT: 24.27857
 CYCLE:    84 TIME:   0.011 TIME LEFT:  2.00D  GRAD.:     2.396 HEAT: 24.26562
 CYCLE:    85 TIME:   0.011 TIME LEFT:  2.00D  GRAD.:     3.087 HEAT: 24.25198
 CYCLE:    86 TIME:   0.011 TIME LEFT:  2.00D  GRAD.:     5.156 HEAT: 24.23842
 CYCLE:    87 TIME:   0.010 TIME LEFT:  2.00D  GRAD.:     3.079 HEAT: 24.22451
 CYCLE:    88 TIME:   0.010 TIME LEFT:  2.00D  GRAD.:     5.597 HEAT: 24.21394
 CYCLE:    89 TIME:   0.027 TIME LEFT:  2.00D  GRAD.:     4.374 HEAT: 24.19823
 CYCLE:    90 TIME:   0.011 TIME LEFT:  2.00D  GRAD.:     1.947 HEAT: 24.18556
 CYCLE:    91 TIME:   0.016 TIME LEFT:  2.00D  GRAD.:     1.244 HEAT: 24.17615
 CYCLE:    92 TIME:   0.012 TIME LEFT:  2.00D  GRAD.:     3.931 HEAT: 24.16233
 CYCLE:    93 TIME:   0.011 TIME LEFT:  2.00D  GRAD.:     2.150 HEAT: 24.15532
 CYCLE:    94 TIME:   0.011 TIME LEFT:  2.00D  GRAD.:     1.203 HEAT: 24.14376
 CYCLE:    95 TIME:   0.013 TIME LEFT:  2.00D  GRAD.:     1.336 HEAT: 24.14064
 CYCLE:    96 TIME:   0.017 TIME LEFT:  2.00D  GRAD.:     1.065 HEAT: 24.13825
 CYCLE:    97 TIME:   0.014 TIME LEFT:  2.00D  GRAD.:     0.674 HEAT: 24.13645
 CYCLE:    98 TIME:   0.015 TIME LEFT:  2.00D  GRAD.:     0.593 HEAT: 24.13495
 CYCLE:    99 TIME:   0.011 TIME LEFT:  2.00D  GRAD.:     0.741 HEAT: 24.13383
 CYCLE:   100 TIME:   0.015 TIME LEFT:  2.00D  GRAD.:     0.658 HEAT: 24.13314
 CYCLE:   101 TIME:   0.010 TIME LEFT:  2.00D  GRAD.:     0.617 HEAT: 24.13246
 CYCLE:   102 TIME:   0.010 TIME LEFT:  2.00D  GRAD.:     0.596 HEAT: 24.13174
 CYCLE:   103 TIME:   0.011 TIME LEFT:  2.00D  GRAD.:     0.433 HEAT: 24.13118
 CYCLE:   104 TIME:   0.010 TIME LEFT:  2.00D  GRAD.:     0.347 HEAT: 24.13088
 CYCLE:   105 TIME:   0.011 TIME LEFT:  2.00D  GRAD.:     0.281 HEAT: 24.13067
 CYCLE:   106 TIME:   0.014 TIME LEFT:  2.00D  GRAD.:     0.316 HEAT: 24.13053
 CYCLE:   107 TIME:   0.016 TIME LEFT:  2.00D  GRAD.:     0.224 HEAT: 24.13041
 CYCLE:   108 TIME:   0.012 TIME LEFT:  2.00D  GRAD.:     0.222 HEAT: 24.13033
 CYCLE:   109 TIME:   0.014 TIME LEFT:  2.00D  GRAD.:     0.160 HEAT: 24.13028
 CYCLE:   110 TIME:   0.015 TIME LEFT:  2.00D  GRAD.:     0.166 HEAT: 24.13023
 CYCLE:   111 TIME:   0.010 TIME LEFT:  2.00D  GRAD.:     0.152 HEAT: 24.13018
 CYCLE:   112 TIME:   0.010 TIME LEFT:  2.00D  GRAD.:     0.185 HEAT: 24.13008
 CYCLE:   113 TIME:   0.014 TIME LEFT:  2.00D  GRAD.:     0.242 HEAT: 24.12995
 CYCLE:   114 TIME:   0.011 TIME LEFT:  2.00D  GRAD.:     0.417 HEAT: 24.12973
 CYCLE:   115 TIME:   0.010 TIME LEFT:  2.00D  GRAD.:     0.331 HEAT: 24.12956
 CYCLE:   116 TIME:   0.014 TIME LEFT:  2.00D  GRAD.:     0.335 HEAT: 24.12917
 CYCLE:   117 TIME:   0.011 TIME LEFT:  2.00D  GRAD.:     0.195 HEAT: 24.12906
 CYCLE:   118 TIME:   0.015 TIME LEFT:  2.00D  GRAD.:     0.142 HEAT: 24.12896
 CYCLE:   119 TIME:   0.012 TIME LEFT:  2.00D  GRAD.:     0.138 HEAT: 24.12891
 CYCLE:   120 TIME:   0.014 TIME LEFT:  2.00D  GRAD.:     0.225 HEAT: 24.12881
 CYCLE:   121 TIME:   0.011 TIME LEFT:  2.00D  GRAD.:     0.166 HEAT: 24.12876
 CYCLE:   122 TIME:   0.010 TIME LEFT:  2.00D  GRAD.:     0.138 HEAT: 24.12866
 CYCLE:   123 TIME:   0.010 TIME LEFT:  2.00D  GRAD.:     0.179 HEAT: 24.12855
 CYCLE:   124 TIME:   0.011 TIME LEFT:  2.00D  GRAD.:     0.252 HEAT: 24.12838
 CYCLE:   125 TIME:   0.014 TIME LEFT:  2.00D  GRAD.:     0.263 HEAT: 24.12817
 CYCLE:   126 TIME:   0.015 TIME LEFT:  2.00D  GRAD.:     0.300 HEAT: 24.12793
 CYCLE:   127 TIME:   0.012 TIME LEFT:  2.00D  GRAD.:     0.218 HEAT: 24.12779
 CYCLE:   128 TIME:   0.016 TIME LEFT:  2.00D  GRAD.:     0.130 HEAT: 24.12759
 CYCLE:   129 TIME:   0.014 TIME LEFT:  2.00D  GRAD.:     0.109 HEAT: 24.12755
 CYCLE:   130 TIME:   0.014 TIME LEFT:  2.00D  GRAD.:     0.086 HEAT: 24.12750
 CYCLE:   131 TIME:   0.010 TIME LEFT:  2.00D  GRAD.:     0.067 HEAT: 24.12749
 CYCLE:   132 TIME:   0.014 TIME LEFT:  2.00D  GRAD.:     0.427 HEAT: 24.12779
 CYCLE:   133 TIME:   0.015 TIME LEFT:  2.00D  GRAD.:     0.044 HEAT: 24.12746

     RMS GRADIENT =  0.04444  IS LESS THAN CUTOFF =  0.05000



 -------------------------------------------------------------------------------
pm3  precise nosym
 InChI=1S/C11H16/c1-3-8-9(4-2)11-7-5-6-10(8)11/h3,5,7-11H,1,4,6H2,2H3



     GEOMETRY OPTIMISED USING EIGENVECTOR FOLLOWING (EF).     
     SCF FIELD WAS ACHIEVED                                   


                              PM3 CALCULATION
                                                       MOPAC2012 (Version: 13.159M)
                                                       Mon Jun  2 11:09:52 2014
                                                       No. of days left =   6




          FINAL HEAT OF FORMATION =         24.12746 KCAL/MOL =     100.94930 KJ/MOL


          TOTAL ENERGY            =      -1549.32117 EV
          ELECTRONIC ENERGY       =      -9460.43349 EV  POINT GROUP:     C1  
          CORE-CORE REPULSION     =       7911.11233 EV
          COSMO AREA              =        199.32 SQUARE ANGSTROMS
          COSMO VOLUME            =        214.53 CUBIC ANGSTROMS

          GRADIENT NORM           =          0.04444
          IONIZATION POTENTIAL    =          9.615294 EV
          HOMO LUMO ENERGIES (EV) =         -9.615  1.053
          NO. OF FILLED LEVELS    =         30
          MOLECULAR WEIGHT        =        148.247

          MOLECULAR DIMENSIONS (Angstroms)

            Atom       Atom       Distance
            H    27    H    23     7.54392
            H    27    H    24     7.46806
            H    19    H    14     3.71522


          SCF CALCULATIONS        =        147
          COMPUTATION TIME        =          1.584 SECONDS




   ATOM   CHEMICAL          X               Y               Z
  NUMBER   SYMBOL      (ANGSTROMS)     (ANGSTROMS)     (ANGSTROMS)
 
     1       C         -0.85194290  *  -0.32287749  *   0.29292733  *
     2       C          1.16965046  *   0.50794398  *   0.56899800  *
     3       C          0.37105213  *  -0.68996875  *   1.17571071  *
     4       C         -0.02445452  *   0.82200971  *  -0.37031947  *
     5       C         -1.35662361  *  -1.39702318  *  -0.64617264  *
     6       C          2.40838769  *  -0.09789643  *  -0.09375254  *
     7       C         -2.53026355  *  -0.91353575  *  -1.46844092  *
     8       C          1.15516253  *  -1.90088749  *   0.78718685  *
     9       C          2.26559509  *  -1.57632773  *   0.11162035  *
    10       C         -0.63571762  *   2.16895474  *  -0.26133611  *
    11       C          0.05521827  *   3.29053380  *  -0.09571890  *
    12       H          1.41830884  *   1.32755969  *   1.26930966  *
    13       H         -1.69776811  *   0.06546077  *   0.90234900  *
    14       H          0.17372078  *  -0.65851456  *   2.26340697  *
    15       H          0.19764641  *   0.62814850  *  -1.44415268  *
    16       H         -0.53720703  *  -1.73744186  *  -1.31147982  *
    17       H         -1.64553080  *  -2.28735884  *  -0.05299131  *
    18       H          3.34360526  *   0.27029938  *   0.36665188  *
    19       H          2.47361418  *   0.15054705  *  -1.16968316  *
    20       H         -2.26607517  *  -0.02662538  *  -2.06072852  *
    21       H         -3.38480501  *  -0.63901157  *  -0.83558924  *
    22       H         -2.87315464  *  -1.68750945  *  -2.16649635  *
    23       H          3.01571138  *  -2.26935093  *  -0.26873230  *
    24       H          0.82191887  *  -2.90358632  *   1.05306040  *
    25       H         -1.72938241  *   2.18840983  *  -0.35502766  *
    26       H          1.13776038  *   3.31751913  *  -0.00345616  *
    27       H         -0.41921194  *   4.26551782  *  -0.04219648  *

           Empirical Formula: C11 H16  =    27 atoms



      MOLECULAR POINT GROUP   :   C1  


                  EIGENVALUES  
 -42.94914 -35.37720 -33.85457 -29.71456 -28.03248 -24.41153 -23.54470 -20.96744
 -19.91839 -18.65808 -18.01360 -17.54764 -16.45069 -15.97592 -15.33144 -15.00973
 -14.31258 -14.16877 -13.91602 -13.39785 -12.89594 -12.75907 -12.56799 -12.09310
 -11.92563 -11.77853 -11.69752 -11.12608 -10.08252  -9.61529   1.05326   1.17067
   3.16293   3.23977   3.33996   3.45942   3.56999   3.68652   3.74126   3.85937
   3.94473   3.96727   4.03653   4.08766   4.20860   4.26672   4.32620   4.38913
   4.41507   4.54317   4.70685   4.90708   4.98681   5.02686   5.27009   5.35778
   5.70519   5.73700   5.92435   5.98220


              NET ATOMIC CHARGES AND DIPOLE CONTRIBUTIONS

  ATOM NO.   TYPE          CHARGE      No. of ELECS.   s-Pop       p-Pop       
    1          C          -0.077617        4.0776     1.19472     2.88290
    2          C          -0.097447        4.0974     1.19990     2.89755
    3          C          -0.062298        4.0623     1.18720     2.87510
    4          C          -0.061925        4.0619     1.18383     2.87810
    5          C          -0.093130        4.0931     1.15638     2.93675
    6          C          -0.058275        4.0583     1.15341     2.90487
    7          C          -0.110412        4.1104     1.13832     2.97210
    8          C          -0.143954        4.1440     1.19894     2.94501
    9          C          -0.149063        4.1491     1.20447     2.94460
   10          C          -0.125880        4.1259     1.19343     2.93245
   11          C          -0.171351        4.1714     1.18108     2.99027
   12          H           0.084367        0.9156     0.91563
   13          H           0.074027        0.9260     0.92597
   14          H           0.080040        0.9200     0.91996
   15          H           0.086910        0.9131     0.91309
   16          H           0.057909        0.9421     0.94209
   17          H           0.051305        0.9487     0.94870
   18          H           0.055818        0.9442     0.94418
   19          H           0.061504        0.9385     0.93850
   20          H           0.039880        0.9601     0.96012
   21          H           0.037063        0.9629     0.96294
   22          H           0.037711        0.9623     0.96229
   23          H           0.109240        0.8908     0.89076
   24          H           0.113171        0.8868     0.88683
   25          H           0.098629        0.9014     0.90137
   26          H           0.083775        0.9162     0.91623
   27          H           0.080002        0.9200     0.92000
 DIPOLE           X         Y         Z       TOTAL
 POINT-CHG.     0.001    -0.138    -0.123     0.185
 HYBRID         0.000     0.016    -0.026     0.031
 SUM            0.001    -0.122    -0.149     0.193


          ATOMIC ORBITAL ELECTRON POPULATIONS

    Atom      s        px        py        pz   
    1  C   1.19472   0.95925   0.95710   0.96655
    2  C   1.19990   0.93764   0.98072   0.97920
    3  C   1.18720   0.95685   0.93426   0.98399
    4  C   1.18383   0.95682   0.93151   0.98977
    5  C   1.15638   0.98192   0.97354   0.98130
    6  C   1.15341   0.96858   0.93622   1.00007
    7  C   1.13832   0.97400   1.00543   0.99266
    8  C   1.19894   0.96873   0.97768   0.99860
    9  C   1.20447   0.98135   0.96868   0.99457
   10  C   1.19343   0.98969   0.94909   0.99368
   11  C   1.18108   1.00089   0.96930   1.02008
   12  H   0.91563
   13  H   0.92597
   14  H   0.91996
   15  H   0.91309
   16  H   0.94209
   17  H   0.94870
   18  H   0.94418
   19  H   0.93850
   20  H   0.96012
   21  H   0.96294
   22  H   0.96229
   23  H   0.89076
   24  H   0.88683
   25  H   0.90137
   26  H   0.91623
   27  H   0.92000
 *******************************************************************************
 ** Site#: 14399           For non-commercial use only        Version 13.159M **
 *******************************************************************************
 ** Cite this work as: MOPAC2012, James J. P. Stewart, Stewart Computational  **
 ** Chemistry, Version 13.159M web: HTTP://OpenMOPAC.net  Days remaining:   6 **
 *******************************************************************************
 **                                                                           **
 **                                MOPAC2012                                  **
 **                                                                           **
 *******************************************************************************

                            PM3 CALCULATION RESULTS


 *******************************************************************************
 *  CALCULATION DONE:                                Mon Jun  2 11:09:52 2014  *
 *  PM3      - The PM3 Hamiltonian to be used
 *  OLDGEO   - PREVIOUS GEOMETRY TO BE USED
 *  PRECISE  - CRITERIA TO BE INCREASED BY 100 TIMES
 *  NOSYM    - POINT-GROUP SYMMETRY SET TO C1
 *  T=       - A TIME OF 172800.0 SECONDS REQUESTED
 *  DUMP=N   - RESTART FILE WRITTEN EVERY  7200.000 SECONDS
 *  THERMO   - THERMODYNAMIC QUANTITIES TO BE CALCULATED
 *******************************************************************************
oldgeo thermo nosym precise  pm3

   ATOM   CHEMICAL          X               Y               Z
  NUMBER   SYMBOL      (ANGSTROMS)     (ANGSTROMS)     (ANGSTROMS)
 
     1       C         -0.85194290  *  -0.32287749  *   0.29292733  *
     2       C          1.16965046  *   0.50794398  *   0.56899800  *
     3       C          0.37105213  *  -0.68996875  *   1.17571071  *
     4       C         -0.02445452  *   0.82200971  *  -0.37031947  *
     5       C         -1.35662361  *  -1.39702318  *  -0.64617264  *
     6       C          2.40838769  *  -0.09789643  *  -0.09375254  *
     7       C         -2.53026355  *  -0.91353575  *  -1.46844092  *
     8       C          1.15516253  *  -1.90088749  *   0.78718685  *
     9       C          2.26559509  *  -1.57632773  *   0.11162035  *
    10       C         -0.63571762  *   2.16895474  *  -0.26133611  *
    11       C          0.05521827  *   3.29053380  *  -0.09571890  *
    12       H          1.41830884  *   1.32755969  *   1.26930966  *
    13       H         -1.69776811  *   0.06546077  *   0.90234900  *
    14       H          0.17372078  *  -0.65851456  *   2.26340697  *
    15       H          0.19764641  *   0.62814850  *  -1.44415268  *
    16       H         -0.53720703  *  -1.73744186  *  -1.31147982  *
    17       H         -1.64553080  *  -2.28735884  *  -0.05299131  *
    18       H          3.34360526  *   0.27029938  *   0.36665188  *
    19       H          2.47361418  *   0.15054705  *  -1.16968316  *
    20       H         -2.26607517  *  -0.02662538  *  -2.06072852  *
    21       H         -3.38480501  *  -0.63901157  *  -0.83558924  *
    22       H         -2.87315464  *  -1.68750945  *  -2.16649635  *
    23       H          3.01571138  *  -2.26935093  *  -0.26873230  *
    24       H          0.82191887  *  -2.90358632  *   1.05306040  *
    25       H         -1.72938241  *   2.18840983  *  -0.35502766  *
    26       H          1.13776038  *   3.31751913  *  -0.00345616  *
    27       H         -0.41921194  *   4.26551782  *  -0.04219648  *
 


          CARTESIAN COORDINATES 

    NO.       ATOM         X         Y         Z

     1         C       -0.8519   -0.3229    0.2929
     2         C        1.1697    0.5079    0.5690
     3         C        0.3711   -0.6900    1.1757
     4         C       -0.0245    0.8220   -0.3703
     5         C       -1.3566   -1.3970   -0.6462
     6         C        2.4084   -0.0979   -0.0938
     7         C       -2.5303   -0.9135   -1.4684
     8         C        1.1552   -1.9009    0.7872
     9         C        2.2656   -1.5763    0.1116
    10         C       -0.6357    2.1690   -0.2613
    11         C        0.0552    3.2905   -0.0957
    12         H        1.4183    1.3276    1.2693
    13         H       -1.6978    0.0655    0.9023
    14         H        0.1737   -0.6585    2.2634
    15         H        0.1976    0.6281   -1.4442
    16         H       -0.5372   -1.7374   -1.3115
    17         H       -1.6455   -2.2874   -0.0530
    18         H        3.3436    0.2703    0.3667
    19         H        2.4736    0.1505   -1.1697
    20         H       -2.2661   -0.0266   -2.0607
    21         H       -3.3848   -0.6390   -0.8356
    22         H       -2.8732   -1.6875   -2.1665
    23         H        3.0157   -2.2694   -0.2687
    24         H        0.8219   -2.9036    1.0531
    25         H       -1.7294    2.1884   -0.3550
    26         H        1.1378    3.3175   -0.0035
    27         H       -0.4192    4.2655   -0.0422

  H: (PM3): J. J. P. STEWART, J. COMP. CHEM. 10, 209 (1989).
  C: (PM3): J. J. P. STEWART, J. COMP. CHEM. 10, 209 (1989).

           Empirical Formula: C11 H16  =    27 atoms



      MOLECULAR POINT GROUP   :   C1  


      RHF CALCULATION, NO. OF DOUBLY OCCUPIED LEVELS =   30



          HEAT OF FORMATION =      24.127462 KCALS/MOLE


          INTERNAL COORDINATE DERIVATIVES

   NUMBER  ATOM       BOND         ANGLE      DIHEDRAL

     1       C     -0.003071     0.000657    -0.001240
     2       C     -0.003761     0.000230    -0.001881
     3       C      0.000101     0.000145     0.000873
     4       C     -0.002708    -0.000228    -0.001948
     5       C     -0.002197    -0.001128     0.000323
     6       C     -0.007300    -0.000938    -0.002065
     7       C     -0.002844    -0.000431    -0.006131
     8       C      0.004778     0.000245     0.001070
     9       C     -0.002143    -0.000695    -0.002163
    10       C     -0.014467     0.010739    -0.006747
    11       C      0.006398    -0.006987    -0.006687
    12       H      0.003716     0.000145     0.001220
    13       H     -0.005667    -0.002055    -0.002079
    14       H      0.002232    -0.000789    -0.001113
    15       H     -0.003003     0.000935     0.000247
    16       H     -0.009712     0.000954     0.001942
    17       H      0.013752     0.004817     0.006578
    18       H     -0.008152    -0.000298    -0.001562
    19       H      0.001706     0.004463     0.001390
    20       H      0.006753     0.007458     0.004780
    21       H     -0.002153    -0.005530     0.003102
    22       H     -0.001183    -0.003286    -0.002630
    23       H      0.004698    -0.003225     0.000083
    24       H      0.000623     0.001690     0.003581
    25       H      0.014414    -0.001313     0.008492
    26       H      0.012878    -0.005730     0.003882
    27       H     -0.003690     0.000154    -0.001319


          GRADIENT NORM =   0.04425


          TIME FOR SCF CALCULATION =    0.01

          TIME FOR DERIVATIVES     =    0.01

          MOLECULAR WEIGHT =  148.25



          ROTATIONAL CONSTANTS IN CM(-1)

          A =    0.04209371   B =    0.03702202   C =    0.02265615



           PRINCIPAL MOMENTS OF INERTIA IN UNITS OF 10**(-40)*GRAM-CM**2

          A =      665.0108   B =      756.1115   C =     1235.5484


          ORIENTATION OF MOLECULE IN FORCE CALCULATION

    NO.       ATOM         X         Y         Z

     1          C      -0.9986    0.2394   -0.3891
     2          C       1.2044    0.2394   -0.3891
     3          C       0.0959    1.3403   -0.3891
     4          C       0.1094   -0.8564   -0.3065
     5          C      -1.9845    0.2640    0.7589
     6          C       2.0296    0.4658    0.8792
     7          C      -2.9822   -0.8685    0.6626
     8          C       0.3101    2.0907    0.8850
     9          C       1.3668    1.6238    1.5633
    10          C       0.0701   -1.8582   -1.3995
    11          C       1.1479   -2.4033   -1.9510
    12          H       1.8295    0.1825   -1.3002
    13          H      -1.5519    0.2091   -1.3537
    14          H       0.0630    2.0155   -1.2643
    15          H       0.1056   -1.4023    0.6641
    16          H      -1.4443    0.2173    1.7264
    17          H      -2.5110    1.2391    0.7606
    18          H       3.0844    0.7025    0.6477
    19          H       2.0484   -0.4260    1.5335
    20          H      -2.4795   -1.8455    0.6537
    21          H      -3.5835   -0.8041   -0.2541
    22          H      -3.6762   -0.8611    1.5124
    23          H       1.7461    2.0061    2.5107
    24          H      -0.3406    2.9149    1.1758
    25          H      -0.9379   -2.1527   -1.7197
    26          H       2.1630   -2.1449   -1.6613
    27          H       1.0869   -3.1519   -2.7348


    FIRST DERIVATIVES WILL BE USED IN THE CALCULATION OF SECOND DERIVATIVES

          ESTIMATED TIME TO COMPLETE CALCULATION =        4.69 SECONDS

    FOR POINT-GROUP C1   THERE ARE   1 UNIQUE SYMMETRY FUNCTIONS.

 STEP:   1 TIME =     0.04 SECS, INTEGRAL =      0.04 TIME LEFT: 172799.94
 STEP:   2 TIME =     0.05 SECS, INTEGRAL =      0.09 TIME LEFT: 172799.89
 STEP:   3 TIME =     0.04 SECS, INTEGRAL =      0.14 TIME LEFT: 172799.85
 STEP:   4 TIME =     0.04 SECS, INTEGRAL =      0.18 TIME LEFT: 172799.80
 STEP:   5 TIME =     0.05 SECS, INTEGRAL =      0.23 TIME LEFT: 172799.76
 STEP:   6 TIME =     0.04 SECS, INTEGRAL =      0.27 TIME LEFT: 172799.72
 STEP:   7 TIME =     0.05 SECS, INTEGRAL =      0.32 TIME LEFT: 172799.67
 STEP:   8 TIME =     0.04 SECS, INTEGRAL =      0.36 TIME LEFT: 172799.63
 STEP:   9 TIME =     0.05 SECS, INTEGRAL =      0.41 TIME LEFT: 172799.58
 STEP:  10 TIME =     0.05 SECS, INTEGRAL =      0.45 TIME LEFT: 172799.53
 STEP:  11 TIME =     0.04 SECS, INTEGRAL =      0.50 TIME LEFT: 172799.49
 STEP:  12 TIME =     0.04 SECS, INTEGRAL =      0.54 TIME LEFT: 172799.44
 STEP:  13 TIME =     0.05 SECS, INTEGRAL =      0.59 TIME LEFT: 172799.40
 STEP:  14 TIME =     0.04 SECS, INTEGRAL =      0.63 TIME LEFT: 172799.35
 STEP:  15 TIME =     0.04 SECS, INTEGRAL =      0.68 TIME LEFT: 172799.31
 STEP:  16 TIME =     0.05 SECS, INTEGRAL =      0.72 TIME LEFT: 172799.26
 STEP:  17 TIME =     0.04 SECS, INTEGRAL =      0.77 TIME LEFT: 172799.22
 STEP:  18 TIME =     0.04 SECS, INTEGRAL =      0.81 TIME LEFT: 172799.17
 STEP:  19 TIME =     0.04 SECS, INTEGRAL =      0.86 TIME LEFT: 172799.13
 STEP:  20 TIME =     0.04 SECS, INTEGRAL =      0.90 TIME LEFT: 172799.09
 STEP:  21 TIME =     0.04 SECS, INTEGRAL =      0.94 TIME LEFT: 172799.04
 STEP:  22 TIME =     0.05 SECS, INTEGRAL =      1.00 TIME LEFT: 172798.99
 STEP:  23 TIME =     0.05 SECS, INTEGRAL =      1.05 TIME LEFT: 172798.94
 STEP:  24 TIME =     0.05 SECS, INTEGRAL =      1.09 TIME LEFT: 172798.89
 STEP:  25 TIME =     0.05 SECS, INTEGRAL =      1.14 TIME LEFT: 172798.85
 STEP:  26 TIME =     0.05 SECS, INTEGRAL =      1.18 TIME LEFT: 172798.80
 STEP:  27 TIME =     0.05 SECS, INTEGRAL =      1.23 TIME LEFT: 172798.76
 STEP:  28 TIME =     0.04 SECS, INTEGRAL =      1.28 TIME LEFT: 172798.71
 STEP:  29 TIME =     0.05 SECS, INTEGRAL =      1.32 TIME LEFT: 172798.66
 STEP:  30 TIME =     0.05 SECS, INTEGRAL =      1.37 TIME LEFT: 172798.62
 STEP:  31 TIME =     0.04 SECS, INTEGRAL =      1.41 TIME LEFT: 172798.57
 STEP:  32 TIME =     0.05 SECS, INTEGRAL =      1.46 TIME LEFT: 172798.53
 STEP:  33 TIME =     0.05 SECS, INTEGRAL =      1.50 TIME LEFT: 172798.48
 STEP:  34 TIME =     0.05 SECS, INTEGRAL =      1.55 TIME LEFT: 172798.44
 STEP:  35 TIME =     0.05 SECS, INTEGRAL =      1.59 TIME LEFT: 172798.39
 STEP:  36 TIME =     0.05 SECS, INTEGRAL =      1.64 TIME LEFT: 172798.35
 STEP:  37 TIME =     0.05 SECS, INTEGRAL =      1.69 TIME LEFT: 172798.30
 STEP:  38 TIME =     0.05 SECS, INTEGRAL =      1.73 TIME LEFT: 172798.25
 STEP:  39 TIME =     0.05 SECS, INTEGRAL =      1.78 TIME LEFT: 172798.21
 STEP:  40 TIME =     0.05 SECS, INTEGRAL =      1.82 TIME LEFT: 172798.16
 STEP:  41 TIME =     0.05 SECS, INTEGRAL =      1.87 TIME LEFT: 172798.12
 STEP:  42 TIME =     0.05 SECS, INTEGRAL =      1.92 TIME LEFT: 172798.07
 STEP:  43 TIME =     0.05 SECS, INTEGRAL =      1.96 TIME LEFT: 172798.02
 STEP:  44 TIME =     0.05 SECS, INTEGRAL =      2.01 TIME LEFT: 172797.98
 STEP:  45 TIME =     0.04 SECS, INTEGRAL =      2.05 TIME LEFT: 172797.93
 STEP:  46 TIME =     0.04 SECS, INTEGRAL =      2.10 TIME LEFT: 172797.89
 STEP:  47 TIME =     0.05 SECS, INTEGRAL =      2.14 TIME LEFT: 172797.84
 STEP:  48 TIME =     0.04 SECS, INTEGRAL =      2.19 TIME LEFT: 172797.80
 STEP:  49 TIME =     0.05 SECS, INTEGRAL =      2.23 TIME LEFT: 172797.75
 STEP:  50 TIME =     0.04 SECS, INTEGRAL =      2.28 TIME LEFT: 172797.71
 STEP:  51 TIME =     0.05 SECS, INTEGRAL =      2.32 TIME LEFT: 172797.66
 STEP:  52 TIME =     0.04 SECS, INTEGRAL =      2.36 TIME LEFT: 172797.62
 STEP:  53 TIME =     0.05 SECS, INTEGRAL =      2.42 TIME LEFT: 172797.57
 STEP:  54 TIME =     0.05 SECS, INTEGRAL =      2.46 TIME LEFT: 172797.52
 STEP:  55 TIME =     0.05 SECS, INTEGRAL =      2.51 TIME LEFT: 172797.48
 STEP:  56 TIME =     0.04 SECS, INTEGRAL =      2.55 TIME LEFT: 172797.43
 STEP:  57 TIME =     0.04 SECS, INTEGRAL =      2.60 TIME LEFT: 172797.39
 STEP:  58 TIME =     0.05 SECS, INTEGRAL =      2.64 TIME LEFT: 172797.34
 STEP:  59 TIME =     0.04 SECS, INTEGRAL =      2.69 TIME LEFT: 172797.30
 STEP:  60 TIME =     0.05 SECS, INTEGRAL =      2.73 TIME LEFT: 172797.25
 STEP:  61 TIME =     0.05 SECS, INTEGRAL =      2.78 TIME LEFT: 172797.21
 STEP:  62 TIME =     0.05 SECS, INTEGRAL =      2.82 TIME LEFT: 172797.16
 STEP:  63 TIME =     0.04 SECS, INTEGRAL =      2.87 TIME LEFT: 172797.12
 STEP:  64 TIME =     0.04 SECS, INTEGRAL =      2.91 TIME LEFT: 172797.07
 STEP:  65 TIME =     0.05 SECS, INTEGRAL =      2.96 TIME LEFT: 172797.03
 STEP:  66 TIME =     0.04 SECS, INTEGRAL =      3.00 TIME LEFT: 172796.98
 STEP:  67 TIME =     0.05 SECS, INTEGRAL =      3.05 TIME LEFT: 172796.94
 STEP:  68 TIME =     0.05 SECS, INTEGRAL =      3.09 TIME LEFT: 172796.89
 STEP:  69 TIME =     0.04 SECS, INTEGRAL =      3.14 TIME LEFT: 172796.85
 STEP:  70 TIME =     0.05 SECS, INTEGRAL =      3.18 TIME LEFT: 172796.80
 STEP:  71 TIME =     0.04 SECS, INTEGRAL =      3.23 TIME LEFT: 172796.76
 STEP:  72 TIME =     0.05 SECS, INTEGRAL =      3.27 TIME LEFT: 172796.71
 STEP:  73 TIME =     0.04 SECS, INTEGRAL =      3.32 TIME LEFT: 172796.67
 STEP:  74 TIME =     0.05 SECS, INTEGRAL =      3.36 TIME LEFT: 172796.62
 STEP:  75 TIME =     0.05 SECS, INTEGRAL =      3.41 TIME LEFT: 172796.58
 STEP:  76 TIME =     0.04 SECS, INTEGRAL =      3.45 TIME LEFT: 172796.53
 STEP:  77 TIME =     0.05 SECS, INTEGRAL =      3.50 TIME LEFT: 172796.49
 STEP:  78 TIME =     0.05 SECS, INTEGRAL =      3.55 TIME LEFT: 172796.44
 STEP:  79 TIME =     0.05 SECS, INTEGRAL =      3.59 TIME LEFT: 172796.39
 STEP:  80 TIME =     0.05 SECS, INTEGRAL =      3.64 TIME LEFT: 172796.35
 STEP:  81 TIME =     0.05 SECS, INTEGRAL =      3.68 TIME LEFT: 172796.30

(To convert to Hartree/Bohr^2, multiply by (10^(-21) x N x a0^2)/(4.184 x 627.51) = 0.0642)


           FORCE MATRIX IN MILLIDYNES/ANGSTROM


                  C  1       C  2       C  3       C  4       C  5       C  6
 ------------------------------------------------------------------------------
     C    1  14.302118
     C    2   1.752451  14.416154
     C    3   3.250331   3.042876  14.802155
     C    4   3.081213   3.310515   1.777716  14.673018
     C    5   4.339024   0.040027   0.505354   0.521555  14.486527
     C    6   0.044599   3.873116   0.702701   0.499696   0.005720  14.677687
     C    7   0.667838   0.004960   0.050064   0.031423   4.456717   0.001070
     C    8   0.527697   0.842590   4.730659   0.045087   0.051605   1.126463
     C    9   0.041163   0.905998   1.183622   0.029545   0.013304   4.584072
     C   10   0.568942   0.540921   0.040743   5.064394   0.033476   0.035809
     C   11   0.045443   0.052392   0.006611   0.815186   0.006256   0.003946
     H   12   0.028056   4.545843   0.419765   0.433949   0.002089   0.423864
     H   13   4.364851   0.024522   0.427713   0.439998   0.428443   0.001635
     H   14   0.428999   0.411018   4.548651   0.031001   0.028486   0.031125
     H   15   0.441616   0.440752   0.024741   4.314338   0.029186   0.031309
     H   16   0.449828   0.001794   0.017788   0.023282   4.430270   0.001433
     H   17   0.432376   0.003128   0.016522   0.045281   4.454656   0.000782
     H   18   0.005703   0.437024   0.023104   0.032383   0.000809   4.520773
     H   19   0.002898   0.443606   0.034438   0.032576   0.000808   4.494078
     H   20   0.022402   0.000527   0.002126   0.006937   0.462027   0.000299
     H   21   0.023743   0.000487   0.001834   0.002041   0.463954   0.000266
     H   22   0.052685   0.000727   0.008506   0.002122   0.450420   0.000312
     H   23   0.017144   0.042722   0.115364   0.003321   0.001522   0.410726
     H   24   0.006599   0.041331   0.414938   0.002392   0.008999   0.113301
     H   25   0.031113   0.036954   0.002154   0.432768   0.002594   0.004823
     H   26   0.005173   0.019744   0.001930   0.098845   0.001156   0.002107
     H   27   0.011167   0.006987   0.001575   0.133905   0.001273   0.000691


                  C  7       C  8       C  9       C 10       C 11       H 12
 ------------------------------------------------------------------------------
     C    7  14.369099
     C    8   0.005573  18.285120
     C    9   0.001580  10.473416  18.238860
     C   10   0.006128   0.003645   0.003675  18.294063
     C   11   0.000860   0.002349   0.001446  11.067777  18.015404
     H   12   0.000428   0.034078   0.033543   0.021745   0.019220   5.055271
     H   13   0.034476   0.035215   0.005309   0.035931   0.002860   0.002328
     H   14   0.005287   0.415117   0.039753   0.003246   0.001140   0.016016
     H   15   0.007978   0.003235   0.002392   0.388371   0.026183   0.028492
     H   16   0.436492   0.011443   0.006965   0.001558   0.000874   0.000503
     H   17   0.438796   0.004409   0.001420   0.005846   0.001583   0.000560
     H   18   0.000379   0.038030   0.429209   0.003734   0.000743   0.032928
     H   19   0.000403   0.038123   0.431842   0.002459   0.001147   0.019960
     H   20   4.707175   0.000868   0.000636   0.003466   0.000672   0.000189
     H   21   4.721467   0.001057   0.000569   0.001010   0.000704   0.000145
     H   22   4.757252   0.000872   0.000460   0.000842   0.000258   0.000109
     H   23   0.000415   0.447465   5.013786   0.001035   0.000722   0.003916
     H   24   0.001036   5.019844   0.448810   0.000770   0.000730   0.003557
     H   25   0.002334   0.001001   0.000837   4.757776   0.454792   0.002756
     H   26   0.000404   0.000931   0.000714   0.493218   5.066600   0.025961
     H   27   0.000387   0.000622   0.000443   0.463473   5.107785   0.001444


                  H 13       H 14       H 15       H 16       H 17       H 18
 ------------------------------------------------------------------------------
     H   13   4.866312
     H   14   0.030716   5.050811
     H   15   0.031114   0.000915   4.805600
     H   16   0.042729   0.001186   0.026322   5.045923
     H   17   0.025474   0.001780   0.003196   0.572878   5.064644
     H   18   0.000400   0.001101   0.002496   0.000465   0.000342   5.122822
     H   19   0.000453   0.004482   0.027810   0.000615   0.000223   0.566223
     H   20   0.002128   0.000492   0.009926   0.023405   0.047380   0.000154
     H   21   0.022238   0.000297   0.000563   0.047319   0.025407   0.000086
     H   22   0.002003   0.001047   0.000571   0.031005   0.027927   0.000103
     H   23   0.002146   0.013160   0.000707   0.000809   0.000498   0.014642
     H   24   0.001057   0.014582   0.000660   0.003265   0.005770   0.015632
     H   25   0.028171   0.000775   0.014427   0.000734   0.000625   0.000841
     H   26   0.000825   0.000539   0.012064   0.000198   0.000287   0.000404
     H   27   0.000653   0.000172   0.015656   0.000169   0.000367   0.000235


                  H 19       H 20       H 21       H 22       H 23       H 24
 ------------------------------------------------------------------------------
     H   19   5.107065
     H   20   0.000140   5.443717
     H   21   0.000120   0.577626   5.465337
     H   22   0.000111   0.568753   0.571510   5.491599
     H   23   0.014246   0.000152   0.000229   0.000169   5.408493
     H   24   0.014822   0.000529   0.000476   0.000260   0.046819   5.416582
     H   25   0.000531   0.006504   0.001821   0.000613   0.000223   0.000307
     H   26   0.000523   0.000208   0.000163   0.000146   0.000243   0.000269
     H   27   0.000408   0.000269   0.000079   0.000090   0.000144   0.000117


                  H 25       H 26       H 27
 ------------------------------------------
     H   25   5.120928
     H   26   0.119172   5.462688
     H   27   0.079922   0.422172   5.497548


          HEAT OF FORMATION =      24.127462 KCALS/MOLE

          ZERO POINT ENERGY     149.909 KCAL/MOL


           NORMAL COORDINATE ANALYSIS (Total motion = 1 Angstrom)


   Root No.       1         2         3         4         5         6         7         8

                 1 A       2 A       3 A       4 A       5 A       6 A       7 A       8 A   

                  69.5      82.1     104.3     141.8     179.3     188.3     249.4     297.1
  
           1    0.0024    0.0041    0.0071   -0.0050   -0.0103    0.0104   -0.0029    0.0015
           2    0.0032   -0.0190   -0.0013   -0.0074   -0.0024   -0.0075    0.0154   -0.0003
           3   -0.0111    0.0099    0.0016   -0.0077    0.0131    0.0048   -0.0005    0.0131
           4    0.0028    0.0044    0.0067   -0.0044   -0.0101    0.0105   -0.0062    0.0042
           5   -0.0135   -0.0106   -0.0037   -0.0027   -0.0106    0.0078    0.0075   -0.0214
           6    0.0147    0.0097    0.0091   -0.0093    0.0089    0.0013   -0.0158    0.0047
           7    0.0113    0.0003    0.0073   -0.0060   -0.0050    0.0018   -0.0003    0.0117
           8   -0.0051   -0.0152   -0.0025   -0.0057   -0.0061   -0.0003    0.0142   -0.0139
           9   -0.0128   -0.0070    0.0038   -0.0010    0.0105    0.0021   -0.0113   -0.0184
          10   -0.0063    0.0087    0.0057   -0.0021   -0.0136    0.0170   -0.0079   -0.0094
          11   -0.0054   -0.0152   -0.0013   -0.0046   -0.0063   -0.0008    0.0127   -0.0077
          12   -0.0046    0.0059    0.0258    0.0024    0.0056   -0.0022   -0.0081    0.0253
          13    0.0050    0.0173   -0.0161   -0.0109   -0.0207    0.0111    0.0219    0.0022
          14    0.0171   -0.0126    0.0019    0.0217   -0.0094   -0.0095   -0.0112    0.0057
          15   -0.0090    0.0216   -0.0194   -0.0131    0.0041    0.0052    0.0220    0.0135
          16   -0.0232   -0.0078    0.0143    0.0087   -0.0004    0.0060   -0.0186    0.0165
          17   -0.0149    0.0024    0.0095   -0.0037   -0.0129    0.0187   -0.0196    0.0102
          18    0.0323    0.0157    0.0018   -0.0188    0.0023    0.0034   -0.0038   -0.0107
          19    0.0325   -0.0298    0.0059   -0.0161   -0.0148   -0.0048    0.0144    0.0124
          20   -0.0105    0.0309   -0.0175    0.0243   -0.0149    0.0056   -0.0019   -0.0020
          21    0.0353    0.0006   -0.0279    0.0272   -0.0090   -0.0033   -0.0132   -0.0134
          22    0.0000   -0.0043    0.0062   -0.0087    0.0242   -0.0120    0.0068   -0.0034
          23    0.0099    0.0061    0.0011   -0.0224    0.0138   -0.0009    0.0086   -0.0098
          24   -0.0200   -0.0192    0.0016    0.0103   -0.0067    0.0046   -0.0095   -0.0209
          25   -0.0184   -0.0084    0.0108   -0.0035    0.0359   -0.0111   -0.0121   -0.0197
          26    0.0042    0.0154    0.0089   -0.0232    0.0207    0.0067   -0.0193   -0.0164
          27    0.0047   -0.0067   -0.0002    0.0019   -0.0198    0.0080    0.0011   -0.0002
          28   -0.0042    0.0099   -0.0142    0.0165    0.0009   -0.0027   -0.0053   -0.0160
          29    0.0035   -0.0075   -0.0211   -0.0123    0.0107    0.0061   -0.0131    0.0232
          30   -0.0131   -0.0015    0.0453    0.0087   -0.0113   -0.0086    0.0185   -0.0019
          31   -0.0048    0.0092   -0.0303    0.0305    0.0149   -0.0222    0.0061   -0.0046
          32    0.0123    0.0196    0.0260    0.0257    0.0193   -0.0262    0.0132    0.0287
          33   -0.0228   -0.0297   -0.0316   -0.0025    0.0068   -0.0138    0.0147    0.0158
          34    0.0228    0.0136    0.0014   -0.0139   -0.0134    0.0126   -0.0032   -0.0004
          35   -0.0202   -0.0121   -0.0117   -0.0008   -0.0102    0.0103    0.0103   -0.0491
          36    0.0288    0.0160    0.0059   -0.0162    0.0062    0.0028   -0.0135    0.0026
          37    0.0011   -0.0064    0.0242    0.0018   -0.0068    0.0086   -0.0168   -0.0049
          38    0.0026   -0.0261   -0.0102   -0.0160    0.0041   -0.0081    0.0205   -0.0089
          39   -0.0101    0.0162   -0.0083   -0.0111    0.0103    0.0054    0.0079    0.0164
          40    0.0271   -0.0022    0.0105   -0.0073   -0.0076   -0.0032   -0.0039    0.0192
          41   -0.0171   -0.0297   -0.0039    0.0045   -0.0142    0.0001    0.0127   -0.0290
          42   -0.0227   -0.0182    0.0024    0.0072    0.0036    0.0027   -0.0119   -0.0299
          43   -0.0214    0.0113    0.0052   -0.0033   -0.0171    0.0251   -0.0044   -0.0104
          44   -0.0127   -0.0216    0.0173    0.0047   -0.0160   -0.0061    0.0223   -0.0124
          45   -0.0087    0.0021    0.0364    0.0074   -0.0004   -0.0054   -0.0012    0.0211
          46    0.0102    0.0254   -0.0360   -0.0138   -0.0317    0.0079    0.0378   -0.0043
          47    0.0633   -0.0608    0.0239    0.0525   -0.0075   -0.0233   -0.0553   -0.0002
          48   -0.0095    0.0147   -0.0074   -0.0099    0.0099    0.0062    0.0111    0.0164
          49   -0.0187    0.0563   -0.0325   -0.0086   -0.0261    0.0233    0.0309   -0.0009
          50    0.0044    0.0085   -0.0070    0.0234   -0.0124   -0.0027   -0.0068    0.0037
          51   -0.0403    0.0543   -0.0443   -0.0471   -0.0017    0.0104    0.0711    0.0168
          52   -0.0132   -0.0038    0.0107    0.0009    0.0078    0.0018   -0.0118   -0.0011
          53   -0.0373   -0.0073    0.0164    0.0195   -0.0557    0.0382   -0.0324    0.0684
          54    0.0554    0.0238   -0.0076   -0.0308   -0.0031    0.0036    0.0148   -0.0348
          55   -0.0558   -0.0203    0.0261    0.0350   -0.0319    0.0217   -0.0404    0.0787
          56   -0.0080    0.0115    0.0135   -0.0116    0.0005    0.0171   -0.0287    0.0079
          57    0.0427    0.0285    0.0068   -0.0305    0.0218    0.0004   -0.0149   -0.0170
          58    0.0550   -0.0690    0.0246   -0.0245   -0.0143   -0.0276    0.0041    0.0224
          59    0.0006    0.0112   -0.0082    0.0196   -0.0152   -0.0071   -0.0076    0.0029
          60    0.0824   -0.0408   -0.0159    0.1106    0.0708    0.1425    0.0319   -0.0165
          61    0.0368   -0.0430    0.0184    0.0154    0.0454    0.0977    0.0672    0.0282
          62   -0.0656    0.0860   -0.0337   -0.0321   -0.0588   -0.0646   -0.0113    0.0025
          63    0.0287    0.0132   -0.0373    0.0026   -0.0516   -0.0756   -0.0488   -0.0237
          64    0.0272   -0.0151   -0.0069   -0.0449   -0.0710   -0.0988   -0.0341   -0.0029
          65    0.0113    0.0304   -0.0263    0.0879    0.0252    0.1007    0.0203   -0.0194
          66    0.0309    0.0126   -0.0384    0.0033   -0.0552   -0.0808   -0.0532   -0.0261
          67   -0.0297   -0.0122    0.0120   -0.0062    0.0644   -0.0204   -0.0199   -0.0497
          68    0.0114    0.0299    0.0141   -0.0346    0.0438    0.0053   -0.0374   -0.0313
          69    0.0064   -0.0110   -0.0028    0.0075   -0.0405    0.0123    0.0115    0.0176
          70    0.0066   -0.0046    0.0026   -0.0154    0.0396   -0.0230    0.0223   -0.0114
          71    0.0231    0.0118   -0.0016   -0.0326    0.0275   -0.0095    0.0218   -0.0130
          72   -0.0426   -0.0358    0.0012    0.0243   -0.0112    0.0042   -0.0126   -0.0299
          73   -0.0042    0.0094   -0.0241    0.0232    0.0081   -0.0109   -0.0027   -0.0120
          74    0.0021   -0.0257   -0.0769   -0.0478    0.0206    0.0358   -0.0567    0.0600
          75   -0.0120    0.0165    0.1262    0.0216   -0.0418   -0.0116    0.0517   -0.0469
          76   -0.0041    0.0106   -0.0199    0.0248    0.0077   -0.0133    0.0009   -0.0119
          77    0.0127    0.0365    0.0777    0.0623    0.0121   -0.0598    0.0638   -0.0034
          78   -0.0257   -0.0496   -0.1143   -0.0147    0.0391   -0.0163   -0.0112    0.0711
          79   -0.0062    0.0071   -0.0554    0.0493    0.0356   -0.0502    0.0235    0.0153
          80    0.0188    0.0257    0.0153    0.0221    0.0334   -0.0212   -0.0125    0.0648
          81   -0.0290   -0.0355   -0.0195   -0.0006   -0.0082   -0.0166    0.0381   -0.0198


   Root No.       9        10        11        12        13        14        15        16

                 9 A      10 A      11 A      12 A      13 A      14 A      15 A      16 A   

                 364.5     397.1     426.7     506.0     525.7     626.2     683.2     752.2
  
           1   -0.0066   -0.0006   -0.0126   -0.0192    0.0097   -0.0170    0.0289   -0.0106
           2    0.0050   -0.0099    0.0147    0.0204   -0.0263   -0.0254    0.0054   -0.0191
           3   -0.0193    0.0364    0.0036   -0.0264   -0.0169   -0.0142    0.0167   -0.0060
           4   -0.0129   -0.0103   -0.0156   -0.0178   -0.0226   -0.0062   -0.0102   -0.0196
           5   -0.0170    0.0048   -0.0144   -0.0068    0.0060    0.0083   -0.0260    0.0076
           6    0.0158   -0.0111    0.0177    0.0156    0.0011    0.0230   -0.0044   -0.0196
           7   -0.0045   -0.0184    0.0051   -0.0049   -0.0225   -0.0340    0.0222    0.0074
           8   -0.0103   -0.0033    0.0030    0.0089    0.0053   -0.0142    0.0099   -0.0067
           9    0.0119    0.0051    0.0112   -0.0117    0.0188    0.0010    0.0120   -0.0276
          10   -0.0245    0.0103   -0.0241   -0.0179    0.0038    0.0050   -0.0028   -0.0128
          11   -0.0127   -0.0108   -0.0096    0.0135   -0.0208    0.0105   -0.0126   -0.0099
          12   -0.0100    0.0115   -0.0164    0.0317    0.0175    0.0020    0.0208    0.0136
          13    0.0268   -0.0108   -0.0093    0.0069    0.0256    0.0074    0.0103    0.0014
          14    0.0122    0.0399    0.0053   -0.0077   -0.0072    0.0029   -0.0106    0.0003
          15    0.0049    0.0258    0.0108   -0.0028   -0.0245   -0.0045   -0.0116   -0.0002
          16    0.0025   -0.0164    0.0096    0.0010   -0.0149    0.0171   -0.0250   -0.0240
          17    0.0119   -0.0108    0.0200   -0.0106    0.0003   -0.0085   -0.0054    0.0363
          18    0.0015   -0.0080   -0.0031   -0.0036   -0.0101    0.0138   -0.0258   -0.0069
          19    0.0318    0.0263   -0.0011    0.0007    0.0143    0.0109   -0.0014    0.0017
          20    0.0148    0.0150   -0.0023   -0.0032    0.0091    0.0074   -0.0025    0.0003
          21   -0.0137   -0.0220   -0.0007    0.0027   -0.0038   -0.0045    0.0001   -0.0013
          22   -0.0278   -0.0075    0.0232   -0.0032    0.0133    0.0076   -0.0157    0.0455
          23   -0.0220    0.0009    0.0293   -0.0086    0.0277   -0.0094    0.0223   -0.0208
          24    0.0240    0.0003   -0.0049   -0.0018    0.0084   -0.0114    0.0139   -0.0060
          25    0.0149   -0.0051   -0.0081    0.0046   -0.0021    0.0030   -0.0094    0.0297
          26    0.0272   -0.0048   -0.0030   -0.0068   -0.0050   -0.0131    0.0033    0.0262
          27   -0.0096   -0.0077    0.0215   -0.0108    0.0110   -0.0023   -0.0125    0.0494
          28   -0.0137    0.0238    0.0117    0.0463   -0.0099    0.0040    0.0066    0.0023
          29   -0.0170   -0.0033   -0.0237    0.0215   -0.0097    0.0393    0.0265    0.0096
          30   -0.0087   -0.0004   -0.0148    0.0298    0.0076   -0.0119   -0.0112   -0.0042
          31    0.0027    0.0095    0.0145    0.0060   -0.0056   -0.0063    0.0014    0.0005
          32    0.0029   -0.0172   -0.0211   -0.0120    0.0074    0.0033    0.0021    0.0016
          33    0.0031   -0.0178   -0.0173   -0.0176    0.0017    0.0097    0.0034    0.0007
          34   -0.0151   -0.0176   -0.0178   -0.0268   -0.0398   -0.0046   -0.0284   -0.0152
          35   -0.0202    0.0141   -0.0240   -0.0399    0.0189    0.0296   -0.0590   -0.0353
          36    0.0138   -0.0162    0.0155    0.0105   -0.0116    0.0226   -0.0161   -0.0140
          37   -0.0131   -0.0080   -0.0173   -0.0156    0.0307   -0.0209    0.0492   -0.0155
          38    0.0188   -0.0296    0.0379    0.0169   -0.0397   -0.0529    0.0148   -0.0485
          39   -0.0150    0.0399    0.0064   -0.0265   -0.0291   -0.0119    0.0043   -0.0025
          40    0.0209   -0.0457    0.0198    0.0248   -0.0412   -0.0511    0.0444   -0.0251
          41    0.0063   -0.0067   -0.0106    0.0129    0.0105   -0.0232    0.0090   -0.0034
          42    0.0235    0.0036   -0.0006   -0.0094    0.0231   -0.0052    0.0110   -0.0233
          43   -0.0467    0.0317   -0.0468   -0.0604    0.0127    0.0024   -0.0117   -0.0030
          44   -0.0162   -0.0152   -0.0195    0.0330   -0.0120   -0.0147   -0.0438   -0.0142
          45   -0.0120    0.0085   -0.0221    0.0426    0.0220   -0.0121    0.0030    0.0106
          46    0.0484   -0.0429   -0.0063    0.0431    0.0378    0.0221   -0.0110    0.0094
          47   -0.0105    0.0719   -0.0007   -0.0481   -0.0022    0.0060    0.0052   -0.0003
          48   -0.0077    0.0438    0.0085   -0.0235   -0.0303   -0.0123    0.0010   -0.0047
          49    0.0357   -0.0225   -0.0155    0.0119    0.0428    0.0197    0.0060    0.0098
          50    0.0166    0.0338    0.0017   -0.0059    0.0022    0.0094   -0.0123    0.0045
          51    0.0361   -0.0204    0.0223    0.0583   -0.0326   -0.0071   -0.0391   -0.0005
          52    0.0001   -0.0092   -0.0176   -0.0014   -0.0225    0.0081   -0.0283   -0.0083
          53   -0.0008   -0.0325    0.0988   -0.0172    0.0195    0.0182   -0.0088   -0.0391
          54   -0.0221    0.0046   -0.0537   -0.0213   -0.0274   -0.0049   -0.0434    0.0005
          55    0.0055   -0.0411    0.1025    0.0076    0.0108    0.0536   -0.0202   -0.1035
          56    0.0305   -0.0133    0.0160   -0.0069   -0.0096   -0.0137    0.0040    0.0340
          57    0.0263   -0.0095   -0.0149    0.0016   -0.0250    0.0047   -0.0128   -0.0062
          58    0.0357    0.0666    0.0078   -0.0074   -0.0020    0.0154   -0.0269    0.0056
          59    0.0164    0.0352    0.0021   -0.0074    0.0008    0.0094   -0.0150    0.0021
          60   -0.0102   -0.0408   -0.0023    0.0104    0.0014   -0.0061    0.0058   -0.0031
          61    0.0504    0.0517    0.0060    0.0002    0.0039    0.0155   -0.0158    0.0051
          62    0.0183    0.0205   -0.0028   -0.0055    0.0098    0.0085    0.0013    0.0010
          63   -0.0260   -0.0390   -0.0055    0.0031    0.0031   -0.0078    0.0101   -0.0036
          64    0.0154    0.0009   -0.0083    0.0019    0.0265    0.0078    0.0128   -0.0013
          65    0.0077   -0.0407   -0.0141    0.0088    0.0327    0.0032    0.0270   -0.0050
          66   -0.0277   -0.0436   -0.0066    0.0038    0.0058   -0.0077    0.0123   -0.0042
          67    0.0444    0.0050   -0.0273    0.0094    0.0146    0.0063    0.0141   -0.0624
          68    0.0609   -0.0057   -0.0284   -0.0026   -0.0199    0.0167   -0.0282   -0.0708
          69   -0.0350   -0.0115    0.0395   -0.0144    0.0106   -0.0154   -0.0096    0.1258
          70   -0.0644   -0.0008    0.0541   -0.0063    0.0667    0.0560   -0.0373   -0.0489
          71   -0.0584    0.0052    0.0633   -0.0168    0.0767    0.0347    0.0014   -0.1087
          72    0.0454    0.0030   -0.0325    0.0145   -0.0112   -0.0279    0.0244    0.0310
          73   -0.0077    0.0221    0.0173    0.0442   -0.0097   -0.0009    0.0068    0.0067
          74   -0.0356    0.0094   -0.0560    0.0551    0.0285    0.0044    0.0076    0.0051
          75   -0.0093   -0.0083   -0.0032   -0.0004   -0.0280    0.0337    0.0053   -0.0151
          76   -0.0066    0.0201    0.0166    0.0403   -0.0121    0.0019    0.0119    0.0072
          77    0.0308   -0.0474    0.0037   -0.1159   -0.0336    0.0712    0.0489    0.0120
          78    0.0123   -0.0294   -0.0468   -0.0509    0.0616   -0.0808   -0.0757   -0.0332
          79    0.0312   -0.0202    0.0133   -0.0935    0.0093   -0.0320   -0.0247   -0.0175
          80   -0.0042   -0.0040   -0.0462    0.0373    0.0735   -0.1200   -0.0991   -0.0369
          81    0.0079   -0.0289    0.0060   -0.0591   -0.0620    0.1296    0.1016    0.0384


   Root No.      17        18        19        20        21        22        23        24

                17 A      18 A      19 A      20 A      21 A      22 A      23 A      24 A   

                 766.2     816.2     835.3     885.0     915.7     928.8     942.5     965.0
  
           1   -0.0077   -0.0095   -0.0122    0.0082    0.0142    0.0031   -0.0049    0.0048
           2    0.0007   -0.0002   -0.0082    0.0131    0.0066   -0.0090    0.0224   -0.0114
           3   -0.0060   -0.0071   -0.0084    0.0059    0.0291   -0.0040    0.0061   -0.0012
           4    0.0113    0.0131    0.0180    0.0029    0.0004   -0.0013   -0.0147   -0.0183
           5   -0.0110   -0.0073   -0.0102    0.0128    0.0000   -0.0043    0.0041    0.0301
           6   -0.0338   -0.0076   -0.0112   -0.0035   -0.0049    0.0067    0.0070    0.0144
           7    0.0165    0.0015    0.0003   -0.0035   -0.0105    0.0025   -0.0019    0.0236
           8   -0.0294   -0.0191   -0.0285    0.0078   -0.0034    0.0144   -0.0180   -0.0054
           9    0.0066    0.0227    0.0291   -0.0065    0.0042   -0.0128    0.0116    0.0029
          10    0.0019    0.0094   -0.0130   -0.0181   -0.0192   -0.0007    0.0168   -0.0089
          11    0.0069   -0.0064    0.0112   -0.0142    0.0032    0.0012   -0.0019   -0.0094
          12   -0.0054    0.0049   -0.0155    0.0248   -0.0119    0.0010    0.0078   -0.0033
          13   -0.0052   -0.0204    0.0104    0.0030    0.0059   -0.0013   -0.0001    0.0015
          14    0.0042    0.0183   -0.0093   -0.0020   -0.0046    0.0020   -0.0008   -0.0007
          15    0.0022   -0.0113    0.0063   -0.0023   -0.0159    0.0045   -0.0055    0.0029
          16   -0.0348    0.0079    0.0120    0.0286    0.0035    0.0080   -0.0055    0.0118
          17    0.0087    0.0040    0.0075    0.0194    0.0000    0.0127   -0.0031   -0.0055
          18   -0.0067   -0.0104   -0.0110   -0.0054    0.0069   -0.0091   -0.0039   -0.0066
          19   -0.0013   -0.0036    0.0063    0.0020    0.0078   -0.0059    0.0096   -0.0067
          20    0.0001    0.0054    0.0005   -0.0026    0.0048   -0.0008   -0.0013    0.0006
          21    0.0007   -0.0010    0.0015   -0.0016   -0.0156    0.0038   -0.0048    0.0040
          22   -0.0004   -0.0040   -0.0042   -0.0104    0.0049   -0.0094    0.0015   -0.0017
          23   -0.0251    0.0159    0.0135   -0.0195   -0.0101   -0.0044   -0.0156    0.0028
          24    0.0122    0.0027    0.0025    0.0024   -0.0106    0.0131   -0.0109   -0.0069
          25   -0.0050   -0.0044   -0.0041   -0.0081    0.0000   -0.0013    0.0031   -0.0071
          26    0.0052    0.0026    0.0051   -0.0083    0.0008   -0.0045    0.0064   -0.0007
          27    0.0338   -0.0074   -0.0056    0.0055    0.0018    0.0011    0.0018    0.0081
          28    0.0060   -0.0002    0.0045   -0.0026   -0.0006    0.0006    0.0057   -0.0036
          29    0.0112    0.0024    0.0072   -0.0113    0.0033    0.0199    0.0086   -0.0002
          30    0.0085   -0.0007    0.0097   -0.0050   -0.0003   -0.0185   -0.0046   -0.0012
          31    0.0003   -0.0007    0.0009    0.0013    0.0055    0.0000   -0.0042    0.0027
          32    0.0063    0.0010    0.0070   -0.0076    0.0074    0.0052   -0.0069    0.0057
          33    0.0053    0.0004    0.0076   -0.0091    0.0090   -0.0047   -0.0113    0.0106
          34    0.0236   -0.0028    0.0031   -0.0328   -0.0018   -0.0014   -0.0384   -0.0615
          35   -0.0249    0.0101    0.0027   -0.0039    0.0014   -0.0654    0.0603    0.1139
          36   -0.0248   -0.0199   -0.0222   -0.0253   -0.0052    0.0102   -0.0139   -0.0218
          37   -0.0096    0.0148   -0.0259    0.0171    0.0000    0.0041    0.0080    0.0116
          38    0.0166    0.0071    0.0333    0.0188    0.0375   -0.0572    0.0633    0.0025
          39   -0.0050   -0.0205   -0.0024    0.0006    0.0347   -0.0028   -0.0019   -0.0048
          40    0.0246    0.0100   -0.0011   -0.0233   -0.0912    0.0224    0.0275    0.1117
          41   -0.0035   -0.0226   -0.0361    0.0329   -0.0060    0.0199   -0.0216   -0.0294
          42    0.0261    0.0192    0.0231    0.0130    0.0049   -0.0080    0.0056   -0.0212
          43    0.0156    0.0244   -0.0419   -0.0505   -0.0275   -0.0164    0.0400   -0.0076
          44    0.0262   -0.0043    0.0286   -0.0076   -0.0225   -0.0408   -0.0024   -0.0372
          45    0.0058    0.0058   -0.0051    0.0275   -0.0261   -0.0230    0.0072   -0.0194
          46    0.0069    0.0320   -0.0004   -0.0004   -0.0379   -0.0022    0.0157   -0.0113
          47   -0.0140   -0.1208    0.0741    0.0005   -0.0523   -0.0012    0.0085   -0.0026
          48   -0.0050   -0.0435    0.0144    0.0001    0.0078    0.0045   -0.0136    0.0095
          49    0.0007    0.0446   -0.0239   -0.0132    0.0414    0.0134   -0.0472    0.0309
          50    0.0067    0.0495   -0.0255   -0.0107    0.0145    0.0092   -0.0251    0.0147
          51    0.0254    0.1254   -0.0651    0.0030   -0.0171   -0.0007    0.0182   -0.0191
          52   -0.0491    0.0235    0.0308    0.0631    0.0014    0.0235   -0.0107    0.0181
          53    0.0745   -0.0363   -0.0388   -0.0611    0.0139   -0.0416   -0.0262   -0.0430
          54   -0.0066    0.0253    0.0341    0.0807    0.0115    0.0110   -0.0488   -0.0145
          55    0.0077   -0.0454   -0.0538   -0.0883    0.0106   -0.0502    0.0013   -0.0088
          56   -0.0137    0.0117    0.0166    0.0089   -0.0030    0.0243    0.0013   -0.0480
          57   -0.0417    0.0040    0.0054   -0.0122    0.0015    0.0107    0.0015   -0.0633
          58    0.0134    0.0881   -0.0427   -0.0239    0.0088    0.0187   -0.0484    0.0287
          59    0.0072    0.0494   -0.0230   -0.0152    0.0045    0.0110   -0.0293    0.0177
          60    0.0011    0.0252   -0.0192    0.0032    0.0335   -0.0050    0.0053   -0.0042
          61    0.0011   -0.0238    0.0272   -0.0073   -0.0590    0.0083   -0.0085    0.0072
          62   -0.0084   -0.0835    0.0595    0.0050   -0.0670   -0.0044    0.0196   -0.0093
          63   -0.0013    0.0088   -0.0101    0.0051    0.0262   -0.0060    0.0084   -0.0056
          64   -0.0037    0.0171   -0.0127    0.0107    0.0735   -0.0206    0.0281   -0.0200
          65   -0.0118   -0.0322    0.0133    0.0231    0.0755   -0.0343    0.0607   -0.0399
          66   -0.0014    0.0158   -0.0146    0.0060    0.0397   -0.0088    0.0113   -0.0076
          67    0.1278   -0.0432   -0.0553   -0.0071   -0.0205    0.0122   -0.0408    0.0099
          68    0.1281   -0.0571   -0.0613    0.0380    0.0276   -0.0151   -0.0056    0.0460
          69   -0.0689    0.0320    0.0416   -0.0136   -0.0010    0.0004    0.0233   -0.0184
          70    0.0805   -0.0077   -0.0012    0.0802   -0.0118    0.0631   -0.0113   -0.0515
          71    0.0824    0.0167    0.0256    0.0764   -0.0229    0.0599   -0.0060   -0.0204
          72   -0.1133   -0.0074   -0.0248   -0.0665   -0.0112   -0.0074   -0.0678   -0.0524
          73    0.0049   -0.0029    0.0080    0.0069    0.0116   -0.0046   -0.0150    0.0072
          74    0.0132    0.0131   -0.0055    0.0321   -0.0625   -0.1497   -0.0123   -0.0298
          75    0.0097   -0.0016    0.0089   -0.0745    0.0205    0.1531    0.0816   -0.0100
          76    0.0119   -0.0023    0.0177   -0.0073    0.0293   -0.0026   -0.0292    0.0212
          77   -0.0162    0.0120   -0.0352    0.0485   -0.0639   -0.1037    0.0046   -0.0278
          78   -0.0175   -0.0034   -0.0178   -0.0261   -0.0167    0.1012    0.0713   -0.0305
          79   -0.0359    0.0033   -0.0539    0.0386   -0.0683    0.0009    0.0660   -0.0632
          80    0.0041   -0.0118    0.0228   -0.0380    0.0284    0.0024   -0.0164    0.0217
          81    0.0099    0.0125   -0.0039    0.0166   -0.0067   -0.0021   -0.0061   -0.0005


   Root No.      25        26        27        28        29        30        31        32

                25 A      26 A      27 A      28 A      29 A      30 A      31 A      32 A   

                 969.8     988.2    1003.2    1023.3    1036.8    1045.9    1066.9    1074.3
  
           1   -0.0058   -0.0082   -0.0141    0.0081   -0.0015    0.0103   -0.0061    0.0107
           2   -0.0012   -0.0123    0.0018    0.0060    0.0053    0.0126    0.0009   -0.0049
           3   -0.0032    0.0037    0.0028    0.0009   -0.0010    0.0007   -0.0046    0.0080
           4    0.0132    0.0007   -0.0010   -0.0003   -0.0099    0.0026   -0.0050    0.0094
           5    0.0051    0.0044    0.0003   -0.0072   -0.0145    0.0090   -0.0031    0.0111
           6   -0.0109    0.0089    0.0065    0.0076    0.0011    0.0183   -0.0173   -0.0009
           7   -0.0003    0.0070   -0.0003   -0.0081   -0.0071   -0.0102    0.0031    0.0092
           8   -0.0075   -0.0052   -0.0006   -0.0021    0.0014   -0.0109   -0.0032   -0.0048
           9    0.0088   -0.0028   -0.0082    0.0037    0.0038   -0.0035    0.0025   -0.0013
          10   -0.0123   -0.0061    0.0087    0.0062    0.0115    0.0075   -0.0063   -0.0175
          11   -0.0040    0.0184   -0.0058    0.0019    0.0025   -0.0103   -0.0095    0.0075
          12    0.0176   -0.0026   -0.0036   -0.0030   -0.0104   -0.0026    0.0126    0.0067
          13   -0.0017    0.0076   -0.0078    0.0009    0.0048    0.0030    0.0057   -0.0056
          14    0.0006   -0.0065    0.0068   -0.0012   -0.0061   -0.0020   -0.0048    0.0059
          15   -0.0025    0.0034   -0.0019   -0.0042   -0.0014   -0.0020    0.0052   -0.0070
          16    0.0056   -0.0016    0.0034   -0.0006    0.0117   -0.0191   -0.0062   -0.0056
          17   -0.0023    0.0035    0.0113    0.0087    0.0117    0.0189    0.0072   -0.0004
          18    0.0022   -0.0091   -0.0062   -0.0093   -0.0057   -0.0089    0.0135    0.0003
          19    0.0040    0.0016    0.0136   -0.0052   -0.0049   -0.0058   -0.0024    0.0037
          20   -0.0008    0.0040   -0.0034    0.0009    0.0039    0.0011    0.0016   -0.0046
          21    0.0016   -0.0131   -0.0103    0.0085    0.0031    0.0056   -0.0033    0.0056
          22    0.0139   -0.0036    0.0006    0.0075    0.0129    0.0022    0.0073   -0.0028
          23    0.0239    0.0066    0.0104   -0.0010    0.0073   -0.0106   -0.0050    0.0011
          24   -0.0099    0.0077    0.0065   -0.0088   -0.0108   -0.0034   -0.0051    0.0028
          25   -0.0112   -0.0013   -0.0056   -0.0060   -0.0203    0.0069    0.0015   -0.0028
          26   -0.0084   -0.0027   -0.0119   -0.0077   -0.0221   -0.0109   -0.0115   -0.0070
          27    0.0077    0.0034    0.0039    0.0061    0.0180   -0.0132   -0.0156    0.0017
          28    0.0027    0.0079   -0.0052    0.0066    0.0006    0.0004   -0.0001   -0.0021
          29    0.0059    0.0029   -0.0027    0.0185   -0.0065   -0.0070    0.0105    0.0030
          30   -0.0076    0.0053   -0.0027   -0.0062    0.0084    0.0084   -0.0119   -0.0080
          31   -0.0021   -0.0068    0.0034   -0.0041    0.0010    0.0003    0.0007   -0.0007
          32   -0.0015   -0.0133    0.0011   -0.0303    0.0114    0.0116   -0.0091   -0.0061
          33   -0.0150   -0.0100    0.0125    0.0240   -0.0070   -0.0054    0.0063   -0.0005
          34   -0.0047    0.0111    0.0151   -0.0019   -0.0376    0.0496   -0.0545    0.0248
          35   -0.0025   -0.0115   -0.0078   -0.0246   -0.0187    0.0594    0.0885    0.0748
          36   -0.0216    0.0161    0.0177    0.0075   -0.0185    0.0483   -0.0566    0.0059
          37    0.0097   -0.0661   -0.0310    0.0304   -0.0077    0.0140   -0.0140    0.0463
          38    0.0008   -0.0298   -0.0404    0.0394    0.0566    0.0878    0.0149   -0.0454
          39   -0.0124    0.0372    0.0141   -0.0135    0.0008   -0.0038    0.0003   -0.0119
          40   -0.0420    0.0494    0.0517   -0.0551   -0.0179   -0.0066    0.0870   -0.0558
          41   -0.0174   -0.0537   -0.0489   -0.0013   -0.0112   -0.0599    0.0293   -0.0445
          42    0.0025   -0.0413   -0.0475    0.0060   -0.0058   -0.0430    0.0240   -0.0299
          43   -0.0461   -0.0434    0.0607   -0.0462    0.0497   -0.0620    0.0315   -0.0464
          44    0.0145    0.0459   -0.0433   -0.0624    0.0183   -0.0422    0.0359    0.0676
          45    0.0279    0.0141   -0.0257   -0.0400   -0.0009   -0.0211    0.0385    0.0414
          46    0.0242   -0.0588    0.0286    0.0141   -0.0092   -0.0067   -0.0264    0.0221
          47    0.0053   -0.0135    0.0035    0.0011    0.0050    0.0001    0.0057   -0.0171
          48   -0.0162    0.0402   -0.0221   -0.0117    0.0063    0.0032    0.0234   -0.0225
          49   -0.0184    0.0543   -0.0688    0.0100    0.0258    0.0114    0.0227   -0.0048
          50   -0.0083    0.0191   -0.0254    0.0034    0.0056    0.0025    0.0046    0.0055
          51    0.0179   -0.0517    0.0538   -0.0071   -0.0358   -0.0139   -0.0309    0.0336
          52    0.0137    0.0032    0.0145    0.0065    0.0196   -0.0159   -0.0110   -0.0154
          53    0.0479   -0.0184   -0.0114   -0.0125   -0.0829    0.0582    0.0835   -0.0303
          54    0.0900   -0.0095    0.0230    0.0048   -0.0597    0.0461    0.0745   -0.0781
          55   -0.0054   -0.0203   -0.0342   -0.0351   -0.0323   -0.0445    0.0025    0.0188
          56   -0.0563   -0.0043    0.0155    0.0040    0.0882    0.0096    0.0668    0.0674
          57   -0.0706   -0.0183    0.0025   -0.0142    0.1013   -0.0214    0.0924    0.0910
          58   -0.0175    0.0230   -0.0602    0.0173    0.0296    0.0183    0.0141   -0.0235
          59   -0.0112    0.0137   -0.0390    0.0119    0.0209    0.0129    0.0095   -0.0179
          60   -0.0050    0.0205    0.0097   -0.0103   -0.0029   -0.0047    0.0050   -0.0078
          61    0.0120   -0.0438   -0.0190    0.0227    0.0059    0.0099   -0.0130    0.0202
          62    0.0224   -0.0585    0.0132    0.0144   -0.0072    0.0004   -0.0208    0.0312
          63   -0.0027    0.0143    0.0119   -0.0094   -0.0046   -0.0048    0.0028   -0.0035
          64   -0.0022    0.0442    0.0437   -0.0302   -0.0135   -0.0204    0.0074   -0.0115
          65    0.0079    0.0356    0.0832   -0.0425   -0.0282   -0.0335    0.0007   -0.0032
          66   -0.0037    0.0224    0.0156   -0.0128   -0.0046   -0.0067    0.0048   -0.0070
          67    0.0568    0.0413    0.0643    0.0234    0.0416    0.0668   -0.0085    0.0694
          68    0.0625   -0.0198   -0.0060    0.0219    0.0766   -0.0827   -0.0078   -0.0522
          69   -0.0479   -0.0065   -0.0258   -0.0179   -0.0465   -0.0081   -0.0129   -0.0086
          70   -0.0847   -0.0015    0.0097   -0.0183   -0.0232    0.0358    0.0487   -0.0210
          71   -0.0778    0.0091    0.0008   -0.0251   -0.0363   -0.0001   -0.0026    0.0006
          72    0.0591    0.0045    0.0523    0.0015    0.0323    0.0356    0.0757   -0.0370
          73    0.0027   -0.0047    0.0008   -0.0136   -0.0100   -0.0085    0.0059    0.0220
          74   -0.0401    0.0369   -0.0126    0.0021    0.0432    0.0312   -0.0423   -0.0564
          75    0.0350    0.0144   -0.0129    0.0726   -0.0031    0.0010    0.0180   -0.0297
          76   -0.0174   -0.0337    0.0188   -0.0133    0.0016    0.0013    0.0016   -0.0010
          77   -0.0229    0.0543    0.0001    0.1188   -0.0298   -0.0325    0.0196    0.0035
          78    0.0613    0.0304   -0.0437   -0.0730    0.0277    0.0287   -0.0228   -0.0088
          79    0.0463    0.0774   -0.0418    0.0299   -0.0072   -0.0185    0.0008    0.0073
          80   -0.0411   -0.0040    0.0325    0.1120   -0.0335   -0.0298    0.0235    0.0056
          81    0.0193   -0.0240   -0.0146   -0.1131    0.0369    0.0360   -0.0253   -0.0133


   Root No.      33        34        35        36        37        38        39        40

                33 A      34 A      35 A      36 A      37 A      38 A      39 A      40 A   

                1093.5    1099.2    1115.0    1117.7    1125.9    1134.0    1147.2    1172.6
  
           1   -0.0050    0.0098   -0.0040   -0.0022   -0.0002   -0.0018   -0.0170   -0.0121
           2    0.0076    0.0015    0.0069   -0.0153    0.0085   -0.0138   -0.0174    0.0323
           3    0.0106    0.0066    0.0049    0.0177   -0.0057    0.0142   -0.0142    0.0064
           4   -0.0072    0.0069   -0.0021   -0.0129    0.0022    0.0002    0.0084    0.0175
           5    0.0069   -0.0071   -0.0039    0.0048   -0.0008    0.0165    0.0196   -0.0158
           6    0.0010   -0.0122   -0.0101   -0.0004    0.0104    0.0047   -0.0146   -0.0055
           7   -0.0025   -0.0019    0.0055    0.0106   -0.0088    0.0153    0.0230   -0.0175
           8   -0.0045   -0.0021    0.0030    0.0022   -0.0066   -0.0068   -0.0014    0.0008
           9   -0.0015   -0.0050   -0.0078    0.0060    0.0068    0.0119   -0.0157    0.0010
          10   -0.0105   -0.0006   -0.0037   -0.0175    0.0107   -0.0215   -0.0109   -0.0022
          11    0.0049    0.0007   -0.0040    0.0176   -0.0049    0.0093   -0.0270   -0.0013
          12    0.0092   -0.0053    0.0000   -0.0140    0.0053   -0.0003    0.0150    0.0150
          13    0.0048   -0.0018    0.0166   -0.0163    0.0101    0.0091   -0.0091    0.0036
          14   -0.0106    0.0084    0.0134    0.0061    0.0363   -0.0005   -0.0014   -0.0145
          15   -0.0136   -0.0069   -0.0021   -0.0188    0.0059    0.0016    0.0001   -0.0189
          16    0.0030   -0.0013    0.0082    0.0005   -0.0048   -0.0089    0.0042   -0.0010
          17   -0.0015   -0.0061   -0.0072    0.0048    0.0053    0.0075   -0.0066   -0.0017
          18    0.0029    0.0020    0.0105    0.0038   -0.0093   -0.0073    0.0069   -0.0077
          19   -0.0026   -0.0005   -0.0178    0.0173   -0.0078   -0.0128    0.0101    0.0029
          20    0.0050   -0.0069   -0.0153   -0.0085   -0.0393    0.0014    0.0009    0.0067
          21    0.0077    0.0042   -0.0066    0.0138   -0.0032   -0.0105    0.0021    0.0106
          22   -0.0071   -0.0034   -0.0074    0.0020    0.0055    0.0058   -0.0079    0.0030
          23   -0.0014   -0.0016    0.0050   -0.0063   -0.0005   -0.0058    0.0116    0.0023
          24    0.0077    0.0089    0.0107   -0.0038   -0.0076   -0.0093    0.0093   -0.0004
          25    0.0042   -0.0001    0.0032    0.0019   -0.0032   -0.0035   -0.0039   -0.0012
          26    0.0046    0.0087    0.0060   -0.0071   -0.0037   -0.0122    0.0028    0.0036
          27   -0.0006    0.0059    0.0029   -0.0103   -0.0005   -0.0124    0.0002    0.0074
          28   -0.0058    0.0051    0.0050    0.0093   -0.0071    0.0058    0.0050    0.0022
          29    0.0010    0.0018    0.0010   -0.0006   -0.0015    0.0022    0.0062    0.0027
          30   -0.0121    0.0068    0.0072    0.0170   -0.0109    0.0093    0.0006    0.0062
          31    0.0033   -0.0021   -0.0009   -0.0046    0.0034   -0.0052   -0.0002   -0.0065
          32   -0.0055    0.0004    0.0000   -0.0003    0.0005   -0.0027   -0.0018   -0.0021
          33    0.0018   -0.0023   -0.0023   -0.0080    0.0042   -0.0059    0.0011   -0.0033
          34    0.0128   -0.0355   -0.0585   -0.0287    0.0541    0.0807    0.0773    0.0734
          35   -0.0727    0.0542    0.0176   -0.0407   -0.0036   -0.0051    0.0248    0.0874
          36    0.0207   -0.0469   -0.0509   -0.0083    0.0471    0.0624    0.0324    0.0268
          37    0.0069    0.0057   -0.0656    0.0314   -0.0260    0.0128   -0.0736   -0.0888
          38    0.0787   -0.0226   -0.0001   -0.0119    0.0098   -0.0042    0.1511   -0.0935
          39    0.0009    0.0090    0.0407   -0.0031    0.0101    0.0061    0.0136    0.0535
          40   -0.0120    0.0079   -0.0518    0.0357    0.0125    0.0175   -0.0688    0.0422
          41   -0.1006   -0.1072   -0.0292    0.0137    0.0380    0.0457    0.0367    0.0262
[...]
 T-DIPOLE    0.0736        C  3 --  C  4           +8.8% ( 44.6%)    55.2%
 TRAVEL      0.0776        C  3 --  H 14           +8.3% ( 43.2%)     1.3%
 RED. MASS   1.0252        C  1 --  C  3           +7.6% ( 41.3%)    11.7%
 EFF. MASS   7.9366

 VIBRATION   56   56A       ATOM PAIR        ENERGY CONTRIBUTION    RADIAL
 FREQ.      1426.01        C  5 --  C  7          +17.1% ( 53.4%)    99.4%
 T-DIPOLE    0.0622        C  7 --  H 21          +13.0% ( 46.4%)     4.3%
 TRAVEL      0.0938        C  7 --  H 20          +12.0% ( 44.8%)     3.0%
 RED. MASS   0.7637        C  7 --  H 22          +11.4% ( 43.5%)     3.5%
 EFF. MASS   5.3740        C  5 --  H 16          +10.8% ( 42.5%)     4.2%
                           C  5 --  H 17          +10.7% ( 42.3%)     4.2%

 VIBRATION   57   57A       ATOM PAIR        ENERGY CONTRIBUTION    RADIAL
 FREQ.      1452.82        C  1 --  C  4          +11.8% ( 59.2%)    55.3%
 T-DIPOLE    0.0440        C  1 --  C  5           +9.6% ( 53.5%)    88.4%
 TRAVEL      0.0672        C  4 --  C 10           +9.0% ( 51.7%)    93.0%
 RED. MASS   1.7845        C  2 --  C  4           +8.8% ( 51.2%)    58.0%
 EFF. MASS  10.2879

 VIBRATION   58   58A       ATOM PAIR        ENERGY CONTRIBUTION    RADIAL
 FREQ.      1819.53        C  8 --  C  9          +45.8% (100.1%)   100.0%
 T-DIPOLE    0.1239        C  6 --  C  9          +14.0% ( 55.4%)    26.0%
 TRAVEL      0.0558        C  3 --  C  8          +13.8% ( 55.0%)    25.4%
 RED. MASS   5.3946        C  9 --  H 23          +13.1% ( 53.5%)     9.6%
 EFF. MASS  11.8818        C  8 --  H 24          +12.8% ( 53.0%)     9.8%

 VIBRATION   59   59A       ATOM PAIR        ENERGY CONTRIBUTION    RADIAL
 FREQ.      1863.89        C 10 --  C 11          +44.7% ( 99.0%)    98.8%
 T-DIPOLE    0.2865        C  4 --  C 10          +17.1% ( 61.3%)    59.0%
 TRAVEL      0.0553        C 10 --  H 25          +15.5% ( 58.3%)     3.6%
 RED. MASS   5.3029        C 11 --  H 26          +10.7% ( 48.4%)    10.9%
 EFF. MASS  11.8226        C 11 --  H 27          +10.5% ( 47.9%)    13.0%

 VIBRATION   60   60A       ATOM PAIR        ENERGY CONTRIBUTION    RADIAL
 FREQ.      2915.97        C  4 --  H 15          +90.2% ( 97.1%)   100.0%
 T-DIPOLE    0.1174        C  1 --  H 13           +5.2% ( 23.4%)   100.0%
 TRAVEL      0.1266        C  1 --  C  4           +1.1% ( 10.6%)    15.7%
 RED. MASS   0.8270        C  2 --  C  4           +1.0% ( 10.0%)    16.0%
 EFF. MASS   1.4425

 VIBRATION   61   61A       ATOM PAIR        ENERGY CONTRIBUTION    RADIAL
 FREQ.      2931.53        C  1 --  H 13          +84.6% ( 94.1%)   100.0%
 T-DIPOLE    0.0953        C  4 --  H 15           +5.2% ( 23.4%)    99.9%
 TRAVEL      0.1260        C  5 --  H 16           +3.1% ( 18.1%)    96.6%
 RED. MASS   0.7330        C  5 --  H 17           +2.5% ( 16.0%)    95.3%
 EFF. MASS   1.4494

 VIBRATION   62   62A       ATOM PAIR        ENERGY CONTRIBUTION    RADIAL
 FREQ.      2950.44        C  5 --  H 16          +49.8% ( 73.2%)    97.0%
 T-DIPOLE    0.0478        C  5 --  H 17          +42.4% ( 67.5%)    96.0%
 TRAVEL      0.1220        C  1 --  H 13           +5.1% ( 23.4%)   100.0%
 RED. MASS   0.4645        C  5 --  C  7           +1.1% ( 10.9%)     0.0%
 EFF. MASS   1.5346

 VIBRATION   63   63A       ATOM PAIR        ENERGY CONTRIBUTION    RADIAL
 FREQ.      2972.88        C  6 --  H 19          +49.4% ( 73.0%)    97.0%
 T-DIPOLE    0.0382        C  6 --  H 18          +44.1% ( 68.9%)    96.3%
 TRAVEL      0.1214        C  2 --  H 12           +3.9% ( 20.6%)    99.9%
 RED. MASS   0.4775        C  2 --  C  6           +1.2% ( 11.2%)     0.6%
 EFF. MASS   1.5399

 VIBRATION   64   64A       ATOM PAIR        ENERGY CONTRIBUTION    RADIAL
 FREQ.      2992.80        C  2 --  H 12          +48.8% ( 71.6%)   100.0%
 T-DIPOLE    0.1078        C  3 --  H 14          +43.8% ( 67.7%)   100.0%
 TRAVEL      0.1244        C  6 --  H 19           +1.8% ( 13.8%)    98.4%
 RED. MASS   0.4385        C  2 --  C  3           +1.1% ( 10.8%)     0.0%
 EFF. MASS   1.4567

 VIBRATION   65   65A       ATOM PAIR        ENERGY CONTRIBUTION    RADIAL
 FREQ.      2999.10        C  3 --  H 14          +51.3% ( 73.1%)   100.0%
 T-DIPOLE    0.1898        C  2 --  H 12          +42.3% ( 66.4%)   100.0%
 TRAVEL      0.1246        C  6 --  H 19           +1.2% ( 11.3%)    98.9%
 RED. MASS   0.4499        C  2 --  C  3           +1.1% ( 10.5%)    99.0%
 EFF. MASS   1.4493

 VIBRATION   66   66A       ATOM PAIR        ENERGY CONTRIBUTION    RADIAL
 FREQ.      3030.65        C 10 --  H 25          +95.0% ( 98.8%)   100.0%
 T-DIPOLE    0.2408        C 10 --  C 11           +1.4% ( 12.1%)    31.3%
 TRAVEL      0.1217        C  4 --  C 10           +1.3% ( 11.7%)    13.1%
 RED. MASS   0.8870        C  5 --  H 17           +0.8% (  8.9%)    98.1%
 EFF. MASS   1.5027

 VIBRATION   67   67A       ATOM PAIR        ENERGY CONTRIBUTION    RADIAL
 FREQ.      3031.04        C  5 --  H 17          +52.6% ( 71.5%)    98.2%
 T-DIPOLE    0.0469        C  5 --  H 16          +43.9% ( 65.3%)    97.2%
 TRAVEL      0.1318        C 10 --  H 25           +1.6% ( 12.5%)   100.0%
 RED. MASS   0.4668        C  5 --  C  7           +0.6% (  7.8%)    26.4%
 EFF. MASS   1.2798

 VIBRATION   68   68A       ATOM PAIR        ENERGY CONTRIBUTION    RADIAL
 FREQ.      3050.22        C  6 --  H 18          +53.0% ( 71.9%)    98.0%
 T-DIPOLE    0.0917        C  6 --  H 19          +45.3% ( 66.4%)    97.0%
 TRAVEL      0.1312        C  2 --  C  6           +0.7% (  8.3%)    41.1%
 RED. MASS   0.4840        C  6 --  C  9           +0.7% (  8.2%)    31.0%
 EFF. MASS   1.2837

 VIBRATION   69   69A       ATOM PAIR        ENERGY CONTRIBUTION    RADIAL
 FREQ.      3074.65        C  7 --  H 20          +57.7% ( 78.3%)    98.0%
 T-DIPOLE    0.0109        C  7 --  H 21          +39.4% ( 64.8%)    95.5%
 TRAVEL      0.1209        C  7 --  H 22           +1.6% ( 13.1%)    16.8%
 RED. MASS   0.5159        C  5 --  C  7           +1.0% ( 10.2%)     0.0%
 EFF. MASS   1.5010

 VIBRATION   70   70A       ATOM PAIR        ENERGY CONTRIBUTION    RADIAL
 FREQ.      3084.76        C  7 --  H 22          +59.6% ( 79.6%)    98.6%
 T-DIPOLE    0.0024        C  7 --  H 21          +26.9% ( 53.4%)    91.1%
 TRAVEL      0.1206        C  7 --  H 20          +12.0% ( 35.8%)    77.6%
 RED. MASS   0.4708        C  5 --  C  7           +1.0% ( 10.3%)     0.0%
 EFF. MASS   1.5037

 VIBRATION   71   71A       ATOM PAIR        ENERGY CONTRIBUTION    RADIAL
 FREQ.      3114.27        C  9 --  H 23          +56.4% ( 76.2%)   100.0%
 T-DIPOLE    0.3614        C  8 --  H 24          +41.1% ( 65.1%)   100.0%
 TRAVEL      0.1216        C  8 --  C  9           +1.1% ( 10.8%)     0.5%
 RED. MASS   0.4764        C  6 --  C  9           +0.8% (  9.3%)    26.2%
 EFF. MASS   1.4639

 VIBRATION   72   72A       ATOM PAIR        ENERGY CONTRIBUTION    RADIAL
 FREQ.      3133.24        C  8 --  H 24          +55.4% ( 75.8%)    99.9%
 T-DIPOLE    0.3489        C  9 --  H 23          +40.1% ( 64.5%)    99.9%
 TRAVEL      0.1144        C  8 --  C  9           +2.4% ( 15.9%)    99.3%
 RED. MASS   0.4775        C  3 --  C  8           +1.1% ( 10.5%)    20.4%
 EFF. MASS   1.6449

 VIBRATION   73   73A       ATOM PAIR        ENERGY CONTRIBUTION    RADIAL
 FREQ.      3134.44        C 11 --  H 26          +92.5% ( 97.9%)    99.9%
 T-DIPOLE    0.1972        C 11 --  H 27           +6.1% ( 25.1%)    68.9%
 TRAVEL      0.1184        C 10 --  C 11           +1.3% ( 11.7%)    23.5%
 RED. MASS   0.8633
 EFF. MASS   1.5354

 VIBRATION   74   74A       ATOM PAIR        ENERGY CONTRIBUTION    RADIAL
 FREQ.      3147.57        C 11 --  H 27          +92.6% ( 96.9%)    99.7%
 T-DIPOLE    0.2579        C 11 --  H 26           +5.1% ( 22.8%)    36.1%
 TRAVEL      0.1209        C 10 --  C 11           +1.6% ( 12.6%)    70.6%
 RED. MASS   0.8329        C 10 --  H 25           +0.6% (  8.0%)    93.9%
 EFF. MASS   1.4658

 VIBRATION   75   75A       ATOM PAIR        ENERGY CONTRIBUTION    RADIAL
 FREQ.      3178.59        C  7 --  H 22          +38.3% ( 59.6%)    97.8%
 T-DIPOLE    0.0133        C  7 --  H 21          +32.8% ( 55.1%)    97.0%
 TRAVEL      0.1366        C  7 --  H 20          +28.7% ( 51.5%)    96.2%
 RED. MASS   0.3308        C  5 --  C  7           +0.3% (  5.1%)    98.9%
 EFF. MASS   1.1373

 SYMMETRY NUMBER FOR POINT-GROUP C1  =  1


          SYSTEM IS A GROUND STATE


    NULL



          MOLECULE IS NOT LINEAR

          THERE ARE 75 GENUINE VIBRATIONS IN THIS SYSTEM
          THIS THERMODYNAMICS CALCULATION IS LIMITED TO
          MOLECULES WHICH HAVE NO INTERNAL ROTATIONS




                    CALCULATED THERMODYNAMIC PROPERTIES
                                          *
   TEMP. (K)   PARTITION FUNCTION   H.O.F.    ENTHALPY  HEAT CAPACITY ENTROPY
                                   KCAL/MOL   CAL/MOLE    CAL/K/MOL  CAL/K/MOL


 298.00  VIB.     0.8182D+03                  4931.7698    35.9286    29.8780
         ROT.     0.8892D+06                   888.2813     2.9808    30.2016
         INT.     0.7275D+09                  5820.0511    38.9094    60.0796
         TRA.     0.1745D+28                  1480.4688     4.9680    40.8894
         TOT.                       24.127    7300.5200    43.8774   100.9689

 200.00  VIB.     0.5649D+02                  2126.1811    21.8870    18.6475
         ROT.     0.4889D+06                   596.1620     2.9808    29.0129
         INT.     0.2762D+08                  2722.3431    24.8678    47.6604
         TRA.     0.9595D+27                   993.6033     4.9680    38.9082
         TOT.                       20.543    3715.9463    29.8358    86.5686

 210.00  VIB.     0.7385D+02                  2351.2988    23.1446    19.7456
         ROT.     0.5260D+06                   625.9700     2.9808    29.1584
         INT.     0.3884D+08                  2977.2688    26.1254    48.9040
         TRA.     0.1032D+28                  1043.2834     4.9680    39.1506
         TOT.                       20.847    4020.5522    31.0934    88.0546

 220.00  VIB.     0.9661D+02                  2589.2315    24.4499    20.8522
         ROT.     0.5640D+06                   655.7781     2.9808    29.2970
         INT.     0.5449D+08                  3245.0096    27.4307    50.1492
         TRA.     0.1107D+28                  1092.9636     4.9680    39.3817
         TOT.                       21.165    4337.9732    32.3987    89.5310

 230.00  VIB.     0.1265D+03                  2840.4502    25.8014    21.9687
         ROT.     0.6029D+06                   685.5862     2.9808    29.4295
         INT.     0.7628D+08                  3526.0365    28.7822    51.3982
         TRA.     0.1183D+28                  1142.6437     4.9680    39.6026
         TOT.                       21.496    4668.6802    33.7502    91.0008

 240.00  VIB.     0.1659D+03                  3105.4050    27.1965    23.0961
         ROT.     0.6426D+06                   715.3943     2.9808    29.5564
         INT.     0.1066D+09                  3820.7993    30.1773    52.6525
         TRA.     0.1261D+28                  1192.3239     4.9680    39.8140
         TOT.                       21.840    5013.1232    35.1453    92.4665

 250.00  VIB.     0.2177D+03                  3384.5137    28.6315    24.2353
         ROT.     0.6832D+06                   745.2024     2.9808    29.6781
         INT.     0.1487D+09                  4129.7161    31.6123    53.9134
         TRA.     0.1341D+28                  1242.0041     4.9680    40.0168
         TOT.                       22.199    5371.7202    36.5804    93.9302

 260.00  VIB.     0.2861D+03                  3678.1545    30.1022    25.3868
         ROT.     0.7246D+06                   775.0105     2.9808    29.7950
         INT.     0.2073D+09                  4453.1650    33.0830    55.1818
         TRA.     0.1422D+28                  1291.6842     4.9680    40.2117
         TOT.                       22.572    5744.8492    38.0510    95.3934

 270.00  VIB.     0.3764D+03                  3986.6597    31.6036    26.5509
         ROT.     0.7668D+06                   804.8186     2.9808    29.9075
         INT.     0.2886D+09                  4791.4784    34.5844    56.4584
         TRA.     0.1505D+28                  1341.3644     4.9680    40.3992
         TOT.                       22.960    6132.8427    39.5524    96.8576

 280.00  VIB.     0.4960D+03                  4310.3127    33.1309    27.7278
         ROT.     0.8098D+06                   834.6267     2.9808    30.0159
         INT.     0.4017D+09                  5144.9395    36.1117    57.7437
         TRA.     0.1589D+28                  1391.0445     4.9680    40.5798
         TOT.                       23.363    6535.9840    41.0797    98.3235

 290.00  VIB.     0.6546D+03                  4649.3459    34.6788    28.9174
         ROT.     0.8536D+06                   864.4348     2.9808    30.1205
         INT.     0.5588D+09                  5513.7808    37.6596    59.0379
         TRA.     0.1675D+28                  1440.7247     4.9680    40.7542
         TOT.                       23.781    6954.5055    42.6276    99.7920

 300.00  VIB.     0.8653D+03                  5003.9407    36.2423    30.1193
         ROT.     0.8981D+06                   894.2429     2.9808    30.2216
         INT.     0.7771D+09                  5898.1836    39.2232    60.3409
         TRA.     0.1763D+28                  1490.4049     4.9680    40.9226
         TOT.                       24.216    7388.5885    44.1912   101.2635

 310.00  VIB.     0.1146D+04                  5374.2285    37.8166    31.3334
         ROT.     0.9434D+06                   924.0510     2.9808    30.3193
         INT.     0.1081D+10                  6298.2795    40.7974    61.6527
         TRA.     0.1851D+28                  1540.0850     4.9680    41.0855
         TOT.                       24.665    7838.3645    45.7654   102.7381

 320.00  VIB.     0.1519D+04                  5760.2928    39.3969    32.5589
         ROT.     0.9894D+06                   953.8591     2.9808    30.4139
         INT.     0.1503D+10                  6714.1519    42.3777    62.9729
         TRA.     0.1942D+28                  1589.7652     4.9680    41.2432
         TOT.                       25.131    8303.9171    47.3457   104.2161

 330.00  VIB.     0.2018D+04                  6162.1720    40.9789    33.7955
         ROT.     0.1036D+07                   983.6672     2.9808    30.5057
         INT.     0.2091D+10                  7145.8392    43.9597    64.3011
         TRA.     0.2034D+28                  1639.4454     4.9680    41.3961
         TOT.                       25.612    8785.2846    48.9277   105.6972

 340.00  VIB.     0.2685D+04                  6579.8624    42.5585    35.0423
         ROT.     0.1084D+07                  1013.4753     2.9808    30.5946
         INT.     0.2909D+10                  7593.3378    45.5393    65.6369
         TRA.     0.2127D+28                  1689.1255     4.9680    41.5444
         TOT.                       26.109    9282.4633    50.5073   107.1813

 350.00  VIB.     0.3578D+04                  7013.3221    44.1321    36.2987
         ROT.     0.1132D+07                  1043.2834     2.9808    30.6811
         INT.     0.4050D+10                  8056.6055    47.1129    66.9797
         TRA.     0.2221D+28                  1738.8057     4.9680    41.6884
         TOT.                       26.622    9795.4112    52.0810   108.6681

 360.00  VIB.     0.4777D+04                  7462.4740    45.6965    37.5639
         ROT.     0.1181D+07                  1073.0915     2.9808    30.7650
         INT.     0.5640D+10                  8535.5656    48.6773    68.3289
         TRA.     0.2317D+28                  1788.4859     4.9680    41.8284
         TOT.                       27.151   10324.0514    53.6453   110.1572

 370.00  VIB.     0.6388D+04                  7927.2106    47.2486    38.8371
         ROT.     0.1230D+07                  1102.8996     2.9808    30.8467
         INT.     0.7858D+10                  9030.1102    50.2294    69.6838
         TRA.     0.2414D+28                  1838.1660     4.9680    41.9645
         TOT.                       27.695   10868.2762    55.1974   111.6483

 380.00  VIB.     0.8556D+04                  8407.3964    48.7859    40.1176
         ROT.     0.1280D+07                  1132.7077     2.9808    30.9262
         INT.     0.1095D+11                  9540.1041    51.7667    71.0438
         TRA.     0.2513D+28                  1887.8462     4.9680    42.0970
         TOT.                       28.255   11427.9503    56.7348   113.1407

 390.00  VIB.     0.1148D+05                  8902.8726    50.3063    41.4045
         ROT.     0.1331D+07                  1162.5158     2.9808    31.0036
         INT.     0.1528D+11                 10065.3884    53.2871    72.4081
         TRA.     0.2613D+28                  1937.5263     4.9680    42.2260
         TOT.                       28.830   12002.9148    58.2551   114.6341

 400.00  VIB.     0.1542D+05                  9413.4598    51.8078    42.6971
         ROT.     0.1383D+07                  1192.3239     2.9808    31.0791
         INT.     0.2132D+11                 10605.7837    54.7887    73.7762
         TRA.     0.2714D+28                  1987.2065     4.9680    42.3518
         TOT.                       29.420   12592.9902    59.7567   116.1280

   *: NOTE: HEATS OF FORMATION ARE RELATIVE TO THE
            ELEMENTS IN THEIR STANDARD STATE AT 298K
              (=  Standard Enthalpy of Formation).

            Hvib:  Zero-point energy is not included.
                   frequencies of less than zero cm-1 are not included.
            Hrot = (3/2)RT
            Htra = (3/2)RT + pV = (5/2)RT

            Heat capacity is Cp, not Cv

           For more information, see: HTTP://OpenMOPAC.net/Manual/thermochemistry.html


           FORCE CONSTANT IN CARTESIAN COORDINATES (Millidynes/A)

    ATOM   CHEMICAL       X               Y               Z
   NUMBER   SYMBOL  FORCE CONSTANT  FORCE CONSTANT  FORCE CONSTANT

      1       C        9.570786        6.115601        8.682700
      2       C        9.102993        6.489842        8.943789
      3       C        6.346350        9.302211        9.488530
      4       C        6.234001        9.838920        8.885433
      5       C        8.368116        8.426745        8.294205
      6       C        9.044468        8.524686        7.727804
      7       C        8.365401        8.195227        8.324016
      8       C       10.782682        8.238700        8.467882
      9       C       10.105206        6.816596       10.367404
     10       C       13.269982        6.903903        7.146984
     11       C       13.108814        6.515474        6.860245
     12       H        2.125230        0.679529        3.564217
     13       H        1.789233        0.697756        3.742322
     14       H        0.652308        2.328650        3.329636
     15       H        0.669270        1.726385        3.688079
     16       H        1.754642        0.722367        3.900533
     17       H        1.707134        3.967634        0.693731
     18       H        4.588616        0.878876        0.916122
     19       H        0.688400        3.483796        2.199069
     20       H        1.764974        4.313068        0.665569
     21       H        2.052477        0.736676        3.989526
     22       H        2.516889        0.703255        3.573583
     23       H        1.137618        1.150373        4.132497
     24       H        2.221091        3.227956        0.962880
     25       H        4.355670        0.885943        0.932776
     26       H        4.793986        0.791964        0.867454
     27       H        0.714518        2.767289        3.001335



 TOTAL CPU TIME:             5.31 SECONDS

 == MOPAC DONE ==
