 *******************************************************************************
 ** Site#: 14399           For non-commercial use only        Version 13.159M **
 *******************************************************************************
 ** Cite this work as: MOPAC2012, James J. P. Stewart, Stewart Computational  **
 ** Chemistry, Version 13.159M web: HTTP://OpenMOPAC.net  Days remaining:   6 **
 *******************************************************************************
 **                                                                           **
 **                                MOPAC2012                                  **
 **                                                                           **
 *******************************************************************************

                            PM3 CALCULATION RESULTS


 *******************************************************************************
 *  CALCULATION DONE:                                Mon Jun  2 11:11:37 2014  *
 *  PM3      - The PM3 Hamiltonian to be used
 *  PRECISE  - CRITERIA TO BE INCREASED BY 100 TIMES
 *  NOSYM    - POINT-GROUP SYMMETRY SET TO C1
 *  T=       - A TIME OF 172800.0 SECONDS REQUESTED
 *  DUMP=N   - RESTART FILE WRITTEN EVERY  7200.000 SECONDS
 *******************************************************************************
pm3  precise nosym
 InChI=1S/C10H14/c1-2-3-4-7-10-8-5-6-9-10/h2-5,7-8,10H,6,9H2,1H3

   ATOM   CHEMICAL          X               Y               Z
  NUMBER   SYMBOL      (ANGSTROMS)     (ANGSTROMS)     (ANGSTROMS)
 
     1       C          1.23950000  *   0.19670000  *  -0.98750000  *
     2       C          2.23850000  *  -0.96810000  *  -0.94210000  *
     3       C          3.54910000  *  -0.40550000  *  -0.39060000  *
     4       C         -4.44730000  *  -0.23540000  *   1.68530000  *
     5       C          2.09560000  *   1.39000000  *  -0.73730000  *
     6       C          0.19120000  *   0.08830000  *   0.08540000  *
     7       C          3.33660000  *   1.06530000  *  -0.41130000  *
     8       C         -3.42550000  *  -0.12060000  *   0.60110000  *
     9       C         -2.12140000  *  -0.07240000  *   0.87530000  *
    10       C         -1.11350000  *   0.04060000  *  -0.19050000  *
    11       H          0.79730000  *   0.28280000  *  -2.00870000  *
    12       H          1.89100000  *  -1.84760000  *  -0.35020000  *
    13       H          2.41310000  *  -1.34160000  *  -1.97910000  *
    14       H          3.72820000  *  -0.73500000  *   0.65860000  *
    15       H          4.41970000  *  -0.68540000  *  -1.02710000  *
    16       H         -4.38250000  *   0.63850000  *   2.37270000  *
    17       H         -4.29300000  *  -1.17360000  *   2.26520000  *
    18       H         -5.47010000  *  -0.25980000  *   1.24610000  *
    19       H          1.73900000  *   2.41770000  *  -0.77940000  *
    20       H          0.52680000  *   0.03780000  *   1.11930000  *
    21       H         -3.77380000  *  -0.07680000  *  -0.42780000  *
    22       H          4.10060000  *   1.79630000  *  -0.15430000  *
    23       H         -1.44550000  *   0.08540000  *  -1.22500000  *
    24       H         -1.79370000  *  -0.11770000  *   1.91170000  *
 


          CARTESIAN COORDINATES 

    NO.       ATOM         X         Y         Z

     1         C        1.2395    0.1967   -0.9875
     2         C        2.2385   -0.9681   -0.9421
     3         C        3.5491   -0.4055   -0.3906
     4         C       -4.4473   -0.2354    1.6853
     5         C        2.0956    1.3900   -0.7373
     6         C        0.1912    0.0883    0.0854
     7         C        3.3366    1.0653   -0.4113
     8         C       -3.4255   -0.1206    0.6011
     9         C       -2.1214   -0.0724    0.8753
    10         C       -1.1135    0.0406   -0.1905
    11         H        0.7973    0.2828   -2.0087
    12         H        1.8910   -1.8476   -0.3502
    13         H        2.4131   -1.3416   -1.9791
    14         H        3.7282   -0.7350    0.6586
    15         H        4.4197   -0.6854   -1.0271
    16         H       -4.3825    0.6385    2.3727
    17         H       -4.2930   -1.1736    2.2652
    18         H       -5.4701   -0.2598    1.2461
    19         H        1.7390    2.4177   -0.7794
    20         H        0.5268    0.0378    1.1193
    21         H       -3.7738   -0.0768   -0.4278
    22         H        4.1006    1.7963   -0.1543
    23         H       -1.4455    0.0854   -1.2250
    24         H       -1.7937   -0.1177    1.9117

  H: (PM3): J. J. P. STEWART, J. COMP. CHEM. 10, 209 (1989).
  C: (PM3): J. J. P. STEWART, J. COMP. CHEM. 10, 209 (1989).

           Empirical Formula: C10 H14  =    24 atoms



      MOLECULAR POINT GROUP   :   C1  


      RHF CALCULATION, NO. OF DOUBLY OCCUPIED LEVELS =   27

      Geometry optimization using EF

          DIAGONAL MATRIX USED AS START HESSIAN

 CYCLE:     1 TIME:   0.011 TIME LEFT:  2.00D  GRAD.:    67.556 HEAT: 30.58926
 CYCLE:     2 TIME:   0.022 TIME LEFT:  2.00D  GRAD.:    59.336 HEAT: 29.76460
 CYCLE:     3 TIME:   0.008 TIME LEFT:  2.00D  GRAD.:    47.214 HEAT: 29.16295
 CYCLE:     4 TIME:   0.014 TIME LEFT:  2.00D  GRAD.:    33.255 HEAT: 28.71502
 CYCLE:     5 TIME:   0.015 TIME LEFT:  2.00D  GRAD.:    22.282 HEAT: 28.50056
 CYCLE:     6 TIME:   0.008 TIME LEFT:  2.00D  GRAD.:    19.548 HEAT: 28.30264
 CYCLE:     7 TIME:   0.009 TIME LEFT:  2.00D  GRAD.:    22.775 HEAT: 28.15642
 CYCLE:     8 TIME:   0.018 TIME LEFT:  2.00D  GRAD.:    21.114 HEAT: 28.04448
 CYCLE:     9 TIME:   0.014 TIME LEFT:  2.00D  GRAD.:    12.808 HEAT: 27.95772
 CYCLE:    10 TIME:   0.008 TIME LEFT:  2.00D  GRAD.:    14.029 HEAT: 27.93065
 CYCLE:    11 TIME:   0.014 TIME LEFT:  2.00D  GRAD.:     8.628 HEAT: 27.88641
 CYCLE:    12 TIME:   0.014 TIME LEFT:  2.00D  GRAD.:     5.247 HEAT: 27.86764
 CYCLE:    13 TIME:   0.008 TIME LEFT:  2.00D  GRAD.:     4.898 HEAT: 27.85141
 CYCLE:    14 TIME:   0.008 TIME LEFT:  2.00D  GRAD.:     6.278 HEAT: 27.83876
 CYCLE:    15 TIME:   0.014 TIME LEFT:  2.00D  GRAD.:     5.797 HEAT: 27.83150
 CYCLE:    16 TIME:   0.008 TIME LEFT:  2.00D  GRAD.:     5.188 HEAT: 27.82617
 CYCLE:    17 TIME:   0.008 TIME LEFT:  2.00D  GRAD.:     4.654 HEAT: 27.81901
 CYCLE:    18 TIME:   0.008 TIME LEFT:  2.00D  GRAD.:     5.605 HEAT: 27.81454
 CYCLE:    19 TIME:   0.008 TIME LEFT:  2.00D  GRAD.:     4.114 HEAT: 27.80401
 CYCLE:    20 TIME:   0.021 TIME LEFT:  2.00D  GRAD.:     4.479 HEAT: 27.80011
 CYCLE:    21 TIME:   0.008 TIME LEFT:  2.00D  GRAD.:     3.394 HEAT: 27.79421
 CYCLE:    22 TIME:   0.008 TIME LEFT:  2.00D  GRAD.:     9.381 HEAT: 27.79107
 CYCLE:    23 TIME:   0.011 TIME LEFT:  2.00D  GRAD.:     5.984 HEAT: 27.76882
 CYCLE:    24 TIME:   0.009 TIME LEFT:  2.00D  GRAD.:     8.289 HEAT: 27.76597
 CYCLE:    25 TIME:   0.008 TIME LEFT:  2.00D  GRAD.:     5.102 HEAT: 27.75021
 CYCLE:    26 TIME:   0.014 TIME LEFT:  2.00D  GRAD.:     5.019 HEAT: 27.74649
 CYCLE:    27 TIME:   0.008 TIME LEFT:  2.00D  GRAD.:     2.657 HEAT: 27.73910
 CYCLE:    28 TIME:   0.008 TIME LEFT:  2.00D  GRAD.:     3.020 HEAT: 27.73434
 CYCLE:    29 TIME:   0.008 TIME LEFT:  2.00D  GRAD.:     2.495 HEAT: 27.72705
 CYCLE:    30 TIME:   0.008 TIME LEFT:  2.00D  GRAD.:     4.739 HEAT: 27.71212
 CYCLE:    31 TIME:   0.008 TIME LEFT:  2.00D  GRAD.:     4.352 HEAT: 27.69969
 CYCLE:    32 TIME:   0.008 TIME LEFT:  2.00D  GRAD.:     3.739 HEAT: 27.68788
 CYCLE:    33 TIME:   0.008 TIME LEFT:  2.00D  GRAD.:     3.390 HEAT: 27.67668
 CYCLE:    34 TIME:   0.008 TIME LEFT:  2.00D  GRAD.:     5.324 HEAT: 27.66796
 CYCLE:    35 TIME:   0.008 TIME LEFT:  2.00D  GRAD.:     4.227 HEAT: 27.65546
 CYCLE:    36 TIME:   0.008 TIME LEFT:  2.00D  GRAD.:     3.248 HEAT: 27.63711
 CYCLE:    37 TIME:   0.008 TIME LEFT:  2.00D  GRAD.:     3.798 HEAT: 27.61456
 CYCLE:    38 TIME:   0.008 TIME LEFT:  2.00D  GRAD.:     3.250 HEAT: 27.60155
 CYCLE:    39 TIME:   0.009 TIME LEFT:  2.00D  GRAD.:     2.893 HEAT: 27.58845
 CYCLE:    40 TIME:   0.008 TIME LEFT:  2.00D  GRAD.:     3.099 HEAT: 27.56828
 CYCLE:    41 TIME:   0.008 TIME LEFT:  2.00D  GRAD.:     3.196 HEAT: 27.55076
 CYCLE:    42 TIME:   0.008 TIME LEFT:  2.00D  GRAD.:     2.486 HEAT: 27.53901
 CYCLE:    43 TIME:   0.008 TIME LEFT:  2.00D  GRAD.:     2.411 HEAT: 27.52770
 CYCLE:    44 TIME:   0.008 TIME LEFT:  2.00D  GRAD.:     2.742 HEAT: 27.52047
 CYCLE:    45 TIME:   0.008 TIME LEFT:  2.00D  GRAD.:     3.436 HEAT: 27.51708
 CYCLE:    46 TIME:   0.012 TIME LEFT:  2.00D  GRAD.:     1.690 HEAT: 27.50844
 CYCLE:    47 TIME:   0.008 TIME LEFT:  2.00D  GRAD.:     1.336 HEAT: 27.50374
 CYCLE:    48 TIME:   0.008 TIME LEFT:  2.00D  GRAD.:     1.834 HEAT: 27.49670
 CYCLE:    49 TIME:   0.008 TIME LEFT:  2.00D  GRAD.:     1.662 HEAT: 27.49186
 CYCLE:    50 TIME:   0.008 TIME LEFT:  2.00D  GRAD.:     1.639 HEAT: 27.48679
 CYCLE:    51 TIME:   0.008 TIME LEFT:  2.00D  GRAD.:     2.146 HEAT: 27.47934
 CYCLE:    52 TIME:   0.011 TIME LEFT:  2.00D  GRAD.:     2.445 HEAT: 27.47168
 CYCLE:    53 TIME:   0.008 TIME LEFT:  2.00D  GRAD.:     2.370 HEAT: 27.46363
 CYCLE:    54 TIME:   0.008 TIME LEFT:  2.00D  GRAD.:     1.862 HEAT: 27.45472
 CYCLE:    55 TIME:   0.008 TIME LEFT:  2.00D  GRAD.:     1.699 HEAT: 27.44703
 CYCLE:    56 TIME:   0.008 TIME LEFT:  2.00D  GRAD.:     1.598 HEAT: 27.44067
 CYCLE:    57 TIME:   0.008 TIME LEFT:  2.00D  GRAD.:     1.594 HEAT: 27.43565
 CYCLE:    58 TIME:   0.008 TIME LEFT:  2.00D  GRAD.:     1.206 HEAT: 27.43228
 CYCLE:    59 TIME:   0.008 TIME LEFT:  2.00D  GRAD.:     1.647 HEAT: 27.42922
 CYCLE:    60 TIME:   0.008 TIME LEFT:  2.00D  GRAD.:     1.035 HEAT: 27.42654
 CYCLE:    61 TIME:   0.008 TIME LEFT:  2.00D  GRAD.:     0.566 HEAT: 27.42440
 CYCLE:    62 TIME:   0.008 TIME LEFT:  2.00D  GRAD.:     0.491 HEAT: 27.42400
 CYCLE:    63 TIME:   0.008 TIME LEFT:  2.00D  GRAD.:     0.363 HEAT: 27.42349
 CYCLE:    64 TIME:   0.008 TIME LEFT:  2.00D  GRAD.:     0.325 HEAT: 27.42318
 CYCLE:    65 TIME:   0.008 TIME LEFT:  2.00D  GRAD.:     0.361 HEAT: 27.42281
 CYCLE:    66 TIME:   0.008 TIME LEFT:  2.00D  GRAD.:     0.401 HEAT: 27.42245
 CYCLE:    67 TIME:   0.008 TIME LEFT:  2.00D  GRAD.:     0.411 HEAT: 27.42205
 CYCLE:    68 TIME:   0.008 TIME LEFT:  2.00D  GRAD.:     0.390 HEAT: 27.42162
 CYCLE:    69 TIME:   0.008 TIME LEFT:  2.00D  GRAD.:     0.344 HEAT: 27.42125
 CYCLE:    70 TIME:   0.008 TIME LEFT:  2.00D  GRAD.:     0.307 HEAT: 27.42097
 CYCLE:    71 TIME:   0.008 TIME LEFT:  2.00D  GRAD.:     0.297 HEAT: 27.42075
 CYCLE:    72 TIME:   0.008 TIME LEFT:  2.00D  GRAD.:     0.318 HEAT: 27.42050
 CYCLE:    73 TIME:   0.008 TIME LEFT:  2.00D  GRAD.:     0.353 HEAT: 27.42016
 CYCLE:    74 TIME:   0.008 TIME LEFT:  2.00D  GRAD.:     0.365 HEAT: 27.41980
 CYCLE:    75 TIME:   0.008 TIME LEFT:  2.00D  GRAD.:     0.338 HEAT: 27.41947
 CYCLE:    76 TIME:   0.008 TIME LEFT:  2.00D  GRAD.:     0.338 HEAT: 27.41918
 CYCLE:    77 TIME:   0.008 TIME LEFT:  2.00D  GRAD.:     0.394 HEAT: 27.41882
 CYCLE:    78 TIME:   0.008 TIME LEFT:  2.00D  GRAD.:     0.526 HEAT: 27.41823
 CYCLE:    79 TIME:   0.008 TIME LEFT:  2.00D  GRAD.:     0.603 HEAT: 27.41753
 CYCLE:    80 TIME:   0.008 TIME LEFT:  2.00D  GRAD.:     0.689 HEAT: 27.41635
 CYCLE:    81 TIME:   0.008 TIME LEFT:  2.00D  GRAD.:     0.615 HEAT: 27.41568
 CYCLE:    82 TIME:   0.008 TIME LEFT:  2.00D  GRAD.:     0.842 HEAT: 27.41408
 CYCLE:    83 TIME:   0.008 TIME LEFT:  2.00D  GRAD.:     0.659 HEAT: 27.41343
 CYCLE:    84 TIME:   0.008 TIME LEFT:  2.00D  GRAD.:     0.832 HEAT: 27.41220
 CYCLE:    85 TIME:   0.008 TIME LEFT:  2.00D  GRAD.:     0.505 HEAT: 27.41165
 CYCLE:    86 TIME:   0.008 TIME LEFT:  2.00D  GRAD.:     0.399 HEAT: 27.41121
 CYCLE:    87 TIME:   0.008 TIME LEFT:  2.00D  GRAD.:     0.534 HEAT: 27.40968
 CYCLE:    88 TIME:   0.008 TIME LEFT:  2.00D  GRAD.:     1.940 HEAT: 27.40731
 CYCLE:    89 TIME:   0.008 TIME LEFT:  2.00D  GRAD.:     1.560 HEAT: 27.40407
 CYCLE:    90 TIME:   0.008 TIME LEFT:  2.00D  GRAD.:     2.233 HEAT: 27.39362
 CYCLE:    91 TIME:   0.015 TIME LEFT:  2.00D  GRAD.:     7.416 HEAT: 27.37956
 CYCLE:    92 TIME:   0.014 TIME LEFT:  2.00D  GRAD.:     4.990 HEAT: 27.36604
 CYCLE:    93 TIME:   0.008 TIME LEFT:  2.00D  GRAD.:     2.465 HEAT: 27.33870
 CYCLE:    94 TIME:   0.008 TIME LEFT:  2.00D  GRAD.:     4.213 HEAT: 27.31740
 CYCLE:    95 TIME:   0.008 TIME LEFT:  2.00D  GRAD.:     7.807 HEAT: 27.30312
 CYCLE:    96 TIME:   0.008 TIME LEFT:  2.00D  GRAD.:     4.840 HEAT: 27.26775
 CYCLE:    97 TIME:   0.008 TIME LEFT:  2.00D  GRAD.:     3.457 HEAT: 27.24527
 CYCLE:    98 TIME:   0.008 TIME LEFT:  2.00D  GRAD.:     9.861 HEAT: 27.22824
 CYCLE:    99 TIME:   0.008 TIME LEFT:  2.00D  GRAD.:     4.345 HEAT: 27.18935
 CYCLE:   100 TIME:   0.008 TIME LEFT:  2.00D  GRAD.:     3.127 HEAT: 27.15506
 CYCLE:   101 TIME:   0.008 TIME LEFT:  2.00D  GRAD.:    10.729 HEAT: 27.11421
 CYCLE:   102 TIME:   0.008 TIME LEFT:  2.00D  GRAD.:     3.337 HEAT: 27.06549
 CYCLE:   103 TIME:   0.008 TIME LEFT:  2.00D  GRAD.:     2.948 HEAT: 27.03194
 CYCLE:   104 TIME:   0.008 TIME LEFT:  2.00D  GRAD.:     8.609 HEAT: 27.01427
 CYCLE:   105 TIME:   0.008 TIME LEFT:  2.00D  GRAD.:     2.557 HEAT: 26.98246
 CYCLE:   106 TIME:   0.008 TIME LEFT:  2.00D  GRAD.:     2.423 HEAT: 26.97118
 CYCLE:   107 TIME:   0.008 TIME LEFT:  2.00D  GRAD.:     3.221 HEAT: 26.95347
 CYCLE:   108 TIME:   0.008 TIME LEFT:  2.00D  GRAD.:     2.604 HEAT: 26.94421
 CYCLE:   109 TIME:   0.008 TIME LEFT:  2.00D  GRAD.:     2.608 HEAT: 26.93988
 CYCLE:   110 TIME:   0.009 TIME LEFT:  2.00D  GRAD.:     1.946 HEAT: 26.93624
 CYCLE:   111 TIME:   0.008 TIME LEFT:  2.00D  GRAD.:     1.359 HEAT: 26.93296
 CYCLE:   112 TIME:   0.008 TIME LEFT:  2.00D  GRAD.:     1.962 HEAT: 26.92820
 CYCLE:   113 TIME:   0.011 TIME LEFT:  2.00D  GRAD.:     2.624 HEAT: 26.92114
 CYCLE:   114 TIME:   0.012 TIME LEFT:  2.00D  GRAD.:     2.277 HEAT: 26.91565
 CYCLE:   115 TIME:   0.011 TIME LEFT:  2.00D  GRAD.:     1.722 HEAT: 26.91071
 CYCLE:   116 TIME:   0.010 TIME LEFT:  2.00D  GRAD.:     1.511 HEAT: 26.90685
 CYCLE:   117 TIME:   0.012 TIME LEFT:  2.00D  GRAD.:     1.485 HEAT: 26.90301
 CYCLE:   118 TIME:   0.010 TIME LEFT:  2.00D  GRAD.:     1.152 HEAT: 26.89976
 CYCLE:   119 TIME:   0.008 TIME LEFT:  2.00D  GRAD.:     1.777 HEAT: 26.89699
 CYCLE:   120 TIME:   0.008 TIME LEFT:  2.00D  GRAD.:     1.832 HEAT: 26.89276
 CYCLE:   121 TIME:   0.008 TIME LEFT:  2.00D  GRAD.:     2.072 HEAT: 26.88461
 CYCLE:   122 TIME:   0.008 TIME LEFT:  2.00D  GRAD.:     1.505 HEAT: 26.88002
 CYCLE:   123 TIME:   0.008 TIME LEFT:  2.00D  GRAD.:     2.217 HEAT: 26.86723
 CYCLE:   124 TIME:   0.008 TIME LEFT:  2.00D  GRAD.:     1.946 HEAT: 26.86265
 CYCLE:   125 TIME:   0.008 TIME LEFT:  2.00D  GRAD.:     1.989 HEAT: 26.85352
 CYCLE:   126 TIME:   0.008 TIME LEFT:  2.00D  GRAD.:     1.868 HEAT: 26.84709
 CYCLE:   127 TIME:   0.008 TIME LEFT:  2.00D  GRAD.:     1.482 HEAT: 26.84224
 CYCLE:   128 TIME:   0.008 TIME LEFT:  2.00D  GRAD.:     1.394 HEAT: 26.83953
 CYCLE:   129 TIME:   0.008 TIME LEFT:  2.00D  GRAD.:     1.144 HEAT: 26.83691
 CYCLE:   130 TIME:   0.013 TIME LEFT:  2.00D  GRAD.:     0.983 HEAT: 26.83492
 CYCLE:   131 TIME:   0.008 TIME LEFT:  2.00D  GRAD.:     0.730 HEAT: 26.83299
 CYCLE:   132 TIME:   0.008 TIME LEFT:  2.00D  GRAD.:     0.680 HEAT: 26.83215
 CYCLE:   133 TIME:   0.008 TIME LEFT:  2.00D  GRAD.:     0.994 HEAT: 26.82994
 CYCLE:   134 TIME:   0.008 TIME LEFT:  2.00D  GRAD.:     0.915 HEAT: 26.82907
 CYCLE:   135 TIME:   0.008 TIME LEFT:  2.00D  GRAD.:     0.804 HEAT: 26.82733
 CYCLE:   136 TIME:   0.008 TIME LEFT:  2.00D  GRAD.:     1.045 HEAT: 26.82583
 CYCLE:   137 TIME:   0.008 TIME LEFT:  2.00D  GRAD.:     0.861 HEAT: 26.82443
 CYCLE:   138 TIME:   0.008 TIME LEFT:  2.00D  GRAD.:     0.922 HEAT: 26.82321
 CYCLE:   139 TIME:   0.008 TIME LEFT:  2.00D  GRAD.:     0.784 HEAT: 26.82193
 CYCLE:   140 TIME:   0.008 TIME LEFT:  2.00D  GRAD.:     1.066 HEAT: 26.81974
 CYCLE:   141 TIME:   0.008 TIME LEFT:  2.00D  GRAD.:     0.986 HEAT: 26.81806
 CYCLE:   142 TIME:   0.009 TIME LEFT:  2.00D  GRAD.:     0.881 HEAT: 26.81523
 CYCLE:   143 TIME:   0.008 TIME LEFT:  2.00D  GRAD.:     0.593 HEAT: 26.81452
 CYCLE:   144 TIME:   0.008 TIME LEFT:  2.00D  GRAD.:     0.383 HEAT: 26.81404
 CYCLE:   145 TIME:   0.008 TIME LEFT:  2.00D  GRAD.:     0.337 HEAT: 26.81367
 CYCLE:   146 TIME:   0.012 TIME LEFT:  2.00D  GRAD.:     0.327 HEAT: 26.81338
 CYCLE:   147 TIME:   0.008 TIME LEFT:  2.00D  GRAD.:     0.273 HEAT: 26.81318
 CYCLE:   148 TIME:   0.008 TIME LEFT:  2.00D  GRAD.:     0.226 HEAT: 26.81303
 CYCLE:   149 TIME:   0.008 TIME LEFT:  2.00D  GRAD.:     0.237 HEAT: 26.81293
 CYCLE:   150 TIME:   0.008 TIME LEFT:  2.00D  GRAD.:     0.177 HEAT: 26.81289
 CYCLE:   151 TIME:   0.008 TIME LEFT:  2.00D  GRAD.:     0.246 HEAT: 26.81285
 CYCLE:   152 TIME:   0.008 TIME LEFT:  2.00D  GRAD.:     0.168 HEAT: 26.81279
 CYCLE:   153 TIME:   0.008 TIME LEFT:  2.00D  GRAD.:     0.175 HEAT: 26.81271
 CYCLE:   154 TIME:   0.008 TIME LEFT:  2.00D  GRAD.:     0.391 HEAT: 26.81251
 CYCLE:   155 TIME:   0.008 TIME LEFT:  2.00D  GRAD.:     0.498 HEAT: 26.81224
 CYCLE:   156 TIME:   0.008 TIME LEFT:  2.00D  GRAD.:     0.912 HEAT: 26.81125
 CYCLE:   157 TIME:   0.008 TIME LEFT:  2.00D  GRAD.:     0.895 HEAT: 26.81033
 CYCLE:   158 TIME:   0.009 TIME LEFT:  2.00D  GRAD.:     3.206 HEAT: 26.80544
 CYCLE:   159 TIME:   0.008 TIME LEFT:  2.00D  GRAD.:     1.341 HEAT: 26.80120
 CYCLE:   160 TIME:   0.008 TIME LEFT:  2.00D  GRAD.:     0.807 HEAT: 26.79854
 CYCLE:   161 TIME:   0.009 TIME LEFT:  2.00D  GRAD.:     1.458 HEAT: 26.79603
 CYCLE:   162 TIME:   0.008 TIME LEFT:  2.00D  GRAD.:     1.289 HEAT: 26.79474
 CYCLE:   163 TIME:   0.008 TIME LEFT:  2.00D  GRAD.:     0.886 HEAT: 26.79300
 CYCLE:   164 TIME:   0.008 TIME LEFT:  2.00D  GRAD.:     1.338 HEAT: 26.79178
 CYCLE:   165 TIME:   0.008 TIME LEFT:  2.00D  GRAD.:     0.938 HEAT: 26.79009
 CYCLE:   166 TIME:   0.008 TIME LEFT:  2.00D  GRAD.:     0.535 HEAT: 26.78889
 CYCLE:   167 TIME:   0.008 TIME LEFT:  2.00D  GRAD.:     0.794 HEAT: 26.78833
 CYCLE:   168 TIME:   0.008 TIME LEFT:  2.00D  GRAD.:     1.295 HEAT: 26.78840
 CYCLE:   169 TIME:   0.008 TIME LEFT:  2.00D  GRAD.:     0.877 HEAT: 26.78712
 CYCLE:   170 TIME:   0.008 TIME LEFT:  2.00D  GRAD.:     0.273 HEAT: 26.78690
 CYCLE:   171 TIME:   0.008 TIME LEFT:  2.00D  GRAD.:     0.231 HEAT: 26.78658
 CYCLE:   172 TIME:   0.008 TIME LEFT:  2.00D  GRAD.:     0.290 HEAT: 26.78635
 CYCLE:   173 TIME:   0.008 TIME LEFT:  2.00D  GRAD.:     0.196 HEAT: 26.78626
 CYCLE:   174 TIME:   0.009 TIME LEFT:  2.00D  GRAD.:     0.184 HEAT: 26.78616
 CYCLE:   175 TIME:   0.008 TIME LEFT:  2.00D  GRAD.:     0.141 HEAT: 26.78613
 CYCLE:   176 TIME:   0.008 TIME LEFT:  2.00D  GRAD.:     0.225 HEAT: 26.78610
 CYCLE:   177 TIME:   0.008 TIME LEFT:  2.00D  GRAD.:     0.074 HEAT: 26.78607
 CYCLE:   178 TIME:   0.008 TIME LEFT:  2.00D  GRAD.:     0.052 HEAT: 26.78607
 CYCLE:   179 TIME:   0.008 TIME LEFT:  2.00D  GRAD.:     0.029 HEAT: 26.78606

     RMS GRADIENT =  0.02886  IS LESS THAN CUTOFF =  0.05000



 -------------------------------------------------------------------------------
pm3  precise nosym
 InChI=1S/C10H14/c1-2-3-4-7-10-8-5-6-9-10/h2-5,7-8,10H,6,9H2,1H3



     GEOMETRY OPTIMISED USING EIGENVECTOR FOLLOWING (EF).     
     SCF FIELD WAS ACHIEVED                                   


                              PM3 CALCULATION
                                                       MOPAC2012 (Version: 13.159M)
                                                       Mon Jun  2 11:11:39 2014
                                                       No. of days left =   6




          FINAL HEAT OF FORMATION =         26.78606 KCAL/MOL =     112.07289 KJ/MOL


          TOTAL ENERGY            =      -1399.90011 EV
          ELECTRONIC ENERGY       =      -7361.43796 EV  POINT GROUP:     C1  
          CORE-CORE REPULSION     =       5961.53786 EV
          COSMO AREA              =        201.70 SQUARE ANGSTROMS
          COSMO VOLUME            =        196.93 CUBIC ANGSTROMS

          GRADIENT NORM           =          0.02886
          IONIZATION POTENTIAL    =          8.998806 EV
          HOMO LUMO ENERGIES (EV) =         -8.999  0.207
          NO. OF FILLED LEVELS    =         27
          MOLECULAR WEIGHT        =        134.221

          MOLECULAR DIMENSIONS (Angstroms)

            Atom       Atom       Distance
            H    16    H    15    10.03969
            H    19    H    18     4.37111
            H    14    H    11     3.11187


          SCF CALCULATIONS        =        194
          COMPUTATION TIME        =          1.585 SECONDS




   ATOM   CHEMICAL          X               Y               Z
  NUMBER   SYMBOL      (ANGSTROMS)     (ANGSTROMS)     (ANGSTROMS)
 
     1       C          1.24945348  *   0.21458703  *  -0.86788784  *
     2       C          2.22169894  *  -0.98765387  *  -0.87316909  *
     3       C          3.62392972  *  -0.40568771  *  -0.64157186  *
     4       C         -4.51250655  *  -0.23395923  *   1.59318736  *
     5       C          2.12177956  *   1.40180965  *  -0.56206512  *
     6       C          0.18326877  *   0.05832272  *   0.16396364  *
     7       C          3.40952213  *   1.06080153  *  -0.44728543  *
     8       C         -3.45008285  *  -0.07962728  *   0.57668197  *
     9       C         -2.14640091  *  -0.08691903  *   0.87831649  *
    10       C         -1.11962986  *   0.06694051  *  -0.13926646  *
    11       H          0.79606114  *   0.35141365  *  -1.87884355  *
    12       H          1.95895768  *  -1.72142981  *  -0.08919178  *
    13       H          2.16520433  *  -1.53695375  *  -1.82938441  *
    14       H          4.11978668  *  -0.85095151  *   0.24036152  *
    15       H          4.29775278  *  -0.59145747  *  -1.49826079  *
    16       H         -5.17337745  *   0.64351195  *   1.59494479  *
    17       H         -4.11886319  *  -0.35449125  *   2.61130007  *
    18       H         -5.13251133  *  -1.11315878  *   1.37114189  *
    19       H          1.69665740  *   2.39960714  *  -0.45897189  *
    20       H          0.52800474  *  -0.06435582  *   1.19865453  *
    21       H         -3.78863590  *   0.04402510  *  -0.45977318  *
    22       H          4.24304616  *   1.73151920  *  -0.24066543  *
    23       H         -1.45899389  *   0.19168939  *  -1.17637868  *
    24       H         -1.80797059  *  -0.21054421  *   1.91566559  *

           Empirical Formula: C10 H14  =    24 atoms



      MOLECULAR POINT GROUP   :   C1  


                  EIGENVALUES  
 -40.57363 -36.63559 -32.39955 -28.02911 -27.99296 -24.52534 -20.51516 -19.93310
 -19.28463 -18.41295 -17.53612 -16.49728 -16.08030 -14.98917 -14.32113 -13.91302
 -13.84577 -13.40233 -13.02444 -12.84231 -12.62644 -12.45920 -12.22654 -12.08563
 -11.40384  -9.67242  -8.99881   0.20738   1.10676   2.09848   3.17364   3.43651
   3.56879   3.65833   3.71298   3.83944   3.85191   3.89704   3.99695   4.11824
   4.18332   4.27966   4.31741   4.35905   4.46768   4.47126   4.93309   4.98165
   5.31948   5.50581   5.57210   5.94982   6.09163   6.14877


              NET ATOMIC CHARGES AND DIPOLE CONTRIBUTIONS

  ATOM NO.   TYPE          CHARGE      No. of ELECS.   s-Pop       p-Pop       
    1          C          -0.015705        4.0157     1.16197     2.85373
    2          C          -0.097825        4.0978     1.16906     2.92877
    3          C          -0.066247        4.0662     1.15412     2.91213
    4          C          -0.076103        4.0761     1.12528     2.95082
    5          C          -0.150275        4.1503     1.20423     2.94604
    6          C          -0.129978        4.1300     1.19838     2.93159
    7          C          -0.151468        4.1515     1.20231     2.94916
    8          C          -0.133666        4.1337     1.19473     2.93893
    9          C          -0.121541        4.1215     1.18222     2.93932
   10          C          -0.112370        4.1124     1.18228     2.93009
   11          H           0.071208        0.9288     0.92879
   12          H           0.056656        0.9433     0.94334
   13          H           0.051089        0.9489     0.94891
   14          H           0.055493        0.9445     0.94451
   15          H           0.055695        0.9443     0.94431
   16          H           0.045117        0.9549     0.95488
   17          H           0.041969        0.9580     0.95803
   18          H           0.045061        0.9549     0.95494
   19          H           0.114561        0.8854     0.88544
   20          H           0.105336        0.8947     0.89466
   21          H           0.098075        0.9019     0.90193
   22          H           0.110727        0.8893     0.88927
   23          H           0.101399        0.8986     0.89860
   24          H           0.102796        0.8972     0.89720
 DIPOLE           X         Y         Z       TOTAL
 POINT-CHG.    -0.104    -0.156     0.017     0.189
 HYBRID        -0.011     0.014     0.013     0.022
 SUM           -0.115    -0.143     0.030     0.186


          ATOMIC ORBITAL ELECTRON POPULATIONS

    Atom      s        px        py        pz   
    1  C   1.16197   0.94528   0.93557   0.97288
    2  C   1.16906   0.94466   0.96638   1.01773
    3  C   1.15412   0.96363   0.94013   1.00837
    4  C   1.12528   0.97358   1.00388   0.97336
    5  C   1.20423   0.95427   0.97967   1.01210
    6  C   1.19838   0.94537   0.99747   0.98876
    7  C   1.20231   0.97030   0.96951   1.00936
    8  C   1.19473   0.95179   0.99730   0.98985
    9  C   1.18222   0.94090   1.01900   0.97942
   10  C   1.18228   0.94112   1.01079   0.97817
   11  H   0.92879
   12  H   0.94334
   13  H   0.94891
   14  H   0.94451
   15  H   0.94431
   16  H   0.95488
   17  H   0.95803
   18  H   0.95494
   19  H   0.88544
   20  H   0.89466
   21  H   0.90193
   22  H   0.88927
   23  H   0.89860
   24  H   0.89720
 *******************************************************************************
 ** Site#: 14399           For non-commercial use only        Version 13.159M **
 *******************************************************************************
 ** Cite this work as: MOPAC2012, James J. P. Stewart, Stewart Computational  **
 ** Chemistry, Version 13.159M web: HTTP://OpenMOPAC.net  Days remaining:   6 **
 *******************************************************************************
 **                                                                           **
 **                                MOPAC2012                                  **
 **                                                                           **
 *******************************************************************************

                            PM3 CALCULATION RESULTS


 *******************************************************************************
 *  CALCULATION DONE:                                Mon Jun  2 11:11:39 2014  *
 *  PM3      - The PM3 Hamiltonian to be used
 *  OLDGEO   - PREVIOUS GEOMETRY TO BE USED
 *  PRECISE  - CRITERIA TO BE INCREASED BY 100 TIMES
 *  NOSYM    - POINT-GROUP SYMMETRY SET TO C1
 *  T=       - A TIME OF 172800.0 SECONDS REQUESTED
 *  DUMP=N   - RESTART FILE WRITTEN EVERY  7200.000 SECONDS
 *  THERMO   - THERMODYNAMIC QUANTITIES TO BE CALCULATED
 *******************************************************************************
oldgeo thermo nosym precise  pm3

   ATOM   CHEMICAL          X               Y               Z
  NUMBER   SYMBOL      (ANGSTROMS)     (ANGSTROMS)     (ANGSTROMS)
 
     1       C          1.24945348  *   0.21458703  *  -0.86788784  *
     2       C          2.22169894  *  -0.98765387  *  -0.87316909  *
     3       C          3.62392972  *  -0.40568771  *  -0.64157186  *
     4       C         -4.51250655  *  -0.23395923  *   1.59318736  *
     5       C          2.12177956  *   1.40180965  *  -0.56206512  *
     6       C          0.18326877  *   0.05832272  *   0.16396364  *
     7       C          3.40952213  *   1.06080153  *  -0.44728543  *
     8       C         -3.45008285  *  -0.07962728  *   0.57668197  *
     9       C         -2.14640091  *  -0.08691903  *   0.87831649  *
    10       C         -1.11962986  *   0.06694051  *  -0.13926646  *
    11       H          0.79606114  *   0.35141365  *  -1.87884355  *
    12       H          1.95895768  *  -1.72142981  *  -0.08919178  *
    13       H          2.16520433  *  -1.53695375  *  -1.82938441  *
    14       H          4.11978668  *  -0.85095151  *   0.24036152  *
    15       H          4.29775278  *  -0.59145747  *  -1.49826079  *
    16       H         -5.17337745  *   0.64351195  *   1.59494479  *
    17       H         -4.11886319  *  -0.35449125  *   2.61130007  *
    18       H         -5.13251133  *  -1.11315878  *   1.37114189  *
    19       H          1.69665740  *   2.39960714  *  -0.45897189  *
    20       H          0.52800474  *  -0.06435582  *   1.19865453  *
    21       H         -3.78863590  *   0.04402510  *  -0.45977318  *
    22       H          4.24304616  *   1.73151920  *  -0.24066543  *
    23       H         -1.45899389  *   0.19168939  *  -1.17637868  *
    24       H         -1.80797059  *  -0.21054421  *   1.91566559  *
 


          CARTESIAN COORDINATES 

    NO.       ATOM         X         Y         Z

     1         C        1.2495    0.2146   -0.8679
     2         C        2.2217   -0.9877   -0.8732
     3         C        3.6239   -0.4057   -0.6416
     4         C       -4.5125   -0.2340    1.5932
     5         C        2.1218    1.4018   -0.5621
     6         C        0.1833    0.0583    0.1640
     7         C        3.4095    1.0608   -0.4473
     8         C       -3.4501   -0.0796    0.5767
     9         C       -2.1464   -0.0869    0.8783
    10         C       -1.1196    0.0669   -0.1393
    11         H        0.7961    0.3514   -1.8788
    12         H        1.9590   -1.7214   -0.0892
    13         H        2.1652   -1.5370   -1.8294
    14         H        4.1198   -0.8510    0.2404
    15         H        4.2978   -0.5915   -1.4983
    16         H       -5.1734    0.6435    1.5949
    17         H       -4.1189   -0.3545    2.6113
    18         H       -5.1325   -1.1132    1.3711
    19         H        1.6967    2.3996   -0.4590
    20         H        0.5280   -0.0644    1.1987
    21         H       -3.7886    0.0440   -0.4598
    22         H        4.2430    1.7315   -0.2407
    23         H       -1.4590    0.1917   -1.1764
    24         H       -1.8080   -0.2105    1.9157

  H: (PM3): J. J. P. STEWART, J. COMP. CHEM. 10, 209 (1989).
  C: (PM3): J. J. P. STEWART, J. COMP. CHEM. 10, 209 (1989).

           Empirical Formula: C10 H14  =    24 atoms



      MOLECULAR POINT GROUP   :   C1  


      RHF CALCULATION, NO. OF DOUBLY OCCUPIED LEVELS =   27



          HEAT OF FORMATION =      26.786064 KCALS/MOLE


          INTERNAL COORDINATE DERIVATIVES

   NUMBER  ATOM       BOND         ANGLE      DIHEDRAL

     1       C      0.000793     0.000469    -0.001423
     2       C     -0.003396    -0.001452    -0.007551
     3       C     -0.002951    -0.001059    -0.004233
     4       C      0.003298    -0.002068     0.002199
     5       C      0.001472     0.001682     0.001656
     6       C     -0.005041    -0.003621    -0.001465
     7       C      0.000101     0.000648    -0.000458
     8       C     -0.007031    -0.008584     0.000619
     9       C      0.001960     0.009984     0.000000
    10       C      0.004045     0.008224    -0.001087
    11       H      0.002161     0.003551     0.000036
    12       H      0.006759    -0.001165     0.005563
    13       H      0.000990    -0.002107     0.000232
    14       H      0.000583    -0.000945     0.004955
    15       H      0.000640     0.000375    -0.001583
    16       H      0.002698     0.001963    -0.001924
    17       H     -0.003602    -0.002906    -0.001120
    18       H     -0.002287     0.000455     0.001076
    19       H     -0.000144    -0.008115     0.003193
    20       H     -0.002886     0.004856    -0.001680
    21       H     -0.000244    -0.002775    -0.000114
    22       H     -0.001335     0.000530    -0.000255
    23       H      0.000375     0.004313     0.001734
    24       H      0.003041    -0.002253     0.001631


          GRADIENT NORM =   0.02856


          TIME FOR SCF CALCULATION =    0.01

          TIME FOR DERIVATIVES     =    0.01

          MOLECULAR WEIGHT =  134.22



          ROTATIONAL CONSTANTS IN CM(-1)

          A =    0.17416763   B =    0.01470704   C =    0.01426758



           PRINCIPAL MOMENTS OF INERTIA IN UNITS OF 10**(-40)*GRAM-CM**2

          A =      160.7232   B =     1903.3583   C =     1961.9842


          ORIENTATION OF MOLECULE IN FORCE CALCULATION

    NO.       ATOM         X         Y         Z

     1          C       0.6045    0.8087   -0.9872
     2          C       2.1507    0.8087   -0.9872
     3          C       2.5791    2.2835   -0.9872
     4          C      -2.6783   -3.5066    2.1844
     5          C       0.2289    2.2638   -0.9117
     6          C       0.0521    0.0559    0.1763
     7          C       1.3034    3.0595   -0.9191
     8          C      -2.1267   -2.7554    1.0367
     9          C      -1.3023   -1.7109    1.1778
    10          C      -0.7729   -0.9875    0.0334
    11          H       0.2165    0.3856   -1.9447
    12          H       2.5534    0.2755   -0.1066
    13          H       2.5456    0.2734   -1.8686
    14          H       3.2341    2.5275   -0.1309
    15          H       3.1502    2.5505   -1.8956
    16          H      -3.7761   -3.4695    2.1765
    17          H      -2.3405   -3.1181    3.1545
    18          H      -2.3837   -4.5635    2.1297
    19          H      -0.8146    2.5726   -0.8603
    20          H       0.3607    0.4081    1.1689
    21          H      -2.4322   -3.1025    0.0415
    22          H       1.3053    4.1486   -0.8841
    23          H      -1.0797   -1.3347   -0.9625
    24          H      -0.9969   -1.3637    2.1739


    FIRST DERIVATIVES WILL BE USED IN THE CALCULATION OF SECOND DERIVATIVES

          ESTIMATED TIME TO COMPLETE CALCULATION =        3.19 SECONDS

    FOR POINT-GROUP C1   THERE ARE   1 UNIQUE SYMMETRY FUNCTIONS.

 STEP:   1 TIME =     0.04 SECS, INTEGRAL =      0.04 TIME LEFT: 172799.95
 STEP:   2 TIME =     0.04 SECS, INTEGRAL =      0.07 TIME LEFT: 172799.92
 STEP:   3 TIME =     0.04 SECS, INTEGRAL =      0.11 TIME LEFT: 172799.88
 STEP:   4 TIME =     0.04 SECS, INTEGRAL =      0.14 TIME LEFT: 172799.85
 STEP:   5 TIME =     0.04 SECS, INTEGRAL =      0.18 TIME LEFT: 172799.81
 STEP:   6 TIME =     0.04 SECS, INTEGRAL =      0.21 TIME LEFT: 172799.77
 STEP:   7 TIME =     0.04 SECS, INTEGRAL =      0.25 TIME LEFT: 172799.74
 STEP:   8 TIME =     0.03 SECS, INTEGRAL =      0.28 TIME LEFT: 172799.70
 STEP:   9 TIME =     0.04 SECS, INTEGRAL =      0.32 TIME LEFT: 172799.67
 STEP:  10 TIME =     0.04 SECS, INTEGRAL =      0.36 TIME LEFT: 172799.63
 STEP:  11 TIME =     0.04 SECS, INTEGRAL =      0.39 TIME LEFT: 172799.60
 STEP:  12 TIME =     0.03 SECS, INTEGRAL =      0.43 TIME LEFT: 172799.56
 STEP:  13 TIME =     0.03 SECS, INTEGRAL =      0.46 TIME LEFT: 172799.53
 STEP:  14 TIME =     0.03 SECS, INTEGRAL =      0.49 TIME LEFT: 172799.49
 STEP:  15 TIME =     0.04 SECS, INTEGRAL =      0.53 TIME LEFT: 172799.46
 STEP:  16 TIME =     0.04 SECS, INTEGRAL =      0.57 TIME LEFT: 172799.42
 STEP:  17 TIME =     0.03 SECS, INTEGRAL =      0.60 TIME LEFT: 172799.39
 STEP:  18 TIME =     0.03 SECS, INTEGRAL =      0.64 TIME LEFT: 172799.35
 STEP:  19 TIME =     0.03 SECS, INTEGRAL =      0.67 TIME LEFT: 172799.32
 STEP:  20 TIME =     0.03 SECS, INTEGRAL =      0.70 TIME LEFT: 172799.28
 STEP:  21 TIME =     0.04 SECS, INTEGRAL =      0.74 TIME LEFT: 172799.25
 STEP:  22 TIME =     0.04 SECS, INTEGRAL =      0.78 TIME LEFT: 172799.21
 STEP:  23 TIME =     0.03 SECS, INTEGRAL =      0.81 TIME LEFT: 172799.18
 STEP:  24 TIME =     0.03 SECS, INTEGRAL =      0.85 TIME LEFT: 172799.14
 STEP:  25 TIME =     0.04 SECS, INTEGRAL =      0.89 TIME LEFT: 172799.10
 STEP:  26 TIME =     0.04 SECS, INTEGRAL =      0.93 TIME LEFT: 172799.06
 STEP:  27 TIME =     0.03 SECS, INTEGRAL =      0.96 TIME LEFT: 172799.03
 STEP:  28 TIME =     0.04 SECS, INTEGRAL =      1.00 TIME LEFT: 172798.99
 STEP:  29 TIME =     0.04 SECS, INTEGRAL =      1.03 TIME LEFT: 172798.96
 STEP:  30 TIME =     0.03 SECS, INTEGRAL =      1.07 TIME LEFT: 172798.92
 STEP:  31 TIME =     0.03 SECS, INTEGRAL =      1.10 TIME LEFT: 172798.89
 STEP:  32 TIME =     0.04 SECS, INTEGRAL =      1.14 TIME LEFT: 172798.85
 STEP:  33 TIME =     0.03 SECS, INTEGRAL =      1.17 TIME LEFT: 172798.82
 STEP:  34 TIME =     0.03 SECS, INTEGRAL =      1.21 TIME LEFT: 172798.78
 STEP:  35 TIME =     0.05 SECS, INTEGRAL =      1.25 TIME LEFT: 172798.74
 STEP:  36 TIME =     0.05 SECS, INTEGRAL =      1.30 TIME LEFT: 172798.69
 STEP:  37 TIME =     0.04 SECS, INTEGRAL =      1.34 TIME LEFT: 172798.65
 STEP:  38 TIME =     0.04 SECS, INTEGRAL =      1.38 TIME LEFT: 172798.61
 STEP:  39 TIME =     0.04 SECS, INTEGRAL =      1.41 TIME LEFT: 172798.58
 STEP:  40 TIME =     0.04 SECS, INTEGRAL =      1.46 TIME LEFT: 172798.53
 STEP:  41 TIME =     0.05 SECS, INTEGRAL =      1.50 TIME LEFT: 172798.49
 STEP:  42 TIME =     0.04 SECS, INTEGRAL =      1.54 TIME LEFT: 172798.45
 STEP:  43 TIME =     0.04 SECS, INTEGRAL =      1.57 TIME LEFT: 172798.42
 STEP:  44 TIME =     0.04 SECS, INTEGRAL =      1.61 TIME LEFT: 172798.38
 STEP:  45 TIME =     0.03 SECS, INTEGRAL =      1.65 TIME LEFT: 172798.34
 STEP:  46 TIME =     0.03 SECS, INTEGRAL =      1.68 TIME LEFT: 172798.31
 STEP:  47 TIME =     0.04 SECS, INTEGRAL =      1.72 TIME LEFT: 172798.27
 STEP:  48 TIME =     0.04 SECS, INTEGRAL =      1.75 TIME LEFT: 172798.23
 STEP:  49 TIME =     0.04 SECS, INTEGRAL =      1.79 TIME LEFT: 172798.20
 STEP:  50 TIME =     0.04 SECS, INTEGRAL =      1.83 TIME LEFT: 172798.16
 STEP:  51 TIME =     0.03 SECS, INTEGRAL =      1.86 TIME LEFT: 172798.13
 STEP:  52 TIME =     0.04 SECS, INTEGRAL =      1.90 TIME LEFT: 172798.09
 STEP:  53 TIME =     0.03 SECS, INTEGRAL =      1.93 TIME LEFT: 172798.06
 STEP:  54 TIME =     0.04 SECS, INTEGRAL =      1.97 TIME LEFT: 172798.02
 STEP:  55 TIME =     0.04 SECS, INTEGRAL =      2.01 TIME LEFT: 172797.98
 STEP:  56 TIME =     0.04 SECS, INTEGRAL =      2.04 TIME LEFT: 172797.95
 STEP:  57 TIME =     0.04 SECS, INTEGRAL =      2.08 TIME LEFT: 172797.91
 STEP:  58 TIME =     0.04 SECS, INTEGRAL =      2.11 TIME LEFT: 172797.88
 STEP:  59 TIME =     0.04 SECS, INTEGRAL =      2.15 TIME LEFT: 172797.84
 STEP:  60 TIME =     0.04 SECS, INTEGRAL =      2.19 TIME LEFT: 172797.80
 STEP:  61 TIME =     0.04 SECS, INTEGRAL =      2.23 TIME LEFT: 172797.76
 STEP:  62 TIME =     0.04 SECS, INTEGRAL =      2.27 TIME LEFT: 172797.72
 STEP:  63 TIME =     0.04 SECS, INTEGRAL =      2.31 TIME LEFT: 172797.68
 STEP:  64 TIME =     0.04 SECS, INTEGRAL =      2.34 TIME LEFT: 172797.65
 STEP:  65 TIME =     0.04 SECS, INTEGRAL =      2.38 TIME LEFT: 172797.61
 STEP:  66 TIME =     0.04 SECS, INTEGRAL =      2.42 TIME LEFT: 172797.57
 STEP:  67 TIME =     0.04 SECS, INTEGRAL =      2.45 TIME LEFT: 172797.54
 STEP:  68 TIME =     0.04 SECS, INTEGRAL =      2.49 TIME LEFT: 172797.50
 STEP:  69 TIME =     0.03 SECS, INTEGRAL =      2.52 TIME LEFT: 172797.46
 STEP:  70 TIME =     0.04 SECS, INTEGRAL =      2.56 TIME LEFT: 172797.43
 STEP:  71 TIME =     0.04 SECS, INTEGRAL =      2.60 TIME LEFT: 172797.39
 STEP:  72 TIME =     0.03 SECS, INTEGRAL =      2.63 TIME LEFT: 172797.36

(To convert to Hartree/Bohr^2, multiply by (10^(-21) x N x a0^2)/(4.184 x 627.51) = 0.0642)


           FORCE MATRIX IN MILLIDYNES/ANGSTROM


                  C  1       C  2       C  3       C  4       C  5       C  6
 ------------------------------------------------------------------------------
     C    1  14.953372
     C    2   3.426196  14.155365
     C    3   0.723265   3.768369  14.663508
     C    4   0.012363   0.001950   0.000654  14.711002
     C    5   4.393225   0.862403   1.178691   0.002543  18.313006
     C    6   4.797425   0.621691   0.035851   0.016438   0.704683  18.043443
     C    7   1.139729   0.882852   4.738593   0.000911  10.598117   0.043598
     C    8   0.016175   0.002170   0.000975   5.283062   0.001752   0.110516
     C    9   0.142684   0.019855   0.003033   0.860137   0.020416   1.092077
     C   10   0.815395   0.034312   0.004012   0.148764   0.036836  10.373653
     H   11   4.236703   0.419938   0.025081   0.000300   0.402451   0.453604
     H   12   0.454763   4.547465   0.440371   0.000260   0.024408   0.065990
     H   13   0.441675   4.586006   0.440439   0.000313   0.030305   0.024816
     H   14   0.031720   0.436241   4.525053   0.000197   0.039174   0.002073
     H   15   0.026444   0.436271   4.516278   0.000156   0.038075   0.006029
     H   16   0.001994   0.000562   0.000145   4.700458   0.000579   0.001667
     H   17   0.000270   0.000190   0.000116   4.724548   0.000274   0.000943
     H   18   0.001994   0.000157   0.000166   4.699757   0.000784   0.001596
     H   19   0.414830   0.041760   0.118596   0.000470   5.026039   0.009504
     H   20   0.433925   0.018904   0.001628   0.004618   0.012228   4.775481
     H   21   0.004897   0.000858   0.000317   0.424600   0.001621   0.004940
     H   22   0.117298   0.043458   0.413339   0.000388   0.448820   0.017528
     H   23   0.083907   0.008706   0.001580   0.003494   0.009875   0.466143
     H   24   0.002699   0.000837   0.000329   0.083265   0.000941   0.040526


                  C  7       C  8       C  9       C 10       H 11       H 12
 ------------------------------------------------------------------------------
     C    7  18.368381
     C    8   0.001140  18.021645
     C    9   0.003808  10.348780  18.444353
     C   10   0.005342   1.096505   5.597420  18.451646
     H   11   0.037671   0.000909   0.002173   0.056103   4.700426
     H   12   0.026709   0.000323   0.001361   0.003989   0.027467   5.165762
     H   13   0.030217   0.000219   0.002088   0.003503   0.028993   0.582243
     H   14   0.431222   0.000212   0.000245   0.000556   0.003830   0.029132
     H   15   0.430000   0.000271   0.000306   0.000731   0.001274   0.028660
     H   16   0.000185   0.438462   0.036109   0.020849   0.000133   0.000126
     H   17   0.000160   0.481324   0.040818   0.002408   0.000081   0.000089
     H   18   0.000344   0.438443   0.036187   0.020928   0.000110   0.000090
     H   19   0.448341   0.000904   0.001517   0.002704   0.013755   0.002591
     H   20   0.003238   0.004480   0.088128   0.465570   0.038024   0.022865
     H   21   0.000612   4.775608   0.468401   0.088498   0.000361   0.000192
     H   22   5.017396   0.000320   0.001304   0.001828   0.015261   0.002866
     H   23   0.002084   0.040866   0.444222   4.740703   0.029546   0.000820
     H   24   0.000550   0.465805   4.748781   0.444433   0.000676   0.000374


                  H 13       H 14       H 15       H 16       H 17       H 18
 ------------------------------------------------------------------------------
     H   13   5.189427
     H   14   0.026492   5.131011
     H   15   0.029051   0.575117   5.122686
     H   16   0.000107   0.000084   0.000069   5.419950
     H   17   0.000043   0.000062   0.000057   0.565020   5.449855
     H   18   0.000081   0.000045   0.000121   0.577320   0.564881   5.419987
     H   19   0.003272   0.016138   0.016509   0.000177   0.000078   0.000154
     H   20   0.001302   0.000655   0.000815   0.000750   0.000334   0.000707
     H   21   0.000175   0.000100   0.000063   0.023764   0.041819   0.023811
     H   22   0.003413   0.014941   0.014115   0.000130   0.000064   0.000093
     H   23   0.001032   0.000212   0.000176   0.000800   0.000614   0.000808
     H   24   0.000194   0.000119   0.000093   0.009467   0.029759   0.009458


                  H 19       H 20       H 21       H 22       H 23       H 24
 ------------------------------------------------------------------------------
     H   19   5.420011
     H   20   0.003626   5.155565
     H   21   0.000521   0.002749   5.154818
     H   22   0.048643   0.000910   0.000191   5.412677
     H   23   0.001163   0.104536   0.028814   0.000669   5.117723
     H   24   0.000570   0.028408   0.104646   0.000152   0.035754   5.126073


          HEAT OF FORMATION =      26.786064 KCALS/MOLE

          ZERO POINT ENERGY     131.074 KCAL/MOL


           NORMAL COORDINATE ANALYSIS (Total motion = 1 Angstrom)


   Root No.       1         2         3         4         5         6         7         8

                 1 A       2 A       3 A       4 A       5 A       6 A       7 A       8 A   

                  17.9      56.0      69.9      90.7     125.6     131.6     245.8     280.3
  
           1    0.0176   -0.0050   -0.0185   -0.0019    0.0067   -0.0036    0.0060   -0.0096
           2   -0.0137   -0.0041    0.0143    0.0018   -0.0029   -0.0053   -0.0136   -0.0004
           3   -0.0005   -0.0291   -0.0004    0.0025   -0.0019    0.0016   -0.0209   -0.0167
           4    0.0174   -0.0048   -0.0183   -0.0014    0.0065   -0.0042    0.0056   -0.0095
           5    0.0155   -0.0054   -0.0033   -0.0052    0.0041   -0.0041   -0.0066   -0.0098
           6   -0.0051   -0.0259    0.0017    0.0222   -0.0020   -0.0330    0.0031    0.0232
           7   -0.0104   -0.0018   -0.0015    0.0052   -0.0007   -0.0044   -0.0062   -0.0065
           8    0.0236   -0.0063   -0.0083   -0.0073    0.0064   -0.0041   -0.0031   -0.0122
           9   -0.0014    0.0594    0.0013    0.0102   -0.0109    0.0096   -0.0139   -0.0027
          10   -0.0189    0.0161   -0.0247    0.0270   -0.0060   -0.0218    0.0125   -0.0128
          11    0.0150    0.0155    0.0206   -0.0238    0.0153   -0.0134   -0.0101    0.0137
          12    0.0007    0.0220    0.0018   -0.0031    0.0111   -0.0324   -0.0141   -0.0122
          13   -0.0098   -0.0046   -0.0019    0.0038    0.0007   -0.0053   -0.0052   -0.0076
          14   -0.0209   -0.0043    0.0185    0.0041   -0.0050   -0.0053   -0.0175   -0.0006
          15    0.0039   -0.0219   -0.0004   -0.0214    0.0170   -0.0139   -0.0045   -0.0137
          16    0.0324   -0.0027   -0.0230   -0.0140    0.0033    0.0178   -0.0089    0.0004
          17   -0.0254   -0.0018    0.0176    0.0118   -0.0109    0.0121    0.0149    0.0032
          18   -0.0010   -0.0262   -0.0005    0.0032   -0.0091    0.0245   -0.0102   -0.0122
          19   -0.0249   -0.0031    0.0073    0.0076   -0.0031   -0.0058   -0.0093   -0.0027
          20   -0.0006   -0.0060    0.0063   -0.0008    0.0000   -0.0047   -0.0124   -0.0070
          21    0.0036    0.0292    0.0002   -0.0197    0.0155   -0.0107    0.0403    0.0201
          22   -0.0261    0.0038    0.0028   -0.0097    0.0298    0.0209   -0.0074    0.0353
          23    0.0205    0.0050   -0.0021    0.0073   -0.0282    0.0004    0.0296   -0.0024
          24    0.0009    0.0091    0.0001   -0.0003   -0.0005   -0.0018    0.0042    0.0026
          25    0.0179    0.0043    0.0370   -0.0018   -0.0266    0.0001   -0.0083    0.0405
          26   -0.0141    0.0068   -0.0289    0.0008    0.0172    0.0131    0.0286   -0.0083
          27   -0.0006   -0.0077   -0.0019    0.0014   -0.0090    0.0303    0.0143    0.0105
          28    0.0079   -0.0050    0.0481   -0.0216   -0.0069    0.0133    0.0174   -0.0229
          29   -0.0061   -0.0011   -0.0382    0.0178   -0.0025    0.0143   -0.0059    0.0222
          30   -0.0002   -0.0171   -0.0027    0.0030   -0.0125    0.0374    0.0049    0.0013
          31    0.0230   -0.0058   -0.0228    0.0084    0.0084   -0.0228    0.0179    0.0023
          32   -0.0188   -0.0047    0.0188   -0.0073    0.0059   -0.0212   -0.0226   -0.0036
          33   -0.0005   -0.0281   -0.0006    0.0022   -0.0064    0.0161   -0.0207   -0.0193
          34    0.0306   -0.0053   -0.0267   -0.0145    0.0080    0.0176   -0.0084   -0.0359
          35    0.0200   -0.0592   -0.0070    0.0034    0.0124   -0.0390    0.0142    0.0168
          36   -0.0084   -0.0584    0.0033    0.0335    0.0023   -0.0644    0.0224    0.0524
          37    0.0248   -0.0058   -0.0229    0.0073    0.0099   -0.0264    0.0266    0.0156
          38    0.0262    0.0471   -0.0089   -0.0176   -0.0002    0.0308   -0.0220   -0.0403
          39   -0.0082   -0.0584    0.0031    0.0336    0.0022   -0.0644    0.0221    0.0534
          40   -0.0133   -0.0466    0.0008   -0.0078    0.0179   -0.0325    0.0398    0.0244
          41    0.0334   -0.0447   -0.0155    0.0008    0.0094   -0.0216    0.0002   -0.0054
          42   -0.0020    0.1048    0.0016    0.0179   -0.0261    0.0364   -0.0508   -0.0287
          43   -0.0173    0.0471    0.0020    0.0214   -0.0230    0.0255   -0.0596   -0.0380
          44    0.0372    0.0316   -0.0152   -0.0215    0.0094    0.0144    0.0034   -0.0230
          45   -0.0017    0.1014    0.0015    0.0162   -0.0242    0.0341   -0.0462   -0.0262
          46   -0.0176    0.0161   -0.0222    0.0295   -0.0024   -0.0205    0.0120   -0.0121
          47    0.0652    0.0182    0.1051    0.0749    0.1418    0.0291   -0.0277    0.0361
          48    0.0410    0.0354    0.0287    0.0969    0.0511   -0.0492    0.0010   -0.0586
          49    0.0335    0.0291    0.0282    0.1477    0.0730   -0.0223    0.0197   -0.0455
          50   -0.0260    0.0224   -0.0199   -0.1206   -0.0335   -0.0542   -0.0383    0.0186
          51   -0.0011    0.0147   -0.0004   -0.0063    0.0032   -0.0161   -0.0055   -0.0031
          52   -0.0690    0.0128   -0.1072   -0.0724   -0.1296   -0.0619    0.0289   -0.0323
          53    0.0031    0.0143   -0.0010   -0.0462   -0.0175   -0.0231   -0.0037    0.0074
          54   -0.0378    0.0269   -0.0213   -0.1019   -0.0105   -0.0589   -0.0549    0.0109
          55   -0.0155   -0.0058    0.0017    0.0046   -0.0003   -0.0060   -0.0081   -0.0072
          56   -0.0408   -0.0032    0.0306    0.0097   -0.0106   -0.0057   -0.0267    0.0027
          57    0.0072   -0.0526   -0.0014   -0.0393    0.0319   -0.0256   -0.0066   -0.0269
          58    0.0619    0.0028   -0.0858   -0.0078    0.0025    0.0313   -0.0524    0.0513
          59   -0.0489    0.0006    0.0676    0.0066   -0.0164    0.0219    0.0653   -0.0269
          60   -0.0017   -0.0286    0.0012    0.0031   -0.0067    0.0161   -0.0144   -0.0169
          61   -0.0709   -0.0057   -0.0113   -0.0444    0.0961    0.0648   -0.0050    0.0368
          62    0.0556   -0.0041    0.0080    0.0364   -0.0917    0.0011    0.0439    0.0111
          63    0.0024    0.0153    0.0009    0.0002    0.0015   -0.0160   -0.0020   -0.0030
          64   -0.0454   -0.0026    0.0198    0.0119   -0.0077   -0.0070   -0.0146    0.0040
          65   -0.0007   -0.0066    0.0062   -0.0003   -0.0005   -0.0044   -0.0143   -0.0081
          66    0.0065    0.0491    0.0000   -0.0364    0.0297   -0.0194    0.0955    0.0506
          67   -0.0221   -0.0127    0.1108   -0.0336   -0.0033    0.0124    0.0642   -0.0881
          68    0.0175   -0.0060   -0.0879    0.0281   -0.0056    0.0145   -0.0552    0.0603
          69    0.0008   -0.0128   -0.0047    0.0031   -0.0122    0.0368    0.0075    0.0081
          70    0.0624    0.0127    0.0504    0.0285   -0.0921   -0.0346   -0.0167    0.0692
          71   -0.0490    0.0147   -0.0387   -0.0244    0.0753    0.0207    0.0368   -0.0263
          72   -0.0020   -0.0129   -0.0026    0.0009   -0.0090    0.0375    0.0135    0.0074


   Root No.       9        10        11        12        13        14        15        16

                 9 A      10 A      11 A      12 A      13 A      14 A      15 A      16 A   

                 303.0     371.3     437.3     535.1     556.7     702.5     756.3     782.3
  
           1   -0.0079   -0.0093   -0.0224    0.0024   -0.0096   -0.0405    0.0138    0.0090
           2   -0.0120    0.0051    0.0177    0.0017   -0.0092   -0.0233   -0.0166    0.0372
           3    0.0250   -0.0033   -0.0074    0.0463    0.0186   -0.0120    0.0054    0.0220
           4   -0.0134   -0.0120   -0.0262   -0.0008   -0.0043   -0.0339   -0.0068    0.0352
           5   -0.0250   -0.0079    0.0005   -0.0008    0.0160    0.0426   -0.0242    0.0041
           6    0.0085    0.0154    0.0155   -0.0027   -0.0035   -0.0035   -0.0067    0.0025
           7   -0.0197   -0.0074   -0.0045   -0.0010    0.0129    0.0413   -0.0383    0.0195
           8   -0.0256   -0.0111   -0.0098   -0.0012    0.0159    0.0260   -0.0018   -0.0136
           9    0.0033    0.0114    0.0010   -0.0032   -0.0019   -0.0082   -0.0182   -0.0191
          10    0.0374    0.0032    0.0034   -0.0073    0.0250   -0.0009    0.0016   -0.0004
          11    0.0464   -0.0018   -0.0035   -0.0094    0.0327   -0.0009    0.0018    0.0014
          12   -0.0102   -0.0163    0.0050   -0.0004   -0.0231    0.0007   -0.0017   -0.0012
          13   -0.0205   -0.0075   -0.0064   -0.0017    0.0134    0.0083    0.0377   -0.0560
          14   -0.0182    0.0045    0.0285    0.0022   -0.0001   -0.0272    0.0053    0.0241
          15    0.0145    0.0353   -0.0355   -0.0226   -0.0131   -0.0063   -0.0234   -0.0201
          16    0.0124    0.0097    0.0520   -0.0084   -0.0296   -0.0010   -0.0026   -0.0066
          17    0.0112   -0.0279   -0.0278   -0.0133   -0.0370   -0.0017   -0.0088    0.0016
          18    0.0396   -0.0262    0.0035    0.0242   -0.0051    0.0271    0.0154   -0.0090
          19   -0.0195   -0.0042    0.0088    0.0003    0.0115    0.0171   -0.0007   -0.0081
          20   -0.0214   -0.0008    0.0111    0.0002    0.0059   -0.0319    0.0562   -0.0416
          21   -0.0046   -0.0283    0.0142    0.0125    0.0055   -0.0055   -0.0092   -0.0129
          22    0.0066    0.0137   -0.0180    0.0131    0.0049    0.0032    0.0022   -0.0037
          23    0.0131    0.0309   -0.0011    0.0164    0.0081    0.0057    0.0018    0.0001
          24   -0.0440    0.0155   -0.0062    0.0278   -0.0325    0.0078    0.0016   -0.0030
          25    0.0040    0.0087   -0.0222    0.0131   -0.0007    0.0038    0.0006    0.0006
          26    0.0102    0.0323    0.0032    0.0182   -0.0023    0.0053    0.0013   -0.0037
          27   -0.0290    0.0152   -0.0021   -0.0177    0.0453   -0.0143    0.0005    0.0094
          28    0.0166    0.0052    0.0327   -0.0055   -0.0282    0.0037   -0.0054    0.0001
          29    0.0176   -0.0212   -0.0147   -0.0082   -0.0384    0.0004   -0.0059   -0.0075
          30   -0.0052   -0.0200    0.0116   -0.0436    0.0190   -0.0107   -0.0054    0.0008
          31   -0.0207   -0.0118   -0.0328   -0.0017   -0.0062   -0.0575   -0.0013    0.0509
          32   -0.0240    0.0405    0.0152   -0.0195   -0.0128   -0.0652   -0.0423    0.0258
          33    0.0346   -0.0177   -0.0017    0.0551    0.0182    0.0135    0.0227    0.0108
          34   -0.0038   -0.0265   -0.0478    0.0418    0.0171   -0.0711   -0.0033    0.0579
          35   -0.0277   -0.0017    0.0169   -0.0280    0.0042    0.0895    0.0276    0.0037
          36    0.0028    0.0267    0.0373   -0.0403   -0.0221    0.0426    0.0255   -0.0085
          37   -0.0262   -0.0022   -0.0139   -0.0497   -0.0257   -0.0090    0.0186   -0.0099
          38   -0.0267   -0.0205   -0.0290    0.0242    0.0348    0.0035   -0.0630   -0.0162
          39    0.0036    0.0277    0.0394   -0.0410   -0.0247    0.0350    0.0289   -0.0062
          40   -0.0259   -0.0458    0.0293    0.0346    0.0326    0.0011   -0.1256   -0.0575
          41   -0.0203   -0.0040   -0.0172   -0.0033    0.0110    0.0083   -0.0342    0.0112
          42    0.0065    0.0396   -0.0235   -0.0311   -0.0160    0.0308    0.0600    0.0365
          43   -0.0149    0.0359   -0.0308   -0.0390   -0.0036    0.1021    0.0560    0.0905
          44   -0.0299   -0.0261   -0.0250    0.0009    0.0166    0.0322   -0.0026    0.0070
          45    0.0053    0.0352   -0.0208   -0.0276   -0.0129    0.0329    0.0456    0.0331
          46    0.0375    0.0031    0.0032   -0.0075    0.0257   -0.0011    0.0017   -0.0005
          47    0.0448   -0.0081   -0.0169   -0.0099    0.0352   -0.0032    0.0037   -0.0062
          48    0.0214   -0.0308    0.0327   -0.0322    0.0019   -0.0104   -0.0071    0.0139
          49    0.0644   -0.0101    0.0229   -0.0330    0.0485   -0.0101   -0.0016    0.0100
          50    0.0795   -0.0344   -0.0020   -0.0443    0.0630   -0.0158   -0.0006    0.0055
          51   -0.0319    0.0007   -0.0021    0.0211   -0.0419    0.0092    0.0002   -0.0060
          52    0.0400    0.0100    0.0152   -0.0077    0.0291    0.0007    0.0008    0.0072
          53    0.0461    0.0017    0.0000   -0.0083    0.0335    0.0001    0.0018    0.0035
          54    0.0176   -0.0529   -0.0029   -0.0340    0.0009   -0.0152   -0.0044   -0.0019
          55   -0.0219   -0.0045   -0.0026   -0.0050    0.0154    0.0238    0.0337   -0.0469
          56   -0.0243    0.0062    0.0511    0.0062    0.0153    0.0116   -0.0313    0.0394
          57    0.0214    0.0845   -0.0978   -0.1127   -0.0633    0.0807    0.1086    0.0809
          58    0.0071    0.0195    0.1166   -0.0305   -0.0359    0.0127   -0.0165    0.0067
          59    0.0073   -0.0448   -0.0686   -0.0543   -0.0523   -0.0092   -0.0216   -0.0386
          60    0.0415   -0.0222   -0.0021    0.0452    0.0027    0.0248    0.0240    0.0015
          61    0.0005    0.0338    0.0002    0.0137    0.0221    0.0043    0.0013    0.0121
          62    0.0034    0.0372   -0.0221    0.0150    0.0290   -0.0013    0.0052   -0.0059
          63   -0.0374    0.0060   -0.0041    0.0268   -0.0442    0.0097    0.0006   -0.0057
          64   -0.0160    0.0031    0.0311    0.0020    0.0008   -0.0234    0.0083    0.0419
          65   -0.0211    0.0007    0.0106    0.0004    0.0063   -0.0347    0.0498   -0.0484
          66   -0.0216   -0.0770    0.0366    0.0068    0.0018    0.0825    0.2020    0.1948
          67    0.0356   -0.0089    0.0092    0.0010   -0.0519    0.0089   -0.0024   -0.0212
          68    0.0370   -0.0371    0.0116    0.0018   -0.0692    0.0226   -0.0050   -0.0085
          69   -0.0178   -0.0095    0.0093   -0.0480    0.0369   -0.0200   -0.0066    0.0078
          70   -0.0066    0.0025   -0.0669    0.0334   -0.0119    0.0063    0.0068   -0.0185
          71    0.0008    0.0630    0.0243    0.0492   -0.0138    0.0210    0.0034    0.0040
          72   -0.0217    0.0056    0.0045   -0.0345    0.0519   -0.0204   -0.0021    0.0124


   Root No.      17        18        19        20        21        22        23        24

                17 A      18 A      19 A      20 A      21 A      22 A      23 A      24 A   

                 818.1     836.3     908.9     921.4     933.8     957.3     968.3     983.9
  
           1   -0.0040    0.0006    0.0030   -0.0036   -0.0054   -0.0054    0.0062   -0.0204
           2   -0.0052   -0.0005   -0.0008    0.0006   -0.0008    0.0029    0.0036   -0.0063
           3   -0.0059    0.0003    0.0009   -0.0018   -0.0043    0.0000    0.0055   -0.0101
           4   -0.0084    0.0061   -0.0077    0.0078    0.0223    0.0069   -0.0086    0.0243
           5    0.0020   -0.0048    0.0061   -0.0055   -0.0042   -0.0092    0.0036   -0.0178
           6    0.0252   -0.0078    0.0026   -0.0039   -0.0242    0.0019   -0.0018   -0.0068
           7   -0.0002   -0.0018    0.0004   -0.0005   -0.0039    0.0020    0.0026   -0.0037
           8    0.0018    0.0017   -0.0027    0.0019   -0.0033    0.0053   -0.0016    0.0099
           9    0.0188   -0.0048    0.0008    0.0017    0.0225   -0.0039    0.0004    0.0138
          10   -0.0031   -0.0124   -0.0074   -0.0033    0.0037    0.0145   -0.0245   -0.0055
          11    0.0016    0.0099    0.0055    0.0032    0.0028   -0.0116   -0.0311   -0.0059
          12    0.0006    0.0003    0.0002    0.0000   -0.0012   -0.0003   -0.0088   -0.0031
          13    0.0072    0.0045   -0.0044    0.0028   -0.0130    0.0067    0.0007    0.0033
          14   -0.0041   -0.0039    0.0041   -0.0020    0.0178   -0.0071   -0.0033    0.0023
          15   -0.0150    0.0061   -0.0001   -0.0035   -0.0276    0.0019   -0.0086    0.0209
          16   -0.0040   -0.0170    0.0262   -0.0279   -0.0019   -0.0277    0.0024   -0.0011
          17    0.0062    0.0127   -0.0202    0.0212   -0.0080    0.0225    0.0033   -0.0035
          18   -0.0036    0.0018   -0.0019    0.0033    0.0193   -0.0006   -0.0014    0.0134
          19    0.0018   -0.0012    0.0009   -0.0005    0.0017   -0.0015   -0.0012    0.0021
          20    0.0045    0.0019   -0.0009    0.0007   -0.0014    0.0007    0.0009   -0.0042
          21   -0.0166    0.0063   -0.0035    0.0042    0.0058    0.0030    0.0057   -0.0271
          22   -0.0048   -0.0182   -0.0114   -0.0036    0.0003   -0.0093    0.0020    0.0017
          23    0.0035    0.0145    0.0088    0.0031    0.0011    0.0072    0.0028    0.0014
          24    0.0002    0.0007    0.0002    0.0004    0.0021    0.0002   -0.0050    0.0008
          25    0.0058    0.0247   -0.0149   -0.0015   -0.0035   -0.0285    0.0088    0.0026
          26   -0.0043   -0.0193    0.0117    0.0011    0.0012    0.0225    0.0111    0.0025
          27   -0.0019   -0.0008    0.0007   -0.0001    0.0007    0.0006    0.0130    0.0005
          28    0.0066    0.0097   -0.0135   -0.0184   -0.0018    0.0398    0.0029   -0.0032
          29   -0.0018   -0.0082    0.0109    0.0137   -0.0096   -0.0302    0.0031   -0.0008
          30    0.0009   -0.0006    0.0005    0.0003   -0.0042   -0.0008   -0.0132   -0.0040
          31    0.0210   -0.0032    0.0021   -0.0084   -0.0238   -0.0072    0.0115   -0.0995
          32   -0.0272    0.0030    0.0011   -0.0014   -0.0421    0.0130   -0.0096    0.0486
          33   -0.0068    0.0004    0.0004    0.0013    0.0232   -0.0039    0.0085   -0.0008
          34    0.0311   -0.0030   -0.0077    0.0068   -0.0394    0.0159   -0.0091   -0.0222
          35   -0.0996    0.0231   -0.0022    0.0079    0.0336   -0.0102    0.0128   -0.0340
          36   -0.0585    0.0141   -0.0025    0.0053    0.0294   -0.0035    0.0046    0.0043
          37   -0.0529    0.0209   -0.0141    0.0217    0.1195   -0.0057   -0.0234    0.1073
          38    0.1027   -0.0292    0.0118   -0.0139   -0.0226   -0.0120   -0.0157    0.0213
          39   -0.0595    0.0147   -0.0040    0.0079    0.0323   -0.0019    0.0035    0.0076
          40    0.0621   -0.0175    0.0043    0.0033    0.0629   -0.0131    0.0148   -0.0035
          41    0.0615   -0.0145   -0.0012   -0.0028   -0.0318    0.0149   -0.0345    0.1067
          42   -0.0494    0.0125   -0.0026    0.0000   -0.0217    0.0049    0.0005   -0.0157
          43   -0.0642    0.0108    0.0030   -0.0109   -0.0918    0.0095    0.0021   -0.0490
          44   -0.0690    0.0255   -0.0179    0.0203    0.0676    0.0133    0.0064    0.0041
          45   -0.0454    0.0112   -0.0023    0.0006   -0.0140    0.0037    0.0026   -0.0178
          46   -0.0034   -0.0136   -0.0081   -0.0036    0.0040    0.0157   -0.0254   -0.0057
          47   -0.0179   -0.0740   -0.0375   -0.0168    0.0093    0.0575   -0.0426   -0.0103
          48    0.0197    0.0831    0.0436    0.0183   -0.0182   -0.0653    0.1516    0.0336
          49    0.0079    0.0361    0.0179    0.0069   -0.0065   -0.0224    0.0912    0.0217
          50   -0.0078   -0.0284   -0.0130   -0.0068   -0.0052    0.0170    0.1209    0.0273
          51    0.0006   -0.0013   -0.0011    0.0004    0.0052    0.0010   -0.1038   -0.0246
          52    0.0146    0.0654    0.0323    0.0154    0.0003   -0.0497   -0.0300   -0.0042
          53    0.0070    0.0337    0.0177    0.0090    0.0024   -0.0313   -0.0402   -0.0071
          54   -0.0193   -0.0854   -0.0425   -0.0216   -0.0090    0.0666    0.1530    0.0297
          55    0.0129    0.0007   -0.0030    0.0026    0.0051    0.0033   -0.0042    0.0180
          56   -0.0103   -0.0093    0.0095   -0.0067    0.0465   -0.0155   -0.0280    0.0712
          57    0.1358   -0.0364   -0.0048    0.0227    0.1679   -0.0112    0.0398   -0.0940
          58    0.0326    0.0200   -0.1041    0.2286   -0.0434    0.0767   -0.0047   -0.0052
          59   -0.0091   -0.0184    0.0843   -0.1879   -0.0117   -0.0555   -0.0076    0.0037
          60   -0.0097    0.0014    0.0013   -0.0019    0.0332   -0.0052    0.0049    0.0120
          61    0.0257    0.1205    0.1843    0.0613    0.0037    0.0478    0.0536    0.0140
          62   -0.0223   -0.0941   -0.1445   -0.0482   -0.0029   -0.0381    0.0704    0.0199
          63   -0.0002   -0.0040   -0.0063   -0.0017    0.0023   -0.0015   -0.0431   -0.0090
          64   -0.0043   -0.0096    0.0138   -0.0086    0.0428   -0.0315   -0.0120    0.0002
          65    0.0020    0.0031   -0.0017    0.0019    0.0024    0.0009    0.0018   -0.0081
          66    0.0590   -0.0334    0.0224   -0.0306   -0.0920   -0.0080   -0.0304    0.1135
          67   -0.0211   -0.0871    0.0338    0.2069   -0.0292   -0.1271    0.0026    0.0122
          68    0.0209    0.0684   -0.0270   -0.1626    0.0156    0.1017    0.0084    0.0049
          69    0.0015    0.0025   -0.0008   -0.0076   -0.0047    0.0046   -0.0151   -0.0107
          70   -0.0248   -0.0805    0.1903    0.0584    0.0127    0.1166    0.0376    0.0134
          71    0.0192    0.0636   -0.1495   -0.0458   -0.0073   -0.0918    0.0470    0.0199
          72   -0.0007    0.0025   -0.0061   -0.0021   -0.0013   -0.0041   -0.0073   -0.0087


   Root No.      25        26        27        28        29        30        31        32

                25 A      26 A      27 A      28 A      29 A      30 A      31 A      32 A   

                 997.7    1024.3    1029.8    1061.1    1079.4    1100.6    1114.0    1119.8
  
           1   -0.0086   -0.0180    0.0075   -0.0032    0.0058   -0.0052    0.0093    0.0230
           2   -0.0250   -0.0014    0.0007   -0.0051    0.0083    0.0033    0.0043    0.0158
           3   -0.0135   -0.0022    0.0006    0.0123    0.0077   -0.0056   -0.0020    0.0131
           4    0.0051    0.0134   -0.0053   -0.0058   -0.0025    0.0030   -0.0162   -0.0209
           5    0.0201   -0.0243    0.0116    0.0035    0.0257    0.0034   -0.0213    0.0062
           6    0.0108    0.0154   -0.0072    0.0115   -0.0075    0.0313    0.0021   -0.0125
           7   -0.0283    0.0017   -0.0013   -0.0215   -0.0238   -0.0029    0.0107   -0.0182
           8   -0.0127    0.0163   -0.0080    0.0014   -0.0144   -0.0037    0.0227   -0.0032
           9   -0.0162   -0.0159    0.0068    0.0109    0.0044   -0.0344   -0.0048   -0.0002
          10   -0.0009   -0.0121   -0.0222   -0.0006    0.0002    0.0008   -0.0005   -0.0009
          11   -0.0042    0.0084    0.0179   -0.0007    0.0004    0.0010   -0.0007   -0.0014
          12   -0.0017    0.0001    0.0009    0.0012    0.0008   -0.0009    0.0016    0.0061
          13   -0.0050    0.0054   -0.0019    0.0146    0.0142    0.0029   -0.0050    0.0154
          14    0.0152   -0.0004   -0.0003   -0.0114   -0.0181   -0.0041    0.0056   -0.0123
          15    0.0137   -0.0179    0.0098    0.0022   -0.0181   -0.0069    0.0051   -0.0047
          16   -0.0046    0.0046   -0.0094    0.0013   -0.0024   -0.0012    0.0033    0.0025
          17    0.0017   -0.0038    0.0075    0.0030    0.0019   -0.0060    0.0018    0.0059
          18    0.0049   -0.0013    0.0009   -0.0155    0.0005    0.0138   -0.0029   -0.0076
          19    0.0138    0.0027   -0.0013    0.0120    0.0110    0.0002    0.0061    0.0106
          20   -0.0070   -0.0047    0.0025   -0.0187   -0.0170   -0.0008   -0.0048   -0.0236
          21    0.0122    0.0261   -0.0122   -0.0250    0.0114    0.0048   -0.0011    0.0029
          22   -0.0007    0.0166    0.0333    0.0001    0.0000   -0.0002    0.0003    0.0009
          23    0.0023   -0.0125   -0.0263   -0.0001   -0.0004   -0.0001    0.0006    0.0013
          24    0.0010   -0.0002   -0.0013   -0.0014   -0.0007    0.0025   -0.0024   -0.0071
          25    0.0007   -0.0077   -0.0210    0.0005   -0.0005   -0.0011    0.0010    0.0016
          26    0.0022    0.0069    0.0161    0.0010   -0.0002   -0.0019    0.0011    0.0021
          27   -0.0025   -0.0017    0.0015   -0.0028    0.0023    0.0015    0.0012    0.0060
          28    0.0018    0.0011    0.0130    0.0031    0.0012   -0.0030    0.0018    0.0060
          29   -0.0030   -0.0006   -0.0103    0.0037    0.0000   -0.0021    0.0027    0.0064
          30   -0.0012    0.0008   -0.0008    0.0040   -0.0005    0.0003   -0.0020   -0.0045
          31    0.0847   -0.0577    0.0339    0.0000   -0.1102   -0.0071    0.0310    0.0822
          32   -0.1422    0.0356   -0.0236    0.0480    0.1703    0.1090   -0.0719    0.0228
          33    0.0014   -0.0025    0.0007   -0.0133   -0.0170   -0.0504    0.0219   -0.0137
          34    0.0629    0.0668   -0.0293    0.0996    0.0242   -0.0674   -0.1119   -0.1064
          35    0.0221   -0.0307    0.0144    0.0733    0.0812   -0.1293   -0.0969   -0.0220
          36   -0.0163   -0.0150    0.0064    0.0049    0.0121   -0.0165    0.0004    0.0100
          37    0.0354   -0.0588    0.0315   -0.0985    0.0191    0.1142   -0.0391    0.0336
          38    0.0898   -0.0330    0.0186   -0.0352    0.0394    0.1624   -0.0371    0.0204
          39   -0.0195   -0.0115    0.0050   -0.0039   -0.0042   -0.0157    0.0019    0.0034
          40   -0.0907   -0.0716    0.0324    0.0140   -0.0695   -0.0179   -0.0375   -0.0616
          41    0.0339    0.0930   -0.0464   -0.0990    0.1000   -0.1453    0.1106    0.0600
          42    0.0200    0.0188   -0.0082    0.0120    0.0066    0.0178    0.0061    0.0118
          43    0.0130    0.0319   -0.0142   -0.1308   -0.0235    0.0279   -0.0315   -0.0409
          44   -0.0251    0.0352   -0.0156    0.2164   -0.0707    0.1149    0.1364   -0.0065
          45    0.0063    0.0106   -0.0045    0.0070   -0.0120    0.0198    0.0025   -0.0136
          46   -0.0008   -0.0132   -0.0243   -0.0008    0.0002    0.0011   -0.0008   -0.0016
          47    0.0015   -0.0420   -0.0784   -0.0021    0.0001    0.0030   -0.0024   -0.0060
          48    0.0077    0.0496    0.0893    0.0013   -0.0008   -0.0031    0.0030    0.0064
          49    0.0076    0.0162    0.0267   -0.0021   -0.0017    0.0023   -0.0033   -0.0118
          50    0.0143   -0.0090   -0.0226   -0.0029   -0.0024    0.0031   -0.0044   -0.0158
          51   -0.0115   -0.0028    0.0001    0.0025    0.0025   -0.0024    0.0043    0.0163
          52   -0.0075    0.0342    0.0672   -0.0014    0.0004    0.0022   -0.0020   -0.0050
          53   -0.0069    0.0227    0.0458   -0.0011    0.0005    0.0017   -0.0014   -0.0030
          54    0.0205   -0.0451   -0.0928    0.0009   -0.0013   -0.0027    0.0030    0.0063
          55    0.0226    0.0290   -0.0142    0.0389   -0.0167   -0.0050   -0.0381    0.0615
          56    0.1105    0.0675   -0.0354    0.0652   -0.1323   -0.0319   -0.1028    0.1319
          57   -0.0309    0.0540   -0.0287   -0.0006    0.0271    0.0050   -0.0117    0.0108
          58    0.0284   -0.0024    0.0216    0.0286   -0.0106   -0.0097   -0.0199   -0.0457
          59    0.0051    0.0298   -0.0302    0.0402   -0.0112   -0.0061   -0.0312   -0.0720
          60   -0.0071   -0.0113    0.0048   -0.0372    0.0079    0.0168    0.0160    0.0352
          61    0.0104   -0.0374   -0.0790   -0.0042    0.0003    0.0101   -0.0027    0.0015
          62    0.0047    0.0311    0.0613   -0.0049    0.0022    0.0124   -0.0038    0.0024
          63   -0.0032    0.0012    0.0026    0.0015   -0.0016   -0.0048    0.0001   -0.0074
          64    0.1433   -0.0545    0.0273    0.0482    0.1548   -0.0047    0.1501   -0.1020
          65   -0.0043   -0.0008    0.0007   -0.0215   -0.0170   -0.0006   -0.0034   -0.0251
          66   -0.0449   -0.0782    0.0357    0.0528   -0.0256   -0.0157   -0.0055   -0.0023
          67   -0.0033   -0.0009   -0.0355    0.0015    0.0012    0.0272   -0.0107   -0.0063
          68    0.0086    0.0059    0.0258    0.0025    0.0091    0.0302   -0.0164   -0.0057
          69   -0.0040   -0.0009    0.0016    0.0049   -0.0033   -0.0196    0.0084    0.0039
          70    0.0129    0.0271    0.0567    0.0008   -0.0051    0.0045   -0.0125   -0.0362
          71    0.0119   -0.0125   -0.0486    0.0004   -0.0073    0.0069   -0.0164   -0.0487
          72   -0.0095   -0.0056    0.0003   -0.0028    0.0062   -0.0030    0.0115    0.0354


   Root No.      33        34        35        36        37        38        39        40

                33 A      34 A      35 A      36 A      37 A      38 A      39 A      40 A   

                1137.9    1159.4    1185.1    1216.2    1227.7    1229.8    1253.4    1273.3
  
           1    0.0041   -0.0094    0.0058   -0.0009    0.0249    0.0212    0.0004   -0.0100
           2   -0.0057   -0.0068    0.0064    0.0158   -0.0191   -0.0057   -0.0008    0.0189
           3   -0.0101   -0.0155    0.0276   -0.0077    0.0116   -0.0141    0.0002   -0.0196
           4   -0.0088    0.0072   -0.0041    0.0062   -0.0058    0.0014   -0.0024    0.0534
           5   -0.0053   -0.0019    0.0011    0.0066   -0.0027    0.0052   -0.0009    0.0478
           6   -0.0125    0.0060   -0.0058    0.0052    0.0001    0.0057   -0.0008    0.0037
           7    0.0047    0.0035   -0.0021   -0.0039    0.0008   -0.0021    0.0003   -0.0073
           8    0.0071    0.0011   -0.0020   -0.0126    0.0213    0.0081    0.0007   -0.0235
           9    0.0077    0.0012   -0.0017   -0.0005   -0.0010   -0.0006    0.0001   -0.0011
          10    0.0042   -0.0016    0.0022    0.0041    0.0000    0.0018    0.0003    0.0007
          11    0.0055   -0.0033    0.0020    0.0058    0.0004    0.0020    0.0007    0.0009
          12   -0.0046    0.0287    0.0194   -0.0147   -0.0078    0.0063   -0.0087    0.0004
          13   -0.0045   -0.0035    0.0027    0.0065   -0.0101   -0.0042   -0.0003    0.0128
          14    0.0038    0.0021   -0.0002    0.0021   -0.0094   -0.0069    0.0004   -0.0178
          15   -0.0016    0.0038   -0.0038    0.0043   -0.0035    0.0011   -0.0005    0.0027
          16   -0.0108    0.0004   -0.0034    0.0030   -0.0061    0.0014    0.0037    0.0001
          17   -0.0139   -0.0006   -0.0032    0.0019    0.0022    0.0081    0.0043   -0.0027
          18    0.0269    0.0024   -0.0179   -0.0186   -0.0119   -0.0016    0.0127    0.0264
          19   -0.0004   -0.0036    0.0037    0.0076   -0.0168   -0.0099    0.0004   -0.0093
          20    0.0010    0.0066   -0.0045   -0.0046    0.0031    0.0000   -0.0004    0.0073
          21   -0.0007   -0.0018    0.0021   -0.0015    0.0020   -0.0002    0.0001   -0.0006
          22   -0.0034    0.0038   -0.0048   -0.0075    0.0016   -0.0071   -0.0012   -0.0003
          23   -0.0048    0.0059   -0.0056   -0.0108    0.0016   -0.0091   -0.0034   -0.0002
          24    0.0119   -0.0249   -0.0137    0.0302    0.0091    0.0012    0.0446   -0.0058
          25   -0.0079    0.0023   -0.0060   -0.0114    0.0004   -0.0072   -0.0095    0.0005
          26   -0.0103    0.0024   -0.0076   -0.0151    0.0003   -0.0087   -0.0108    0.0003
          27    0.0050    0.0100    0.0002    0.0099    0.0078   -0.0104   -0.0304    0.0135
          28   -0.0092    0.0031   -0.0052    0.0007    0.0015    0.0043    0.0006   -0.0080
          29   -0.0126    0.0050   -0.0070    0.0019   -0.0008    0.0027    0.0011   -0.0083
          30    0.0048   -0.0147    0.0040    0.0021   -0.0077    0.0182   -0.0085   -0.0210
          31    0.1748   -0.0143   -0.0418   -0.0635   -0.0813   -0.0608    0.0230   -0.0177
          32    0.1056   -0.0026   -0.0549   -0.0903    0.0289    0.0235    0.0236   -0.0239
          33   -0.1286   -0.0168    0.0752    0.0631    0.0330    0.0057   -0.0186    0.0035
          34   -0.0093    0.0592   -0.0574    0.0116   -0.0475   -0.0218    0.0009   -0.1422
          35    0.0089    0.0189   -0.0168    0.0093   -0.0335   -0.0227    0.0003   -0.1117
          36   -0.0042   -0.0060    0.0092    0.0037    0.0022   -0.0004   -0.0013   -0.0022
          37   -0.0429   -0.0302    0.0505   -0.0204   -0.0118   -0.0581    0.0049   -0.1571
          38   -0.0588   -0.0118    0.0209    0.0078   -0.0151   -0.0223    0.0001   -0.1068
          39    0.0029   -0.0050    0.0075   -0.0062    0.0050   -0.0042    0.0016    0.0029
          40    0.0046    0.0207   -0.0171   -0.0276    0.0421    0.0160    0.0005   -0.0519
          41    0.0503   -0.0230    0.0179    0.0088   -0.0442   -0.0348    0.0023   -0.0315
          42   -0.0048   -0.0040    0.0032    0.0103   -0.0125   -0.0020   -0.0005    0.0309
          43   -0.0062    0.0109   -0.0067   -0.0303    0.0474    0.0151    0.0006   -0.0551
          44   -0.0077   -0.0019    0.0007    0.0225   -0.0457   -0.0220    0.0008   -0.0183
          45   -0.0035    0.0045   -0.0036   -0.0055    0.0071    0.0013    0.0003   -0.0253
          46    0.0060   -0.0037    0.0021    0.0091    0.0008    0.0035    0.0073    0.0000
          47    0.0174   -0.0215   -0.0021    0.0423    0.0075    0.0113    0.0505   -0.0041
          48   -0.0228    0.0180   -0.0149   -0.0409    0.0014   -0.0261   -0.0361    0.0049
          49    0.0115   -0.0523   -0.0321    0.0433    0.0147   -0.0009    0.0521   -0.0072
          50    0.0151   -0.0698   -0.0429    0.0573    0.0195   -0.0014    0.0688   -0.0096
          51   -0.0120    0.0753    0.0488   -0.0511   -0.0202    0.0067   -0.0552    0.0079
          52    0.0146   -0.0193   -0.0031    0.0372    0.0072    0.0092    0.0458   -0.0038
          53    0.0108   -0.0093    0.0021    0.0202    0.0025    0.0070    0.0203   -0.0012
          54   -0.0231    0.0185   -0.0149   -0.0418    0.0011   -0.0264   -0.0374    0.0051
          55   -0.0002   -0.0081    0.0011   -0.0062    0.0266    0.0198   -0.0005    0.0239
          56    0.0173   -0.0094   -0.0089   -0.0398    0.1114    0.0732   -0.0004    0.0185
          57    0.0020   -0.0081    0.0094   -0.0080    0.0089   -0.0018    0.0009   -0.0068
          58    0.0324   -0.0596    0.1009   -0.0580    0.0375   -0.0671    0.0440    0.0517
          59    0.0335   -0.0702    0.1259   -0.0664    0.0280   -0.0984    0.0550    0.0665
          60   -0.0027    0.0439   -0.0957    0.0224   -0.0355    0.0580   -0.0167   -0.0128
          61    0.0394    0.0878    0.0868    0.0223   -0.0215    0.0525    0.1146   -0.0130
          62    0.0509    0.1154    0.1142    0.0280   -0.0283    0.0689    0.1480   -0.0168
          63   -0.0200   -0.0880   -0.0842    0.0090    0.0278   -0.0453   -0.0416    0.0036
          64    0.0235    0.0200   -0.0204   -0.0555    0.1028    0.0510   -0.0005    0.0100
          65    0.0015    0.0070   -0.0048   -0.0054    0.0039    0.0002   -0.0004    0.0067
          66    0.0007    0.0005    0.0008    0.0010   -0.0026   -0.0025    0.0001   -0.0015
          67    0.0929    0.0425    0.0252    0.0949    0.0460   -0.0375   -0.0955   -0.0178
          68    0.1223    0.0557    0.0322    0.1206    0.0706   -0.0427   -0.1242   -0.0269
          69   -0.0720   -0.0452   -0.0206   -0.0679   -0.0469    0.0481    0.0622   -0.0133
          70    0.0407   -0.0784    0.0480   -0.0080   -0.0509    0.0832   -0.1044   -0.0083
          71    0.0529   -0.1026    0.0628   -0.0103   -0.0674    0.1090   -0.1348   -0.0119
          72   -0.0315    0.0703   -0.0424    0.0084    0.0474   -0.0792    0.0382    0.0206


   Root No.      41        42        43        44        45        46        47        48

                41 A      42 A      43 A      44 A      45 A      46 A      47 A      48 A   

                1295.7    1325.8    1359.0    1388.0    1395.7    1401.1    1413.6    1420.7
  
[...]
 TRAVEL      0.1760        C  4 --  H 18          +20.4% ( 39.0%)    11.6%
 RED. MASS   0.4210        C  4 --  C  8           +5.0% ( 19.4%)     0.0%
 EFF. MASS   1.5603

 VIBRATION   46   46A       ATOM PAIR        ENERGY CONTRIBUTION    RADIAL
 FREQ.      1401.13        C  3 --  H 14          +11.4% ( 41.8%)     5.1%
 T-DIPOLE    0.1651        C  3 --  H 15          +11.4% ( 41.8%)     5.0%
 TRAVEL      0.0963        C  1 --  C  6           +8.7% ( 36.6%)    88.9%
 RED. MASS   0.4358        C  3 --  C  7           +8.0% ( 35.1%)    99.3%
 EFF. MASS   5.1948

 VIBRATION   47   47A       ATOM PAIR        ENERGY CONTRIBUTION    RADIAL
 FREQ.      1413.60        C  3 --  C  7           +9.6% ( 41.2%)    95.7%
 T-DIPOLE    0.1084        C  1 --  C  5           +8.6% ( 39.2%)    79.3%
 TRAVEL      0.0869        C  3 --  H 15           +6.8% ( 34.8%)     6.0%
 RED. MASS   0.5212        C  3 --  H 14           +6.7% ( 34.6%)     6.2%
 EFF. MASS   6.3109

 VIBRATION   48   48A       ATOM PAIR        ENERGY CONTRIBUTION    RADIAL
 FREQ.      1420.70        C  2 --  H 12          +28.4% ( 55.0%)     4.5%
 T-DIPOLE    0.0574        C  2 --  H 13          +27.1% ( 53.7%)     5.2%
 TRAVEL      0.1303        C  2 --  C  3          +11.7% ( 35.2%)    95.6%
 RED. MASS   0.4141        C  3 --  H 14           +9.2% ( 31.3%)     5.5%
 EFF. MASS   2.7967

 VIBRATION   49   49A       ATOM PAIR        ENERGY CONTRIBUTION    RADIAL
 FREQ.      1438.20        C  4 --  C  8          +12.8% ( 53.1%)   100.0%
 T-DIPOLE    0.1300        C  4 --  H 17          +10.7% ( 48.4%)     4.8%
 TRAVEL      0.0741        C  1 --  C  6          +10.1% ( 47.0%)    86.7%
 RED. MASS   1.1544        C  4 --  H 18           +8.6% ( 43.3%)     3.6%
 EFF. MASS   8.5325

 VIBRATION   50   50A       ATOM PAIR        ENERGY CONTRIBUTION    RADIAL
 FREQ.      1829.31        C  5 --  C  7          +45.6% ( 99.9%)   100.0%
 T-DIPOLE    0.1675        C  3 --  C  7          +13.9% ( 55.1%)    25.8%
 TRAVEL      0.0557        C  1 --  C  5          +13.8% ( 55.0%)    24.9%
 RED. MASS   5.3276        C  7 --  H 22          +12.9% ( 53.2%)     9.6%
 EFF. MASS  11.8866        C  5 --  H 19          +12.8% ( 53.0%)    10.1%

 VIBRATION   51   51A       ATOM PAIR        ENERGY CONTRIBUTION    RADIAL
 FREQ.      1861.78        C  8 --  C  9          +22.4% ( 69.7%)    97.2%
 T-DIPOLE    0.4599        C  6 --  C 10          +22.1% ( 69.2%)    97.4%
 TRAVEL      0.0553        C  9 --  C 10           +9.8% ( 46.1%)    84.6%
 RED. MASS   2.7682        C  4 --  C  8           +8.7% ( 43.3%)    59.9%
 EFF. MASS  11.8439

 VIBRATION   52   52A       ATOM PAIR        ENERGY CONTRIBUTION    RADIAL
 FREQ.      1885.90        C  6 --  C 10          +21.4% ( 68.8%)    94.7%
 T-DIPOLE    0.3309        C  8 --  C  9          +21.1% ( 68.3%)    94.6%
 TRAVEL      0.0551        C  9 --  C 10          +18.6% ( 64.1%)    55.7%
 RED. MASS   2.8627        C 10 --  H 23           +8.0% ( 42.1%)     1.8%
 EFF. MASS  11.7669

 VIBRATION   53   53A       ATOM PAIR        ENERGY CONTRIBUTION    RADIAL
 FREQ.      2883.36        C  1 --  H 11          +96.4% ( 99.8%)   100.0%
 T-DIPOLE    0.0586        C  1 --  C  2           +1.1% ( 10.6%)    10.0%
 TRAVEL      0.1270        C  1 --  C  6           +1.1% ( 10.6%)    12.2%
 RED. MASS   0.9232        C  1 --  C  5           +1.1% ( 10.5%)     9.8%
 EFF. MASS   1.4507

 VIBRATION   54   54A       ATOM PAIR        ENERGY CONTRIBUTION    RADIAL
 FREQ.      2972.54        C  3 --  H 15          +40.5% ( 66.2%)    96.7%
 T-DIPOLE    0.0084        C  3 --  H 14          +38.2% ( 64.3%)    96.4%
 TRAVEL      0.1209        C  2 --  H 12          +10.4% ( 33.6%)    96.8%
 RED. MASS   0.3573        C  2 --  H 13           +8.5% ( 30.3%)    95.5%
 EFF. MASS   1.5507

 VIBRATION   55   55A       ATOM PAIR        ENERGY CONTRIBUTION    RADIAL
 FREQ.      2990.97        C  2 --  H 12          +44.3% ( 68.9%)    97.3%
 T-DIPOLE    0.0621        C  2 --  H 13          +34.6% ( 60.9%)    95.8%
 TRAVEL      0.1213        C  3 --  H 15           +9.7% ( 32.3%)    97.1%
 RED. MASS   0.3601        C  3 --  H 14           +9.0% ( 31.1%)    96.7%
 EFF. MASS   1.5319

 VIBRATION   56   56A       ATOM PAIR        ENERGY CONTRIBUTION    RADIAL
 FREQ.      3025.82        C 10 --  H 23          +62.5% ( 80.4%)   100.0%
 T-DIPOLE    0.0629        C  9 --  H 24          +34.0% ( 59.3%)   100.0%
 TRAVEL      0.1203        C  9 --  C 10           +1.7% ( 13.1%)    17.3%
 RED. MASS   0.5024        C  6 --  C 10           +1.0% ( 10.1%)    36.7%
 EFF. MASS   1.5410

 VIBRATION   57   57A       ATOM PAIR        ENERGY CONTRIBUTION    RADIAL
 FREQ.      3033.69        C  9 --  H 24          +60.8% ( 78.8%)   100.0%
 T-DIPOLE    0.4090        C 10 --  H 23          +32.2% ( 57.3%)   100.0%
 TRAVEL      0.1228        C  6 --  H 20           +2.6% ( 16.2%)    99.9%
 RED. MASS   0.4628        C  8 --  H 21           +2.0% ( 14.4%)    99.6%
 EFF. MASS   1.4741

 VIBRATION   58   58A       ATOM PAIR        ENERGY CONTRIBUTION    RADIAL
 FREQ.      3039.27        C  8 --  H 21          +90.2% ( 96.5%)   100.0%
 T-DIPOLE    0.2587        C 10 --  H 23           +1.8% ( 13.6%)    99.9%
 TRAVEL      0.1205        C  6 --  H 20           +1.6% ( 12.7%)    99.9%
 RED. MASS   0.8067        C  8 --  C  9           +1.5% ( 12.5%)    38.4%
 EFF. MASS   1.5287

 VIBRATION   59   59A       ATOM PAIR        ENERGY CONTRIBUTION    RADIAL
 FREQ.      3040.77        C  6 --  H 20          +92.9% ( 97.7%)   100.0%
 T-DIPOLE    0.1974        C  8 --  H 21           +2.1% ( 14.9%)   100.0%
 TRAVEL      0.1209        C  6 --  C 10           +1.5% ( 12.5%)    40.0%
 RED. MASS   0.8506        C  9 --  H 24           +1.5% ( 12.3%)   100.0%
 EFF. MASS   1.5177

 VIBRATION   60   60A       ATOM PAIR        ENERGY CONTRIBUTION    RADIAL
 FREQ.      3055.14        C  3 --  H 14          +49.9% ( 69.7%)    97.8%
 T-DIPOLE    0.0857        C  3 --  H 15          +46.6% ( 67.4%)    97.4%
 TRAVEL      0.1311        C  2 --  H 13           +1.1% ( 10.3%)    98.1%
 RED. MASS   0.4653        C  2 --  H 12           +0.8% (  8.9%)    96.1%
 EFF. MASS   1.2836

 VIBRATION   61   61A       ATOM PAIR        ENERGY CONTRIBUTION    RADIAL
 FREQ.      3068.34        C  4 --  H 18          +49.1% ( 72.3%)    97.0%
 T-DIPOLE    0.0316        C  4 --  H 16          +49.0% ( 72.2%)    97.0%
 TRAVEL      0.1210        C  4 --  C  8           +1.0% ( 10.2%)     0.0%
 RED. MASS   0.5092        C  4 --  H 17           +0.9% (  9.9%)     0.0%
 EFF. MASS   1.5005

 VIBRATION   62   62A       ATOM PAIR        ENERGY CONTRIBUTION    RADIAL
 FREQ.      3069.11        C  2 --  H 13          +54.6% ( 72.8%)    98.3%
 T-DIPOLE    0.0746        C  2 --  H 12          +42.1% ( 63.9%)    96.7%
 TRAVEL      0.1310        C  3 --  H 15           +0.9% (  9.6%)    98.0%
 RED. MASS   0.4716        C  3 --  H 14           +0.9% (  9.4%)    97.8%
 EFF. MASS   1.2797

 VIBRATION   63   63A       ATOM PAIR        ENERGY CONTRIBUTION    RADIAL
 FREQ.      3075.36        C  4 --  H 17          +62.0% ( 81.2%)    98.8%
 T-DIPOLE    0.0780        C  4 --  H 16          +17.4% ( 43.0%)    85.1%
 TRAVEL      0.1206        C  4 --  H 18          +17.3% ( 42.9%)    85.1%
 RED. MASS   0.4729        C  8 --  H 21           +2.1% ( 15.1%)   100.0%
 EFF. MASS   1.5083

 VIBRATION   64   64A       ATOM PAIR        ENERGY CONTRIBUTION    RADIAL
 FREQ.      3115.48        C  7 --  H 22          +54.6% ( 75.0%)   100.0%
 T-DIPOLE    0.3838        C  5 --  H 19          +42.8% ( 66.5%)   100.0%
 TRAVEL      0.1217        C  5 --  C  7           +1.1% ( 10.7%)     0.3%
 RED. MASS   0.4716        C  3 --  C  7           +0.8% (  9.2%)    27.2%
 EFF. MASS   1.4620

 VIBRATION   65   65A       ATOM PAIR        ENERGY CONTRIBUTION    RADIAL
 FREQ.      3134.67        C  5 --  H 19          +53.6% ( 74.6%)    99.9%
 T-DIPOLE    0.3601        C  7 --  H 22          +41.9% ( 65.9%)    99.9%
 TRAVEL      0.1141        C  5 --  C  7           +2.5% ( 16.0%)    99.6%
 RED. MASS   0.4729        C  1 --  C  5           +1.0% ( 10.4%)    18.3%
 EFF. MASS   1.6510

 VIBRATION   66   66A       ATOM PAIR        ENERGY CONTRIBUTION    RADIAL
 FREQ.      3168.62        C  4 --  H 17          +35.1% ( 57.0%)    97.3%
 T-DIPOLE    0.0954        C  4 --  H 16          +32.3% ( 54.7%)    97.0%
 TRAVEL      0.1367        C  4 --  H 18          +32.3% ( 54.7%)    97.0%
 RED. MASS   0.3274        C  4 --  C  8           +0.3% (  5.4%)   100.0%
 EFF. MASS   1.1395

 SYMMETRY NUMBER FOR POINT-GROUP C1  =  1


          SYSTEM IS A GROUND STATE


    NULL



          MOLECULE IS NOT LINEAR

          THERE ARE 66 GENUINE VIBRATIONS IN THIS SYSTEM
          THIS THERMODYNAMICS CALCULATION IS LIMITED TO
          MOLECULES WHICH HAVE NO INTERNAL ROTATIONS




                    CALCULATED THERMODYNAMIC PROPERTIES
                                          *
   TEMP. (K)   PARTITION FUNCTION   H.O.F.    ENTHALPY  HEAT CAPACITY ENTROPY
                                   KCAL/MOL   CAL/MOLE    CAL/K/MOL  CAL/K/MOL


 298.00  VIB.     0.1225D+05                  5095.9483    33.3614    35.8069
         ROT.     0.8740D+06                   888.2813     2.9808    30.1673
         INT.     0.1071D+11                  5984.2296    36.3422    65.9742
         TRA.     0.1503D+28                  1480.4688     4.9680    40.5931
         TOT.                       26.786    7464.6985    41.3102   106.5673

 200.00  VIB.     0.6835D+03                  2421.4046    21.6996    25.0781
         ROT.     0.4805D+06                   596.1620     2.9808    28.9787
         INT.     0.3285D+09                  3017.5666    24.6804    54.0568
         TRA.     0.8266D+27                   993.6033     4.9680    38.6119
         TOT.                       23.333    4011.1698    29.6484    92.6687

 210.00  VIB.     0.9256D+03                  2643.5669    22.7397    26.1618
         ROT.     0.5170D+06                   625.9700     2.9808    29.1241
         INT.     0.4785D+09                  3269.5369    25.7205    55.2859
         TRA.     0.8893D+27                  1043.2834     4.9680    38.8543
         TOT.                       23.634    4312.8203    30.6886    94.1403

 220.00  VIB.     0.1250D+04                  2876.3355    23.8207    27.2445
         ROT.     0.5544D+06                   655.7781     2.9808    29.2628
         INT.     0.6928D+09                  3532.1137    26.8015    56.5073
         TRA.     0.9536D+27                  1092.9636     4.9680    39.0854
         TOT.                       23.946    4625.0773    31.7695    95.5927

 230.00  VIB.     0.1683D+04                  3120.1129    24.9412    28.3279
         ROT.     0.5926D+06                   685.5862     2.9808    29.3953
         INT.     0.9976D+09                  3805.6992    27.9220    57.7232
         TRA.     0.1019D+28                  1142.6437     4.9680    39.3063
         TOT.                       24.270    4948.3429    32.8900    97.0295

 240.00  VIB.     0.2263D+04                  3375.2827    26.0987    29.4137
         ROT.     0.6317D+06                   715.3943     2.9808    29.5221
         INT.     0.1429D+10                  4090.6770    29.0795    58.9359
         TRA.     0.1087D+28                  1192.3239     4.9680    39.5177
         TOT.                       24.604    5283.0009    34.0476    98.4536

 250.00  VIB.     0.3037D+04                  3642.2012    27.2904    30.5032
         ROT.     0.6715D+06                   745.2024     2.9808    29.6438
         INT.     0.2039D+10                  4387.4037    30.2712    60.1470
         TRA.     0.1155D+28                  1242.0041     4.9680    39.7205
         TOT.                       24.951    5629.4077    35.2392    99.8675

 260.00  VIB.     0.4069D+04                  3921.1911    28.5124    31.5973
         ROT.     0.7122D+06                   775.0105     2.9808    29.7607
         INT.     0.2898D+10                  4696.2017    31.4932    61.3580
         TRA.     0.1225D+28                  1291.6842     4.9680    39.9154
         TOT.                       25.309    5987.8859    36.4612   101.2734

 270.00  VIB.     0.5445D+04                  4212.5368    29.7608    32.6967
         ROT.     0.7537D+06                   804.8186     2.9808    29.8732
         INT.     0.4104D+10                  5017.3554    32.7416    62.5699
         TRA.     0.1297D+28                  1341.3644     4.9680    40.1029
         TOT.                       25.680    6358.7198    37.7096   102.6727

 280.00  VIB.     0.7279D+04                  4516.4817    31.0315    33.8019
         ROT.     0.7960D+06                   834.6267     2.9808    29.9816
         INT.     0.5794D+10                  5351.1084    34.0123    63.7835
         TRA.     0.1369D+28                  1391.0445     4.9680    40.2835
         TOT.                       26.064    6742.1530    38.9803   104.0671

 290.00  VIB.     0.9723D+04                  4833.2272    32.3202    34.9133
         ROT.     0.8390D+06                   864.4348     2.9808    30.0862
         INT.     0.8157D+10                  5697.6620    35.3010    64.9995
         TRA.     0.1443D+28                  1440.7247     4.9680    40.4579
         TOT.                       26.460    7138.3867    40.2691   105.4574

 300.00  VIB.     0.1298D+05                  5162.9324    33.6228    36.0309
         ROT.     0.8828D+06                   894.2429     2.9808    30.1873
         INT.     0.1146D+11                  6057.1753    36.6036    66.2182
         TRA.     0.1518D+28                  1490.4049     4.9680    40.6263
         TOT.                       26.869    7547.5802    41.5716   106.8445

 310.00  VIB.     0.1732D+05                  5505.7152    34.9351    37.1548
         ROT.     0.9273D+06                   924.0510     2.9808    30.2850
         INT.     0.1606D+11                  6429.7662    37.9159    67.4398
         TRA.     0.1595D+28                  1540.0850     4.9680    40.7892
         TOT.                       27.291    7969.8512    42.8839   108.2290

 320.00  VIB.     0.2310D+05                  5861.6542    36.2534    38.2847
         ROT.     0.9725D+06                   953.8591     2.9808    30.3797
         INT.     0.2247D+11                  6815.5133    39.2342    68.6644
         TRA.     0.1673D+28                  1589.7652     4.9680    40.9469
         TOT.                       27.727    8405.2785    44.2022   109.6113

 330.00  VIB.     0.3082D+05                  6230.7907    37.5740    39.4205
         ROT.     0.1018D+07                   983.6672     2.9808    30.4714
         INT.     0.3138D+11                  7214.4579    40.5548    69.8919
         TRA.     0.1752D+28                  1639.4454     4.9680    41.0998
         TOT.                       28.175    8853.9033    45.5229   110.9917

 340.00  VIB.     0.4110D+05                  6613.1315    38.8937    40.5618
         ROT.     0.1065D+07                  1013.4753     2.9808    30.5604
         INT.     0.4377D+11                  7626.6069    41.8745    71.1222
         TRA.     0.1832D+28                  1689.1255     4.9680    41.2481
         TOT.                       28.637    9315.7324    46.8425   112.3703

 350.00  VIB.     0.5481D+05                  7008.6519    40.2095    41.7082
         ROT.     0.1112D+07                  1043.2834     2.9808    30.6468
         INT.     0.6097D+11                  8051.9353    43.1903    72.3550
         TRA.     0.1914D+28                  1738.8057     4.9680    41.3921
         TOT.                       29.112    9790.7410    48.1583   113.7471

 360.00  VIB.     0.7309D+05                  7417.2984    41.5185    42.8593
         ROT.     0.1160D+07                  1073.0915     2.9808    30.7308
         INT.     0.8482D+11                  8490.3899    44.4993    73.5901
         TRA.     0.1996D+28                  1788.4859     4.9680    41.5321
         TOT.                       29.600   10278.8758    49.4673   115.1222

 370.00  VIB.     0.9750D+05                  7838.9920    42.8185    44.0146
         ROT.     0.1209D+07                  1102.8996     2.9808    30.8124
         INT.     0.1179D+12                  8941.8916    45.7993    74.8271
         TRA.     0.2080D+28                  1838.1660     4.9680    41.6682
         TOT.                       30.101   10780.0576    50.7673   116.4953

 380.00  VIB.     0.1301D+06                  8273.6311    44.1073    45.1737
         ROT.     0.1258D+07                  1132.7077     2.9808    30.8919
         INT.     0.1637D+12                  9406.3388    47.0881    76.0656
         TRA.     0.2165D+28                  1887.8462     4.9680    41.8007
         TOT.                       30.616   11294.1849    52.0561   117.8663

 390.00  VIB.     0.1736D+06                  8721.0943    45.3830    46.3359
         ROT.     0.1308D+07                  1162.5158     2.9808    30.9693
         INT.     0.2271D+12                  9883.6101    48.3639    77.3052
         TRA.     0.2251D+28                  1937.5263     4.9680    41.9297
         TOT.                       31.143   11821.1364    53.3319   119.2350

 400.00  VIB.     0.2316D+06                  9181.2432    46.6442    47.5008
         ROT.     0.1359D+07                  1192.3239     2.9808    31.0448
         INT.     0.3148D+12                 10373.5671    49.6250    78.5456
         TRA.     0.2338D+28                  1987.2065     4.9680    42.0555
         TOT.                       31.682   12360.7736    54.5930   120.6012

   *: NOTE: HEATS OF FORMATION ARE RELATIVE TO THE
            ELEMENTS IN THEIR STANDARD STATE AT 298K
              (=  Standard Enthalpy of Formation).

            Hvib:  Zero-point energy is not included.
                   frequencies of less than zero cm-1 are not included.
            Hrot = (3/2)RT
            Htra = (3/2)RT + pV = (5/2)RT

            Heat capacity is Cp, not Cv

           For more information, see: HTTP://OpenMOPAC.net/Manual/thermochemistry.html


           FORCE CONSTANT IN CARTESIAN COORDINATES (Millidynes/A)

    ATOM   CHEMICAL       X               Y               Z
   NUMBER   SYMBOL  FORCE CONSTANT  FORCE CONSTANT  FORCE CONSTANT

      1       C        7.710586        9.309599        8.685682
      2       C        7.535763        8.412917        8.418496
      3       C        9.624567        7.565121        8.063453
      4       C        8.189653        8.381313        8.865570
      5       C       14.593293       10.319832        2.410227
      6       C        7.404459       10.390777        9.253932
      7       C       11.988677       13.088325        2.346006
      8       C        7.236234       10.272005        9.458396
      9       C        7.215576       10.353640        9.925927
     10       C        7.229603       10.351821        9.924034
     11       H        1.180537        1.230389        3.583353
     12       H        1.314492        1.654761        3.558094
     13       H        1.232829        1.673584        3.597939
     14       H        2.106297        0.896822        3.389387
     15       H        1.739341        0.935009        3.706656
     16       H        5.325581        0.649997        0.676612
     17       H        1.159025        1.338692        4.267238
     18       H        1.010823        4.945747        0.696160
     19       H        4.966937        1.090954        0.359333
     20       H        0.856171        1.052451        4.309124
     21       H        0.847889        1.047175        4.324520
     22       H        0.710543        5.349083        0.356590
     23       H        0.851154        1.049058        4.297430
     24       H        0.848542        1.050635        4.308183



 TOTAL CPU TIME:             4.25 SECONDS

 == MOPAC DONE ==
