 *******************************************************************************
 ** Site#: 14399           For non-commercial use only        Version 13.159M **
 *******************************************************************************
 ** Cite this work as: MOPAC2012, James J. P. Stewart, Stewart Computational  **
 ** Chemistry, Version 13.159M web: HTTP://OpenMOPAC.net  Days remaining:   6 **
 *******************************************************************************
 **                                                                           **
 **                                MOPAC2012                                  **
 **                                                                           **
 *******************************************************************************

                            PM3 CALCULATION RESULTS


 *******************************************************************************
 *  CALCULATION DONE:                                Mon Jun  2 11:06:28 2014  *
 *  PM3      - The PM3 Hamiltonian to be used
 *  PRECISE  - CRITERIA TO BE INCREASED BY 100 TIMES
 *  NOSYM    - POINT-GROUP SYMMETRY SET TO C1
 *  T=       - A TIME OF 172800.0 SECONDS REQUESTED
 *  DUMP=N   - RESTART FILE WRITTEN EVERY  7200.000 SECONDS
 *******************************************************************************
pm3  precise nosym
 InChI=1S/C11H18/c1-4-7-10-8-9(5-2)11(10)6-3/h4,6,9-11H,1,3,5,7-8H2,2H3

   ATOM   CHEMICAL          X               Y               Z
  NUMBER   SYMBOL      (ANGSTROMS)     (ANGSTROMS)     (ANGSTROMS)
 
     1       C          1.27640000  *  -0.89100000  *   0.04570000  *
     2       C         -0.86800000  *  -0.88650000  *  -0.17060000  *
     3       C          0.14700000  *   0.16710000  *   0.28170000  *
     4       C          0.23760000  *  -1.77440000  *  -0.64350000  *
     5       C          2.43420000  *  -0.43180000  *  -0.84850000  *
     6       C         -1.85050000  *  -0.42870000  *  -1.25890000  *
     7       C          3.35310000  *   0.55520000  *  -0.13750000  *
     8       C         -0.00100000  *   0.59220000  *   1.71850000  *
     9       C         -2.81640000  *   0.61190000  *  -0.76580000  *
    10       C         -0.05970000  *   1.87630000  *   2.07700000  *
    11       C         -3.74080000  *   0.35470000  *   0.16310000  *
    12       H          1.64210000  *  -1.37640000  *   0.98360000  *
    13       H         -1.40780000  *  -1.37560000  *   0.67750000  *
    14       H          0.21870000  *   1.02670000  *  -0.42980000  *
    15       H          0.19190000  *  -2.80290000  *  -0.21470000  *
    16       H          0.35040000  *  -1.81430000  *  -1.75370000  *
    17       H          3.03260000  *  -1.32450000  *  -1.14360000  *
    18       H          2.05640000  *   0.03690000  *  -1.78740000  *
    19       H         -2.41900000  *  -1.30690000  *  -1.64350000  *
    20       H         -1.29550000  *  -0.00460000  *  -2.12840000  *
    21       H          3.78590000  *   0.10200000  *   0.78340000  *
    22       H          4.19280000  *   0.84140000  *  -0.81050000  *
    23       H          2.80280000  *   1.48280000  *   0.14050000  *
    24       H         -0.06440000  *  -0.17000000  *   2.49450000  *
    25       H         -2.76930000  *   1.61210000  *  -1.19460000  *
    26       H         -3.83580000  *  -0.63270000  *   0.61170000  *
    27       H         -4.42320000  *   1.13860000  *   0.48580000  *
    28       H         -0.16810000  *   2.14470000  *   3.12610000  *
    29       H         -0.00230000  *   2.67750000  *   1.34200000  *
 


          CARTESIAN COORDINATES 

    NO.       ATOM         X         Y         Z

     1         C        1.2764   -0.8910    0.0457
     2         C       -0.8680   -0.8865   -0.1706
     3         C        0.1470    0.1671    0.2817
     4         C        0.2376   -1.7744   -0.6435
     5         C        2.4342   -0.4318   -0.8485
     6         C       -1.8505   -0.4287   -1.2589
     7         C        3.3531    0.5552   -0.1375
     8         C       -0.0010    0.5922    1.7185
     9         C       -2.8164    0.6119   -0.7658
    10         C       -0.0597    1.8763    2.0770
    11         C       -3.7408    0.3547    0.1631
    12         H        1.6421   -1.3764    0.9836
    13         H       -1.4078   -1.3756    0.6775
    14         H        0.2187    1.0267   -0.4298
    15         H        0.1919   -2.8029   -0.2147
    16         H        0.3504   -1.8143   -1.7537
    17         H        3.0326   -1.3245   -1.1436
    18         H        2.0564    0.0369   -1.7874
    19         H       -2.4190   -1.3069   -1.6435
    20         H       -1.2955   -0.0046   -2.1284
    21         H        3.7859    0.1020    0.7834
    22         H        4.1928    0.8414   -0.8105
    23         H        2.8028    1.4828    0.1405
    24         H       -0.0644   -0.1700    2.4945
    25         H       -2.7693    1.6121   -1.1946
    26         H       -3.8358   -0.6327    0.6117
    27         H       -4.4232    1.1386    0.4858
    28         H       -0.1681    2.1447    3.1261
    29         H       -0.0023    2.6775    1.3420

  H: (PM3): J. J. P. STEWART, J. COMP. CHEM. 10, 209 (1989).
  C: (PM3): J. J. P. STEWART, J. COMP. CHEM. 10, 209 (1989).

           Empirical Formula: C11 H18  =    29 atoms



      MOLECULAR POINT GROUP   :   C1  


      RHF CALCULATION, NO. OF DOUBLY OCCUPIED LEVELS =   31

      Geometry optimization using EF

          DIAGONAL MATRIX USED AS START HESSIAN

 CYCLE:     1 TIME:   0.015 TIME LEFT:  2.00D  GRAD.:   104.125 HEAT: 22.95924
 CYCLE:     2 TIME:   0.024 TIME LEFT:  2.00D  GRAD.:   123.778 HEAT: 22.55136
 CYCLE:     3 TIME:   0.012 TIME LEFT:  2.00D  GRAD.:   131.162 HEAT: 22.30937
 CYCLE:     4 TIME:   0.021 TIME LEFT:  2.00D  GRAD.:    47.702 HEAT: 19.28029
 CYCLE:     5 TIME:   0.021 TIME LEFT:  2.00D  GRAD.:    37.275 HEAT: 18.80215
 CYCLE:     6 TIME:   0.012 TIME LEFT:  2.00D  GRAD.:    40.286 HEAT: 18.63842
 CYCLE:     7 TIME:   0.012 TIME LEFT:  2.00D  GRAD.:    39.859 HEAT: 18.44091
 CYCLE:     8 TIME:   0.020 TIME LEFT:  2.00D  GRAD.:    20.205 HEAT: 18.18637
 CYCLE:     9 TIME:   0.020 TIME LEFT:  2.00D  GRAD.:     9.805 HEAT: 18.07955
 CYCLE:    10 TIME:   0.012 TIME LEFT:  2.00D  GRAD.:    17.715 HEAT: 18.05161
 CYCLE:    11 TIME:   0.011 TIME LEFT:  2.00D  GRAD.:    10.375 HEAT: 17.95124
 CYCLE:    12 TIME:   0.020 TIME LEFT:  2.00D  GRAD.:    12.279 HEAT: 17.94203
 CYCLE:    13 TIME:   0.011 TIME LEFT:  2.00D  GRAD.:     9.606 HEAT: 17.90017
 CYCLE:    14 TIME:   0.020 TIME LEFT:  2.00D  GRAD.:     6.962 HEAT: 17.87938
 CYCLE:    15 TIME:   0.011 TIME LEFT:  2.00D  GRAD.:     5.345 HEAT: 17.85917
 CYCLE:    16 TIME:   0.011 TIME LEFT:  2.00D  GRAD.:     9.563 HEAT: 17.85622
 CYCLE:    17 TIME:   0.011 TIME LEFT:  2.00D  GRAD.:     8.457 HEAT: 17.83684
 CYCLE:    18 TIME:   0.020 TIME LEFT:  2.00D  GRAD.:     7.070 HEAT: 17.82528
 CYCLE:    19 TIME:   0.011 TIME LEFT:  2.00D  GRAD.:     6.768 HEAT: 17.81424
 CYCLE:    20 TIME:   0.011 TIME LEFT:  2.00D  GRAD.:     6.742 HEAT: 17.80581
 CYCLE:    21 TIME:   0.011 TIME LEFT:  2.00D  GRAD.:     7.363 HEAT: 17.79914
 CYCLE:    22 TIME:   0.011 TIME LEFT:  2.00D  GRAD.:     7.142 HEAT: 17.79196
 CYCLE:    23 TIME:   0.011 TIME LEFT:  2.00D  GRAD.:     6.704 HEAT: 17.78261
 CYCLE:    24 TIME:   0.011 TIME LEFT:  2.00D  GRAD.:     4.599 HEAT: 17.76815
 CYCLE:    25 TIME:   0.011 TIME LEFT:  2.00D  GRAD.:     5.108 HEAT: 17.75748
 CYCLE:    26 TIME:   0.011 TIME LEFT:  2.00D  GRAD.:     4.408 HEAT: 17.73857
 CYCLE:    27 TIME:   0.011 TIME LEFT:  2.00D  GRAD.:     4.517 HEAT: 17.70967
 CYCLE:    28 TIME:   0.011 TIME LEFT:  2.00D  GRAD.:     6.399 HEAT: 17.68321
 CYCLE:    29 TIME:   0.011 TIME LEFT:  2.00D  GRAD.:     8.119 HEAT: 17.65718
 CYCLE:    30 TIME:   0.011 TIME LEFT:  2.00D  GRAD.:     5.516 HEAT: 17.63039
 CYCLE:    31 TIME:   0.011 TIME LEFT:  2.00D  GRAD.:     5.024 HEAT: 17.61584
 CYCLE:    32 TIME:   0.011 TIME LEFT:  2.00D  GRAD.:     4.124 HEAT: 17.59565
 CYCLE:    33 TIME:   0.011 TIME LEFT:  2.00D  GRAD.:     5.307 HEAT: 17.57759
 CYCLE:    34 TIME:   0.011 TIME LEFT:  2.00D  GRAD.:     3.819 HEAT: 17.54813
 CYCLE:    35 TIME:   0.011 TIME LEFT:  2.00D  GRAD.:     6.862 HEAT: 17.51760
 CYCLE:    36 TIME:   0.011 TIME LEFT:  2.00D  GRAD.:     6.385 HEAT: 17.47489
 CYCLE:    37 TIME:   0.011 TIME LEFT:  2.00D  GRAD.:     6.931 HEAT: 17.44531
 CYCLE:    38 TIME:   0.011 TIME LEFT:  2.00D  GRAD.:     5.815 HEAT: 17.39873
 CYCLE:    39 TIME:   0.011 TIME LEFT:  2.00D  GRAD.:     8.806 HEAT: 17.36701
 CYCLE:    40 TIME:   0.011 TIME LEFT:  2.00D  GRAD.:     7.390 HEAT: 17.31755
 CYCLE:    41 TIME:   0.011 TIME LEFT:  2.00D  GRAD.:     9.539 HEAT: 17.29639
 CYCLE:    42 TIME:   0.011 TIME LEFT:  2.00D  GRAD.:     4.292 HEAT: 17.25345
 CYCLE:    43 TIME:   0.011 TIME LEFT:  2.00D  GRAD.:     5.102 HEAT: 17.22709
 CYCLE:    44 TIME:   0.011 TIME LEFT:  2.00D  GRAD.:     5.573 HEAT: 17.19232
 CYCLE:    45 TIME:   0.012 TIME LEFT:  2.00D  GRAD.:     4.935 HEAT: 17.16296
 CYCLE:    46 TIME:   0.015 TIME LEFT:  2.00D  GRAD.:     3.284 HEAT: 17.14616
 CYCLE:    47 TIME:   0.011 TIME LEFT:  2.00D  GRAD.:     3.063 HEAT: 17.12984
 CYCLE:    48 TIME:   0.012 TIME LEFT:  2.00D  GRAD.:     3.784 HEAT: 17.10765
 CYCLE:    49 TIME:   0.012 TIME LEFT:  2.00D  GRAD.:     4.126 HEAT: 17.09320
 CYCLE:    50 TIME:   0.011 TIME LEFT:  2.00D  GRAD.:     3.168 HEAT: 17.07904
 CYCLE:    51 TIME:   0.011 TIME LEFT:  2.00D  GRAD.:     3.435 HEAT: 17.06590
 CYCLE:    52 TIME:   0.012 TIME LEFT:  2.00D  GRAD.:     2.312 HEAT: 17.05740
 CYCLE:    53 TIME:   0.011 TIME LEFT:  2.00D  GRAD.:     2.047 HEAT: 17.04577
 CYCLE:    54 TIME:   0.012 TIME LEFT:  2.00D  GRAD.:     2.442 HEAT: 17.03558
 CYCLE:    55 TIME:   0.011 TIME LEFT:  2.00D  GRAD.:     2.112 HEAT: 17.02813
 CYCLE:    56 TIME:   0.011 TIME LEFT:  2.00D  GRAD.:     1.792 HEAT: 17.02057
 CYCLE:    57 TIME:   0.011 TIME LEFT:  2.00D  GRAD.:     1.891 HEAT: 17.01249
 CYCLE:    58 TIME:   0.012 TIME LEFT:  2.00D  GRAD.:     1.943 HEAT: 17.00597
 CYCLE:    59 TIME:   0.012 TIME LEFT:  2.00D  GRAD.:     1.708 HEAT: 16.99979
 CYCLE:    60 TIME:   0.012 TIME LEFT:  2.00D  GRAD.:     1.693 HEAT: 16.99338
 CYCLE:    61 TIME:   0.012 TIME LEFT:  2.00D  GRAD.:     1.606 HEAT: 16.98707
 CYCLE:    62 TIME:   0.012 TIME LEFT:  2.00D  GRAD.:     1.485 HEAT: 16.98186
 CYCLE:    63 TIME:   0.012 TIME LEFT:  2.00D  GRAD.:     1.142 HEAT: 16.97781
 CYCLE:    64 TIME:   0.012 TIME LEFT:  2.00D  GRAD.:     1.197 HEAT: 16.97427
 CYCLE:    65 TIME:   0.012 TIME LEFT:  2.00D  GRAD.:     1.503 HEAT: 16.97006
 CYCLE:    66 TIME:   0.012 TIME LEFT:  2.00D  GRAD.:     1.932 HEAT: 16.96396
 CYCLE:    67 TIME:   0.012 TIME LEFT:  2.00D  GRAD.:     2.715 HEAT: 16.95301
 CYCLE:    68 TIME:   0.012 TIME LEFT:  2.00D  GRAD.:     3.612 HEAT: 16.93573
 CYCLE:    69 TIME:   0.012 TIME LEFT:  2.00D  GRAD.:     4.919 HEAT: 16.91361
 CYCLE:    70 TIME:   0.022 TIME LEFT:  2.00D  GRAD.:     9.585 HEAT: 16.89627
 CYCLE:    71 TIME:   0.012 TIME LEFT:  2.00D  GRAD.:     5.686 HEAT: 16.84713
 CYCLE:    72 TIME:   0.022 TIME LEFT:  2.00D  GRAD.:     6.101 HEAT: 16.83023
 CYCLE:    73 TIME:   0.012 TIME LEFT:  2.00D  GRAD.:     3.484 HEAT: 16.79681
 CYCLE:    74 TIME:   0.012 TIME LEFT:  2.00D  GRAD.:     4.202 HEAT: 16.75634
 CYCLE:    75 TIME:   0.012 TIME LEFT:  2.00D  GRAD.:     5.706 HEAT: 16.71292
 CYCLE:    76 TIME:   0.012 TIME LEFT:  2.00D  GRAD.:     7.714 HEAT: 16.69745
 CYCLE:    77 TIME:   0.011 TIME LEFT:  2.00D  GRAD.:     7.273 HEAT: 16.67598
 CYCLE:    78 TIME:   0.012 TIME LEFT:  2.00D  GRAD.:     3.214 HEAT: 16.63735
 CYCLE:    79 TIME:   0.012 TIME LEFT:  2.00D  GRAD.:     5.053 HEAT: 16.60782
 CYCLE:    80 TIME:   0.012 TIME LEFT:  2.00D  GRAD.:     6.163 HEAT: 16.56531
 CYCLE:    81 TIME:   0.016 TIME LEFT:  2.00D  GRAD.:     4.638 HEAT: 16.52958
 CYCLE:    82 TIME:   0.012 TIME LEFT:  2.00D  GRAD.:     8.562 HEAT: 16.50752
 CYCLE:    83 TIME:   0.011 TIME LEFT:  2.00D  GRAD.:     3.845 HEAT: 16.47807
 CYCLE:    84 TIME:   0.012 TIME LEFT:  2.00D  GRAD.:     5.455 HEAT: 16.45161
 CYCLE:    85 TIME:   0.012 TIME LEFT:  2.00D  GRAD.:     3.943 HEAT: 16.41441
 CYCLE:    86 TIME:   0.014 TIME LEFT:  2.00D  GRAD.:     3.455 HEAT: 16.37875
 CYCLE:    87 TIME:   0.012 TIME LEFT:  2.00D  GRAD.:     9.205 HEAT: 16.37479
 CYCLE:    88 TIME:   0.012 TIME LEFT:  2.00D  GRAD.:     3.682 HEAT: 16.33132
 CYCLE:    89 TIME:   0.012 TIME LEFT:  2.00D  GRAD.:     2.907 HEAT: 16.31365
 CYCLE:    90 TIME:   0.012 TIME LEFT:  2.00D  GRAD.:     5.781 HEAT: 16.26765
 CYCLE:    91 TIME:   0.011 TIME LEFT:  2.00D  GRAD.:     6.241 HEAT: 16.24820
 CYCLE:    92 TIME:   0.012 TIME LEFT:  2.00D  GRAD.:     5.693 HEAT: 16.21347
 CYCLE:    93 TIME:   0.012 TIME LEFT:  2.00D  GRAD.:     6.736 HEAT: 16.18344
 CYCLE:    94 TIME:   0.011 TIME LEFT:  2.00D  GRAD.:     3.041 HEAT: 16.16573
 CYCLE:    95 TIME:   0.012 TIME LEFT:  2.00D  GRAD.:     2.859 HEAT: 16.13262
 CYCLE:    96 TIME:   0.012 TIME LEFT:  2.00D  GRAD.:     4.000 HEAT: 16.10421
 CYCLE:    97 TIME:   0.011 TIME LEFT:  2.00D  GRAD.:     2.206 HEAT: 16.09185
 CYCLE:    98 TIME:   0.012 TIME LEFT:  2.00D  GRAD.:     2.655 HEAT: 16.08038
 CYCLE:    99 TIME:   0.011 TIME LEFT:  2.00D  GRAD.:     1.884 HEAT: 16.07056
 CYCLE:   100 TIME:   0.012 TIME LEFT:  2.00D  GRAD.:     1.835 HEAT: 16.06327
 CYCLE:   101 TIME:   0.012 TIME LEFT:  2.00D  GRAD.:     2.148 HEAT: 16.05337
 CYCLE:   102 TIME:   0.011 TIME LEFT:  2.00D  GRAD.:     1.792 HEAT: 16.04773
 CYCLE:   103 TIME:   0.011 TIME LEFT:  2.00D  GRAD.:     1.467 HEAT: 16.04270
 CYCLE:   104 TIME:   0.011 TIME LEFT:  2.00D  GRAD.:     1.247 HEAT: 16.04061
 CYCLE:   105 TIME:   0.011 TIME LEFT:  2.00D  GRAD.:     1.474 HEAT: 16.03647
 CYCLE:   106 TIME:   0.011 TIME LEFT:  2.00D  GRAD.:     0.928 HEAT: 16.03492
 CYCLE:   107 TIME:   0.012 TIME LEFT:  2.00D  GRAD.:     0.856 HEAT: 16.03220
 CYCLE:   108 TIME:   0.012 TIME LEFT:  2.00D  GRAD.:     0.998 HEAT: 16.03037
 CYCLE:   109 TIME:   0.012 TIME LEFT:  2.00D  GRAD.:     1.101 HEAT: 16.02836
 CYCLE:   110 TIME:   0.012 TIME LEFT:  2.00D  GRAD.:     1.138 HEAT: 16.02638
 CYCLE:   111 TIME:   0.015 TIME LEFT:  2.00D  GRAD.:     1.289 HEAT: 16.02388
 CYCLE:   112 TIME:   0.013 TIME LEFT:  2.00D  GRAD.:     1.223 HEAT: 16.02125
 CYCLE:   113 TIME:   0.012 TIME LEFT:  2.00D  GRAD.:     1.362 HEAT: 16.01805
 CYCLE:   114 TIME:   0.011 TIME LEFT:  2.00D  GRAD.:     1.111 HEAT: 16.01606
 CYCLE:   115 TIME:   0.012 TIME LEFT:  2.00D  GRAD.:     1.454 HEAT: 16.01217
 CYCLE:   116 TIME:   0.012 TIME LEFT:  2.00D  GRAD.:     1.573 HEAT: 16.00932
 CYCLE:   117 TIME:   0.016 TIME LEFT:  2.00D  GRAD.:     1.961 HEAT: 16.00404
 CYCLE:   118 TIME:   0.013 TIME LEFT:  2.00D  GRAD.:     1.347 HEAT: 16.00121
 CYCLE:   119 TIME:   0.012 TIME LEFT:  2.00D  GRAD.:     1.138 HEAT: 15.99772
 CYCLE:   120 TIME:   0.014 TIME LEFT:  2.00D  GRAD.:     0.852 HEAT: 15.99618
 CYCLE:   121 TIME:   0.012 TIME LEFT:  2.00D  GRAD.:     0.822 HEAT: 15.99459
 CYCLE:   122 TIME:   0.012 TIME LEFT:  2.00D  GRAD.:     0.533 HEAT: 15.99358
 CYCLE:   123 TIME:   0.012 TIME LEFT:  2.00D  GRAD.:     0.617 HEAT: 15.99304
 CYCLE:   124 TIME:   0.011 TIME LEFT:  2.00D  GRAD.:     0.391 HEAT: 15.99270
 CYCLE:   125 TIME:   0.012 TIME LEFT:  2.00D  GRAD.:     0.341 HEAT: 15.99243
 CYCLE:   126 TIME:   0.012 TIME LEFT:  2.00D  GRAD.:     0.284 HEAT: 15.99224
 CYCLE:   127 TIME:   0.013 TIME LEFT:  2.00D  GRAD.:     0.293 HEAT: 15.99204
 CYCLE:   128 TIME:   0.012 TIME LEFT:  2.00D  GRAD.:     0.291 HEAT: 15.99185
 CYCLE:   129 TIME:   0.012 TIME LEFT:  2.00D  GRAD.:     0.305 HEAT: 15.99163
 CYCLE:   130 TIME:   0.012 TIME LEFT:  2.00D  GRAD.:     0.292 HEAT: 15.99144
 CYCLE:   131 TIME:   0.016 TIME LEFT:  2.00D  GRAD.:     0.274 HEAT: 15.99119
 CYCLE:   132 TIME:   0.016 TIME LEFT:  2.00D  GRAD.:     0.262 HEAT: 15.99100
 CYCLE:   133 TIME:   0.012 TIME LEFT:  2.00D  GRAD.:     0.246 HEAT: 15.99081
 CYCLE:   134 TIME:   0.011 TIME LEFT:  2.00D  GRAD.:     0.278 HEAT: 15.99067
 CYCLE:   135 TIME:   0.012 TIME LEFT:  2.00D  GRAD.:     0.296 HEAT: 15.99052
 CYCLE:   136 TIME:   0.015 TIME LEFT:  2.00D  GRAD.:     0.376 HEAT: 15.99031
 CYCLE:   137 TIME:   0.012 TIME LEFT:  2.00D  GRAD.:     0.326 HEAT: 15.99017
 CYCLE:   138 TIME:   0.011 TIME LEFT:  2.00D  GRAD.:     0.379 HEAT: 15.98992
 CYCLE:   139 TIME:   0.011 TIME LEFT:  2.00D  GRAD.:     0.306 HEAT: 15.98979
 CYCLE:   140 TIME:   0.012 TIME LEFT:  2.00D  GRAD.:     0.780 HEAT: 15.98950
 CYCLE:   141 TIME:   0.012 TIME LEFT:  2.00D  GRAD.:     0.310 HEAT: 15.98917
 CYCLE:   142 TIME:   0.012 TIME LEFT:  2.00D  GRAD.:     0.263 HEAT: 15.98903
 CYCLE:   143 TIME:   0.011 TIME LEFT:  2.00D  GRAD.:     0.237 HEAT: 15.98894
 CYCLE:   144 TIME:   0.011 TIME LEFT:  2.00D  GRAD.:     0.247 HEAT: 15.98886
 CYCLE:   145 TIME:   0.011 TIME LEFT:  2.00D  GRAD.:     0.230 HEAT: 15.98873
 CYCLE:   146 TIME:   0.011 TIME LEFT:  2.00D  GRAD.:     0.195 HEAT: 15.98865
 CYCLE:   147 TIME:   0.012 TIME LEFT:  2.00D  GRAD.:     0.185 HEAT: 15.98854
 CYCLE:   148 TIME:   0.011 TIME LEFT:  2.00D  GRAD.:     0.136 HEAT: 15.98851
 CYCLE:   149 TIME:   0.011 TIME LEFT:  2.00D  GRAD.:     0.143 HEAT: 15.98845
 CYCLE:   150 TIME:   0.011 TIME LEFT:  2.00D  GRAD.:     0.099 HEAT: 15.98841
 CYCLE:   151 TIME:   0.011 TIME LEFT:  2.00D  GRAD.:     0.120 HEAT: 15.98840
 CYCLE:   152 TIME:   0.011 TIME LEFT:  2.00D  GRAD.:     0.130 HEAT: 15.98837
 CYCLE:   153 TIME:   0.011 TIME LEFT:  2.00D  GRAD.:     0.181 HEAT: 15.98830
 CYCLE:   154 TIME:   0.013 TIME LEFT:  2.00D  GRAD.:     0.218 HEAT: 15.98820
 CYCLE:   155 TIME:   0.011 TIME LEFT:  2.00D  GRAD.:     0.344 HEAT: 15.98799
 CYCLE:   156 TIME:   0.011 TIME LEFT:  2.00D  GRAD.:     0.264 HEAT: 15.98786
 CYCLE:   157 TIME:   0.013 TIME LEFT:  2.00D  GRAD.:     0.317 HEAT: 15.98764
 CYCLE:   158 TIME:   0.011 TIME LEFT:  2.00D  GRAD.:     0.215 HEAT: 15.98755
 CYCLE:   159 TIME:   0.011 TIME LEFT:  2.00D  GRAD.:     0.170 HEAT: 15.98739
 CYCLE:   160 TIME:   0.011 TIME LEFT:  2.00D  GRAD.:     0.180 HEAT: 15.98729
 CYCLE:   161 TIME:   0.011 TIME LEFT:  2.00D  GRAD.:     0.196 HEAT: 15.98713
 CYCLE:   162 TIME:   0.011 TIME LEFT:  2.00D  GRAD.:     0.137 HEAT: 15.98709
 CYCLE:   163 TIME:   0.015 TIME LEFT:  2.00D  GRAD.:     0.158 HEAT: 15.98706
 CYCLE:   164 TIME:   0.011 TIME LEFT:  2.00D  GRAD.:     0.092 HEAT: 15.98703
 CYCLE:   165 TIME:   0.011 TIME LEFT:  2.00D  GRAD.:     0.065 HEAT: 15.98702
 CYCLE:   166 TIME:   0.011 TIME LEFT:  2.00D  GRAD.:     0.070 HEAT: 15.98700
 CYCLE:   167 TIME:   0.011 TIME LEFT:  2.00D  GRAD.:     0.042 HEAT: 15.98700

     RMS GRADIENT =  0.04189  IS LESS THAN CUTOFF =  0.05000



 -------------------------------------------------------------------------------
pm3  precise nosym
 InChI=1S/C11H18/c1-4-7-10-8-9(5-2)11(10)6-3/h4,6,9-11H,1,3,5,7-8H2,2H3



     GEOMETRY OPTIMISED USING EIGENVECTOR FOLLOWING (EF).     
     SCF FIELD WAS ACHIEVED                                   


                              PM3 CALCULATION
                                                       MOPAC2012 (Version: 13.159M)
                                                       Mon Jun  2 11:06:30 2014
                                                       No. of days left =   6




          FINAL HEAT OF FORMATION =         15.98700 KCAL/MOL =      66.88959 KJ/MOL


          TOTAL ENERGY            =      -1580.33953 EV
          ELECTRONIC ENERGY       =      -9617.82940 EV  POINT GROUP:     C1  
          CORE-CORE REPULSION     =       8037.48987 EV
          COSMO AREA              =        219.12 SQUARE ANGSTROMS
          COSMO VOLUME            =        234.82 CUBIC ANGSTROMS

          GRADIENT NORM           =          0.04189
          IONIZATION POTENTIAL    =         10.096768 EV
          HOMO LUMO ENERGIES (EV) =        -10.097  1.075
          NO. OF FILLED LEVELS    =         31
          MOLECULAR WEIGHT        =        150.263

          MOLECULAR DIMENSIONS (Angstroms)

            Atom       Atom       Distance
            H    27    H    22     8.74092
            H    28    H    16     6.33141
            H    15    H    22     3.74714


          SCF CALCULATIONS        =        178
          COMPUTATION TIME        =          2.074 SECONDS




   ATOM   CHEMICAL          X               Y               Z
  NUMBER   SYMBOL      (ANGSTROMS)     (ANGSTROMS)     (ANGSTROMS)
 
     1       C          1.34117283  *  -0.83716822  *   0.10799209  *
     2       C         -0.85654431  *  -0.88019441  *   0.10904362  *
     3       C          0.22236742  *   0.17170484  *   0.50394363  *
     4       C          0.26171130  *  -1.86179985  *  -0.31160017  *
     5       C          2.24676004  *  -0.38649536  *  -1.01920745  *
     6       C         -1.78014739  *  -0.46774326  *  -1.01984694  *
     7       C          3.24239641  *   0.65557211  *  -0.56200193  *
     8       C          0.21395315  *   0.53625622  *   1.94282288  *
     9       C         -2.78529444  *   0.53063452  *  -0.56370874  *
    10       C          0.17624704  *   1.79429604  *   2.36666373  *
    11       C         -4.08093909  *   0.43375817  *  -0.83635153  *
    12       H          1.94988978  *  -1.17133160  *   0.97535778  *
    13       H         -1.45201719  *  -1.23751593  *   0.97565920  *
    14       H          0.20541573  *   1.07891576  *  -0.14059499  *
    15       H          0.28012422  *  -2.80513528  *   0.25361585  *
    16       H          0.26642098  *  -2.12262837  *  -1.38228002  *
    17       H          2.77876061  *  -1.26891526  *  -1.42688662  *
    18       H          1.63978000  *   0.00982874  *  -1.85885699  *
    19       H         -2.26952530  *  -1.37068730  *  -1.43762987  *
    20       H         -1.19673155  *  -0.02707525  *  -1.85524570  *
    21       H          3.89198026  *   0.27376002  *   0.23681218  *
    22       H          3.89008641  *   0.97665453  *  -1.38756674  *
    23       H          2.73684537  *   1.54947785  *  -0.17174948  *
    24       H          0.23992572  *  -0.30075367  *   2.65182086  *
    25       H         -2.38655904  *   1.37143449  *   0.01820979  *
    26       H         -4.51114939  *  -0.38751042  *  -1.40325377  *
    27       H         -4.80441378  *   1.17438575  *  -0.50990958  *
    28       H          0.16946423  *   2.05685002  *   3.42006434  *
    29       H          0.14996503  *   2.64898101  *   1.69570542  *

           Empirical Formula: C11 H18  =    29 atoms



      MOLECULAR POINT GROUP   :   C1  


                  EIGENVALUES  
 -42.16901 -35.62379 -33.48949 -31.83630 -27.23401 -24.95920 -23.59926 -20.62867
 -20.05839 -19.57072 -18.98082 -17.04879 -16.54048 -15.88140 -15.37539 -15.29110
 -14.83661 -14.44989 -13.96961 -13.73588 -13.43113 -12.80535 -12.53496 -12.29712
 -12.23678 -11.88389 -11.58757 -11.37850 -11.24456 -10.12837 -10.09677   1.07493
   1.18572   3.14484   3.23736   3.41963   3.57792   3.68213   3.71035   3.75875
   3.86840   3.93881   4.00153   4.02479   4.05327   4.06823   4.16579   4.26604
   4.34252   4.39952   4.48476   4.57995   4.65154   4.85623   4.97424   4.97535
   5.25220   5.39310   5.62893   5.79435   5.89494   5.93687


              NET ATOMIC CHARGES AND DIPOLE CONTRIBUTIONS

  ATOM NO.   TYPE          CHARGE      No. of ELECS.   s-Pop       p-Pop       
    1          C          -0.088389        4.0884     1.19296     2.89543
    2          C          -0.084745        4.0847     1.19207     2.89267
    3          C          -0.069487        4.0695     1.18627     2.88322
    4          C          -0.113422        4.1134     1.17782     2.93560
    5          C          -0.088909        4.0889     1.15732     2.93159
    6          C          -0.061369        4.0614     1.14921     2.91216
    7          C          -0.110842        4.1108     1.13807     2.97278
    8          C          -0.125615        4.1256     1.19355     2.93207
    9          C          -0.137909        4.1379     1.19542     2.94249
   10          C          -0.162441        4.1624     1.18315     2.97930
   11          C          -0.167826        4.1678     1.18238     2.98545
   12          H           0.076689        0.9233     0.92331
   13          H           0.078666        0.9213     0.92133
   14          H           0.083892        0.9161     0.91611
   15          H           0.056295        0.9437     0.94371
   16          H           0.062232        0.9378     0.93777
   17          H           0.049648        0.9504     0.95035
   18          H           0.051014        0.9490     0.94899
   19          H           0.055737        0.9443     0.94426
   20          H           0.058927        0.9411     0.94107
   21          H           0.038894        0.9611     0.96111
   22          H           0.037016        0.9630     0.96298
   23          H           0.041210        0.9588     0.95879
   24          H           0.098858        0.9011     0.90114
   25          H           0.101301        0.8987     0.89870
   26          H           0.080974        0.9190     0.91903
   27          H           0.079224        0.9208     0.92078
   28          H           0.079198        0.9208     0.92080
   29          H           0.081181        0.9188     0.91882
 DIPOLE           X         Y         Z       TOTAL
 POINT-CHG.     0.249    -0.165    -0.150     0.334
 HYBRID        -0.018     0.032     0.021     0.043
 SUM            0.231    -0.132    -0.129     0.296


          ATOMIC ORBITAL ELECTRON POPULATIONS

    Atom      s        px        py        pz   
    1  C   1.19296   0.94760   0.96179   0.98604
    2  C   1.19207   0.94456   0.96312   0.98499
    3  C   1.18627   0.96131   0.97421   0.94770
    4  C   1.17782   0.95928   0.96376   1.01255
    5  C   1.15732   0.97485   0.98742   0.96931
    6  C   1.14921   0.96704   0.97789   0.96722
    7  C   1.13807   0.98275   0.98570   1.00433
    8  C   1.19355   0.99550   0.97331   0.96325
    9  C   1.19542   0.95705   0.98974   0.99570
   10  C   1.18315   1.01148   0.96285   1.00496
   11  C   1.18238   0.95788   1.01370   1.01387
   12  H   0.92331
   13  H   0.92133
   14  H   0.91611
   15  H   0.94371
   16  H   0.93777
   17  H   0.95035
   18  H   0.94899
   19  H   0.94426
   20  H   0.94107
   21  H   0.96111
   22  H   0.96298
   23  H   0.95879
   24  H   0.90114
   25  H   0.89870
   26  H   0.91903
   27  H   0.92078
   28  H   0.92080
   29  H   0.91882
 *******************************************************************************
 ** Site#: 14399           For non-commercial use only        Version 13.159M **
 *******************************************************************************
 ** Cite this work as: MOPAC2012, James J. P. Stewart, Stewart Computational  **
 ** Chemistry, Version 13.159M web: HTTP://OpenMOPAC.net  Days remaining:   6 **
 *******************************************************************************
 **                                                                           **
 **                                MOPAC2012                                  **
 **                                                                           **
 *******************************************************************************

                            PM3 CALCULATION RESULTS


 *******************************************************************************
 *  CALCULATION DONE:                                Mon Jun  2 11:06:30 2014  *
 *  PM3      - The PM3 Hamiltonian to be used
 *  OLDGEO   - PREVIOUS GEOMETRY TO BE USED
 *  PRECISE  - CRITERIA TO BE INCREASED BY 100 TIMES
 *  NOSYM    - POINT-GROUP SYMMETRY SET TO C1
 *  T=       - A TIME OF 172800.0 SECONDS REQUESTED
 *  DUMP=N   - RESTART FILE WRITTEN EVERY  7200.000 SECONDS
 *  THERMO   - THERMODYNAMIC QUANTITIES TO BE CALCULATED
 *******************************************************************************
oldgeo thermo nosym precise  pm3

   ATOM   CHEMICAL          X               Y               Z
  NUMBER   SYMBOL      (ANGSTROMS)     (ANGSTROMS)     (ANGSTROMS)
 
     1       C          1.34117283  *  -0.83716822  *   0.10799209  *
     2       C         -0.85654431  *  -0.88019441  *   0.10904362  *
     3       C          0.22236742  *   0.17170484  *   0.50394363  *
     4       C          0.26171130  *  -1.86179985  *  -0.31160017  *
     5       C          2.24676004  *  -0.38649536  *  -1.01920745  *
     6       C         -1.78014739  *  -0.46774326  *  -1.01984694  *
     7       C          3.24239641  *   0.65557211  *  -0.56200193  *
     8       C          0.21395315  *   0.53625622  *   1.94282288  *
     9       C         -2.78529444  *   0.53063452  *  -0.56370874  *
    10       C          0.17624704  *   1.79429604  *   2.36666373  *
    11       C         -4.08093909  *   0.43375817  *  -0.83635153  *
    12       H          1.94988978  *  -1.17133160  *   0.97535778  *
    13       H         -1.45201719  *  -1.23751593  *   0.97565920  *
    14       H          0.20541573  *   1.07891576  *  -0.14059499  *
    15       H          0.28012422  *  -2.80513528  *   0.25361585  *
    16       H          0.26642098  *  -2.12262837  *  -1.38228002  *
    17       H          2.77876061  *  -1.26891526  *  -1.42688662  *
    18       H          1.63978000  *   0.00982874  *  -1.85885699  *
    19       H         -2.26952530  *  -1.37068730  *  -1.43762987  *
    20       H         -1.19673155  *  -0.02707525  *  -1.85524570  *
    21       H          3.89198026  *   0.27376002  *   0.23681218  *
    22       H          3.89008641  *   0.97665453  *  -1.38756674  *
    23       H          2.73684537  *   1.54947785  *  -0.17174948  *
    24       H          0.23992572  *  -0.30075367  *   2.65182086  *
    25       H         -2.38655904  *   1.37143449  *   0.01820979  *
    26       H         -4.51114939  *  -0.38751042  *  -1.40325377  *
    27       H         -4.80441378  *   1.17438575  *  -0.50990958  *
    28       H          0.16946423  *   2.05685002  *   3.42006434  *
    29       H          0.14996503  *   2.64898101  *   1.69570542  *
 


          CARTESIAN COORDINATES 

    NO.       ATOM         X         Y         Z

     1         C        1.3412   -0.8372    0.1080
     2         C       -0.8565   -0.8802    0.1090
     3         C        0.2224    0.1717    0.5039
     4         C        0.2617   -1.8618   -0.3116
     5         C        2.2468   -0.3865   -1.0192
     6         C       -1.7801   -0.4677   -1.0198
     7         C        3.2424    0.6556   -0.5620
     8         C        0.2140    0.5363    1.9428
     9         C       -2.7853    0.5306   -0.5637
    10         C        0.1762    1.7943    2.3667
    11         C       -4.0809    0.4338   -0.8364
    12         H        1.9499   -1.1713    0.9754
    13         H       -1.4520   -1.2375    0.9757
    14         H        0.2054    1.0789   -0.1406
    15         H        0.2801   -2.8051    0.2536
    16         H        0.2664   -2.1226   -1.3823
    17         H        2.7788   -1.2689   -1.4269
    18         H        1.6398    0.0098   -1.8589
    19         H       -2.2695   -1.3707   -1.4376
    20         H       -1.1967   -0.0271   -1.8552
    21         H        3.8920    0.2738    0.2368
    22         H        3.8901    0.9767   -1.3876
    23         H        2.7368    1.5495   -0.1717
    24         H        0.2399   -0.3008    2.6518
    25         H       -2.3866    1.3714    0.0182
    26         H       -4.5111   -0.3875   -1.4033
    27         H       -4.8044    1.1744   -0.5099
    28         H        0.1695    2.0569    3.4201
    29         H        0.1500    2.6490    1.6957

  H: (PM3): J. J. P. STEWART, J. COMP. CHEM. 10, 209 (1989).
  C: (PM3): J. J. P. STEWART, J. COMP. CHEM. 10, 209 (1989).

           Empirical Formula: C11 H18  =    29 atoms



      MOLECULAR POINT GROUP   :   C1  


      RHF CALCULATION, NO. OF DOUBLY OCCUPIED LEVELS =   31



          HEAT OF FORMATION =      15.986996 KCALS/MOLE


          INTERNAL COORDINATE DERIVATIVES

   NUMBER  ATOM       BOND         ANGLE      DIHEDRAL

     1       C     -0.000595     0.000467     0.002370
     2       C     -0.002884     0.005018     0.000405
     3       C     -0.002760     0.003541     0.001105
     4       C     -0.000088     0.002196     0.002035
     5       C      0.003929    -0.001975    -0.006275
     6       C      0.001351     0.000496     0.001214
     7       C      0.003287    -0.002701     0.002448
     8       C     -0.003930     0.003627     0.002703
     9       C      0.021336     0.004565    -0.000326
    10       C     -0.002942     0.001950     0.002413
    11       C     -0.002449    -0.000888     0.004085
    12       H      0.009104    -0.003797    -0.000897
    13       H      0.002133     0.002420     0.002405
    14       H     -0.007122     0.000953     0.002278
    15       H     -0.001237    -0.003382     0.001368
    16       H      0.006195     0.000439    -0.002488
    17       H     -0.000901    -0.000094    -0.002047
    18       H     -0.005550    -0.005195    -0.000562
    19       H     -0.009474     0.002660     0.003712
    20       H     -0.005764     0.002253     0.003379
    21       H      0.005528     0.003787    -0.004281
    22       H     -0.002130    -0.004017     0.001614
    23       H      0.001942     0.005819     0.002090
    24       H     -0.004366     0.000606     0.001793
    25       H      0.007489    -0.007407    -0.006598
    26       H     -0.009104    -0.005641    -0.003411
    27       H      0.004554     0.000167    -0.005185
    28       H      0.003506    -0.002178    -0.003332
    29       H     -0.009057    -0.003688    -0.002014


          GRADIENT NORM =   0.04209


          TIME FOR SCF CALCULATION =    0.01

          TIME FOR DERIVATIVES     =    0.01

          MOLECULAR WEIGHT =  150.26



          ROTATIONAL CONSTANTS IN CM(-1)

          A =    0.04829955   B =    0.02233001   C =    0.01826514



           PRINCIPAL MOMENTS OF INERTIA IN UNITS OF 10**(-40)*GRAM-CM**2

          A =      579.5660   B =     1253.5945   C =     1532.5790


          ORIENTATION OF MOLECULE IN FORCE CALCULATION

    NO.       ATOM         X         Y         Z

     1          C      -1.4581   -0.7664   -0.3587
     2          C       0.7401   -0.7664   -0.3587
     3          C      -0.3590    0.3375   -0.3587
     4          C      -0.3590   -1.8536   -0.3259
     5          C      -2.3728   -0.7659    0.8484
     6          C       1.6549   -0.7690    0.8499
     7          C      -3.3885    0.3526    0.7873
     8          C      -0.3571    1.1934   -1.5715
     9          C       2.6405    0.3445    0.7891
    10          C      -0.3438    2.5202   -1.5163
    11          C       3.9377    0.1799    1.0186
    12          H      -2.0597   -0.7786   -1.2927
    13          H       1.3428   -0.7787   -1.2913
    14          H      -0.3601    0.9537    0.5681
    15          H      -0.3586   -2.5320   -1.1916
    16          H      -0.3591   -2.4807    0.5803
    17          H      -2.8877   -1.7453    0.9090
    18          H      -1.7741   -0.6857    1.7787
    19          H       2.1616   -1.7527    0.9202
    20          H       1.0626   -0.6675    1.7833
    21          H      -4.0301    0.2706   -0.1001
    22          H      -4.0427    0.3449    1.6682
    23          H      -2.9003    1.3360    0.7469
    24          H      -0.3663    0.6656   -2.5334
    25          H       2.2257    1.3306    0.5439
    26          H       4.3836   -0.7821    1.2570
    27          H       4.6467    1.0012    0.9845
    28          H      -0.3416    3.1428   -2.4057
    29          H      -0.3346    3.0781   -0.5836


    FIRST DERIVATIVES WILL BE USED IN THE CALCULATION OF SECOND DERIVATIVES

          ESTIMATED TIME TO COMPLETE CALCULATION =        6.50 SECONDS

    FOR POINT-GROUP C1   THERE ARE   1 UNIQUE SYMMETRY FUNCTIONS.

 STEP:   1 TIME =     0.05 SECS, INTEGRAL =      0.05 TIME LEFT: 172799.93
 STEP:   2 TIME =     0.05 SECS, INTEGRAL =      0.10 TIME LEFT: 172799.88
 STEP:   3 TIME =     0.05 SECS, INTEGRAL =      0.15 TIME LEFT: 172799.83
 STEP:   4 TIME =     0.05 SECS, INTEGRAL =      0.20 TIME LEFT: 172799.78
 STEP:   5 TIME =     0.05 SECS, INTEGRAL =      0.25 TIME LEFT: 172799.73
 STEP:   6 TIME =     0.05 SECS, INTEGRAL =      0.30 TIME LEFT: 172799.68
 STEP:   7 TIME =     0.05 SECS, INTEGRAL =      0.35 TIME LEFT: 172799.63
 STEP:   8 TIME =     0.05 SECS, INTEGRAL =      0.40 TIME LEFT: 172799.58
 STEP:   9 TIME =     0.05 SECS, INTEGRAL =      0.45 TIME LEFT: 172799.53
 STEP:  10 TIME =     0.05 SECS, INTEGRAL =      0.50 TIME LEFT: 172799.49
 STEP:  11 TIME =     0.05 SECS, INTEGRAL =      0.54 TIME LEFT: 172799.44
 STEP:  12 TIME =     0.05 SECS, INTEGRAL =      0.59 TIME LEFT: 172799.39
 STEP:  13 TIME =     0.05 SECS, INTEGRAL =      0.64 TIME LEFT: 172799.34
 STEP:  14 TIME =     0.05 SECS, INTEGRAL =      0.69 TIME LEFT: 172799.29
 STEP:  15 TIME =     0.05 SECS, INTEGRAL =      0.74 TIME LEFT: 172799.24
 STEP:  16 TIME =     0.05 SECS, INTEGRAL =      0.79 TIME LEFT: 172799.19
 STEP:  17 TIME =     0.05 SECS, INTEGRAL =      0.84 TIME LEFT: 172799.14
 STEP:  18 TIME =     0.05 SECS, INTEGRAL =      0.89 TIME LEFT: 172799.09
 STEP:  19 TIME =     0.05 SECS, INTEGRAL =      0.94 TIME LEFT: 172799.05
 STEP:  20 TIME =     0.05 SECS, INTEGRAL =      0.98 TIME LEFT: 172799.00
 STEP:  21 TIME =     0.05 SECS, INTEGRAL =      1.03 TIME LEFT: 172798.95
 STEP:  22 TIME =     0.05 SECS, INTEGRAL =      1.09 TIME LEFT: 172798.90
 STEP:  23 TIME =     0.05 SECS, INTEGRAL =      1.13 TIME LEFT: 172798.85
 STEP:  24 TIME =     0.05 SECS, INTEGRAL =      1.18 TIME LEFT: 172798.80
 STEP:  25 TIME =     0.05 SECS, INTEGRAL =      1.23 TIME LEFT: 172798.75
 STEP:  26 TIME =     0.05 SECS, INTEGRAL =      1.28 TIME LEFT: 172798.70
 STEP:  27 TIME =     0.05 SECS, INTEGRAL =      1.33 TIME LEFT: 172798.65
 STEP:  28 TIME =     0.05 SECS, INTEGRAL =      1.39 TIME LEFT: 172798.59
 STEP:  29 TIME =     0.05 SECS, INTEGRAL =      1.44 TIME LEFT: 172798.54
 STEP:  30 TIME =     0.05 SECS, INTEGRAL =      1.49 TIME LEFT: 172798.49
 STEP:  31 TIME =     0.05 SECS, INTEGRAL =      1.54 TIME LEFT: 172798.45
 STEP:  32 TIME =     0.05 SECS, INTEGRAL =      1.58 TIME LEFT: 172798.40
 STEP:  33 TIME =     0.05 SECS, INTEGRAL =      1.64 TIME LEFT: 172798.34
 STEP:  34 TIME =     0.05 SECS, INTEGRAL =      1.69 TIME LEFT: 172798.29
 STEP:  35 TIME =     0.05 SECS, INTEGRAL =      1.74 TIME LEFT: 172798.24
 STEP:  36 TIME =     0.05 SECS, INTEGRAL =      1.79 TIME LEFT: 172798.19
 STEP:  37 TIME =     0.05 SECS, INTEGRAL =      1.84 TIME LEFT: 172798.14
 STEP:  38 TIME =     0.07 SECS, INTEGRAL =      1.91 TIME LEFT: 172798.07
 STEP:  39 TIME =     0.05 SECS, INTEGRAL =      1.96 TIME LEFT: 172798.02
 STEP:  40 TIME =     0.06 SECS, INTEGRAL =      2.02 TIME LEFT: 172797.97
 STEP:  41 TIME =     0.06 SECS, INTEGRAL =      2.07 TIME LEFT: 172797.91
 STEP:  42 TIME =     0.05 SECS, INTEGRAL =      2.12 TIME LEFT: 172797.86
 STEP:  43 TIME =     0.05 SECS, INTEGRAL =      2.17 TIME LEFT: 172797.81
 STEP:  44 TIME =     0.05 SECS, INTEGRAL =      2.22 TIME LEFT: 172797.76
 STEP:  45 TIME =     0.05 SECS, INTEGRAL =      2.27 TIME LEFT: 172797.71
 STEP:  46 TIME =     0.05 SECS, INTEGRAL =      2.32 TIME LEFT: 172797.66
 STEP:  47 TIME =     0.05 SECS, INTEGRAL =      2.37 TIME LEFT: 172797.61
 STEP:  48 TIME =     0.05 SECS, INTEGRAL =      2.42 TIME LEFT: 172797.56
 STEP:  49 TIME =     0.05 SECS, INTEGRAL =      2.47 TIME LEFT: 172797.51
 STEP:  50 TIME =     0.05 SECS, INTEGRAL =      2.52 TIME LEFT: 172797.46
 STEP:  51 TIME =     0.05 SECS, INTEGRAL =      2.57 TIME LEFT: 172797.41
 STEP:  52 TIME =     0.05 SECS, INTEGRAL =      2.62 TIME LEFT: 172797.36
 STEP:  53 TIME =     0.05 SECS, INTEGRAL =      2.67 TIME LEFT: 172797.31
 STEP:  54 TIME =     0.05 SECS, INTEGRAL =      2.72 TIME LEFT: 172797.26
 STEP:  55 TIME =     0.05 SECS, INTEGRAL =      2.77 TIME LEFT: 172797.21
 STEP:  56 TIME =     0.05 SECS, INTEGRAL =      2.82 TIME LEFT: 172797.16
 STEP:  57 TIME =     0.05 SECS, INTEGRAL =      2.87 TIME LEFT: 172797.11
 STEP:  58 TIME =     0.05 SECS, INTEGRAL =      2.92 TIME LEFT: 172797.06
 STEP:  59 TIME =     0.06 SECS, INTEGRAL =      2.98 TIME LEFT: 172797.00
 STEP:  60 TIME =     0.06 SECS, INTEGRAL =      3.04 TIME LEFT: 172796.94
 STEP:  61 TIME =     0.05 SECS, INTEGRAL =      3.09 TIME LEFT: 172796.89
 STEP:  62 TIME =     0.05 SECS, INTEGRAL =      3.14 TIME LEFT: 172796.84
 STEP:  63 TIME =     0.06 SECS, INTEGRAL =      3.20 TIME LEFT: 172796.78
 STEP:  64 TIME =     0.05 SECS, INTEGRAL =      3.25 TIME LEFT: 172796.73
 STEP:  65 TIME =     0.05 SECS, INTEGRAL =      3.30 TIME LEFT: 172796.68
 STEP:  66 TIME =     0.05 SECS, INTEGRAL =      3.35 TIME LEFT: 172796.63
 STEP:  67 TIME =     0.05 SECS, INTEGRAL =      3.40 TIME LEFT: 172796.58
 STEP:  68 TIME =     0.05 SECS, INTEGRAL =      3.45 TIME LEFT: 172796.53
 STEP:  69 TIME =     0.05 SECS, INTEGRAL =      3.50 TIME LEFT: 172796.48
 STEP:  70 TIME =     0.05 SECS, INTEGRAL =      3.55 TIME LEFT: 172796.43
 STEP:  71 TIME =     0.05 SECS, INTEGRAL =      3.60 TIME LEFT: 172796.38
 STEP:  72 TIME =     0.05 SECS, INTEGRAL =      3.65 TIME LEFT: 172796.33
 STEP:  73 TIME =     0.05 SECS, INTEGRAL =      3.70 TIME LEFT: 172796.28
 STEP:  74 TIME =     0.05 SECS, INTEGRAL =      3.75 TIME LEFT: 172796.24
 STEP:  75 TIME =     0.05 SECS, INTEGRAL =      3.80 TIME LEFT: 172796.18
 STEP:  76 TIME =     0.05 SECS, INTEGRAL =      3.85 TIME LEFT: 172796.13
 STEP:  77 TIME =     0.05 SECS, INTEGRAL =      3.90 TIME LEFT: 172796.08
 STEP:  78 TIME =     0.05 SECS, INTEGRAL =      3.95 TIME LEFT: 172796.03
 STEP:  79 TIME =     0.05 SECS, INTEGRAL =      4.00 TIME LEFT: 172795.98
 STEP:  80 TIME =     0.05 SECS, INTEGRAL =      4.05 TIME LEFT: 172795.93
 STEP:  81 TIME =     0.06 SECS, INTEGRAL =      4.11 TIME LEFT: 172795.87
 STEP:  82 TIME =     0.06 SECS, INTEGRAL =      4.16 TIME LEFT: 172795.82
 STEP:  83 TIME =     0.05 SECS, INTEGRAL =      4.21 TIME LEFT: 172795.77
 STEP:  84 TIME =     0.05 SECS, INTEGRAL =      4.26 TIME LEFT: 172795.72
 STEP:  85 TIME =     0.06 SECS, INTEGRAL =      4.32 TIME LEFT: 172795.66
 STEP:  86 TIME =     0.05 SECS, INTEGRAL =      4.37 TIME LEFT: 172795.61
 STEP:  87 TIME =     0.05 SECS, INTEGRAL =      4.42 TIME LEFT: 172795.57

(To convert to Hartree/Bohr^2, multiply by (10^(-21) x N x a0^2)/(4.184 x 627.51) = 0.0642)


           FORCE MATRIX IN MILLIDYNES/ANGSTROM


                  C  1       C  2       C  3       C  4       C  5       C  6
 ------------------------------------------------------------------------------
     C    1  14.430373
     C    2   1.791225  14.415448
     C    3   3.133352   3.131741  14.719353
     C    4   3.513618   3.514289   1.794504  14.375764
     C    5   4.304845   0.039997   0.538668   0.551069  14.492282
     C    6   0.040983   4.259492   0.536347   0.549683   0.005899  14.784227
     C    7   0.658384   0.004742   0.031204   0.050966   4.470405   0.000905
     C    8   0.581696   0.584159   5.043532   0.043840   0.034370   0.035002
     C    9   0.005330   0.694569   0.036058   0.051511   0.001448   4.959934
     C   10   0.035294   0.034813   0.856951   0.004777   0.005676   0.005615
     C   11   0.000868   0.044960   0.002350   0.008112   0.000783   0.834829
     H   12   4.406438   0.027320   0.437967   0.428169   0.429825   0.001803
     H   13   0.027417   4.428955   0.437054   0.427759   0.001846   0.427697
     H   14   0.434404   0.433958   4.347010   0.025558   0.032966   0.031985
     H   15   0.441860   0.442320   0.030124   4.712985   0.033361   0.033281
     H   16   0.452610   0.452340   0.028257   4.638673   0.032084   0.031599
     H   17   0.431574   0.003415   0.046914   0.019377   4.455015   0.000965
     H   18   0.449308   0.002377   0.024740   0.021399   4.419072   0.003635
     H   19   0.003406   0.429538   0.046050   0.019673   0.000958   4.435047
     H   20   0.002355   0.457040   0.024836   0.019495   0.003855   4.380050
     H   21   0.023662   0.000354   0.002520   0.001632   0.463883   0.000520
     H   22   0.052045   0.000550   0.002379   0.008645   0.450796   0.000392
     H   23   0.020316   0.000491   0.007516   0.001882   0.462058   0.000434
     H   24   0.019646   0.018792   0.436460   0.001234   0.001204   0.001091
     H   25   0.000773   0.027467   0.007069   0.002059   0.000792   0.433016
     H   26   0.000221   0.009961   0.000409   0.002055   0.000266   0.097771
     H   27   0.000244   0.017210   0.000648   0.002921   0.000271   0.138243
     H   28   0.016757   0.017020   0.139408   0.001514   0.002364   0.002509
     H   29   0.009652   0.010126   0.100261   0.001070   0.001609   0.001340


                  C  7       C  8       C  9       C 10       C 11       H 12
 ------------------------------------------------------------------------------
     C    7  14.373638
     C    8   0.004056  18.306997
     C    9   0.000952   0.005190  18.209300
     C   10   0.001295  11.062633   0.002031  18.031144
     C   11   0.000586   0.001427  11.088508   0.002193  18.044913
     H   12   0.030717   0.037936   0.000576   0.002977   0.000391   4.914427
     H   13   0.000508   0.038054   0.025955   0.002902   0.002382   0.002496
     H   14   0.008676   0.443585   0.008603   0.054157   0.001445   0.028135
     H   15   0.006263   0.004548   0.006399   0.001075   0.001394   0.027100
     H   16   0.002731   0.002532   0.002613   0.000530   0.001099   0.030548
     H   17   0.439025   0.006299   0.000411   0.001663   0.000271   0.025091
     H   18   0.437690   0.001046   0.000563   0.000862   0.000339   0.042426
     H   19   0.000274   0.006186   0.459936   0.001521   0.046124   0.000639
     H   20   0.000413   0.001113   0.409882   0.000642   0.032818   0.000568
     H   21   4.727355   0.001076   0.000314   0.000287   0.000272   0.021399
     H   22   4.753196   0.000385   0.000388   0.000547   0.000238   0.001985
     H   23   4.712618   0.001455   0.000427   0.001066   0.000261   0.001978
     H   24   0.000479   4.777374   0.001353   0.453798   0.000579   0.020732
     H   25   0.000279   0.002850   4.772795   0.003419   0.452998   0.000495
     H   26   0.000253   0.000638   0.491351   0.000402   5.070817   0.000101
     H   27   0.000212   0.000533   0.462319   0.000479   5.108305   0.000126
     H   28   0.000368   0.460936   0.000612   5.107439   0.000679   0.001002
     H   29   0.001375   0.490830   0.001437   5.064979   0.000988   0.000837


                  H 13       H 14       H 15       H 16       H 17       H 18
 ------------------------------------------------------------------------------
     H   13   4.932210
     H   14   0.028052   4.859920
     H   15   0.027097   0.000983   5.330460
     H   16   0.030550   0.002558   0.551234   5.274727
     H   17   0.000641   0.003025   0.001832   0.011529   5.064160
     H   18   0.000521   0.026751   0.001231   0.017224   0.569618   5.033571
     H   19   0.024404   0.003081   0.001808   0.012104   0.000322   0.000276
     H   20   0.042517   0.027014   0.001353   0.015512   0.000289   0.009951
     H   21   0.000110   0.000504   0.000308   0.000463   0.024802   0.047808
     H   22   0.000114   0.000604   0.001165   0.000684   0.029046   0.030381
     H   23   0.000303   0.012586   0.000375   0.000446   0.047528   0.024563
     H   24   0.019703   0.036572   0.000729   0.000771   0.000379   0.000673
     H   25   0.003501   0.010797   0.000460   0.000737   0.000270   0.000260
     H   26   0.000646   0.000277   0.000289   0.000268   0.000085   0.000126
     H   27   0.000611   0.000309   0.000389   0.000216   0.000069   0.000142
     H   28   0.000923   0.002099   0.000362   0.000221   0.000409   0.000110
     H   29   0.000783   0.029945   0.000192   0.000174   0.000476   0.000219


                  H 19       H 20       H 21       H 22       H 23       H 24
 ------------------------------------------------------------------------------
     H   19   5.038110
     H   20   0.560143   4.975648
     H   21   0.000095   0.000164   5.469533
     H   22   0.000107   0.000114   0.570140   5.489117
     H   23   0.000122   0.000189   0.576681   0.569950   5.448278
     H   24   0.000387   0.000638   0.000429   0.000163   0.000502   5.149688
     H   25   0.038910   0.016318   0.000138   0.000135   0.000198   0.001077
     H   26   0.028474   0.012178   0.000088   0.000116   0.000083   0.000293
     H   27   0.003278   0.018059   0.000109   0.000067   0.000108   0.000247
     H   28   0.000374   0.000141   0.000231   0.000199   0.000215   0.080322
     H   29   0.000500   0.000282   0.000280   0.000305   0.002424   0.119430


                  H 25       H 26       H 27       H 28       H 29
 ------------------------------------------------------------------
     H   25   5.139083
     H   26   0.118458   5.467331
     H   27   0.080314   0.422874   5.497095
     H   28   0.000768   0.000162   0.000196   5.495020
     H   29   0.002160   0.000228   0.000217   0.422810   5.460556


          HEAT OF FORMATION =      15.986996 KCALS/MOLE

          ZERO POINT ENERGY     162.279 KCAL/MOL


           NORMAL COORDINATE ANALYSIS (Total motion = 1 Angstrom)


   Root No.       1         2         3         4         5         6         7         8

                 1 A       2 A       3 A       4 A       5 A       6 A       7 A       8 A   

                  39.1      42.3      65.7      84.4     101.3     171.4     181.9     218.5
  
           1   -0.0058   -0.0062    0.0002   -0.0024    0.0040   -0.0039   -0.0011    0.0062
           2   -0.0071   -0.0014   -0.0065    0.0065    0.0157    0.0164   -0.0014   -0.0059
           3    0.0055   -0.0022   -0.0005    0.0113    0.0069   -0.0027   -0.0097    0.0040
           4   -0.0060   -0.0060    0.0000   -0.0022    0.0039   -0.0027   -0.0028    0.0035
           5   -0.0011   -0.0003   -0.0236   -0.0028   -0.0083   -0.0041   -0.0111   -0.0074
           6    0.0104   -0.0142   -0.0058   -0.0144   -0.0035    0.0089    0.0042   -0.0085
           7   -0.0091   -0.0069    0.0087    0.0022    0.0160    0.0071    0.0034    0.0050
           8   -0.0040   -0.0010   -0.0154    0.0020    0.0039    0.0064   -0.0063   -0.0069
           9    0.0120   -0.0098    0.0031   -0.0002    0.0000    0.0075   -0.0090   -0.0134
          10   -0.0028   -0.0052   -0.0083   -0.0067   -0.0077   -0.0122   -0.0058    0.0041
          11   -0.0037   -0.0012   -0.0150    0.0022    0.0036    0.0067   -0.0071   -0.0077
          12    0.0205   -0.0208    0.0082    0.0060   -0.0079    0.0030   -0.0069    0.0007
          13   -0.0199    0.0116   -0.0092    0.0036    0.0176   -0.0144    0.0136    0.0222
          14   -0.0057   -0.0096    0.0078    0.0140    0.0203   -0.0075    0.0024    0.0172
          15   -0.0053    0.0116   -0.0079    0.0158    0.0174   -0.0102    0.0022    0.0160
          16    0.0046   -0.0098    0.0150    0.0171    0.0018    0.0069   -0.0206   -0.0132
          17    0.0084   -0.0042   -0.0236   -0.0070   -0.0230   -0.0057    0.0146    0.0071
          18    0.0021   -0.0113   -0.0173   -0.0294   -0.0018    0.0011    0.0173    0.0042
          19   -0.0297    0.0165    0.0190   -0.0263   -0.0222   -0.0208    0.0050    0.0049
          20   -0.0157   -0.0038    0.0335   -0.0145   -0.0172   -0.0126   -0.0059    0.0001
          21   -0.0267    0.0407   -0.0103   -0.0101   -0.0053    0.0234    0.0082   -0.0130
          22   -0.0016   -0.0074    0.0101   -0.0081    0.0189    0.0349    0.0286   -0.0098
          23    0.0030   -0.0043   -0.0039    0.0037    0.0003   -0.0018    0.0032    0.0024
          24    0.0172   -0.0123    0.0115    0.0010   -0.0027    0.0010   -0.0015   -0.0060
          25    0.0012   -0.0224   -0.0150    0.0190   -0.0184    0.0039   -0.0096   -0.0092
          26    0.0106    0.0080    0.0037   -0.0090   -0.0037   -0.0031    0.0032    0.0025
          27   -0.0168    0.0058   -0.0084   -0.0330    0.0246   -0.0146   -0.0251   -0.0029
          28    0.0635    0.0541   -0.0092    0.0002   -0.0008    0.0014    0.0027   -0.0024
          29    0.0021   -0.0048   -0.0043    0.0036    0.0007   -0.0011    0.0029    0.0017
          30    0.0255   -0.0164    0.0260    0.0026   -0.0074   -0.0151    0.0190    0.0172
          31    0.0057   -0.0236   -0.0122    0.0063   -0.0094    0.0033   -0.0137   -0.0106
          32    0.0142    0.0230    0.0407    0.0027    0.0096    0.0102    0.0022   -0.0061
          33   -0.0400    0.0234    0.0020    0.0480   -0.0177   -0.0024   -0.0044   -0.0024
          34    0.0045   -0.0194    0.0070   -0.0078   -0.0059    0.0042   -0.0063   -0.0035
          35   -0.0129    0.0032   -0.0042    0.0055    0.0250    0.0286    0.0016   -0.0153
          36   -0.0012    0.0064   -0.0050    0.0146    0.0132   -0.0080   -0.0055    0.0103
          37   -0.0134   -0.0038   -0.0110   -0.0175    0.0055   -0.0047    0.0099    0.0093
          38   -0.0032    0.0052   -0.0307   -0.0074   -0.0111   -0.0099   -0.0194   -0.0143
          39    0.0055   -0.0127   -0.0130   -0.0242   -0.0024    0.0070    0.0126   -0.0040
          40   -0.0138   -0.0030    0.0159    0.0154    0.0265    0.0042   -0.0025    0.0114
          41   -0.0090    0.0014   -0.0234    0.0006    0.0066    0.0074   -0.0067   -0.0056
          42    0.0154   -0.0114    0.0087    0.0006   -0.0018    0.0061   -0.0079   -0.0132
          43    0.0010   -0.0095   -0.0157   -0.0200   -0.0195   -0.0135   -0.0027   -0.0018
          44   -0.0146    0.0096   -0.0248   -0.0045    0.0118    0.0062   -0.0025   -0.0093
          45    0.0290   -0.0294    0.0159    0.0112   -0.0144    0.0034   -0.0105    0.0019
          46   -0.0030    0.0001   -0.0110    0.0009   -0.0106   -0.0222   -0.0137    0.0088
          47    0.0077   -0.0127   -0.0046    0.0092   -0.0051    0.0071   -0.0115   -0.0060
          48    0.0284   -0.0288    0.0154    0.0109   -0.0139    0.0033   -0.0101    0.0019
          49   -0.0117    0.0074   -0.0331    0.0290    0.0513   -0.0122    0.0217    0.0378
          50   -0.0099   -0.0076    0.0199    0.0023    0.0046   -0.0111   -0.0008    0.0112
          51   -0.0035    0.0080   -0.0173    0.0435    0.0519   -0.0427    0.0188    0.0517
          52   -0.0320    0.0263   -0.0149    0.0053    0.0251   -0.0211    0.0268    0.0292
          53    0.0074   -0.0236   -0.0115    0.0533    0.0674   -0.0330    0.0147    0.0555
          54    0.0012    0.0034   -0.0026    0.0112    0.0086   -0.0037   -0.0070    0.0083
          55    0.0074    0.0010    0.0407    0.0169    0.0183    0.0088   -0.0333   -0.0185
          56    0.0100    0.0007   -0.0119   -0.0080   -0.0161   -0.0047    0.0116    0.0063
          57    0.0041   -0.0208   -0.0410   -0.0406   -0.0247   -0.0022    0.0628    0.0289
          58    0.0135   -0.0145    0.0237    0.0307   -0.0017    0.0162   -0.0298   -0.0261
          59    0.0137   -0.0215   -0.0548   -0.0100   -0.0550   -0.0041    0.0589    0.0254
          60    0.0070   -0.0123   -0.0084   -0.0203   -0.0005    0.0065    0.0067   -0.0056
          61   -0.0219    0.0093    0.0219   -0.0312   -0.0339    0.0320   -0.0362    0.1031
          62   -0.0320    0.0161    0.0522   -0.0583   -0.0708    0.0578   -0.0437    0.0520
          63   -0.0309    0.0441   -0.0141   -0.0026    0.0080   -0.0212    0.0415   -0.0890
          64   -0.0367    0.0231    0.0139   -0.0193   -0.0078   -0.0727    0.0466   -0.0913
          65   -0.0114   -0.0176    0.0473   -0.0048   -0.0087   -0.0955    0.0239   -0.0789
          66   -0.0319    0.0456   -0.0139   -0.0049    0.0054   -0.0155    0.0393   -0.0851
          67   -0.0384    0.0204    0.0438   -0.0519   -0.0565   -0.0283   -0.0025   -0.0121
          68   -0.0118   -0.0051    0.0215   -0.0033   -0.0020   -0.0044   -0.0046    0.0135
          69   -0.0342    0.0558   -0.0047   -0.0439   -0.0480    0.1376   -0.0524    0.1127
          70   -0.0490   -0.0581    0.0264   -0.0232    0.0369    0.0872    0.0731   -0.0298
          71    0.0095   -0.0066    0.0058    0.0052   -0.0031   -0.0117    0.0143    0.0151
          72    0.0141   -0.0105    0.0061    0.0003   -0.0010    0.0057   -0.0076   -0.0124
          73   -0.0058   -0.0310   -0.0406    0.0316   -0.0418    0.0008    0.0022   -0.0035
          74    0.0090    0.0039   -0.0073   -0.0204    0.0000   -0.0101   -0.0052    0.0031
          75   -0.0117    0.0033   -0.0101   -0.1005    0.0787   -0.0382   -0.0797   -0.0100
          76    0.0123   -0.0154    0.0133   -0.0064    0.0144    0.0081   -0.0260   -0.0188
          77    0.0157    0.0276    0.0531    0.0138    0.0074    0.0184    0.0099   -0.0082
          78   -0.0461    0.0264    0.0042    0.1168   -0.0715    0.0214    0.0495    0.0043
          79    0.0031   -0.0331   -0.0355    0.0074   -0.0251   -0.0022   -0.0054   -0.0037
          80    0.0158    0.0317    0.0611    0.0019    0.0239    0.0145   -0.0065   -0.0124
          81   -0.0546    0.0361    0.0090    0.0511   -0.0015   -0.0153   -0.0398   -0.0086
          82    0.0730    0.0574   -0.0098   -0.0072   -0.0001    0.0241    0.0242   -0.0161
          83    0.0077   -0.0074    0.0055    0.0047   -0.0026   -0.0128    0.0173    0.0188
          84    0.0294   -0.0183    0.0329    0.0034   -0.0097   -0.0233    0.0292    0.0293
          85    0.1126    0.1062   -0.0261    0.0150   -0.0191   -0.0517   -0.0429    0.0182
          86   -0.0043   -0.0025   -0.0145    0.0024    0.0043    0.0112   -0.0114   -0.0155
          87    0.0288   -0.0183    0.0323    0.0032   -0.0094   -0.0220    0.0282    0.0276


   Root No.       9        10        11        12        13        14        15        16

                 9 A      10 A      11 A      12 A      13 A      14 A      15 A      16 A   

                 272.7     325.5     343.0     376.4     446.7     449.6     469.4     531.0
  
           1   -0.0034   -0.0127    0.0135    0.0164   -0.0007    0.0100   -0.0072   -0.0034
           2   -0.0064   -0.0145   -0.0001    0.0146    0.0090   -0.0014    0.0313   -0.0115
           3   -0.0111    0.0121    0.0126    0.0231    0.0322    0.0092   -0.0092    0.0131
           4   -0.0020   -0.0125   -0.0024    0.0185    0.0030    0.0111   -0.0130    0.0028
           5   -0.0039    0.0147    0.0040   -0.0118   -0.0021    0.0333    0.0039   -0.0126
           6   -0.0145   -0.0066   -0.0048   -0.0240   -0.0176    0.0009    0.0205    0.0258
           7   -0.0032   -0.0248    0.0045    0.0325    0.0074   -0.0069    0.0038    0.0021
           8   -0.0057   -0.0017    0.0155   -0.0038    0.0054    0.0110    0.0146   -0.0059
           9   -0.0315    0.0105    0.0081    0.0134   -0.0184   -0.0041    0.0027   -0.0242
          10   -0.0014    0.0010    0.0087    0.0062   -0.0064    0.0354   -0.0308   -0.0009
          11   -0.0045   -0.0007    0.0020    0.0002    0.0071    0.0195    0.0204   -0.0116
          12    0.0375   -0.0116    0.0338   -0.0077   -0.0006    0.0053    0.0085   -0.0096
          13   -0.0024   -0.0014    0.0086   -0.0176   -0.0186   -0.0073    0.0160   -0.0143
          14    0.0018   -0.0063   -0.0223   -0.0021   -0.0235    0.0071   -0.0163   -0.0063
          15   -0.0086    0.0223    0.0056   -0.0025    0.0230   -0.0018    0.0000    0.0142
          16    0.0034    0.0020   -0.0097   -0.0027   -0.0146    0.0000    0.0103    0.0249
          17    0.0111    0.0141   -0.0145    0.0210    0.0001   -0.0192    0.0017   -0.0057
          18   -0.0187   -0.0215   -0.0064   -0.0136    0.0021    0.0035    0.0000    0.0151
          19   -0.0092    0.0094    0.0232   -0.0138    0.0042   -0.0116    0.0261   -0.0071
          20   -0.0045    0.0030   -0.0140    0.0042   -0.0046    0.0074   -0.0172    0.0036
          21    0.0192   -0.0127   -0.0137    0.0034   -0.0089    0.0058   -0.0138    0.0012
          22    0.0102    0.0221    0.0053    0.0051    0.0043   -0.0002   -0.0009    0.0023
          23    0.0083   -0.0078    0.0274   -0.0145    0.0047   -0.0172   -0.0182    0.0193
          24   -0.0224    0.0077    0.0132    0.0095   -0.0247   -0.0239   -0.0194   -0.0199
          25    0.0030    0.0021   -0.0259   -0.0131    0.0096   -0.0167   -0.0013   -0.0025
          26    0.0124    0.0160   -0.0066    0.0307   -0.0213   -0.0126    0.0143    0.0234
          27    0.0153    0.0006   -0.0140   -0.0063    0.0087   -0.0065   -0.0040    0.0013
          28    0.0022    0.0073    0.0011   -0.0019    0.0013    0.0017   -0.0023   -0.0006
          29    0.0078   -0.0079    0.0299   -0.0153    0.0047   -0.0197   -0.0208    0.0221
          30    0.0124    0.0004   -0.0242    0.0044    0.0044    0.0163    0.0149   -0.0067
          31    0.0023   -0.0010   -0.0297   -0.0208    0.0158   -0.0178   -0.0044   -0.0055
          32   -0.0110   -0.0089   -0.0131   -0.0186    0.0141   -0.0055   -0.0061   -0.0085
          33    0.0060    0.0034   -0.0046    0.0008    0.0007   -0.0057    0.0004   -0.0015
          34    0.0034   -0.0224    0.0225    0.0225   -0.0127    0.0144   -0.0117   -0.0160
          35   -0.0317   -0.0168   -0.0085    0.0358    0.0141   -0.0221    0.0538   -0.0194
          36   -0.0141    0.0186    0.0070    0.0173    0.0385    0.0064   -0.0070    0.0212
          37   -0.0134   -0.0207   -0.0127    0.0162    0.0091    0.0190   -0.0189    0.0159
          38   -0.0303    0.0314   -0.0016   -0.0190   -0.0156    0.0592   -0.0104   -0.0222
          39   -0.0209   -0.0130   -0.0110   -0.0244   -0.0123    0.0048    0.0159    0.0334
          40   -0.0049   -0.0346    0.0093    0.0623    0.0298   -0.0183    0.0053   -0.0012
          41   -0.0058   -0.0020    0.0095   -0.0055    0.0164    0.0252    0.0289    0.0022
          42   -0.0304    0.0105    0.0114    0.0144   -0.0255   -0.0136   -0.0069   -0.0295
          43   -0.0019    0.0026    0.0025   -0.0242   -0.0359    0.0462   -0.0279    0.0059
          44   -0.0524    0.0143   -0.0331    0.0088    0.0167    0.0178    0.0143    0.0355
          45    0.0757   -0.0237    0.0618   -0.0145   -0.0084    0.0069    0.0136   -0.0483
          46    0.0007    0.0174    0.0182    0.0204    0.0129    0.0550   -0.0586   -0.0081
          47    0.0436   -0.0152    0.0344   -0.0071   -0.0032    0.0217    0.0266   -0.0600
          48    0.0718   -0.0222    0.0579   -0.0132   -0.0078    0.0071    0.0133   -0.0451
          49   -0.0001   -0.0051    0.0043   -0.0278   -0.0337   -0.0112    0.0254   -0.0252
          50    0.0002   -0.0024   -0.0213    0.0000   -0.0186    0.0086   -0.0224   -0.0011
          51   -0.0083    0.0436   -0.0131   -0.0489   -0.0212   -0.0117   -0.0167    0.0068
          52    0.0055    0.0010   -0.0035   -0.0456   -0.0482   -0.0170    0.0187   -0.0252
          53   -0.0016    0.0100   -0.0349   -0.0342   -0.0550    0.0013   -0.0269   -0.0134
          54   -0.0129    0.0191    0.0143    0.0174    0.0432    0.0047   -0.0009    0.0208
          55    0.0091    0.0082   -0.0033    0.0077   -0.0425    0.0051    0.0284    0.0669
          56    0.0130    0.0152   -0.0126    0.0283   -0.0103   -0.0204    0.0078    0.0109
          57   -0.0255   -0.0435   -0.0199    0.0169    0.0420   -0.0396   -0.0363   -0.0345
          58   -0.0006    0.0107   -0.0079   -0.0226   -0.0377    0.0081    0.0353    0.0532
          59   -0.0015   -0.0055   -0.0299    0.0293    0.0411   -0.0562   -0.0286   -0.0618
          60   -0.0193   -0.0139   -0.0034   -0.0264   -0.0161    0.0117    0.0184    0.0371
          61   -0.0276    0.0334    0.0321   -0.0249    0.0192   -0.0190    0.0384   -0.0010
          62   -0.0018    0.0003   -0.0175    0.0050   -0.0076    0.0086   -0.0218    0.0034
          63    0.0326   -0.0301   -0.0200    0.0115   -0.0200    0.0113   -0.0228   -0.0033
          64    0.0100   -0.0154    0.0140   -0.0038   -0.0133   -0.0045    0.0145   -0.0148
          65   -0.0170    0.0210    0.0074    0.0105    0.0346    0.0011   -0.0007    0.0194
          66    0.0337   -0.0314   -0.0209    0.0111   -0.0223    0.0115   -0.0232   -0.0045
          67   -0.0171    0.0214    0.0382   -0.0087    0.0325   -0.0167    0.0378    0.0040
          68   -0.0009   -0.0026   -0.0215    0.0012   -0.0190    0.0098   -0.0228   -0.0021
          69    0.0176   -0.0111   -0.0230   -0.0052   -0.0241    0.0064   -0.0202   -0.0038
          70    0.0329    0.0995    0.0129   -0.0208    0.0142    0.0197   -0.0237   -0.0070
          71    0.0273   -0.0140    0.0185   -0.0211    0.0156   -0.0147   -0.0200    0.0370
          72   -0.0324    0.0101    0.0172    0.0132   -0.0299   -0.0243   -0.0172   -0.0291
          73    0.0070    0.0098   -0.0275    0.0013    0.0064   -0.0230    0.0012   -0.0014
          74    0.0253    0.0257   -0.0125    0.0393   -0.0202   -0.0248    0.0150    0.0162
          75    0.0629    0.0293   -0.0340    0.0083    0.0138   -0.0456   -0.0030   -0.0240
          76   -0.0075   -0.0180   -0.0427   -0.0660    0.0561   -0.0212   -0.0272   -0.0496
          77   -0.0280   -0.0245   -0.0142   -0.0448    0.0327    0.0043   -0.0178   -0.0218
          78   -0.0431   -0.0270    0.0160   -0.0171   -0.0031    0.0401   -0.0020    0.0317
          79    0.0118    0.0132   -0.0211    0.0166   -0.0176   -0.0161    0.0148    0.0350
          80   -0.0176   -0.0199   -0.0216   -0.0506    0.0436   -0.0092   -0.0229   -0.0458
          81    0.0471    0.0376   -0.0156    0.0283   -0.0062   -0.0515    0.0090   -0.0366
          82    0.0187    0.0770    0.0054   -0.0386    0.0104    0.0288   -0.0328   -0.0179
          83    0.0342   -0.0142   -0.0017   -0.0189    0.0327    0.0203    0.0154    0.0358
          84    0.0311   -0.0038   -0.0470    0.0021    0.0243    0.0454    0.0412    0.0023
          85   -0.0217   -0.0768   -0.0073    0.0277   -0.0109   -0.0234    0.0265    0.0128
          86   -0.0185   -0.0019    0.0635   -0.0129   -0.0223   -0.0615   -0.0592    0.0126
          87    0.0287   -0.0024   -0.0447    0.0027    0.0214    0.0425    0.0384   -0.0008


   Root No.      17        18        19        20        21        22        23        24

                17 A      18 A      19 A      20 A      21 A      22 A      23 A      24 A   

                 618.3     639.1     737.3     828.9     869.0     892.7     917.4     933.3
  
           1    0.0055    0.0155   -0.0320    0.0040    0.0028   -0.0039   -0.0050    0.0045
           2   -0.0056    0.0145    0.0016   -0.0050   -0.0023    0.0022   -0.0008    0.0079
           3    0.0047    0.0062   -0.0210    0.0042    0.0021    0.0100   -0.0138   -0.0023
           4   -0.0051    0.0095    0.0346   -0.0064    0.0034    0.0066   -0.0046    0.0013
           5    0.0038   -0.0164   -0.0010   -0.0010   -0.0094    0.0016    0.0004   -0.0045
           6    0.0252    0.0066   -0.0121    0.0027   -0.0024    0.0024    0.0119    0.0040
           7   -0.0007    0.0029    0.0029    0.0154   -0.0202   -0.0068    0.0161   -0.0028
           8    0.0066    0.0023   -0.0190    0.0149    0.0151   -0.0091    0.0008   -0.0021
           9   -0.0015   -0.0007   -0.0118    0.0125    0.0164   -0.0170    0.0010   -0.0017
          10    0.0115   -0.0042    0.0021    0.0005   -0.0010   -0.0028    0.0077    0.0058
          11   -0.0025   -0.0031    0.0391   -0.0069   -0.0030    0.0249    0.0003   -0.0055
          12    0.0013    0.0006   -0.0076    0.0029   -0.0015    0.0286    0.0025   -0.0068
          13   -0.0017    0.0082   -0.0161   -0.0219    0.0022    0.0025   -0.0030   -0.0005
          14    0.0011    0.0056   -0.0143   -0.0199    0.0016    0.0031   -0.0027   -0.0011
          15    0.0008   -0.0091    0.0153   -0.0146   -0.0022   -0.0136    0.0092    0.0036
          16    0.0024    0.0101    0.0184   -0.0038    0.0299    0.0062    0.0034    0.0010
          17   -0.0062   -0.0056   -0.0131    0.0029   -0.0262   -0.0002    0.0064    0.0081
          18    0.0055    0.0097    0.0162   -0.0044   -0.0111   -0.0118   -0.0151    0.0000
          19   -0.0029    0.0020   -0.0024   -0.0065    0.0017    0.0070   -0.0044   -0.0046
          20    0.0022   -0.0016   -0.0010   -0.0048    0.0010   -0.0055    0.0028    0.0003
          21    0.0011   -0.0014    0.0026   -0.0027   -0.0011   -0.0076    0.0086    0.0029
          22    0.0112   -0.0556   -0.0028   -0.0014   -0.0002   -0.0007    0.0094   -0.0276
          23    0.0028    0.0019   -0.0007    0.0016    0.0027   -0.0034   -0.0001    0.0001
          24   -0.0105   -0.0040    0.0117   -0.0086   -0.0091    0.0081   -0.0001   -0.0003
          25   -0.0019   -0.0006   -0.0029    0.0000   -0.0009   -0.0026   -0.0021   -0.0007
          26   -0.0120    0.0037    0.0033   -0.0006    0.0052   -0.0042   -0.0060   -0.0035
          27   -0.0437   -0.0106   -0.0070    0.0008    0.0025   -0.0014   -0.0107   -0.0131
          28   -0.0013    0.0040   -0.0001   -0.0001    0.0002    0.0001    0.0013   -0.0084
          29    0.0037    0.0017   -0.0011    0.0025    0.0045   -0.0054    0.0000   -0.0001
          30   -0.0006   -0.0005    0.0018   -0.0052   -0.0100    0.0137   -0.0008    0.0014
          31   -0.0110   -0.0035   -0.0058    0.0002   -0.0015   -0.0048   -0.0071   -0.0051
          32   -0.0003   -0.0009   -0.0002   -0.0005    0.0099   -0.0032   -0.0087   -0.0115
          33    0.0039    0.0007   -0.0010    0.0003    0.0003    0.0003   -0.0006   -0.0026
          34    0.0073    0.0182   -0.0498    0.0345    0.0076   -0.0058    0.0016    0.0066
          35   -0.0160    0.0262    0.0030    0.0107   -0.0074   -0.0513    0.0024    0.0379
          36    0.0039    0.0028   -0.0082   -0.0150   -0.0011    0.0104   -0.0169   -0.0038
          37    0.0035    0.0136    0.0592   -0.0152   -0.0354   -0.0035   -0.0127    0.0168
          38    0.0110   -0.0305   -0.0018   -0.0080    0.0120   -0.0466   -0.0138   -0.0092
          39    0.0294    0.0103    0.0047   -0.0032   -0.0268   -0.0043    0.0052    0.0139
          40   -0.0193    0.0318    0.0040    0.0471   -0.0562   -0.0135    0.0189    0.0095
          41    0.0187    0.0068   -0.0411    0.0262    0.0194   -0.0038   -0.0002    0.0004
          42   -0.0096   -0.0036    0.0026    0.0047    0.0127   -0.0198    0.0017   -0.0032
          43    0.0318   -0.0194    0.0096    0.0032   -0.0170   -0.0218    0.0828    0.0225
          44    0.0244    0.0099   -0.0099    0.0076   -0.0065    0.1329    0.0115   -0.0282
          45   -0.0208   -0.0101    0.0335   -0.0096    0.0006   -0.0601   -0.0068    0.0121
          46    0.0069   -0.0170   -0.0046    0.0033    0.0010    0.0064   -0.0348   -0.0102
          47   -0.0308   -0.0168    0.0970   -0.0258   -0.0038   -0.0800   -0.0114    0.0185
          48   -0.0191   -0.0094    0.0344   -0.0106   -0.0017   -0.0489   -0.0062    0.0106
          49   -0.0052    0.0086   -0.0011    0.0653   -0.0025    0.0234   -0.0228    0.0144
          50    0.0027    0.0030   -0.0172   -0.0521    0.0041   -0.0080    0.0076   -0.0088
          51   -0.0019   -0.0406    0.0753    0.1357   -0.0009   -0.0110    0.0099   -0.0031
          52   -0.0067   -0.0058    0.0151    0.0218    0.0022    0.0014    0.0138   -0.0072
          53   -0.0008   -0.0139    0.0291    0.1453   -0.0002    0.0211   -0.0257    0.0049
          54    0.0039    0.0012   -0.0075   -0.0521   -0.0018   -0.0134   -0.0006    0.0073
          55   -0.0235    0.0137    0.0175   -0.0048   -0.0208   -0.0119   -0.0159    0.0156
          56   -0.0169   -0.0020   -0.0100    0.0023   -0.0389   -0.0074   -0.0020    0.0143
          57    0.0353    0.0342    0.0634   -0.0080    0.1388    0.0132   -0.0031   -0.0140
          58    0.0338    0.0131    0.0016   -0.0030   -0.0219   -0.0054    0.0210    0.0289
          59    0.0548    0.0145    0.0177    0.0014    0.1113    0.0309    0.0464    0.0058
          60    0.0196    0.0096    0.0027   -0.0035   -0.0555   -0.0219   -0.0076    0.0172
          61   -0.0044   -0.0041    0.0137   -0.0416   -0.0024   -0.0206    0.0292    0.0043
          62    0.0020   -0.0049    0.0131    0.1099   -0.0029    0.0247   -0.0337    0.0065
          63    0.0022    0.0033   -0.0103    0.0159    0.0022    0.0109   -0.0138   -0.0041
          64   -0.0017    0.0091   -0.0205    0.0278    0.0063    0.0384   -0.0401   -0.0149
          65    0.0007   -0.0154    0.0430    0.0294   -0.0116   -0.0375    0.0391    0.0269
          66    0.0021    0.0039   -0.0114    0.0232    0.0026    0.0160   -0.0185   -0.0051
          67   -0.0050   -0.0099    0.0402    0.1012   -0.0113    0.0094   -0.0056    0.0180
          68    0.0032    0.0041   -0.0212   -0.0534    0.0074   -0.0056    0.0021   -0.0105
          69    0.0013    0.0003   -0.0045    0.0305    0.0017    0.0135   -0.0164   -0.0037
          70   -0.0074    0.0098   -0.0037   -0.0133    0.0293    0.0178   -0.0991    0.2032
          71    0.0051    0.0023    0.0068   -0.0105   -0.0173    0.0185   -0.0012    0.0031
          72   -0.0111   -0.0047    0.0071   -0.0015    0.0020   -0.0045    0.0016   -0.0042
          73   -0.0237   -0.0088   -0.0203    0.0053   -0.0582   -0.0132   -0.0131    0.0005
          74   -0.0027    0.0035   -0.0053    0.0029   -0.0033    0.0014    0.0226    0.0258
          75    0.0300    0.0039   -0.0108    0.0055    0.0658    0.0384    0.1213    0.1022
          76    0.0124   -0.0111   -0.0240    0.0057   -0.0745    0.0039    0.0208    0.0349
          77   -0.0278   -0.0136   -0.0144    0.0034   -0.0161    0.0076    0.0251    0.0271
          78   -0.1516   -0.0352   -0.0221    0.0047    0.0381    0.0256    0.0784    0.0731
          79   -0.0487   -0.0010    0.0052   -0.0038    0.0587   -0.0163   -0.0419   -0.0511
          80    0.0413   -0.0012   -0.0091    0.0029   -0.0456    0.0056    0.0201    0.0286
          81    0.2336    0.0566    0.0366   -0.0073   -0.0366   -0.0236   -0.0391   -0.0123
          82   -0.0597    0.2613    0.0128    0.0196   -0.0230   -0.0099    0.0218    0.0083
          83    0.0186    0.0052   -0.0285    0.0365    0.0590   -0.0713    0.0037   -0.0072
          84    0.0098    0.0026   -0.0179    0.0193    0.0290   -0.0336    0.0020   -0.0037
          85    0.0390   -0.1622   -0.0077   -0.0145    0.0234    0.0121   -0.0632    0.1412
          86   -0.0097   -0.0019    0.0251   -0.0299   -0.0478    0.0585   -0.0033    0.0057
          87    0.0074    0.0034   -0.0146    0.0154    0.0227   -0.0266    0.0020   -0.0038


   Root No.      25        26        27        28        29        30        31        32

                25 A      26 A      27 A      28 A      29 A      30 A      31 A      32 A   

                 937.9     953.8     960.3     992.3    1004.9    1015.9    1026.1    1042.4
  
           1    0.0068    0.0019    0.0101    0.0064   -0.0045    0.0017    0.0031    0.0019
           2    0.0046    0.0065    0.0121    0.0160    0.0038   -0.0032   -0.0042   -0.0065
           3    0.0066   -0.0116    0.0022   -0.0057    0.0022    0.0027   -0.0018   -0.0007
           4   -0.0089   -0.0077   -0.0002    0.0079   -0.0008    0.0018    0.0036    0.0069
           5    0.0091    0.0004   -0.0033   -0.0114   -0.0011   -0.0075    0.0086    0.0268
           6    0.0008    0.0054    0.0049   -0.0052    0.0053    0.0016    0.0004    0.0003
           7    0.0009    0.0078   -0.0145   -0.0206    0.0016   -0.0018    0.0056    0.0151
           8   -0.0033    0.0045    0.0010   -0.0057   -0.0142    0.0128   -0.0035   -0.0193
           9   -0.0113   -0.0034   -0.0051    0.0000   -0.0031    0.0037   -0.0008   -0.0042
          10   -0.0018    0.0094    0.0038    0.0093    0.0065    0.0028   -0.0090   -0.0191
          11   -0.0108   -0.0045   -0.0120    0.0005    0.0044    0.0027   -0.0028   -0.0122
          12   -0.0093    0.0082   -0.0093    0.0091   -0.0016   -0.0048    0.0022    0.0094
          13    0.0011   -0.0026    0.0030    0.0071    0.0063   -0.0042    0.0034    0.0016
          14    0.0005   -0.0026    0.0011    0.0060    0.0051   -0.0050    0.0031    0.0035
          15   -0.0004    0.0057    0.0034    0.0014    0.0082    0.0045    0.0014   -0.0005
          16   -0.0084   -0.0042    0.0175   -0.0106   -0.0050   -0.0015    0.0036    0.0139
          17   -0.0074   -0.0061    0.0011    0.0004    0.0021   -0.0035   -0.0007    0.0016
          18    0.0073   -0.0114   -0.0065    0.0051   -0.0086   -0.0016   -0.0013   -0.0070
          19   -0.0023   -0.0079   -0.0067   -0.0119    0.0012    0.0062   -0.0038   -0.0016
          20   -0.0017    0.0013   -0.0016   -0.0037   -0.0034    0.0027   -0.0020   -0.0030
          21   -0.0032    0.0118   -0.0004    0.0085   -0.0145   -0.0082    0.0012    0.0022
          22    0.0042   -0.0077    0.0047    0.0018    0.0004   -0.0004    0.0302   -0.0101
          23   -0.0029   -0.0021   -0.0019    0.0011    0.0019   -0.0012   -0.0001    0.0011
          24   -0.0010   -0.0009   -0.0042    0.0061    0.0068   -0.0063    0.0010    0.0031
          25    0.0059    0.0006   -0.0053    0.0028    0.0002    0.0001   -0.0011   -0.0053
          26   -0.0018    0.0000    0.0025    0.0004   -0.0034    0.0050    0.0017    0.0013
          27   -0.0114    0.0113    0.0082   -0.0035    0.0000    0.0065    0.0055    0.0228
          28    0.0014   -0.0042    0.0035    0.0068   -0.0023    0.0011   -0.0493    0.0110
          29   -0.0048   -0.0037   -0.0030    0.0013    0.0031   -0.0015    0.0007    0.0015
          30    0.0152    0.0091    0.0117   -0.0088   -0.0108    0.0085   -0.0014   -0.0068
          31    0.0087    0.0044   -0.0098    0.0073   -0.0005    0.0061    0.0005   -0.0025
          32    0.0160    0.0132   -0.0137    0.0017    0.0059   -0.0047   -0.0034   -0.0069
          33   -0.0057    0.0042    0.0076   -0.0120    0.0076   -0.0205   -0.0095   -0.0242
          34   -0.0044    0.0230   -0.0048    0.0059   -0.0584   -0.0085   -0.0056    0.0035
          35    0.0236    0.0121    0.0373   -0.0028    0.0215    0.0079   -0.0251    0.0194
          36    0.0134   -0.0245    0.0112   -0.0060    0.0377    0.0102    0.0040   -0.0025
          37    0.0091   -0.0264   -0.0166    0.0068    0.0068   -0.0218   -0.0062    0.0038
          38    0.0423   -0.0197    0.0257   -0.0256   -0.0154   -0.0249    0.0437    0.1108
          39    0.0122   -0.0077   -0.0059   -0.0051    0.0091   -0.0136   -0.0064   -0.0036
          40    0.0062    0.0176   -0.0533   -0.0648    0.0043   -0.0120   -0.0543    0.0280
          41    0.0191    0.0172    0.0260   -0.0308   -0.0406    0.0388   -0.0073   -0.0343
          42   -0.0258   -0.0118   -0.0218    0.0173    0.0153   -0.0145    0.0018    0.0066
          43   -0.0185    0.0864    0.0040   -0.0035    0.1101    0.0847   -0.0363   -0.0127
          44   -0.0462    0.0214   -0.0416    0.0269   -0.0005   -0.0119    0.0027    0.0106
          45    0.0204   -0.0135    0.0153   -0.0126    0.0036    0.0066   -0.0020   -0.0077
          46    0.0141   -0.0382   -0.0113    0.0001   -0.0697   -0.0745   -0.0070   -0.0586
          47    0.0258   -0.0348    0.0179   -0.0269    0.0170    0.0135   -0.0079   -0.0298
          48    0.0176   -0.0140    0.0124   -0.0111    0.0073    0.0037   -0.0016   -0.0043
          49    0.0240    0.0018    0.0430    0.0707    0.0271   -0.0364    0.0197    0.0062
          50   -0.0120   -0.0044   -0.0210   -0.0299   -0.0095    0.0132   -0.0070    0.0002
          51   -0.0135    0.0043   -0.0266   -0.0560   -0.0402    0.0338   -0.0224   -0.0138
          52   -0.0218    0.0166   -0.0313   -0.0191   -0.0659   -0.0107   -0.0174   -0.0073
          53    0.0163   -0.0133    0.0159    0.0030    0.0111    0.0054    0.0004    0.0009
          54    0.0131   -0.0064    0.0241    0.0182    0.0541    0.0083    0.0149    0.0052
[...]
 FREQ.      1466.29        C  1 --  C  2           +8.9% ( 50.0%)   100.0%
 T-DIPOLE    0.0316        C  1 --  C  3           +8.7% ( 49.5%)    52.1%
 TRAVEL      0.0693        C  2 --  C  3           +8.4% ( 48.4%)    51.9%
 RED. MASS   1.2917        C  1 --  C  5           +7.6% ( 46.1%)    86.9%
 EFF. MASS   9.5810

 VIBRATION   62   62A       ATOM PAIR        ENERGY CONTRIBUTION    RADIAL
 FREQ.      1862.35        C  9 --  C 11          +43.0% ( 96.8%)    98.9%
 T-DIPOLE    0.2336        C  6 --  C  9          +15.9% ( 58.9%)    54.8%
 TRAVEL      0.0554        C  9 --  H 25          +14.7% ( 56.6%)     4.0%
 RED. MASS   4.8047        C 11 --  H 26          +10.4% ( 47.6%)    10.9%
 EFF. MASS  11.7936        C 11 --  H 27          +10.2% ( 47.2%)    12.9%

 VIBRATION   63   63A       ATOM PAIR        ENERGY CONTRIBUTION    RADIAL
 FREQ.      1862.81        C  8 --  C 10          +42.7% ( 96.6%)    98.8%
 T-DIPOLE    0.1673        C  3 --  C  8          +16.1% ( 59.4%)    55.6%
 TRAVEL      0.0554        C  8 --  H 24          +14.7% ( 56.8%)     3.8%
 RED. MASS   4.7924        C 10 --  H 29          +10.2% ( 47.3%)    11.0%
 EFF. MASS  11.7925        C 10 --  H 28          +10.0% ( 46.8%)    12.9%

 VIBRATION   64   64A       ATOM PAIR        ENERGY CONTRIBUTION    RADIAL
 FREQ.      2927.24        C  3 --  H 14          +90.2% ( 97.2%)   100.0%
 T-DIPOLE    0.0858        C  1 --  H 12           +2.6% ( 16.7%)    99.9%
 TRAVEL      0.1258        C  2 --  H 13           +1.6% ( 13.1%)    99.8%
 RED. MASS   0.8306        C  1 --  C  3           +1.1% ( 10.7%)    15.9%
 EFF. MASS   1.4567

 VIBRATION   65   65A       ATOM PAIR        ENERGY CONTRIBUTION    RADIAL
 FREQ.      2935.84        C  6 --  H 20          +54.7% ( 76.8%)    97.5%
 T-DIPOLE    0.0254        C  6 --  H 19          +35.9% ( 62.2%)    95.1%
 TRAVEL      0.1223        C  2 --  H 13           +4.8% ( 22.6%)    99.9%
 RED. MASS   0.4656        C  3 --  H 14           +1.3% ( 11.7%)   100.0%
 EFF. MASS   1.5365

 VIBRATION   66   66A       ATOM PAIR        ENERGY CONTRIBUTION    RADIAL
 FREQ.      2943.16        C  1 --  H 12          +43.9% ( 68.4%)   100.0%
 T-DIPOLE    0.0756        C  5 --  H 18          +28.3% ( 54.9%)    97.1%
 TRAVEL      0.1237        C  5 --  H 17          +21.3% ( 47.6%)    95.5%
 RED. MASS   0.3345        C  3 --  H 14           +1.6% ( 13.1%)    99.9%
 EFF. MASS   1.4979

 VIBRATION   67   67A       ATOM PAIR        ENERGY CONTRIBUTION    RADIAL
 FREQ.      2951.98        C  1 --  H 12          +44.2% ( 68.3%)   100.0%
 T-DIPOLE    0.0675        C  5 --  H 18          +26.7% ( 53.1%)    97.2%
 TRAVEL      0.1241        C  5 --  H 17          +21.2% ( 47.3%)    95.8%
 RED. MASS   0.3263        C  2 --  H 13           +3.1% ( 18.2%)   100.0%
 EFF. MASS   1.4827

 VIBRATION   68   68A       ATOM PAIR        ENERGY CONTRIBUTION    RADIAL
 FREQ.      2955.46        C  2 --  H 13          +84.5% ( 93.9%)   100.0%
 T-DIPOLE    0.1310        C  1 --  H 12           +3.2% ( 18.4%)   100.0%
 TRAVEL      0.1253        C  6 --  H 20           +3.0% ( 17.5%)    97.6%
 RED. MASS   0.7279        C  6 --  H 19           +2.2% ( 15.2%)    96.0%
 EFF. MASS   1.4525

 VIBRATION   69   69A       ATOM PAIR        ENERGY CONTRIBUTION    RADIAL
 FREQ.      3015.85        C  6 --  H 19          +59.2% ( 75.9%)    98.7%
 T-DIPOLE    0.0446        C  6 --  H 20          +38.1% ( 60.9%)    96.1%
 TRAVEL      0.1320        C  9 --  H 25           +1.0% (  9.8%)    99.8%
 RED. MASS   0.4896        C  6 --  C  9           +0.7% (  8.1%)    30.1%
 EFF. MASS   1.2824

 VIBRATION   70   70A       ATOM PAIR        ENERGY CONTRIBUTION    RADIAL
 FREQ.      3027.98        C  5 --  H 17          +55.8% ( 73.6%)    98.4%
 T-DIPOLE    0.0219        C  5 --  H 18          +42.0% ( 63.8%)    96.8%
 TRAVEL      0.1321        C  5 --  C  7           +0.6% (  7.8%)    26.1%
 RED. MASS   0.4828        C  1 --  C  5           +0.6% (  7.7%)    28.7%
 EFF. MASS   1.2764

 VIBRATION   71   71A       ATOM PAIR        ENERGY CONTRIBUTION    RADIAL
 FREQ.      3032.45        C  4 --  H 16          +60.8% ( 81.2%)    98.1%
 T-DIPOLE    0.0865        C  4 --  H 15          +35.1% ( 61.6%)    94.9%
 TRAVEL      0.1203        C  3 --  C  4           +1.1% ( 11.0%)     0.9%
 RED. MASS   0.5435        C  1 --  C  4           +1.1% ( 11.0%)     0.2%
 EFF. MASS   1.5374

 VIBRATION   72   72A       ATOM PAIR        ENERGY CONTRIBUTION    RADIAL
 FREQ.      3036.41        C  9 --  H 25          +95.4% ( 99.0%)   100.0%
 T-DIPOLE    0.2511        C  9 --  C 11           +1.4% ( 12.1%)    31.6%
 TRAVEL      0.1216        C  6 --  C  9           +1.3% ( 11.6%)    13.0%
 RED. MASS   0.8943        C  6 --  H 19           +0.9% (  9.7%)    99.6%
 EFF. MASS   1.5009

 VIBRATION   73   73A       ATOM PAIR        ENERGY CONTRIBUTION    RADIAL
 FREQ.      3038.90        C  8 --  H 24          +96.2% ( 99.5%)   100.0%
 T-DIPOLE    0.2355        C  8 --  C 10           +1.4% ( 12.1%)    31.0%
 TRAVEL      0.1215        C  3 --  C  8           +1.3% ( 11.8%)    14.7%
 RED. MASS   0.9113        C 10 --  H 28           +0.9% (  9.5%)    95.1%
 EFF. MASS   1.5035

 VIBRATION   74   74A       ATOM PAIR        ENERGY CONTRIBUTION    RADIAL
 FREQ.      3076.06        C  7 --  H 23          +60.3% ( 80.1%)    98.3%
 T-DIPOLE    0.0103        C  7 --  H 21          +35.9% ( 61.8%)    94.6%
 TRAVEL      0.1208        C  7 --  H 22           +2.6% ( 16.7%)    32.8%
 RED. MASS   0.5199        C  5 --  C  7           +1.0% ( 10.2%)     0.0%
 EFF. MASS   1.5015

 VIBRATION   75   75A       ATOM PAIR        ENERGY CONTRIBUTION    RADIAL
 FREQ.      3084.47        C  7 --  H 22          +59.4% ( 79.5%)    98.5%
 T-DIPOLE    0.0026        C  7 --  H 21          +30.1% ( 56.6%)    92.5%
 TRAVEL      0.1206        C  7 --  H 23           +9.0% ( 31.0%)    70.8%
 RED. MASS   0.4808        C  5 --  C  7           +1.0% ( 10.3%)     0.0%
 EFF. MASS   1.5041

 VIBRATION   76   76A       ATOM PAIR        ENERGY CONTRIBUTION    RADIAL
 FREQ.      3100.37        C  4 --  H 15          +63.1% ( 78.8%)    98.6%
 T-DIPOLE    0.0825        C  4 --  H 16          +34.8% ( 58.6%)    94.5%
 TRAVEL      0.1300        C  3 --  C  4           +0.7% (  8.3%)    96.6%
 RED. MASS   0.5185        C  2 --  C  4           +0.7% (  8.3%)    47.6%
 EFF. MASS   1.2879

 VIBRATION   77   77A       ATOM PAIR        ENERGY CONTRIBUTION    RADIAL
 FREQ.      3133.58        C 10 --  H 29          +93.0% ( 98.1%)    99.9%
 T-DIPOLE    0.1906        C 10 --  H 28           +5.7% ( 24.2%)    67.2%
 TRAVEL      0.1185        C  8 --  C 10           +1.3% ( 11.7%)    24.4%
 RED. MASS   0.8701
 EFF. MASS   1.5335

 VIBRATION   78   78A       ATOM PAIR        ENERGY CONTRIBUTION    RADIAL
 FREQ.      3135.36        C 11 --  H 26          +91.8% ( 97.5%)    99.9%
 T-DIPOLE    0.1946        C 11 --  H 27           +6.9% ( 26.7%)    71.6%
 TRAVEL      0.1182        C  9 --  C 11           +1.3% ( 11.7%)    22.0%
 RED. MASS   0.8528
 EFF. MASS   1.5386

 VIBRATION   79   79A       ATOM PAIR        ENERGY CONTRIBUTION    RADIAL
 FREQ.      3147.02        C 10 --  H 28          +92.5% ( 96.9%)    99.7%
 T-DIPOLE    0.2552        C 10 --  H 29           +4.7% ( 21.9%)    32.8%
 TRAVEL      0.1207        C  8 --  C 10           +1.6% ( 12.7%)    70.5%
 RED. MASS   0.8316        C  8 --  H 24           +0.7% (  8.7%)    94.7%
 EFF. MASS   1.4707

 VIBRATION   80   80A       ATOM PAIR        ENERGY CONTRIBUTION    RADIAL
 FREQ.      3147.65        C 11 --  H 27          +91.5% ( 96.3%)    99.7%
 T-DIPOLE    0.2566        C 11 --  H 26           +5.8% ( 24.3%)    41.7%
 TRAVEL      0.1209        C  9 --  C 11           +1.6% ( 12.7%)    73.0%
 RED. MASS   0.8131        C  9 --  H 25           +0.7% (  8.4%)    94.4%
 EFF. MASS   1.4648

 VIBRATION   81   81A       ATOM PAIR        ENERGY CONTRIBUTION    RADIAL
 FREQ.      3179.07        C  7 --  H 22          +37.4% ( 58.8%)    97.7%
 T-DIPOLE    0.0110        C  7 --  H 21          +33.1% ( 55.4%)    97.1%
 TRAVEL      0.1366        C  7 --  H 23          +29.2% ( 52.0%)    96.3%
 RED. MASS   0.3297        C  5 --  C  7           +0.3% (  5.1%)    99.2%
 EFF. MASS   1.1370

 SYMMETRY NUMBER FOR POINT-GROUP C1  =  1


          SYSTEM IS A GROUND STATE


    NULL



          MOLECULE IS NOT LINEAR

          THERE ARE 81 GENUINE VIBRATIONS IN THIS SYSTEM
          THIS THERMODYNAMICS CALCULATION IS LIMITED TO
          MOLECULES WHICH HAVE NO INTERNAL ROTATIONS




                    CALCULATED THERMODYNAMIC PROPERTIES
                                          *
   TEMP. (K)   PARTITION FUNCTION   H.O.F.    ENTHALPY  HEAT CAPACITY ENTROPY
                                   KCAL/MOL   CAL/MOLE    CAL/K/MOL  CAL/K/MOL


 298.00  VIB.     0.2313D+05                  6068.7900    40.8051    40.3339
         ROT.     0.1190D+07                   888.2813     2.9808    30.7814
         INT.     0.2753D+11                  6957.0713    43.7859    71.1152
         TRA.     0.1781D+28                  1480.4688     4.9680    40.9296
         TOT.                       15.987    8437.5401    48.7539   112.0448

 200.00  VIB.     0.7757D+03                  2800.7468    26.4108    27.2261
         ROT.     0.6545D+06                   596.1620     2.9808    29.5927
         INT.     0.5077D+09                  3396.9088    29.3916    56.8188
         TRA.     0.9791D+27                   993.6033     4.9680    38.9485
         TOT.                       11.940    4390.5120    34.3597    95.7673

 210.00  VIB.     0.1102D+04                  3071.3692    27.7204    28.5462
         ROT.     0.7042D+06                   625.9700     2.9808    29.7381
         INT.     0.7762D+09                  3697.3393    30.7012    58.2843
         TRA.     0.1053D+28                  1043.2834     4.9680    39.1909
         TOT.                       12.290    4740.6227    35.6692    97.4752

 220.00  VIB.     0.1564D+04                  3355.2925    29.0711    29.8668
         ROT.     0.7551D+06                   655.7781     2.9808    29.8768
         INT.     0.1181D+10                  4011.0706    32.0519    59.7436
         TRA.     0.1130D+28                  1092.9636     4.9680    39.4220
         TOT.                       12.653    5104.0342    37.0199    99.1656

 230.00  VIB.     0.2215D+04                  3652.9284    30.4628    31.1896
         ROT.     0.8071D+06                   685.5862     2.9808    30.0093
         INT.     0.1788D+10                  4338.5146    33.4436    61.1989
         TRA.     0.1207D+28                  1142.6437     4.9680    39.6428
         TOT.                       13.031    5481.1583    38.4116   100.8417

 240.00  VIB.     0.3133D+04                  3964.6806    31.8941    32.5162
         ROT.     0.8603D+06                   715.3943     2.9808    30.1362
         INT.     0.2696D+10                  4680.0749    34.8749    62.6523
         TRA.     0.1287D+28                  1192.3239     4.9680    39.8543
         TOT.                       13.422    5872.3988    39.8429   102.5066

 250.00  VIB.     0.4428D+04                  4290.9330    33.3624    33.8478
         ROT.     0.9147D+06                   745.2024     2.9808    30.2579
         INT.     0.4050D+10                  5036.1355    36.3432    64.1056
         TRA.     0.1368D+28                  1242.0041     4.9680    40.0571
         TOT.                       13.828    6278.1395    41.3112   104.1627

 260.00  VIB.     0.6253D+04                  4632.0401    34.8644    35.1854
         ROT.     0.9701D+06                   775.0105     2.9808    30.3748
         INT.     0.6066D+10                  5407.0506    37.8452    65.5602
         TRA.     0.1451D+28                  1291.6842     4.9680    40.2519
         TOT.                       14.248    6698.7348    42.8132   105.8121

 270.00  VIB.     0.8826D+04                  4988.3192    36.3961    36.5299
         ROT.     0.1027D+07                   804.8186     2.9808    30.4873
         INT.     0.9061D+10                  5793.1379    39.3769    67.0171
         TRA.     0.1536D+28                  1341.3644     4.9680    40.4394
         TOT.                       14.684    7134.5023    44.3449   107.4565

 280.00  VIB.     0.1245D+05                  5360.0462    37.9532    37.8816
         ROT.     0.1084D+07                   834.6267     2.9808    30.5957
         INT.     0.1350D+11                  6194.6729    40.9340    68.4772
         TRA.     0.1622D+28                  1391.0445     4.9680    40.6201
         TOT.                       15.135    7585.7175    45.9020   109.0973

 290.00  VIB.     0.1756D+05                  5747.4517    39.5310    39.2409
         ROT.     0.1143D+07                   864.4348     2.9808    30.7003
         INT.     0.2007D+11                  6611.8865    42.5118    69.9411
         TRA.     0.1710D+28                  1440.7247     4.9680    40.7944
         TOT.                       15.602    8052.6112    47.4798   110.7356

 300.00  VIB.     0.2477D+05                  6150.7199    41.1249    40.6079
         ROT.     0.1202D+07                   894.2429     2.9808    30.8013
         INT.     0.2978D+11                  7044.9629    44.1057    71.4092
         TRA.     0.1799D+28                  1490.4049     4.9680    40.9628
         TOT.                       16.085    8535.3677    49.0738   112.3720

 310.00  VIB.     0.3494D+05                  6569.9887    42.7303    41.9825
         ROT.     0.1263D+07                   924.0510     2.9808    30.8991
         INT.     0.4413D+11                  7494.0397    45.7112    72.8816
         TRA.     0.1889D+28                  1540.0850     4.9680    41.1257
         TOT.                       16.584    9034.1247    50.6792   114.0073

 320.00  VIB.     0.4929D+05                  7005.3501    44.3428    43.3646
         ROT.     0.1325D+07                   953.8591     2.9808    30.9937
         INT.     0.6529D+11                  7959.2093    47.3236    74.3583
         TRA.     0.1982D+28                  1589.7652     4.9680    41.2835
         TOT.                       17.098    9548.9745    52.2916   115.6417

 330.00  VIB.     0.6956D+05                  7456.8532    45.9580    44.7538
         ROT.     0.1387D+07                   983.6672     2.9808    31.0854
         INT.     0.9649D+11                  8440.5204    48.9388    75.8392
         TRA.     0.2075D+28                  1639.4454     4.9680    41.4364
         TOT.                       17.629   10079.9658    53.9068   117.2756

 340.00  VIB.     0.9820D+05                  7924.5056    47.5720    46.1498
         ROT.     0.1451D+07                  1013.4753     2.9808    31.1744
         INT.     0.1425D+12                  8937.9810    50.5528    77.3242
         TRA.     0.2170D+28                  1689.1255     4.9680    41.5847
         TOT.                       18.177   10627.1065    55.5208   118.9088

 350.00  VIB.     0.1387D+06                  8408.2774    49.1813    47.5520
         ROT.     0.1515D+07                  1043.2834     2.9808    31.2608
         INT.     0.2101D+12                  9451.5608    52.1621    78.8128
         TRA.     0.2267D+28                  1738.8057     4.9680    41.7287
         TOT.                       18.740   11190.3665    57.1301   120.5415

 360.00  VIB.     0.1959D+06                  8908.1038    50.7824    48.9599
         ROT.     0.1581D+07                  1073.0915     2.9808    31.3448
         INT.     0.3097D+12                  9981.1953    53.7632    80.3047
         TRA.     0.2364D+28                  1788.4859     4.9680    41.8686
         TOT.                       19.319   11769.6812    58.7312   122.1733

 370.00  VIB.     0.2770D+06                  9423.8888    52.3725    50.3730
         ROT.     0.1647D+07                  1102.8996     2.9808    31.4265
         INT.     0.4561D+12                 10526.7885    55.3533    81.7995
         TRA.     0.2464D+28                  1838.1660     4.9680    42.0047
         TOT.                       19.914   12364.9545    60.3214   123.8042

 380.00  VIB.     0.3917D+06                  9955.5088    53.9490    51.7907
         ROT.     0.1714D+07                  1132.7077     2.9808    31.5059
         INT.     0.6715D+12                 11088.2165    56.9298    83.2966
         TRA.     0.2564D+28                  1887.8462     4.9680    42.1372
         TOT.                       20.526   12976.0627    61.8978   125.4339

 390.00  VIB.     0.5544D+06                 10502.8157    55.5095    53.2122
         ROT.     0.1782D+07                  1162.5158     2.9808    31.5834
         INT.     0.9880D+12                 11665.3315    58.4904    84.7956
         TRA.     0.2666D+28                  1937.5263     4.9680    42.2663
         TOT.                       21.152   13602.8578    63.4584   127.0619

 400.00  VIB.     0.7849D+06                 11065.6401    57.0522    54.6371
         ROT.     0.1851D+07                  1192.3239     2.9808    31.6588
         INT.     0.1453D+13                 12257.9640    60.0330    86.2960
         TRA.     0.2769D+28                  1987.2065     4.9680    42.3921
         TOT.                       21.795   14245.1705    65.0011   128.6880

   *: NOTE: HEATS OF FORMATION ARE RELATIVE TO THE
            ELEMENTS IN THEIR STANDARD STATE AT 298K
              (=  Standard Enthalpy of Formation).

            Hvib:  Zero-point energy is not included.
                   frequencies of less than zero cm-1 are not included.
            Hrot = (3/2)RT
            Htra = (3/2)RT + pV = (5/2)RT

            Heat capacity is Cp, not Cv

           For more information, see: HTTP://OpenMOPAC.net/Manual/thermochemistry.html


           FORCE CONSTANT IN CARTESIAN COORDINATES (Millidynes/A)

    ATOM   CHEMICAL       X               Y               Z
   NUMBER   SYMBOL  FORCE CONSTANT  FORCE CONSTANT  FORCE CONSTANT

      1       C        9.665478        6.239788        8.703904
      2       C        9.646883        6.247115        8.694603
      3       C        5.804907        9.770454        9.343879
      4       C        6.056302        9.760889        8.643311
      5       C        8.396272        8.431995        8.270727
      6       C        8.720409        8.837093        8.009480
      7       C        8.349509        8.206442        8.337021
      8       C        2.524973       15.621187        9.202318
      9       C       15.135745        8.950090        3.065328
     10       C        1.963365       15.476638        9.038357
     11       C       15.091607        8.891522        2.518862
     12       H        1.994518        0.679838        3.593312
     13       H        2.000678        0.676469        3.595125
     14       H        0.685021        2.063567        3.501921
     15       H        0.667675        2.389656        3.577515
     16       H        0.690474        2.145120        3.777723
     17       H        1.675959        4.003690        0.696393
     18       H        1.982353        0.749694        3.646733
     19       H        1.658284        4.019318        0.686812
     20       H        1.896153        0.723007        3.629741
     21       H        2.245146        0.747737        3.789977
     22       H        2.306546        0.704369        3.782749
     23       H        1.712999        4.365752        0.674171
     24       H        0.362857        1.741887        4.107577
     25       H        1.342184        4.256003        0.594915
     26       H        1.480023        4.396982        0.588286
     27       H        2.682089        3.434246        0.361767
     28       H        0.339359        2.226840        3.910132
     29       H        0.339788        1.934250        4.180024



 TOTAL CPU TIME:             6.54 SECONDS

 == MOPAC DONE ==
