 *******************************************************************************
 ** Site#: 14399           For non-commercial use only        Version 13.159M **
 *******************************************************************************
 ** Cite this work as: MOPAC2012, James J. P. Stewart, Stewart Computational  **
 ** Chemistry, Version 13.159M web: HTTP://OpenMOPAC.net  Days remaining:   6 **
 *******************************************************************************
 **                                                                           **
 **                                MOPAC2012                                  **
 **                                                                           **
 *******************************************************************************

                            PM3 CALCULATION RESULTS


 *******************************************************************************
 *  CALCULATION DONE:                                Mon Jun  2 11:05:49 2014  *
 *  PM3      - The PM3 Hamiltonian to be used
 *  PRECISE  - CRITERIA TO BE INCREASED BY 100 TIMES
 *  NOSYM    - POINT-GROUP SYMMETRY SET TO C1
 *  T=       - A TIME OF 172800.0 SECONDS REQUESTED
 *  DUMP=N   - RESTART FILE WRITTEN EVERY  7200.000 SECONDS
 *******************************************************************************
pm3  precise nosym
 InChI=1S/C11H18/c1-4-7-10-8-9(5-2)11(10)6-3/h4-5,9-11H,1-2,6-8H2,3H3

   ATOM   CHEMICAL          X               Y               Z
  NUMBER   SYMBOL      (ANGSTROMS)     (ANGSTROMS)     (ANGSTROMS)
 
     1       C         -0.46460000  *   0.16750000  *   0.22360000  *
     2       C          0.05280000  *   0.04030000  *  -1.21540000  *
     3       C         -1.74740000  *  -0.61750000  *  -0.21330000  *
     4       C         -1.12290000  *  -0.80280000  *  -1.59380000  *
     5       C         -0.75830000  *   1.59260000  *   0.71120000  *
     6       C          1.40770000  *  -0.66830000  *  -1.35710000  *
     7       C          0.50640000  *   2.38650000  *   1.01700000  *
     8       C         -1.99110000  *  -1.88440000  *   0.56310000  *
     9       C          2.53710000  *   0.21330000  *  -0.90610000  *
    10       C         -2.40190000  *  -1.85140000  *   1.83250000  *
    11       C          3.32540000  *  -0.09480000  *   0.12630000  *
    12       H          0.14810000  *  -0.39610000  *   0.96960000  *
    13       H          0.04000000  *   1.00420000  *  -1.78080000  *
    14       H         -2.67160000  *   0.00680000  *  -0.27230000  *
    15       H         -1.74000000  *  -0.33930000  *  -2.39920000  *
    16       H         -0.87660000  *  -1.85930000  *  -1.85670000  *
    17       H         -1.36220000  *   1.52450000  *   1.64540000  *
    18       H         -1.36840000  *   2.15660000  *  -0.03270000  *
    19       H          1.58060000  *  -0.91060000  *  -2.43060000  *
    20       H          1.39940000  *  -1.64310000  *  -0.81280000  *
    21       H          1.14400000  *   1.85350000  *   1.75880000  *
    22       H          0.23450000  *   3.37880000  *   1.44290000  *
    23       H          1.09560000  *   2.56680000  *   0.09010000  *
    24       H         -1.84700000  *  -2.85420000  *   0.08860000  *
    25       H          2.71250000  *   1.14630000  *  -1.44030000  *
    26       H          4.12700000  *   0.58020000  *   0.41960000  *
    27       H          3.18560000  *  -1.01050000  *   0.69830000  *
    28       H         -2.57850000  *  -2.77840000  *   2.37450000  *
    29       H         -2.56640000  *  -0.90720000  *   2.34950000  *
 


          CARTESIAN COORDINATES 

    NO.       ATOM         X         Y         Z

     1         C       -0.4646    0.1675    0.2236
     2         C        0.0528    0.0403   -1.2154
     3         C       -1.7474   -0.6175   -0.2133
     4         C       -1.1229   -0.8028   -1.5938
     5         C       -0.7583    1.5926    0.7112
     6         C        1.4077   -0.6683   -1.3571
     7         C        0.5064    2.3865    1.0170
     8         C       -1.9911   -1.8844    0.5631
     9         C        2.5371    0.2133   -0.9061
    10         C       -2.4019   -1.8514    1.8325
    11         C        3.3254   -0.0948    0.1263
    12         H        0.1481   -0.3961    0.9696
    13         H        0.0400    1.0042   -1.7808
    14         H       -2.6716    0.0068   -0.2723
    15         H       -1.7400   -0.3393   -2.3992
    16         H       -0.8766   -1.8593   -1.8567
    17         H       -1.3622    1.5245    1.6454
    18         H       -1.3684    2.1566   -0.0327
    19         H        1.5806   -0.9106   -2.4306
    20         H        1.3994   -1.6431   -0.8128
    21         H        1.1440    1.8535    1.7588
    22         H        0.2345    3.3788    1.4429
    23         H        1.0956    2.5668    0.0901
    24         H       -1.8470   -2.8542    0.0886
    25         H        2.7125    1.1463   -1.4403
    26         H        4.1270    0.5802    0.4196
    27         H        3.1856   -1.0105    0.6983
    28         H       -2.5785   -2.7784    2.3745
    29         H       -2.5664   -0.9072    2.3495

  H: (PM3): J. J. P. STEWART, J. COMP. CHEM. 10, 209 (1989).
  C: (PM3): J. J. P. STEWART, J. COMP. CHEM. 10, 209 (1989).

           Empirical Formula: C11 H18  =    29 atoms



      MOLECULAR POINT GROUP   :   C1  


      RHF CALCULATION, NO. OF DOUBLY OCCUPIED LEVELS =   31

      Geometry optimization using EF

          DIAGONAL MATRIX USED AS START HESSIAN

 CYCLE:     1 TIME:   0.014 TIME LEFT:  2.00D  GRAD.:    98.117 HEAT: 21.29868
 CYCLE:     2 TIME:   0.030 TIME LEFT:  2.00D  GRAD.:    44.644 HEAT: 18.97864
 CYCLE:     3 TIME:   0.021 TIME LEFT:  2.00D  GRAD.:    51.240 HEAT: 18.45647
 CYCLE:     4 TIME:   0.012 TIME LEFT:  2.00D  GRAD.:    35.692 HEAT: 17.90105
 CYCLE:     5 TIME:   0.021 TIME LEFT:  2.00D  GRAD.:    33.862 HEAT: 17.57069
 CYCLE:     6 TIME:   0.012 TIME LEFT:  2.00D  GRAD.:    47.315 HEAT: 17.51627
 CYCLE:     7 TIME:   0.012 TIME LEFT:  2.00D  GRAD.:    26.510 HEAT: 17.05271
 CYCLE:     8 TIME:   0.021 TIME LEFT:  2.00D  GRAD.:    22.795 HEAT: 16.91347
 CYCLE:     9 TIME:   0.011 TIME LEFT:  2.00D  GRAD.:    16.633 HEAT: 16.77957
 CYCLE:    10 TIME:   0.021 TIME LEFT:  2.00D  GRAD.:    17.941 HEAT: 16.74585
 CYCLE:    11 TIME:   0.011 TIME LEFT:  2.00D  GRAD.:    14.607 HEAT: 16.70106
 CYCLE:    12 TIME:   0.020 TIME LEFT:  2.00D  GRAD.:     7.773 HEAT: 16.64951
 CYCLE:    13 TIME:   0.011 TIME LEFT:  2.00D  GRAD.:     8.455 HEAT: 16.63718
 CYCLE:    14 TIME:   0.011 TIME LEFT:  2.00D  GRAD.:     9.803 HEAT: 16.61880
 CYCLE:    15 TIME:   0.011 TIME LEFT:  2.00D  GRAD.:    11.489 HEAT: 16.61580
 CYCLE:    16 TIME:   0.011 TIME LEFT:  2.00D  GRAD.:     7.632 HEAT: 16.59027
 CYCLE:    17 TIME:   0.020 TIME LEFT:  2.00D  GRAD.:     4.937 HEAT: 16.57602
 CYCLE:    18 TIME:   0.011 TIME LEFT:  2.00D  GRAD.:     5.418 HEAT: 16.57333
 CYCLE:    19 TIME:   0.011 TIME LEFT:  2.00D  GRAD.:     4.998 HEAT: 16.56586
 CYCLE:    20 TIME:   0.011 TIME LEFT:  2.00D  GRAD.:     4.783 HEAT: 16.56117
 CYCLE:    21 TIME:   0.011 TIME LEFT:  2.00D  GRAD.:     5.444 HEAT: 16.55500
 CYCLE:    22 TIME:   0.011 TIME LEFT:  2.00D  GRAD.:     5.205 HEAT: 16.55086
 CYCLE:    23 TIME:   0.011 TIME LEFT:  2.00D  GRAD.:     5.319 HEAT: 16.54576
 CYCLE:    24 TIME:   0.011 TIME LEFT:  2.00D  GRAD.:     5.259 HEAT: 16.54322
 CYCLE:    25 TIME:   0.011 TIME LEFT:  2.00D  GRAD.:     4.516 HEAT: 16.53655
 CYCLE:    26 TIME:   0.011 TIME LEFT:  2.00D  GRAD.:     4.259 HEAT: 16.53406
 CYCLE:    27 TIME:   0.011 TIME LEFT:  2.00D  GRAD.:     2.193 HEAT: 16.52683
 CYCLE:    28 TIME:   0.011 TIME LEFT:  2.00D  GRAD.:     2.937 HEAT: 16.52421
 CYCLE:    29 TIME:   0.011 TIME LEFT:  2.00D  GRAD.:     2.915 HEAT: 16.51920
 CYCLE:    30 TIME:   0.011 TIME LEFT:  2.00D  GRAD.:     2.484 HEAT: 16.51263
 CYCLE:    31 TIME:   0.011 TIME LEFT:  2.00D  GRAD.:     3.355 HEAT: 16.50737
 CYCLE:    32 TIME:   0.011 TIME LEFT:  2.00D  GRAD.:     2.832 HEAT: 16.49900
 CYCLE:    33 TIME:   0.011 TIME LEFT:  2.00D  GRAD.:     4.320 HEAT: 16.49046
 CYCLE:    34 TIME:   0.011 TIME LEFT:  2.00D  GRAD.:     3.457 HEAT: 16.47896
 CYCLE:    35 TIME:   0.011 TIME LEFT:  2.00D  GRAD.:     3.109 HEAT: 16.46918
 CYCLE:    36 TIME:   0.011 TIME LEFT:  2.00D  GRAD.:     4.028 HEAT: 16.45747
 CYCLE:    37 TIME:   0.011 TIME LEFT:  2.00D  GRAD.:     4.216 HEAT: 16.44565
 CYCLE:    38 TIME:   0.011 TIME LEFT:  2.00D  GRAD.:     4.446 HEAT: 16.43801
 CYCLE:    39 TIME:   0.011 TIME LEFT:  2.00D  GRAD.:     2.910 HEAT: 16.42915
 CYCLE:    40 TIME:   0.011 TIME LEFT:  2.00D  GRAD.:     3.125 HEAT: 16.42290
 CYCLE:    41 TIME:   0.011 TIME LEFT:  2.00D  GRAD.:     3.087 HEAT: 16.41570
 CYCLE:    42 TIME:   0.011 TIME LEFT:  2.00D  GRAD.:     2.118 HEAT: 16.40559
 CYCLE:    43 TIME:   0.011 TIME LEFT:  2.00D  GRAD.:     2.786 HEAT: 16.39993
 CYCLE:    44 TIME:   0.011 TIME LEFT:  2.00D  GRAD.:     2.785 HEAT: 16.39350
 CYCLE:    45 TIME:   0.011 TIME LEFT:  2.00D  GRAD.:     2.334 HEAT: 16.38649
 CYCLE:    46 TIME:   0.011 TIME LEFT:  2.00D  GRAD.:     2.349 HEAT: 16.37978
 CYCLE:    47 TIME:   0.011 TIME LEFT:  2.00D  GRAD.:     2.192 HEAT: 16.37441
 CYCLE:    48 TIME:   0.011 TIME LEFT:  2.00D  GRAD.:     2.954 HEAT: 16.36883
 CYCLE:    49 TIME:   0.011 TIME LEFT:  2.00D  GRAD.:     1.832 HEAT: 16.36161
 CYCLE:    50 TIME:   0.011 TIME LEFT:  2.00D  GRAD.:     1.870 HEAT: 16.35730
 CYCLE:    51 TIME:   0.011 TIME LEFT:  2.00D  GRAD.:     1.686 HEAT: 16.35313
 CYCLE:    52 TIME:   0.011 TIME LEFT:  2.00D  GRAD.:     1.395 HEAT: 16.34863
 CYCLE:    53 TIME:   0.011 TIME LEFT:  2.00D  GRAD.:     1.313 HEAT: 16.34421
 CYCLE:    54 TIME:   0.011 TIME LEFT:  2.00D  GRAD.:     1.351 HEAT: 16.33996
 CYCLE:    55 TIME:   0.011 TIME LEFT:  2.00D  GRAD.:     1.468 HEAT: 16.33375
 CYCLE:    56 TIME:   0.011 TIME LEFT:  2.00D  GRAD.:     1.535 HEAT: 16.32883
 CYCLE:    57 TIME:   0.011 TIME LEFT:  2.00D  GRAD.:     1.434 HEAT: 16.32397
 CYCLE:    58 TIME:   0.011 TIME LEFT:  2.00D  GRAD.:     1.351 HEAT: 16.31932
 CYCLE:    59 TIME:   0.011 TIME LEFT:  2.00D  GRAD.:     1.103 HEAT: 16.31486
 CYCLE:    60 TIME:   0.011 TIME LEFT:  2.00D  GRAD.:     0.827 HEAT: 16.31191
 CYCLE:    61 TIME:   0.011 TIME LEFT:  2.00D  GRAD.:     0.690 HEAT: 16.31017
 CYCLE:    62 TIME:   0.012 TIME LEFT:  2.00D  GRAD.:     0.635 HEAT: 16.30894
 CYCLE:    63 TIME:   0.018 TIME LEFT:  2.00D  GRAD.:     0.652 HEAT: 16.30777
 CYCLE:    64 TIME:   0.012 TIME LEFT:  2.00D  GRAD.:     0.721 HEAT: 16.30650
 CYCLE:    65 TIME:   0.011 TIME LEFT:  2.00D  GRAD.:     0.857 HEAT: 16.30480
 CYCLE:    66 TIME:   0.012 TIME LEFT:  2.00D  GRAD.:     0.996 HEAT: 16.30242
 CYCLE:    67 TIME:   0.012 TIME LEFT:  2.00D  GRAD.:     1.122 HEAT: 16.29901
 CYCLE:    68 TIME:   0.012 TIME LEFT:  2.00D  GRAD.:     1.019 HEAT: 16.29692
 CYCLE:    69 TIME:   0.012 TIME LEFT:  2.00D  GRAD.:     1.253 HEAT: 16.29322
 CYCLE:    70 TIME:   0.014 TIME LEFT:  2.00D  GRAD.:     1.079 HEAT: 16.29144
 CYCLE:    71 TIME:   0.012 TIME LEFT:  2.00D  GRAD.:     1.032 HEAT: 16.28654
 CYCLE:    72 TIME:   0.012 TIME LEFT:  2.00D  GRAD.:     0.797 HEAT: 16.28517
 CYCLE:    73 TIME:   0.012 TIME LEFT:  2.00D  GRAD.:     0.776 HEAT: 16.28328
 CYCLE:    74 TIME:   0.011 TIME LEFT:  2.00D  GRAD.:     0.605 HEAT: 16.28255
 CYCLE:    75 TIME:   0.012 TIME LEFT:  2.00D  GRAD.:     0.814 HEAT: 16.28067
 CYCLE:    76 TIME:   0.011 TIME LEFT:  2.00D  GRAD.:     0.647 HEAT: 16.27989
 CYCLE:    77 TIME:   0.011 TIME LEFT:  2.00D  GRAD.:     0.625 HEAT: 16.27826
 CYCLE:    78 TIME:   0.012 TIME LEFT:  2.00D  GRAD.:     0.829 HEAT: 16.27677
 CYCLE:    79 TIME:   0.012 TIME LEFT:  2.00D  GRAD.:     1.013 HEAT: 16.27440
 CYCLE:    80 TIME:   0.012 TIME LEFT:  2.00D  GRAD.:     0.982 HEAT: 16.27253
 CYCLE:    81 TIME:   0.012 TIME LEFT:  2.00D  GRAD.:     1.532 HEAT: 16.26695
 CYCLE:    82 TIME:   0.011 TIME LEFT:  2.00D  GRAD.:     1.129 HEAT: 16.26487
 CYCLE:    83 TIME:   0.012 TIME LEFT:  2.00D  GRAD.:     0.733 HEAT: 16.26216
 CYCLE:    84 TIME:   0.012 TIME LEFT:  2.00D  GRAD.:     0.740 HEAT: 16.25977
 CYCLE:    85 TIME:   0.013 TIME LEFT:  2.00D  GRAD.:     0.861 HEAT: 16.25793
 CYCLE:    86 TIME:   0.015 TIME LEFT:  2.00D  GRAD.:     0.791 HEAT: 16.25612
 CYCLE:    87 TIME:   0.012 TIME LEFT:  2.00D  GRAD.:     0.681 HEAT: 16.25452
 CYCLE:    88 TIME:   0.012 TIME LEFT:  2.00D  GRAD.:     0.504 HEAT: 16.25356
 CYCLE:    89 TIME:   0.011 TIME LEFT:  2.00D  GRAD.:     0.366 HEAT: 16.25306
 CYCLE:    90 TIME:   0.011 TIME LEFT:  2.00D  GRAD.:     0.316 HEAT: 16.25275
 CYCLE:    91 TIME:   0.011 TIME LEFT:  2.00D  GRAD.:     0.342 HEAT: 16.25249
 CYCLE:    92 TIME:   0.011 TIME LEFT:  2.00D  GRAD.:     0.421 HEAT: 16.25219
 CYCLE:    93 TIME:   0.011 TIME LEFT:  2.00D  GRAD.:     0.390 HEAT: 16.25188
 CYCLE:    94 TIME:   0.011 TIME LEFT:  2.00D  GRAD.:     0.339 HEAT: 16.25157
 CYCLE:    95 TIME:   0.011 TIME LEFT:  2.00D  GRAD.:     0.338 HEAT: 16.25136
 CYCLE:    96 TIME:   0.011 TIME LEFT:  2.00D  GRAD.:     0.340 HEAT: 16.25113
 CYCLE:    97 TIME:   0.011 TIME LEFT:  2.00D  GRAD.:     0.363 HEAT: 16.25087
 CYCLE:    98 TIME:   0.011 TIME LEFT:  2.00D  GRAD.:     0.357 HEAT: 16.25056
 CYCLE:    99 TIME:   0.011 TIME LEFT:  2.00D  GRAD.:     0.358 HEAT: 16.25031
 CYCLE:   100 TIME:   0.011 TIME LEFT:  2.00D  GRAD.:     0.499 HEAT: 16.24985
 CYCLE:   101 TIME:   0.011 TIME LEFT:  2.00D  GRAD.:     0.438 HEAT: 16.24957
 CYCLE:   102 TIME:   0.012 TIME LEFT:  2.00D  GRAD.:     0.635 HEAT: 16.24872
 CYCLE:   103 TIME:   0.011 TIME LEFT:  2.00D  GRAD.:     0.376 HEAT: 16.24837
 CYCLE:   104 TIME:   0.011 TIME LEFT:  2.00D  GRAD.:     0.249 HEAT: 16.24798
 CYCLE:   105 TIME:   0.011 TIME LEFT:  2.00D  GRAD.:     0.248 HEAT: 16.24773
 CYCLE:   106 TIME:   0.011 TIME LEFT:  2.00D  GRAD.:     0.232 HEAT: 16.24748
 CYCLE:   107 TIME:   0.011 TIME LEFT:  2.00D  GRAD.:     0.234 HEAT: 16.24731
 CYCLE:   108 TIME:   0.011 TIME LEFT:  2.00D  GRAD.:     0.223 HEAT: 16.24720
 CYCLE:   109 TIME:   0.011 TIME LEFT:  2.00D  GRAD.:     0.361 HEAT: 16.24698
 CYCLE:   110 TIME:   0.011 TIME LEFT:  2.00D  GRAD.:     0.252 HEAT: 16.24683
 CYCLE:   111 TIME:   0.011 TIME LEFT:  2.00D  GRAD.:     0.152 HEAT: 16.24664
 CYCLE:   112 TIME:   0.011 TIME LEFT:  2.00D  GRAD.:     0.168 HEAT: 16.24653
 CYCLE:   113 TIME:   0.012 TIME LEFT:  2.00D  GRAD.:     0.223 HEAT: 16.24635
 CYCLE:   114 TIME:   0.015 TIME LEFT:  2.00D  GRAD.:     0.214 HEAT: 16.24622
 CYCLE:   115 TIME:   0.012 TIME LEFT:  2.00D  GRAD.:     0.198 HEAT: 16.24604
 CYCLE:   116 TIME:   0.011 TIME LEFT:  2.00D  GRAD.:     0.195 HEAT: 16.24592
 CYCLE:   117 TIME:   0.011 TIME LEFT:  2.00D  GRAD.:     0.303 HEAT: 16.24568
 CYCLE:   118 TIME:   0.011 TIME LEFT:  2.00D  GRAD.:     0.249 HEAT: 16.24560
 CYCLE:   119 TIME:   0.012 TIME LEFT:  2.00D  GRAD.:     0.379 HEAT: 16.24525
 CYCLE:   120 TIME:   0.012 TIME LEFT:  2.00D  GRAD.:     0.256 HEAT: 16.24500
 CYCLE:   121 TIME:   0.012 TIME LEFT:  2.00D  GRAD.:     0.218 HEAT: 16.24471
 CYCLE:   122 TIME:   0.011 TIME LEFT:  2.00D  GRAD.:     0.171 HEAT: 16.24465
 CYCLE:   123 TIME:   0.011 TIME LEFT:  2.00D  GRAD.:     0.357 HEAT: 16.24450
 CYCLE:   124 TIME:   0.011 TIME LEFT:  2.00D  GRAD.:     0.255 HEAT: 16.24441
 CYCLE:   125 TIME:   0.011 TIME LEFT:  2.00D  GRAD.:     0.275 HEAT: 16.24421
 CYCLE:   126 TIME:   0.011 TIME LEFT:  2.00D  GRAD.:     0.242 HEAT: 16.24410
 CYCLE:   127 TIME:   0.012 TIME LEFT:  2.00D  GRAD.:     0.384 HEAT: 16.24365
 CYCLE:   128 TIME:   0.011 TIME LEFT:  2.00D  GRAD.:     0.290 HEAT: 16.24342
 CYCLE:   129 TIME:   0.012 TIME LEFT:  2.00D  GRAD.:     0.247 HEAT: 16.24284
 CYCLE:   130 TIME:   0.012 TIME LEFT:  2.00D  GRAD.:     0.274 HEAT: 16.24258
 CYCLE:   131 TIME:   0.012 TIME LEFT:  2.00D  GRAD.:     0.266 HEAT: 16.24227
 CYCLE:   132 TIME:   0.011 TIME LEFT:  2.00D  GRAD.:     0.281 HEAT: 16.24208
 CYCLE:   133 TIME:   0.012 TIME LEFT:  2.00D  GRAD.:     0.454 HEAT: 16.24165
 CYCLE:   134 TIME:   0.012 TIME LEFT:  2.00D  GRAD.:     0.382 HEAT: 16.24122
 CYCLE:   135 TIME:   0.012 TIME LEFT:  2.00D  GRAD.:     0.361 HEAT: 16.24069
 CYCLE:   136 TIME:   0.012 TIME LEFT:  2.00D  GRAD.:     0.512 HEAT: 16.24004
 CYCLE:   137 TIME:   0.012 TIME LEFT:  2.00D  GRAD.:     0.665 HEAT: 16.23930
 CYCLE:   138 TIME:   0.012 TIME LEFT:  2.00D  GRAD.:     0.884 HEAT: 16.23789
 CYCLE:   139 TIME:   0.012 TIME LEFT:  2.00D  GRAD.:     1.125 HEAT: 16.23650
 CYCLE:   140 TIME:   0.012 TIME LEFT:  2.00D  GRAD.:     1.852 HEAT: 16.23223
 CYCLE:   141 TIME:   0.012 TIME LEFT:  2.00D  GRAD.:     1.519 HEAT: 16.22761
 CYCLE:   142 TIME:   0.022 TIME LEFT:  2.00D  GRAD.:     2.797 HEAT: 16.21760
 CYCLE:   143 TIME:   0.021 TIME LEFT:  2.00D  GRAD.:     2.614 HEAT: 16.21943
 CYCLE:   144 TIME:   0.012 TIME LEFT:  2.00D  GRAD.:     1.912 HEAT: 16.20751
 CYCLE:   145 TIME:   0.011 TIME LEFT:  2.00D  GRAD.:     1.226 HEAT: 16.20362
 CYCLE:   146 TIME:   0.012 TIME LEFT:  2.00D  GRAD.:     2.789 HEAT: 16.19916
 CYCLE:   147 TIME:   0.011 TIME LEFT:  2.00D  GRAD.:     1.092 HEAT: 16.19486
 CYCLE:   148 TIME:   0.012 TIME LEFT:  2.00D  GRAD.:     1.139 HEAT: 16.19125
 CYCLE:   149 TIME:   0.012 TIME LEFT:  2.00D  GRAD.:     1.411 HEAT: 16.18941
 CYCLE:   150 TIME:   0.011 TIME LEFT:  2.00D  GRAD.:     0.702 HEAT: 16.18812
 CYCLE:   151 TIME:   0.012 TIME LEFT:  2.00D  GRAD.:     0.685 HEAT: 16.18726
 CYCLE:   152 TIME:   0.012 TIME LEFT:  2.00D  GRAD.:     0.520 HEAT: 16.18643
 CYCLE:   153 TIME:   0.012 TIME LEFT:  2.00D  GRAD.:     0.845 HEAT: 16.18582
 CYCLE:   154 TIME:   0.012 TIME LEFT:  2.00D  GRAD.:     0.520 HEAT: 16.18523
 CYCLE:   155 TIME:   0.012 TIME LEFT:  2.00D  GRAD.:     0.517 HEAT: 16.18463
 CYCLE:   156 TIME:   0.012 TIME LEFT:  2.00D  GRAD.:     0.459 HEAT: 16.18426
 CYCLE:   157 TIME:   0.011 TIME LEFT:  2.00D  GRAD.:     0.540 HEAT: 16.18370
 CYCLE:   158 TIME:   0.012 TIME LEFT:  2.00D  GRAD.:     0.479 HEAT: 16.18311
 CYCLE:   159 TIME:   0.012 TIME LEFT:  2.00D  GRAD.:     0.405 HEAT: 16.18265
 CYCLE:   160 TIME:   0.011 TIME LEFT:  2.00D  GRAD.:     0.404 HEAT: 16.18238
 CYCLE:   161 TIME:   0.012 TIME LEFT:  2.00D  GRAD.:     0.316 HEAT: 16.18216
 CYCLE:   162 TIME:   0.012 TIME LEFT:  2.00D  GRAD.:     0.348 HEAT: 16.18196
 CYCLE:   163 TIME:   0.011 TIME LEFT:  2.00D  GRAD.:     0.408 HEAT: 16.18166
 CYCLE:   164 TIME:   0.011 TIME LEFT:  2.00D  GRAD.:     0.504 HEAT: 16.18126
 CYCLE:   165 TIME:   0.012 TIME LEFT:  2.00D  GRAD.:     0.650 HEAT: 16.18047
 CYCLE:   166 TIME:   0.012 TIME LEFT:  2.00D  GRAD.:     1.036 HEAT: 16.17849
 CYCLE:   167 TIME:   0.012 TIME LEFT:  2.00D  GRAD.:     1.001 HEAT: 16.17638
 CYCLE:   168 TIME:   0.012 TIME LEFT:  2.00D  GRAD.:     1.369 HEAT: 16.17055
 CYCLE:   169 TIME:   0.012 TIME LEFT:  2.00D  GRAD.:     0.958 HEAT: 16.16877
 CYCLE:   170 TIME:   0.012 TIME LEFT:  2.00D  GRAD.:     0.754 HEAT: 16.16559
 CYCLE:   171 TIME:   0.012 TIME LEFT:  2.00D  GRAD.:     0.755 HEAT: 16.16311
 CYCLE:   172 TIME:   0.012 TIME LEFT:  2.00D  GRAD.:     0.925 HEAT: 16.15892
 CYCLE:   173 TIME:   0.012 TIME LEFT:  2.00D  GRAD.:     1.085 HEAT: 16.15638
 CYCLE:   174 TIME:   0.012 TIME LEFT:  2.00D  GRAD.:     0.696 HEAT: 16.15376
 CYCLE:   175 TIME:   0.012 TIME LEFT:  2.00D  GRAD.:     0.536 HEAT: 16.15208
 CYCLE:   176 TIME:   0.012 TIME LEFT:  2.00D  GRAD.:     0.477 HEAT: 16.15166
 CYCLE:   177 TIME:   0.011 TIME LEFT:  2.00D  GRAD.:     0.169 HEAT: 16.15155
 CYCLE:   178 TIME:   0.011 TIME LEFT:  2.00D  GRAD.:     0.228 HEAT: 16.15150
 CYCLE:   179 TIME:   0.011 TIME LEFT:  2.00D  GRAD.:     0.130 HEAT: 16.15148
 CYCLE:   180 TIME:   0.011 TIME LEFT:  2.00D  GRAD.:     0.107 HEAT: 16.15146
 CYCLE:   181 TIME:   0.011 TIME LEFT:  2.00D  GRAD.:     0.033 HEAT: 16.15145

     RMS GRADIENT =  0.03272  IS LESS THAN CUTOFF =  0.05000



 -------------------------------------------------------------------------------
pm3  precise nosym
 InChI=1S/C11H18/c1-4-7-10-8-9(5-2)11(10)6-3/h4-5,9-11H,1-2,6-8H2,3H3



     GEOMETRY OPTIMISED USING EIGENVECTOR FOLLOWING (EF).     
     SCF FIELD WAS ACHIEVED                                   


                              PM3 CALCULATION
                                                       MOPAC2012 (Version: 13.159M)
                                                       Mon Jun  2 11:05:51 2014
                                                       No. of days left =   6




          FINAL HEAT OF FORMATION =         16.15145 KCAL/MOL =      67.57765 KJ/MOL


          TOTAL ENERGY            =      -1580.33240 EV
          ELECTRONIC ENERGY       =      -9716.28058 EV  POINT GROUP:     C1  
          CORE-CORE REPULSION     =       8135.94818 EV
          COSMO AREA              =        214.83 SQUARE ANGSTROMS
          COSMO VOLUME            =        234.71 CUBIC ANGSTROMS

          GRADIENT NORM           =          0.03272
          IONIZATION POTENTIAL    =          9.990560 EV
          HOMO LUMO ENERGIES (EV) =         -9.991  1.162
          NO. OF FILLED LEVELS    =         31
          MOLECULAR WEIGHT        =        150.263

          MOLECULAR DIMENSIONS (Angstroms)

            Atom       Atom       Distance
            H    26    H    15     6.68081
            H    28    H    22     6.24439
            H    29    H    19     5.50140


          SCF CALCULATIONS        =        192
          COMPUTATION TIME        =          2.188 SECONDS




   ATOM   CHEMICAL          X               Y               Z
  NUMBER   SYMBOL      (ANGSTROMS)     (ANGSTROMS)     (ANGSTROMS)
 
     1       C         -0.55815753  *   0.22191646  *   0.22307452  *
     2       C          0.08202873  *   0.04933955  *  -1.18431528  *
     3       C         -1.80155855  *  -0.58617256  *  -0.25006570  *
     4       C         -1.12787878  *  -0.80751335  *  -1.62419270  *
     5       C         -0.86482229  *   1.64558943  *   0.63925363  *
     6       C          1.40724276  *  -0.68568421  *  -1.22001548  *
     7       C          0.37801428  *   2.38441039  *   1.08146374  *
     8       C         -2.11700551  *  -1.82074574  *   0.50926511  *
     9       C          2.54468598  *   0.19325410  *  -0.83326710  *
    10       C         -2.14039651  *  -1.87605339  *   1.83593737  *
    11       C          3.50843324  *  -0.19152720  *  -0.00468321  *
    12       H          0.01442850  *  -0.29407508  *   1.02516971  *
    13       H          0.16220981  *   1.00916951  *  -1.73981180  *
    14       H         -2.72399352  *   0.03205992  *  -0.31233197  *
    15       H         -1.68901828  *  -0.40590531  *  -2.48070044  *
    16       H         -0.88626034  *  -1.85753828  *  -1.85568664  *
    17       H         -1.60765131  *   1.62358294  *   1.46189086  *
    18       H         -1.35513713  *   2.19125480  *  -0.19201827  *
    19       H          1.58828575  *  -1.05562396  *  -2.25008080  *
    20       H          1.36401193  *  -1.58980814  *  -0.57866034  *
    21       H          0.83429970  *   1.91812910  *   1.96484702  *
    22       H          0.15249063  *   3.42690671  *   1.33859839  *
    23       H          1.14100368  *   2.39413895  *   0.28948318  *
    24       H         -2.35462562  *  -2.70297290  *  -0.09796860  *
    25       H          2.55343059  *   1.19485113  *  -1.28231587  *
    26       H          4.34385304  *   0.44965494  *   0.25895154  *
    27       H          3.53339044  *  -1.16992228  *   0.46758209  *
    28       H         -2.39104209  *  -2.78095743  *   2.38043258  *
    29       H         -1.91048901  *  -1.02209641  *   2.46818233  *

           Empirical Formula: C11 H18  =    29 atoms



      MOLECULAR POINT GROUP   :   C1  


                  EIGENVALUES  
 -42.17625 -35.31672 -33.90476 -31.63287 -27.23343 -25.30281 -22.95637 -21.41686
 -19.96821 -19.54468 -18.48308 -16.93056 -16.47187 -15.88842 -15.69200 -15.17082
 -14.99914 -14.49661 -14.11670 -13.62965 -13.26532 -12.76283 -12.48284 -12.32972
 -12.04007 -11.91571 -11.68421 -11.44340 -11.13530 -10.16837  -9.99056   1.16175
   1.17511   3.19625   3.23219   3.28580   3.52242   3.65143   3.73961   3.78291
   3.85082   3.92379   4.00450   4.00551   4.05132   4.17230   4.23111   4.32170
   4.35110   4.44497   4.49535   4.62940   4.68844   4.85701   4.92747   5.01314
   5.29654   5.51692   5.64405   5.73025   5.88261   5.92201


              NET ATOMIC CHARGES AND DIPOLE CONTRIBUTIONS

  ATOM NO.   TYPE          CHARGE      No. of ELECS.   s-Pop       p-Pop       
    1          C          -0.091188        4.0912     1.19729     2.89390
    2          C          -0.088724        4.0887     1.19250     2.89622
    3          C          -0.065699        4.0657     1.18027     2.88543
    4          C          -0.108464        4.1085     1.17738     2.93108
    5          C          -0.088515        4.0885     1.15738     2.93113
    6          C          -0.061526        4.0615     1.14903     2.91249
    7          C          -0.114882        4.1149     1.13920     2.97569
    8          C          -0.125037        4.1250     1.19316     2.93187
    9          C          -0.134953        4.1350     1.19566     2.93930
   10          C          -0.171052        4.1711     1.18164     2.98941
   11          C          -0.170010        4.1700     1.18273     2.98728
   12          H           0.085751        0.9142     0.91425
   13          H           0.076234        0.9238     0.92377
   14          H           0.080699        0.9193     0.91930
   15          H           0.055151        0.9448     0.94485
   16          H           0.062736        0.9373     0.93726
   17          H           0.049983        0.9500     0.95002
   18          H           0.049967        0.9500     0.95003
   19          H           0.057298        0.9427     0.94270
   20          H           0.060014        0.9400     0.93999
   21          H           0.039795        0.9602     0.96020
   22          H           0.036939        0.9631     0.96306
   23          H           0.043417        0.9566     0.95658
   24          H           0.098113        0.9019     0.90189
   25          H           0.098157        0.9018     0.90184
   26          H           0.079101        0.9209     0.92090
   27          H           0.082073        0.9179     0.91793
   28          H           0.080283        0.9197     0.91972
   29          H           0.084335        0.9157     0.91566
 DIPOLE           X         Y         Z       TOTAL
 POINT-CHG.    -0.095     0.088    -0.256     0.287
 HYBRID         0.008    -0.022     0.006     0.024
 SUM           -0.088     0.066    -0.250     0.273


          ATOMIC ORBITAL ELECTRON POPULATIONS

    Atom      s        px        py        pz   
    1  C   1.19729   0.96397   0.96013   0.96979
    2  C   1.19250   0.93587   0.99035   0.97000
    3  C   1.18027   0.97107   0.95906   0.95529
    4  C   1.17738   0.97024   1.00126   0.95958
    5  C   1.15738   0.97363   0.94994   1.00756
    6  C   1.14903   0.93020   0.97019   1.01210
    7  C   1.13920   0.97579   0.99191   1.00798
    8  C   1.19316   0.99411   0.97443   0.96333
    9  C   1.19566   0.96379   0.99048   0.98503
   10  C   1.18164   1.01833   1.01345   0.95763
   11  C   1.18273   0.98492   1.00900   0.99337
   12  H   0.91425
   13  H   0.92377
   14  H   0.91930
   15  H   0.94485
   16  H   0.93726
   17  H   0.95002
   18  H   0.95003
   19  H   0.94270
   20  H   0.93999
   21  H   0.96020
   22  H   0.96306
   23  H   0.95658
   24  H   0.90189
   25  H   0.90184
   26  H   0.92090
   27  H   0.91793
   28  H   0.91972
   29  H   0.91566
 *******************************************************************************
 ** Site#: 14399           For non-commercial use only        Version 13.159M **
 *******************************************************************************
 ** Cite this work as: MOPAC2012, James J. P. Stewart, Stewart Computational  **
 ** Chemistry, Version 13.159M web: HTTP://OpenMOPAC.net  Days remaining:   6 **
 *******************************************************************************
 **                                                                           **
 **                                MOPAC2012                                  **
 **                                                                           **
 *******************************************************************************

                            PM3 CALCULATION RESULTS


 *******************************************************************************
 *  CALCULATION DONE:                                Mon Jun  2 11:05:51 2014  *
 *  PM3      - The PM3 Hamiltonian to be used
 *  OLDGEO   - PREVIOUS GEOMETRY TO BE USED
 *  PRECISE  - CRITERIA TO BE INCREASED BY 100 TIMES
 *  NOSYM    - POINT-GROUP SYMMETRY SET TO C1
 *  T=       - A TIME OF 172800.0 SECONDS REQUESTED
 *  DUMP=N   - RESTART FILE WRITTEN EVERY  7200.000 SECONDS
 *  THERMO   - THERMODYNAMIC QUANTITIES TO BE CALCULATED
 *******************************************************************************
oldgeo thermo nosym precise  pm3

   ATOM   CHEMICAL          X               Y               Z
  NUMBER   SYMBOL      (ANGSTROMS)     (ANGSTROMS)     (ANGSTROMS)
 
     1       C         -0.55815753  *   0.22191646  *   0.22307452  *
     2       C          0.08202873  *   0.04933955  *  -1.18431528  *
     3       C         -1.80155855  *  -0.58617256  *  -0.25006570  *
     4       C         -1.12787878  *  -0.80751335  *  -1.62419270  *
     5       C         -0.86482229  *   1.64558943  *   0.63925363  *
     6       C          1.40724276  *  -0.68568421  *  -1.22001548  *
     7       C          0.37801428  *   2.38441039  *   1.08146374  *
     8       C         -2.11700551  *  -1.82074574  *   0.50926511  *
     9       C          2.54468598  *   0.19325410  *  -0.83326710  *
    10       C         -2.14039651  *  -1.87605339  *   1.83593737  *
    11       C          3.50843324  *  -0.19152720  *  -0.00468321  *
    12       H          0.01442850  *  -0.29407508  *   1.02516971  *
    13       H          0.16220981  *   1.00916951  *  -1.73981180  *
    14       H         -2.72399352  *   0.03205992  *  -0.31233197  *
    15       H         -1.68901828  *  -0.40590531  *  -2.48070044  *
    16       H         -0.88626034  *  -1.85753828  *  -1.85568664  *
    17       H         -1.60765131  *   1.62358294  *   1.46189086  *
    18       H         -1.35513713  *   2.19125480  *  -0.19201827  *
    19       H          1.58828575  *  -1.05562396  *  -2.25008080  *
    20       H          1.36401193  *  -1.58980814  *  -0.57866034  *
    21       H          0.83429970  *   1.91812910  *   1.96484702  *
    22       H          0.15249063  *   3.42690671  *   1.33859839  *
    23       H          1.14100368  *   2.39413895  *   0.28948318  *
    24       H         -2.35462562  *  -2.70297290  *  -0.09796860  *
    25       H          2.55343059  *   1.19485113  *  -1.28231587  *
    26       H          4.34385304  *   0.44965494  *   0.25895154  *
    27       H          3.53339044  *  -1.16992228  *   0.46758209  *
    28       H         -2.39104209  *  -2.78095743  *   2.38043258  *
    29       H         -1.91048901  *  -1.02209641  *   2.46818233  *
 


          CARTESIAN COORDINATES 

    NO.       ATOM         X         Y         Z

     1         C       -0.5582    0.2219    0.2231
     2         C        0.0820    0.0493   -1.1843
     3         C       -1.8016   -0.5862   -0.2501
     4         C       -1.1279   -0.8075   -1.6242
     5         C       -0.8648    1.6456    0.6393
     6         C        1.4072   -0.6857   -1.2200
     7         C        0.3780    2.3844    1.0815
     8         C       -2.1170   -1.8207    0.5093
     9         C        2.5447    0.1933   -0.8333
    10         C       -2.1404   -1.8761    1.8359
    11         C        3.5084   -0.1915   -0.0047
    12         H        0.0144   -0.2941    1.0252
    13         H        0.1622    1.0092   -1.7398
    14         H       -2.7240    0.0321   -0.3123
    15         H       -1.6890   -0.4059   -2.4807
    16         H       -0.8863   -1.8575   -1.8557
    17         H       -1.6077    1.6236    1.4619
    18         H       -1.3551    2.1913   -0.1920
    19         H        1.5883   -1.0556   -2.2501
    20         H        1.3640   -1.5898   -0.5787
    21         H        0.8343    1.9181    1.9648
    22         H        0.1525    3.4269    1.3386
    23         H        1.1410    2.3941    0.2895
    24         H       -2.3546   -2.7030   -0.0980
    25         H        2.5534    1.1949   -1.2823
    26         H        4.3439    0.4497    0.2590
    27         H        3.5334   -1.1699    0.4676
    28         H       -2.3910   -2.7810    2.3804
    29         H       -1.9105   -1.0221    2.4682

  H: (PM3): J. J. P. STEWART, J. COMP. CHEM. 10, 209 (1989).
  C: (PM3): J. J. P. STEWART, J. COMP. CHEM. 10, 209 (1989).

           Empirical Formula: C11 H18  =    29 atoms



      MOLECULAR POINT GROUP   :   C1  


      RHF CALCULATION, NO. OF DOUBLY OCCUPIED LEVELS =   31



          HEAT OF FORMATION =      16.151447 KCALS/MOLE


          INTERNAL COORDINATE DERIVATIVES

   NUMBER  ATOM       BOND         ANGLE      DIHEDRAL

     1       C     -0.001240     0.001862     0.000613
     2       C      0.000573     0.003141     0.000867
     3       C     -0.000184     0.000550    -0.001285
     4       C      0.000774     0.005700     0.000918
     5       C     -0.001210     0.003139    -0.002102
     6       C     -0.001813     0.004951     0.002318
     7       C     -0.004848     0.001671     0.003091
     8       C      0.015226    -0.003688    -0.006384
     9       C      0.000975     0.003853    -0.001842
    10       C     -0.014042    -0.000664     0.004728
    11       C      0.001819    -0.005374    -0.000792
    12       H     -0.000489     0.000134     0.001070
    13       H      0.000538    -0.005963    -0.000859
    14       H     -0.000310     0.001602    -0.001834
    15       H      0.001613     0.000839     0.000043
    16       H      0.000729    -0.002566    -0.000478
    17       H     -0.001741    -0.000700    -0.001200
    18       H      0.001397     0.001930     0.003525
    19       H      0.004757    -0.005186    -0.001675
    20       H     -0.001802     0.008094    -0.001160
    21       H     -0.005027    -0.001569    -0.002089
    22       H      0.002050    -0.006141    -0.000975
    23       H      0.004365    -0.003062     0.002203
    24       H     -0.005599     0.001208     0.005297
    25       H      0.000843    -0.000645     0.003438
    26       H      0.003723    -0.005791     0.002031
    27       H     -0.005357     0.001575    -0.002609
    28       H      0.000700     0.000134    -0.000476
    29       H      0.003581     0.000966    -0.004384


          GRADIENT NORM =   0.03465


          TIME FOR SCF CALCULATION =    0.01

          TIME FOR DERIVATIVES     =    0.01

          MOLECULAR WEIGHT =  150.26



          ROTATIONAL CONSTANTS IN CM(-1)

          A =    0.04466123   B =    0.02439118   C =    0.02088417



           PRINCIPAL MOMENTS OF INERTIA IN UNITS OF 10**(-40)*GRAM-CM**2

          A =      626.7802   B =     1147.6597   C =     1340.3824


          ORIENTATION OF MOLECULE IN FORCE CALCULATION

    NO.       ATOM         X         Y         Z

     1          C      -0.5022    0.1502    0.4161
     2          C       1.0536    0.1502    0.4161
     3          C      -0.4962    1.7067    0.4161
     4          C       1.0487    1.6952    0.3501
     5          C      -1.1628   -0.4679    1.6309
     6          C       1.7127   -0.5186   -0.7739
     7          C      -1.1334   -1.9788    1.5817
     8          C      -1.1760    2.3714   -0.7225
     9          C       1.7334   -2.0011   -0.6415
    10          C      -2.3796    2.0202   -1.1601
    11          C       1.4231   -2.8219   -1.6383
    12          H      -0.9349   -0.2815   -0.5134
    13          H       1.4826   -0.2450    1.3627
    14          H      -0.8880    2.1430    1.3611
    15          H       1.5480    2.1934    1.1940
    16          H       1.4740    2.1160   -0.5754
    17          H      -2.2102   -0.1091    1.6874
    18          H      -0.6731   -0.1088    2.5584
    19          H       2.7601   -0.1621   -0.8551
    20          H       1.2150   -0.2077   -1.7153
    21          H      -1.6930   -2.3676    0.7206
    22          H      -1.5744   -2.4163    2.4861
    23          H      -0.1040   -2.3566    1.4967
    24          H      -0.6265    3.2017   -1.1832
    25          H       2.0321   -2.3927    0.3394
    26          H       1.4573   -3.9023   -1.5386
    27          H       1.1147   -2.4762   -2.6213
    28          H      -2.8749    2.5266   -1.9825
    29          H      -2.9517    1.2033   -0.7275


    FIRST DERIVATIVES WILL BE USED IN THE CALCULATION OF SECOND DERIVATIVES

          ESTIMATED TIME TO COMPLETE CALCULATION =        5.35 SECONDS

    FOR POINT-GROUP C1   THERE ARE   1 UNIQUE SYMMETRY FUNCTIONS.

 STEP:   1 TIME =     0.05 SECS, INTEGRAL =      0.05 TIME LEFT: 172799.94
 STEP:   2 TIME =     0.05 SECS, INTEGRAL =      0.10 TIME LEFT: 172799.89
 STEP:   3 TIME =     0.05 SECS, INTEGRAL =      0.15 TIME LEFT: 172799.84
 STEP:   4 TIME =     0.06 SECS, INTEGRAL =      0.20 TIME LEFT: 172799.78
 STEP:   5 TIME =     0.05 SECS, INTEGRAL =      0.26 TIME LEFT: 172799.73
 STEP:   6 TIME =     0.05 SECS, INTEGRAL =      0.31 TIME LEFT: 172799.68
 STEP:   7 TIME =     0.05 SECS, INTEGRAL =      0.36 TIME LEFT: 172799.63
 STEP:   8 TIME =     0.05 SECS, INTEGRAL =      0.41 TIME LEFT: 172799.58
 STEP:   9 TIME =     0.05 SECS, INTEGRAL =      0.46 TIME LEFT: 172799.53
 STEP:  10 TIME =     0.05 SECS, INTEGRAL =      0.51 TIME LEFT: 172799.48
 STEP:  11 TIME =     0.05 SECS, INTEGRAL =      0.56 TIME LEFT: 172799.43
 STEP:  12 TIME =     0.05 SECS, INTEGRAL =      0.61 TIME LEFT: 172799.38
 STEP:  13 TIME =     0.05 SECS, INTEGRAL =      0.65 TIME LEFT: 172799.33
 STEP:  14 TIME =     0.05 SECS, INTEGRAL =      0.70 TIME LEFT: 172799.28
 STEP:  15 TIME =     0.05 SECS, INTEGRAL =      0.75 TIME LEFT: 172799.23
 STEP:  16 TIME =     0.05 SECS, INTEGRAL =      0.80 TIME LEFT: 172799.18
 STEP:  17 TIME =     0.05 SECS, INTEGRAL =      0.85 TIME LEFT: 172799.13
 STEP:  18 TIME =     0.05 SECS, INTEGRAL =      0.90 TIME LEFT: 172799.09
 STEP:  19 TIME =     0.05 SECS, INTEGRAL =      0.95 TIME LEFT: 172799.04
 STEP:  20 TIME =     0.05 SECS, INTEGRAL =      1.00 TIME LEFT: 172798.99
 STEP:  21 TIME =     0.05 SECS, INTEGRAL =      1.04 TIME LEFT: 172798.94
 STEP:  22 TIME =     0.05 SECS, INTEGRAL =      1.09 TIME LEFT: 172798.89
 STEP:  23 TIME =     0.05 SECS, INTEGRAL =      1.14 TIME LEFT: 172798.84
 STEP:  24 TIME =     0.05 SECS, INTEGRAL =      1.19 TIME LEFT: 172798.79
 STEP:  25 TIME =     0.05 SECS, INTEGRAL =      1.25 TIME LEFT: 172798.74
 STEP:  26 TIME =     0.05 SECS, INTEGRAL =      1.29 TIME LEFT: 172798.69
 STEP:  27 TIME =     0.05 SECS, INTEGRAL =      1.34 TIME LEFT: 172798.64
 STEP:  28 TIME =     0.05 SECS, INTEGRAL =      1.39 TIME LEFT: 172798.59
 STEP:  29 TIME =     0.05 SECS, INTEGRAL =      1.44 TIME LEFT: 172798.54
 STEP:  30 TIME =     0.05 SECS, INTEGRAL =      1.49 TIME LEFT: 172798.49
 STEP:  31 TIME =     0.05 SECS, INTEGRAL =      1.54 TIME LEFT: 172798.44
 STEP:  32 TIME =     0.05 SECS, INTEGRAL =      1.59 TIME LEFT: 172798.39
 STEP:  33 TIME =     0.05 SECS, INTEGRAL =      1.64 TIME LEFT: 172798.34
 STEP:  34 TIME =     0.05 SECS, INTEGRAL =      1.69 TIME LEFT: 172798.29
 STEP:  35 TIME =     0.05 SECS, INTEGRAL =      1.74 TIME LEFT: 172798.24
 STEP:  36 TIME =     0.05 SECS, INTEGRAL =      1.79 TIME LEFT: 172798.19
 STEP:  37 TIME =     0.05 SECS, INTEGRAL =      1.84 TIME LEFT: 172798.14
 STEP:  38 TIME =     0.05 SECS, INTEGRAL =      1.89 TIME LEFT: 172798.09
 STEP:  39 TIME =     0.05 SECS, INTEGRAL =      1.94 TIME LEFT: 172798.04
 STEP:  40 TIME =     0.05 SECS, INTEGRAL =      1.99 TIME LEFT: 172797.99
 STEP:  41 TIME =     0.05 SECS, INTEGRAL =      2.04 TIME LEFT: 172797.94
 STEP:  42 TIME =     0.05 SECS, INTEGRAL =      2.09 TIME LEFT: 172797.89
 STEP:  43 TIME =     0.05 SECS, INTEGRAL =      2.14 TIME LEFT: 172797.84
 STEP:  44 TIME =     0.05 SECS, INTEGRAL =      2.19 TIME LEFT: 172797.79
 STEP:  45 TIME =     0.05 SECS, INTEGRAL =      2.24 TIME LEFT: 172797.74
 STEP:  46 TIME =     0.05 SECS, INTEGRAL =      2.29 TIME LEFT: 172797.69
 STEP:  47 TIME =     0.05 SECS, INTEGRAL =      2.34 TIME LEFT: 172797.64
 STEP:  48 TIME =     0.05 SECS, INTEGRAL =      2.39 TIME LEFT: 172797.59
 STEP:  49 TIME =     0.05 SECS, INTEGRAL =      2.44 TIME LEFT: 172797.55
 STEP:  50 TIME =     0.05 SECS, INTEGRAL =      2.49 TIME LEFT: 172797.50
 STEP:  51 TIME =     0.05 SECS, INTEGRAL =      2.54 TIME LEFT: 172797.44
 STEP:  52 TIME =     0.05 SECS, INTEGRAL =      2.59 TIME LEFT: 172797.39
 STEP:  53 TIME =     0.05 SECS, INTEGRAL =      2.64 TIME LEFT: 172797.34
 STEP:  54 TIME =     0.05 SECS, INTEGRAL =      2.69 TIME LEFT: 172797.29
 STEP:  55 TIME =     0.05 SECS, INTEGRAL =      2.74 TIME LEFT: 172797.24
 STEP:  56 TIME =     0.05 SECS, INTEGRAL =      2.79 TIME LEFT: 172797.19
 STEP:  57 TIME =     0.05 SECS, INTEGRAL =      2.84 TIME LEFT: 172797.14
 STEP:  58 TIME =     0.05 SECS, INTEGRAL =      2.89 TIME LEFT: 172797.09
 STEP:  59 TIME =     0.05 SECS, INTEGRAL =      2.94 TIME LEFT: 172797.04
 STEP:  60 TIME =     0.05 SECS, INTEGRAL =      2.99 TIME LEFT: 172796.99
 STEP:  61 TIME =     0.05 SECS, INTEGRAL =      3.04 TIME LEFT: 172796.94
 STEP:  62 TIME =     0.05 SECS, INTEGRAL =      3.09 TIME LEFT: 172796.89
 STEP:  63 TIME =     0.05 SECS, INTEGRAL =      3.14 TIME LEFT: 172796.85
 STEP:  64 TIME =     0.05 SECS, INTEGRAL =      3.19 TIME LEFT: 172796.80
 STEP:  65 TIME =     0.05 SECS, INTEGRAL =      3.24 TIME LEFT: 172796.75
 STEP:  66 TIME =     0.05 SECS, INTEGRAL =      3.29 TIME LEFT: 172796.70
 STEP:  67 TIME =     0.05 SECS, INTEGRAL =      3.33 TIME LEFT: 172796.65
 STEP:  68 TIME =     0.05 SECS, INTEGRAL =      3.38 TIME LEFT: 172796.60
 STEP:  69 TIME =     0.05 SECS, INTEGRAL =      3.43 TIME LEFT: 172796.55
 STEP:  70 TIME =     0.05 SECS, INTEGRAL =      3.48 TIME LEFT: 172796.50
 STEP:  71 TIME =     0.05 SECS, INTEGRAL =      3.53 TIME LEFT: 172796.45
 STEP:  72 TIME =     0.05 SECS, INTEGRAL =      3.58 TIME LEFT: 172796.40
 STEP:  73 TIME =     0.05 SECS, INTEGRAL =      3.64 TIME LEFT: 172796.35
 STEP:  74 TIME =     0.05 SECS, INTEGRAL =      3.69 TIME LEFT: 172796.30
 STEP:  75 TIME =     0.05 SECS, INTEGRAL =      3.73 TIME LEFT: 172796.25
 STEP:  76 TIME =     0.05 SECS, INTEGRAL =      3.79 TIME LEFT: 172796.20
 STEP:  77 TIME =     0.05 SECS, INTEGRAL =      3.83 TIME LEFT: 172796.15
 STEP:  78 TIME =     0.05 SECS, INTEGRAL =      3.88 TIME LEFT: 172796.10
 STEP:  79 TIME =     0.05 SECS, INTEGRAL =      3.94 TIME LEFT: 172796.05
 STEP:  80 TIME =     0.05 SECS, INTEGRAL =      3.99 TIME LEFT: 172796.00
 STEP:  81 TIME =     0.05 SECS, INTEGRAL =      4.03 TIME LEFT: 172795.95
 STEP:  82 TIME =     0.05 SECS, INTEGRAL =      4.08 TIME LEFT: 172795.90
 STEP:  83 TIME =     0.05 SECS, INTEGRAL =      4.13 TIME LEFT: 172795.85
 STEP:  84 TIME =     0.05 SECS, INTEGRAL =      4.18 TIME LEFT: 172795.80
 STEP:  85 TIME =     0.05 SECS, INTEGRAL =      4.24 TIME LEFT: 172795.75
 STEP:  86 TIME =     0.05 SECS, INTEGRAL =      4.29 TIME LEFT: 172795.70
 STEP:  87 TIME =     0.05 SECS, INTEGRAL =      4.34 TIME LEFT: 172795.65

(To convert to Hartree/Bohr^2, multiply by (10^(-21) x N x a0^2)/(4.184 x 627.51) = 0.0642)


           FORCE MATRIX IN MILLIDYNES/ANGSTROM


                  C  1       C  2       C  3       C  4       C  5       C  6
 ------------------------------------------------------------------------------
     C    1  14.320190
     C    2   3.206045  14.431466
     C    3   3.166990   1.792346  14.812708
     C    4   1.801299   3.506063   3.507741  14.368860
     C    5   4.302137   0.524104   0.540447   0.041595  14.489127
     C    6   0.522690   4.253946   0.041509   0.551066   0.033081  14.776066
     C    7   0.656804   0.027797   0.049937   0.005467   4.472678   0.001983
     C    8   0.547411   0.040507   5.064893   0.574238   0.034060   0.004722
     C    9   0.021096   0.688019   0.004816   0.051022   0.003155   4.945290
     C   10   0.049831   0.006469   0.830443   0.049031   0.005677   0.001709
     C   11   0.003403   0.043805   0.000838   0.008585   0.001705   0.835550
     H   12   4.368159   0.437762   0.435286   0.025002   0.427903   0.030889
     H   13   0.437658   4.379047   0.026957   0.427853   0.031650   0.431264
     H   14   0.441750   0.026518   4.357582   0.432755   0.038036   0.001421
     H   15   0.031947   0.441389   0.439696   4.710432   0.004094   0.032252
     H   16   0.027872   0.452542   0.453660   4.638861   0.001528   0.032622
     H   17   0.431922   0.045693   0.021569   0.003300   4.441747   0.005921
     H   18   0.450113   0.024960   0.020513   0.001568   4.434906   0.001323
     H   19   0.045618   0.438529   0.003533   0.021311   0.005917   4.404683
     H   20   0.025320   0.446075   0.002118   0.019585   0.001324   4.419802
     H   21   0.022313   0.002078   0.001464   0.000329   0.463221   0.000525
     H   22   0.051378   0.002022   0.008444   0.000708   0.450939   0.000336
     H   23   0.022381   0.006599   0.002077   0.000614   0.463130   0.003789
     H   24   0.034349   0.002530   0.435482   0.030783   0.004269   0.000985
     H   25   0.002975   0.031178   0.000767   0.002067   0.000723   0.433411
     H   26   0.000705   0.016814   0.000460   0.002626   0.000702   0.137110
     H   27   0.000566   0.009725   0.000307   0.001900   0.000383   0.096786
     H   28   0.007604   0.001589   0.132860   0.009757   0.000986   0.000471
     H   29   0.016971   0.001663   0.098053   0.004036   0.004516   0.000636


                  C  7       C  8       C  9       C 10       C 11       H 12
 ------------------------------------------------------------------------------
     C    7  14.365374
     C    8   0.007176  18.267750
     C    9   0.018488   0.002399  18.161243
     C   10   0.000990  11.059233   0.001753  18.017571
     C   11   0.002511   0.001131  11.069358   0.001222  18.032430
     H   12   0.032334   0.025005   0.004075   0.013890   0.002250   4.880564
     H   13   0.007331   0.001705   0.041374   0.000845   0.002205   0.028503
     H   14   0.002868   0.391676   0.000534   0.025903   0.000400   0.029556
     H   15   0.000908   0.033931   0.006011   0.005738   0.001239   0.000997
     H   16   0.000392   0.027629   0.002491   0.003316   0.001134   0.002506
     H   17   0.439363   0.001729   0.000989   0.002378   0.000646   0.024990
     H   18   0.437469   0.000860   0.000441   0.001060   0.000519   0.041475
     H   19   0.000373   0.001023   0.409500   0.000527   0.032315   0.002947
     H   20   0.000447   0.001452   0.457157   0.000732   0.047635   0.027582
     H   21   4.727319   0.000756   0.000856   0.000441   0.001180   0.020592
     H   22   4.757471   0.001412   0.001962   0.000340   0.000523   0.002039
     H   23   4.673971   0.000810   0.009860   0.000402   0.002684   0.002307
     H   24   0.001355   4.780575   0.000780   0.456085   0.000547   0.002952
     H   25   0.011163   0.000704   4.760603   0.000445   0.453428   0.001098
     H   26   0.000450   0.000373   0.462674   0.000275   5.108217   0.000573
     H   27   0.000621   0.000404   0.490351   0.000551   5.072968   0.000577
     H   28   0.000537   0.463620   0.000265   5.113657   0.000519   0.001212
     H   29   0.001216   0.493371   0.000381   5.062039   0.000563   0.020879


                  H 13       H 14       H 15       H 16       H 17       H 18
 ------------------------------------------------------------------------------
     H   13   4.890992
     H   14   0.002366   4.844975
     H   15   0.027030   0.026978   5.328464
     H   16   0.031063   0.031758   0.550199   5.273351
     H   17   0.002920   0.013372   0.000710   0.000478   5.047017
     H   18   0.027151   0.018994   0.000753   0.000553   0.567102   5.051779
     H   19   0.023234   0.000514   0.002089   0.013305   0.001257   0.000368
     H   20   0.041057   0.000532   0.001144   0.015377   0.000452   0.000552
     H   21   0.000493   0.000502   0.000188   0.000124   0.026492   0.047594
     H   22   0.000503   0.000647   0.000160   0.000118   0.027206   0.031831
     H   23   0.008230   0.000515   0.000307   0.000250   0.048085   0.022610
     H   24   0.000594   0.014554   0.001948   0.029019   0.000375   0.000430
     H   25   0.029272   0.000204   0.000474   0.000704   0.000419   0.000337
     H   26   0.000626   0.000120   0.000431   0.000195   0.000181   0.000166
     H   27   0.000674   0.000184   0.000310   0.000283   0.000220   0.000224
     H   28   0.000133   0.014847   0.001157   0.000692   0.000506   0.000402
     H   29   0.000485   0.011584   0.000773   0.000694   0.008606   0.000633


                  H 19       H 20       H 21       H 22       H 23       H 24
 ------------------------------------------------------------------------------
     H   19   4.993552
     H   20   0.559953   5.029176
     H   21   0.000186   0.000326   5.468550
     H   22   0.000108   0.000160   0.569411   5.489613
     H   23   0.000325   0.000355   0.576251   0.562118   5.411045
     H   24   0.000362   0.000444   0.000151   0.000345   0.000243   5.146669
     H   25   0.015680   0.038168   0.000613   0.000514   0.017539   0.000263
     H   26   0.018093   0.003621   0.000298   0.000178   0.000485   0.000131
     H   27   0.012069   0.028626   0.000328   0.000222   0.000501   0.000189
     H   28   0.000121   0.000241   0.000163   0.000208   0.000211   0.078682
     H   29   0.000275   0.000357   0.000317   0.000270   0.000289   0.116965


                  H 25       H 26       H 27       H 28       H 29
 ------------------------------------------------------------------
     H   25   5.137564
     H   26   0.080061   5.497869
     H   27   0.117321   0.423466   5.469278
     H   28   0.000084   0.000104   0.000209   5.500049
     H   29   0.000200   0.000196   0.000228   0.415985   5.449197


          HEAT OF FORMATION =      16.151447 KCALS/MOLE

          ZERO POINT ENERGY     162.339 KCAL/MOL


           NORMAL COORDINATE ANALYSIS (Total motion = 1 Angstrom)


   Root No.       1         2         3         4         5         6         7         8

                 1 A       2 A       3 A       4 A       5 A       6 A       7 A       8 A   

                  42.1      62.0      88.0     104.6     141.0     174.9     189.2     207.7
  
           1   -0.0031   -0.0161   -0.0127    0.0053   -0.0020   -0.0021   -0.0009   -0.0074
           2    0.0062    0.0004   -0.0018   -0.0039   -0.0091   -0.0032   -0.0149    0.0110
           3   -0.0103    0.0091   -0.0126   -0.0093   -0.0006    0.0057   -0.0108   -0.0030
           4   -0.0031   -0.0160   -0.0127    0.0054   -0.0017   -0.0019    0.0007   -0.0075
           5   -0.0005   -0.0131   -0.0069   -0.0026   -0.0071    0.0062   -0.0079   -0.0052
           6   -0.0154   -0.0031   -0.0028    0.0081    0.0005    0.0035   -0.0060    0.0067
           7    0.0040   -0.0029   -0.0074    0.0043   -0.0036   -0.0120   -0.0070    0.0074
           8    0.0062    0.0005   -0.0014   -0.0037   -0.0089   -0.0028   -0.0139    0.0099
           9    0.0007    0.0042   -0.0004   -0.0144   -0.0090   -0.0060   -0.0044    0.0015
          10    0.0029   -0.0030   -0.0069    0.0041   -0.0027   -0.0111   -0.0080    0.0072
          11   -0.0008   -0.0126   -0.0067   -0.0027   -0.0066    0.0050   -0.0085   -0.0042
          12   -0.0223    0.0075    0.0094   -0.0064    0.0214   -0.0045   -0.0187    0.0058
          13   -0.0033   -0.0101   -0.0175   -0.0133    0.0035    0.0269    0.0007   -0.0222
          14   -0.0014    0.0137   -0.0092    0.0070   -0.0006   -0.0135    0.0008    0.0115
          15   -0.0145    0.0194   -0.0189   -0.0139    0.0074    0.0172   -0.0001   -0.0121
          16   -0.0067   -0.0294   -0.0071    0.0230   -0.0020    0.0008    0.0296   -0.0042
          17   -0.0118   -0.0059   -0.0025   -0.0070    0.0120   -0.0056   -0.0033   -0.0060
          18   -0.0109   -0.0149   -0.0022    0.0206   -0.0108    0.0128    0.0076    0.0090
          19   -0.0125   -0.0069    0.0577    0.0003   -0.0150    0.0174   -0.0189    0.0144
          20   -0.0011    0.0132   -0.0088    0.0067   -0.0009   -0.0137    0.0002    0.0122
          21   -0.0301    0.0396    0.0153    0.0137    0.0064   -0.0095    0.0281   -0.0080
          22   -0.0118    0.0082    0.0055   -0.0019    0.0160    0.0010   -0.0154    0.0020
          23    0.0181    0.0046    0.0152   -0.0113   -0.0209    0.0010    0.0183    0.0004
          24    0.0172   -0.0002    0.0017   -0.0149   -0.0283   -0.0124    0.0203   -0.0005
          25    0.0201    0.0004    0.0053   -0.0097    0.0307   -0.0270    0.0282    0.0025
          26   -0.0091   -0.0056   -0.0021   -0.0088    0.0126   -0.0064   -0.0040   -0.0068
          27    0.0168   -0.0186    0.0022    0.0026   -0.0097    0.0127   -0.0039   -0.0009
          28   -0.0235    0.0104    0.0039   -0.0251   -0.0101   -0.0071   -0.0028    0.0038
          29    0.0303    0.0114    0.0333    0.0112    0.0226    0.0340    0.0185   -0.0223
          30    0.0396   -0.0113   -0.0083    0.0305    0.0087   -0.0156   -0.0136    0.0114
          31    0.0382    0.0631   -0.0143    0.0085   -0.0083    0.0081   -0.0056    0.0020
          32   -0.0341   -0.0094   -0.0084    0.0120    0.0045   -0.0003    0.0084    0.0011
          33    0.0318   -0.0351    0.0136   -0.0202    0.0092   -0.0032   -0.0038   -0.0075
          34   -0.0078   -0.0284   -0.0097    0.0167   -0.0052   -0.0066    0.0011   -0.0040
          35    0.0163   -0.0007    0.0055   -0.0079   -0.0152   -0.0104   -0.0201    0.0164
          36   -0.0129    0.0155   -0.0171   -0.0125    0.0041    0.0116   -0.0081   -0.0073
          37   -0.0032   -0.0116   -0.0206   -0.0058   -0.0002    0.0015   -0.0053   -0.0173
          38    0.0046   -0.0239   -0.0144    0.0047   -0.0208    0.0166    0.0012   -0.0101
          39   -0.0131   -0.0096   -0.0022    0.0161   -0.0059    0.0067    0.0007    0.0089
          40    0.0211   -0.0024   -0.0120    0.0024   -0.0235   -0.0177    0.0037    0.0104
          41    0.0003    0.0074   -0.0082   -0.0016   -0.0030   -0.0008   -0.0260    0.0141
          42    0.0106    0.0013    0.0009   -0.0160   -0.0201   -0.0095    0.0065    0.0007
          43    0.0183   -0.0011   -0.0103   -0.0006   -0.0216   -0.0147   -0.0004    0.0095
          44    0.0014   -0.0231   -0.0151    0.0062   -0.0189    0.0125    0.0028   -0.0088
          45   -0.0327    0.0127    0.0165   -0.0089    0.0399   -0.0068   -0.0300    0.0071
          46   -0.0098    0.0032    0.0006    0.0083    0.0176   -0.0120   -0.0208    0.0133
          47   -0.0076   -0.0092   -0.0011   -0.0112    0.0077    0.0021   -0.0157   -0.0085
          48   -0.0312    0.0119    0.0154   -0.0084    0.0372   -0.0063   -0.0281    0.0067
          49   -0.0010   -0.0106   -0.0359   -0.0177    0.0085    0.0310    0.0050   -0.0300
          50    0.0045    0.0122   -0.0575   -0.0009    0.0120   -0.0087    0.0131   -0.0087
          51   -0.0080    0.0190   -0.0551   -0.0426    0.0202    0.0568    0.0031   -0.0324
          52    0.0015   -0.0073   -0.0598   -0.0362    0.0188    0.0578    0.0112   -0.0448
          53   -0.0137    0.0266    0.0333    0.0266   -0.0063   -0.0310    0.0089    0.0275
          54   -0.0123    0.0130   -0.0129   -0.0093    0.0015    0.0077   -0.0083   -0.0064
          55   -0.0132   -0.0362   -0.0102    0.0324   -0.0111    0.0083    0.0313   -0.0045
          56    0.0034    0.0103    0.0063   -0.0272    0.0354   -0.0247   -0.0013   -0.0036
          57   -0.0295   -0.0343   -0.0033    0.0524   -0.0247    0.0261    0.0370    0.0131
          58   -0.0222   -0.0514   -0.0101    0.0543   -0.0219    0.0182    0.0528   -0.0019
          59   -0.0376   -0.0138   -0.0087    0.0130    0.0024    0.0028    0.0030   -0.0038
          60   -0.0111   -0.0059   -0.0026    0.0105   -0.0034    0.0064   -0.0026    0.0084
          61   -0.0223   -0.0003    0.1056    0.0329   -0.0508   -0.0455   -0.0663   -0.1076
          62    0.0108    0.0008   -0.0548   -0.0131    0.0055    0.0033   -0.0103   -0.0077
          63   -0.0291    0.0410    0.0050    0.0016    0.0268    0.0236    0.0639    0.0804
          64   -0.0071   -0.0123    0.0484   -0.0273    0.0134    0.0798    0.0205    0.1688
          65   -0.0078    0.0244   -0.0100    0.0197    0.0035   -0.0274    0.0239    0.0021
          66   -0.0307    0.0424    0.0103    0.0067    0.0223    0.0142    0.0589    0.0621
          67   -0.0153   -0.0057    0.0785    0.0060   -0.0218    0.0096   -0.0274    0.0131
          68   -0.0060    0.0139    0.0382    0.0130   -0.0115   -0.0174   -0.0131    0.0429
          69   -0.0431    0.0519    0.0584    0.0562   -0.0320   -0.0886   -0.0153   -0.1670
          70   -0.0132    0.0154    0.0169    0.0097    0.0502    0.0217   -0.0284   -0.0084
          71    0.0149    0.0034    0.0135   -0.0398   -0.0682   -0.0146    0.0537    0.0015
          72    0.0100    0.0061    0.0122   -0.0520   -0.0728   -0.0166    0.0680   -0.0100
          73    0.0257   -0.0295    0.0314   -0.0494    0.0846   -0.0724    0.0514    0.0143
          74    0.0145   -0.0028    0.0038   -0.0277    0.0206   -0.0128   -0.0130   -0.0134
          75    0.0246   -0.0083   -0.0033    0.0070   -0.0230    0.0240   -0.0148   -0.0072
          76    0.0585    0.0888   -0.0066   -0.0139    0.0117   -0.0090   -0.0108    0.0101
          77   -0.0315   -0.0089   -0.0078    0.0098    0.0054   -0.0010    0.0071    0.0002
          78    0.0529   -0.0392    0.0183   -0.0364    0.0122   -0.0048   -0.0168   -0.0194
          79    0.0341    0.0938   -0.0395    0.0470   -0.0634    0.0569   -0.0314   -0.0064
          80   -0.0590   -0.0128   -0.0150    0.0330   -0.0040    0.0062    0.0214    0.0093
          81    0.0244   -0.0458    0.0192   -0.0249    0.0234   -0.0162    0.0087   -0.0021
          82   -0.0354    0.0200    0.0143   -0.0371   -0.0013    0.0107    0.0007   -0.0104
          83    0.0375    0.0159    0.0469    0.0034    0.0149    0.0470    0.0521   -0.0404
          84    0.0513   -0.0143   -0.0062    0.0331   -0.0013   -0.0185    0.0048    0.0090
          85   -0.0217    0.0025   -0.0074   -0.0331   -0.0415   -0.0315    0.0055    0.0189
          86    0.0335    0.0131    0.0354    0.0375    0.0680    0.0508   -0.0140   -0.0254
          87    0.0481   -0.0186   -0.0195    0.0700    0.0528   -0.0169   -0.0646    0.0264


   Root No.       9        10        11        12        13        14        15        16

                 9 A      10 A      11 A      12 A      13 A      14 A      15 A      16 A   

                 261.6     310.2     372.7     401.0     421.0     453.2     505.0     532.1
  
           1   -0.0138   -0.0104    0.0312    0.0035    0.0027    0.0036   -0.0031   -0.0023
           2    0.0111    0.0060   -0.0055    0.0040    0.0170   -0.0038    0.0251    0.0047
           3    0.0214   -0.0208    0.0082    0.0206   -0.0048   -0.0156    0.0138   -0.0232
           4   -0.0136   -0.0117    0.0308    0.0074    0.0006    0.0025   -0.0030   -0.0101
           5   -0.0079   -0.0103    0.0075    0.0058    0.0248    0.0015   -0.0076   -0.0078
           6    0.0155   -0.0114    0.0269   -0.0083   -0.0063   -0.0206   -0.0142    0.0243
           7    0.0008   -0.0097    0.0013   -0.0090   -0.0099   -0.0076    0.0228    0.0078
           8    0.0102    0.0031   -0.0108   -0.0008    0.0243   -0.0108    0.0287    0.0024
           9   -0.0015   -0.0046   -0.0124    0.0287    0.0135    0.0287    0.0022    0.0112
          10    0.0000   -0.0070    0.0065   -0.0088   -0.0105   -0.0073    0.0342    0.0119
          11   -0.0083   -0.0062    0.0116    0.0085    0.0323    0.0019   -0.0079   -0.0111
          12   -0.0233    0.0362    0.0170   -0.0025    0.0078   -0.0014    0.0112   -0.0041
          13   -0.0032    0.0244   -0.0015   -0.0197    0.0110    0.0067   -0.0026    0.0207
          14    0.0042    0.0227    0.0097    0.0100   -0.0171    0.0130   -0.0136    0.0023
          15    0.0236    0.0050   -0.0059    0.0109   -0.0167   -0.0129   -0.0002   -0.0228
          16   -0.0065    0.0167   -0.0185    0.0270   -0.0021   -0.0080    0.0083   -0.0132
          17   -0.0145   -0.0112   -0.0107    0.0039   -0.0181   -0.0164   -0.0036    0.0132
          18    0.0240    0.0033    0.0063   -0.0067    0.0119   -0.0096   -0.0113    0.0193
          19    0.0104    0.0118    0.0010    0.0015   -0.0097    0.0028   -0.0046    0.0021
          20    0.0049    0.0253    0.0112    0.0129   -0.0211    0.0174   -0.0190    0.0034
          21   -0.0206   -0.0122   -0.0070   -0.0082    0.0165   -0.0042    0.0081    0.0019
          22   -0.0013   -0.0136   -0.0217   -0.0037    0.0041    0.0005   -0.0281   -0.0092
          23    0.0004    0.0087   -0.0059   -0.0235    0.0116   -0.0254   -0.0109   -0.0144
          24   -0.0074    0.0005    0.0026    0.0126   -0.0051    0.0205   -0.0002    0.0141
          25    0.0281    0.0055   -0.0003    0.0019    0.0085    0.0059    0.0075   -0.0135
          26   -0.0157   -0.0147   -0.0140   -0.0002   -0.0254   -0.0137   -0.0017    0.0151
          27   -0.0011   -0.0047   -0.0052   -0.0264   -0.0069    0.0328    0.0088   -0.0127
          28   -0.0027   -0.0100   -0.0214   -0.0031    0.0062    0.0028   -0.0281   -0.0061
          29    0.0029   -0.0086    0.0115    0.0057   -0.0036    0.0004    0.0029   -0.0011
          30   -0.0056    0.0015   -0.0149   -0.0113    0.0018   -0.0046   -0.0213   -0.0071
          31   -0.0028   -0.0011   -0.0006   -0.0012   -0.0009   -0.0001   -0.0007    0.0021
          32    0.0109   -0.0145   -0.0107   -0.0282   -0.0170    0.0274    0.0091   -0.0064
          33   -0.0143   -0.0033   -0.0093   -0.0032   -0.0136    0.0011    0.0032    0.0008
          34   -0.0217   -0.0225    0.0550    0.0014    0.0053   -0.0039   -0.0238    0.0029
          35    0.0106    0.0051   -0.0235    0.0101    0.0321    0.0092    0.0515    0.0221
          36    0.0248   -0.0136    0.0045    0.0183   -0.0129   -0.0182    0.0107   -0.0333
          37   -0.0157   -0.0295    0.0449    0.0159   -0.0002    0.0054   -0.0103   -0.0327
          38    0.0046   -0.0311    0.0141    0.0122    0.0358    0.0036   -0.0313   -0.0147
          39    0.0212   -0.0106    0.0216   -0.0095   -0.0012   -0.0205   -0.0197    0.0315
          40    0.0174   -0.0267   -0.0107   -0.0039   -0.0213   -0.0054    0.0490    0.0264
          41    0.0290   -0.0054   -0.0148    0.0031    0.0172   -0.0273    0.0576   -0.0061
          42   -0.0037   -0.0069   -0.0141    0.0282    0.0110    0.0366   -0.0011    0.0223
          43    0.0202   -0.0335   -0.0247    0.0074   -0.0114    0.0098    0.0341    0.0373
          44    0.0108   -0.0420    0.0230    0.0107    0.0248   -0.0063   -0.0493    0.0101
          45   -0.0469    0.0736    0.0291   -0.0137    0.0130   -0.0071    0.0368   -0.0329
          46   -0.0117    0.0244    0.0212   -0.0339   -0.0161   -0.0321    0.0630   -0.0017
          47   -0.0387    0.0261    0.0153    0.0140    0.0463    0.0155    0.0071   -0.0480
          48   -0.0430    0.0667    0.0265   -0.0119    0.0120   -0.0067    0.0328   -0.0283
          49   -0.0036    0.0316   -0.0032   -0.0248    0.0113    0.0087   -0.0062    0.0268
          50   -0.0014    0.0356    0.0111    0.0007   -0.0158    0.0200   -0.0236    0.0143
          51    0.0419    0.0504   -0.0411   -0.0186   -0.0141   -0.0137   -0.0039    0.0081
          52    0.0053    0.0668   -0.0291   -0.0484    0.0131    0.0119   -0.0134    0.0528
          53   -0.0122    0.0132    0.0145    0.0131   -0.0180    0.0202   -0.0197    0.0023
          54    0.0251   -0.0131    0.0064    0.0241   -0.0169   -0.0180    0.0077   -0.0381
          55   -0.0117    0.0222   -0.0243    0.0371    0.0016   -0.0163    0.0067   -0.0090
          56    0.0028   -0.0190   -0.0085   -0.0151   -0.0280   -0.0031    0.0030    0.0064
          57    0.0266    0.0402   -0.0540    0.0366    0.0142   -0.0509   -0.0045    0.0383
          58   -0.0101    0.0492   -0.0687    0.0652    0.0063   -0.0369    0.0142   -0.0036
          59   -0.0175   -0.0026   -0.0179    0.0265   -0.0219   -0.0534   -0.0134    0.0407
          60    0.0243   -0.0102    0.0295   -0.0180    0.0063   -0.0079   -0.0173    0.0234
          61    0.0469    0.0278   -0.0016    0.0059   -0.0190    0.0019   -0.0094   -0.0043
          62    0.0280    0.0432    0.0116    0.0181   -0.0377    0.0147   -0.0274   -0.0074
          63   -0.0551   -0.0309   -0.0057   -0.0137    0.0306   -0.0024    0.0153    0.0113
          64   -0.0197   -0.0123    0.0062    0.0130   -0.0178    0.0019   -0.0043   -0.0077
          65   -0.0296    0.0163    0.0079   -0.0114    0.0165    0.0241   -0.0065    0.0359
          66   -0.0523   -0.0286   -0.0063   -0.0148    0.0317   -0.0016    0.0150    0.0132
          67    0.0174    0.0106    0.0020    0.0085   -0.0177    0.0023   -0.0074   -0.0049
          68    0.0176    0.0175    0.0149    0.0338   -0.0441    0.0152   -0.0262   -0.0181
          69    0.0047    0.0050   -0.0131   -0.0193    0.0282   -0.0024    0.0108    0.0139
          70    0.0017   -0.0264   -0.0339    0.0233    0.0145    0.0302   -0.0397    0.0028
          71   -0.0063    0.0221    0.0186   -0.0521   -0.0114   -0.0565   -0.0101   -0.0330
          72   -0.0162    0.0105    0.0312   -0.0088   -0.0337   -0.0018   -0.0144   -0.0063
          73    0.0827    0.0049    0.0283   -0.0070    0.0468    0.0003   -0.0141    0.0124
          74   -0.0324   -0.0196   -0.0185    0.0035   -0.0360   -0.0178   -0.0002    0.0153
          75   -0.0251   -0.0063   -0.0160   -0.0212   -0.0232    0.0313    0.0156   -0.0195
          76    0.0256   -0.0073    0.0317   -0.0107    0.0387   -0.0210   -0.0430    0.0652
          77    0.0081   -0.0147   -0.0112   -0.0250   -0.0184    0.0222    0.0076   -0.0028
          78   -0.0566   -0.0014   -0.0245    0.0415   -0.0393   -0.0599   -0.0033    0.0237
          79   -0.0599   -0.0012   -0.0324    0.0060   -0.0492    0.0118    0.0300   -0.0390
          80    0.0399   -0.0150   -0.0075   -0.0660   -0.0077    0.0877    0.0273   -0.0435
          81    0.0133   -0.0034    0.0016   -0.0181    0.0045    0.0174   -0.0003    0.0014
          82    0.0014   -0.0242   -0.0179    0.0481    0.0120    0.0596    0.0040    0.0414
          83   -0.0015   -0.0098    0.0549    0.0042   -0.0459   -0.0068    0.0250   -0.0062
          84   -0.0108    0.0094    0.0090   -0.0437   -0.0274   -0.0438   -0.0288   -0.0397
          85   -0.0084    0.0069   -0.0233   -0.0527    0.0025   -0.0502   -0.0608   -0.0490
          86    0.0102   -0.0238   -0.0109    0.0418    0.0193    0.0408    0.0104    0.0282
          87    0.0006   -0.0045   -0.0608   -0.0101    0.0410    0.0002   -0.0521   -0.0099


   Root No.      17        18        19        20        21        22        23        24

                17 A      18 A      19 A      20 A      21 A      22 A      23 A      24 A   

                 603.8     652.4     738.1     811.1     872.5     895.3     914.3     929.8
  
           1   -0.0035   -0.0136   -0.0168   -0.0138   -0.0176   -0.0023    0.0083    0.0040
           2   -0.0031    0.0110   -0.0166    0.0057    0.0032   -0.0109   -0.0114    0.0016
           3    0.0026   -0.0075   -0.0158   -0.0061   -0.0128   -0.0185   -0.0015    0.0055
           4   -0.0048   -0.0148   -0.0113    0.0221    0.0044   -0.0036   -0.0028   -0.0044
           5    0.0088    0.0129    0.0227    0.0006    0.0030    0.0068    0.0044    0.0018
           6   -0.0240   -0.0002   -0.0077    0.0094   -0.0002    0.0016   -0.0123   -0.0092
           7    0.0090    0.0056    0.0221   -0.0008    0.0021    0.0035   -0.0043   -0.0018
           8   -0.0079   -0.0022   -0.0204    0.0033    0.0001   -0.0018    0.0011   -0.0085
           9   -0.0023    0.0109   -0.0244    0.0047   -0.0025    0.0095    0.0161    0.0067
          10    0.0086    0.0004    0.0233   -0.0002    0.0001    0.0236    0.0091    0.0107
          11    0.0067    0.0188    0.0280   -0.0030    0.0005    0.0157   -0.0053    0.0026
          12   -0.0016   -0.0009   -0.0081    0.0072    0.0007    0.0269   -0.0072    0.0064
          13   -0.0071    0.0025   -0.0173   -0.0307    0.0061   -0.0034   -0.0012    0.0010
          14   -0.0005    0.0000   -0.0010   -0.0013    0.0000   -0.0005   -0.0007   -0.0004
          15    0.0073   -0.0091    0.0131   -0.0062    0.0111    0.0131    0.0008   -0.0024
          16   -0.0007   -0.0071   -0.0099    0.0226    0.0335   -0.0029   -0.0023   -0.0013
          17    0.0001    0.0000    0.0012    0.0008    0.0031    0.0037   -0.0072   -0.0060
          18   -0.0052    0.0120    0.0144   -0.0076    0.0094   -0.0102    0.0175    0.0077
          19   -0.0012    0.0003   -0.0020   -0.0065    0.0045   -0.0012   -0.0033   -0.0012
          20   -0.0006    0.0005   -0.0030   -0.0025   -0.0028   -0.0035    0.0017    0.0023
          21    0.0001    0.0007    0.0023    0.0006    0.0051    0.0088    0.0008   -0.0034
          22    0.0070    0.0204   -0.0040   -0.0005    0.0009   -0.0049   -0.0076    0.0083
          23   -0.0182   -0.0425   -0.0021    0.0010   -0.0016    0.0062    0.0096   -0.0180
          24   -0.0010   -0.0081    0.0202   -0.0034    0.0016   -0.0073    0.0007   -0.0182
          25   -0.0301    0.0157    0.0070   -0.0052   -0.0021   -0.0007    0.0002    0.0034
          26    0.0042   -0.0046   -0.0024   -0.0017   -0.0006   -0.0045    0.0048    0.0019
          27    0.0144   -0.0085   -0.0050    0.0019   -0.0013    0.0015   -0.0002    0.0005
          28    0.0008    0.0044    0.0030   -0.0017    0.0011   -0.0077   -0.0057   -0.0014
          29    0.0004   -0.0015   -0.0024   -0.0002   -0.0027    0.0056    0.0094    0.0027
          30    0.0028    0.0078    0.0045   -0.0017    0.0025   -0.0114   -0.0124   -0.0133
          31    0.0063   -0.0026   -0.0009   -0.0010   -0.0038    0.0010   -0.0020   -0.0007
          32    0.0063   -0.0061   -0.0039   -0.0014    0.0013   -0.0082    0.0152    0.0115
          33    0.0033   -0.0036   -0.0033   -0.0006   -0.0051    0.0027   -0.0066   -0.0052
          34   -0.0143   -0.0221   -0.0216    0.0015   -0.0455    0.0028    0.0133   -0.0127
          35   -0.0059    0.0271   -0.0413    0.0223    0.0160   -0.0213   -0.0192    0.0086
          36    0.0087   -0.0115   -0.0013   -0.0194   -0.0051   -0.0150   -0.0001    0.0094
          37   -0.0009   -0.0295   -0.0241    0.0258   -0.0367   -0.0371    0.0027   -0.0109
          38    0.0065    0.0207    0.0437    0.0016    0.0052   -0.0332    0.0262   -0.0049
          39   -0.0256    0.0097    0.0070    0.0068    0.0186   -0.0007   -0.0041   -0.0082
          40    0.0083   -0.0074    0.0424   -0.0019    0.0057   -0.0267    0.0177   -0.0320
          41    0.0003    0.0164   -0.0472    0.0057    0.0005   -0.0568   -0.0243   -0.0050
          42   -0.0063   -0.0033   -0.0021    0.0030   -0.0010    0.0213    0.0363   -0.0083
          43    0.0011    0.0134   -0.0253    0.0088   -0.0042    0.1098    0.0425    0.0605
          44   -0.0187    0.0244    0.0084    0.0265    0.0091    0.0717   -0.0771   -0.0160
          45    0.0188   -0.0123    0.0354   -0.0162   -0.0015   -0.0611    0.0170   -0.0134
          46    0.0184   -0.0165    0.0741   -0.0195    0.0011   -0.0540    0.0044   -0.0368
          47    0.0345    0.0179    0.0648   -0.0225   -0.0014   -0.0515    0.0443    0.0131
          48    0.0163   -0.0097    0.0337   -0.0119   -0.0001   -0.0438    0.0145   -0.0112
          49   -0.0085    0.0046   -0.0110    0.0000   -0.0180   -0.0102    0.0077    0.0065
          50   -0.0035    0.0012    0.0069    0.0556   -0.0597   -0.0181    0.0255    0.0164
          51    0.0010    0.0177    0.0589    0.1376   -0.0240    0.0042   -0.0071   -0.0075
          52   -0.0139    0.0248    0.0214    0.1013   -0.0421   -0.0151    0.0029    0.0001
          53    0.0004   -0.0033   -0.0102   -0.0690    0.0549    0.0282   -0.0119   -0.0200
          54    0.0100   -0.0187   -0.0032   -0.0458    0.0132    0.0072    0.0033    0.0061
          55    0.0248   -0.0169   -0.0136    0.0187    0.0073    0.0040   -0.0109   -0.0077
          56   -0.0569    0.0272    0.0133   -0.0071    0.0456   -0.0127    0.0132    0.0120
          57    0.0547    0.0099    0.0206   -0.0816   -0.1154    0.0059    0.0017    0.0076
          58    0.0695   -0.0186   -0.0098   -0.0306   -0.0769    0.0186   -0.0226   -0.0059
          59    0.0245   -0.0117   -0.0046   -0.0120   -0.0477    0.0126   -0.0358   -0.0328
          60   -0.0327    0.0139    0.0124    0.0151    0.0481   -0.0183    0.0181    0.0011
          61    0.0029   -0.0006    0.0143    0.0379   -0.0223   -0.0013    0.0097    0.0044
          62    0.0030   -0.0098   -0.0039   -0.0789    0.0678    0.0495   -0.0085   -0.0244
          63   -0.0044    0.0063   -0.0079    0.0092   -0.0118   -0.0168   -0.0027    0.0059
          64    0.0011   -0.0017    0.0110    0.0337   -0.0202   -0.0018    0.0099    0.0055
          65   -0.0127    0.0156   -0.0374   -0.0161   -0.0224   -0.0613   -0.0159    0.0180
          66   -0.0048    0.0073   -0.0086    0.0136   -0.0166   -0.0207   -0.0019    0.0078
          67    0.0019   -0.0010    0.0110    0.0308   -0.0192   -0.0023    0.0085    0.0044
          68    0.0081   -0.0044    0.0316    0.0880   -0.0572   -0.0002    0.0320    0.0144
          69   -0.0033    0.0078   -0.0035    0.0209   -0.0184   -0.0190   -0.0010    0.0073
          70   -0.0040   -0.0004   -0.0026   -0.0014   -0.0027    0.0019    0.0497   -0.0692
          71    0.0009   -0.0075   -0.0035   -0.0019   -0.0012   -0.0094   -0.0646    0.1247
          72    0.0198    0.0294    0.0189   -0.0095   -0.0021   -0.0265   -0.0643    0.1477
          73    0.0390   -0.0055    0.0081   -0.0225   -0.0833    0.0230   -0.0055   -0.0281
          74    0.0110   -0.0116   -0.0094   -0.0035   -0.0283    0.0111   -0.0279   -0.0235
          75   -0.0037   -0.0049   -0.0082    0.0063    0.0123    0.0002   -0.0112    0.0002
          76    0.1891   -0.0855   -0.0386    0.0362    0.0635   -0.0196    0.0208    0.0163
          77    0.0068   -0.0064   -0.0038   -0.0017    0.0038   -0.0124    0.0228    0.0169
          78   -0.0571    0.0253    0.0146   -0.0162    0.0100   -0.0412    0.0804    0.0572
          79   -0.1205    0.0499    0.0210   -0.0241   -0.0565    0.0169   -0.0094   -0.0235
          80    0.0111   -0.0108   -0.0112    0.0005   -0.0367    0.0349   -0.0674   -0.0483
          81    0.0446   -0.0216   -0.0126    0.0072   -0.0014    0.0119   -0.0314   -0.0177
          82   -0.0159   -0.0473    0.0678   -0.0120    0.0138   -0.0580   -0.0783   -0.0472
          83    0.0619    0.1538   -0.0352    0.0038    0.0100   -0.0217   -0.0223   -0.0311
          84    0.0504    0.1340   -0.0551    0.0069    0.0024    0.0022    0.0125   -0.0057
          85    0.0078    0.0267   -0.0434    0.0038   -0.0127    0.0330    0.0743   -0.0223
          86   -0.0284   -0.0742    0.0377   -0.0055    0.0013   -0.0128   -0.0467    0.0842
          87   -0.0431   -0.1015    0.0169   -0.0041   -0.0089    0.0108   -0.0083    0.1161


   Root No.      25        26        27        28        29        30        31        32

                25 A      26 A      27 A      28 A      29 A      30 A      31 A      32 A   

                 936.8     955.5     972.3     977.8    1006.5    1021.5    1027.1    1044.5
  
           1   -0.0098    0.0118   -0.0138    0.0032   -0.0085    0.0009   -0.0026   -0.0022
           2    0.0055   -0.0050    0.0134   -0.0007   -0.0069   -0.0028   -0.0153   -0.0317
           3   -0.0084   -0.0035    0.0086    0.0108    0.0028    0.0036    0.0000    0.0002
           4    0.0148   -0.0057    0.0062   -0.0134    0.0065    0.0014   -0.0016   -0.0073
           5    0.0015   -0.0059    0.0011   -0.0016    0.0120   -0.0007    0.0009   -0.0101
           6   -0.0005   -0.0032    0.0038   -0.0061   -0.0044    0.0025    0.0021    0.0008
           7   -0.0012    0.0042   -0.0014    0.0015   -0.0042    0.0022    0.0050    0.0287
           8    0.0017    0.0118   -0.0174   -0.0057   -0.0002    0.0016    0.0090    0.0138
           9   -0.0005   -0.0089   -0.0062   -0.0070   -0.0017    0.0011    0.0018    0.0056
          10   -0.0037   -0.0061    0.0086    0.0049    0.0081   -0.0008   -0.0030   -0.0244
          11   -0.0062    0.0069    0.0064    0.0090   -0.0113    0.0001    0.0023    0.0125
          12    0.0011    0.0129    0.0063    0.0062    0.0059    0.0022    0.0041    0.0119
          13   -0.0026    0.0001   -0.0033    0.0069   -0.0060   -0.0129   -0.0046   -0.0039
          14   -0.0002    0.0011   -0.0001    0.0004   -0.0007   -0.0009   -0.0009   -0.0010
          15    0.0032    0.0036   -0.0024    0.0009    0.0005   -0.0057    0.0036   -0.0015
          16    0.0051   -0.0069   -0.0059    0.0150   -0.0018   -0.0061   -0.0003    0.0067
          17   -0.0104   -0.0126   -0.0120    0.0068    0.0021    0.0001   -0.0013    0.0022
          18    0.0025   -0.0035   -0.0099    0.0024    0.0071   -0.0040   -0.0034   -0.0022
          19    0.0007   -0.0050    0.0089   -0.0006    0.0077    0.0088    0.0066    0.0063
          20   -0.0032   -0.0047    0.0055    0.0043    0.0057    0.0020    0.0055    0.0037
          21    0.0069    0.0039   -0.0106   -0.0144   -0.0100    0.0027   -0.0100   -0.0068
          22    0.0023    0.0017   -0.0034   -0.0011    0.0023    0.0013   -0.0092    0.0026
          23   -0.0020    0.0075   -0.0008    0.0030    0.0079   -0.0026    0.0223   -0.0086
          24   -0.0021   -0.0006    0.0073    0.0023   -0.0081   -0.0022    0.0085   -0.0046
          25   -0.0234    0.0069    0.0070   -0.0091   -0.0015    0.0125    0.0027   -0.0135
          26    0.0052    0.0014    0.0016   -0.0034    0.0015   -0.0039   -0.0010   -0.0027
          27    0.0077    0.0026    0.0014    0.0034   -0.0020   -0.0002    0.0004    0.0064
          28    0.0014    0.0020   -0.0024   -0.0015   -0.0028   -0.0029    0.0192   -0.0057
          29   -0.0037   -0.0095    0.0072    0.0020   -0.0029    0.0047   -0.0339    0.0134
          30    0.0025    0.0159   -0.0021    0.0051    0.0127    0.0034   -0.0282   -0.0022
          31   -0.0076    0.0015    0.0057   -0.0132    0.0081   -0.0257   -0.0043    0.0142
          32    0.0154    0.0184    0.0139   -0.0043   -0.0036    0.0020    0.0017    0.0007
          33   -0.0017   -0.0068   -0.0048    0.0021   -0.0008    0.0048    0.0002   -0.0059
          34   -0.0167    0.0201   -0.0274   -0.0296   -0.0002    0.0573    0.0066    0.0015
          35    0.0269   -0.0186    0.0119   -0.0332   -0.0426   -0.0080   -0.0497   -0.0530
          36   -0.0145   -0.0009    0.0156    0.0408    0.0163   -0.0203    0.0128    0.0090
          37    0.0123   -0.0068    0.0097   -0.0481    0.0336    0.0587    0.0187    0.0094
          38    0.0028   -0.0310   -0.0159   -0.0361    0.0505    0.0122    0.0116   -0.0104
          39    0.0004   -0.0132   -0.0062   -0.0047    0.0001   -0.0183   -0.0030   -0.0074
          40   -0.0042   -0.0370   -0.0056   -0.0212   -0.0464    0.0061    0.0520    0.1521
          41    0.0120    0.0056   -0.0300   -0.0198   -0.0082    0.0183   -0.0355    0.0954
          42   -0.0065   -0.0238   -0.0010   -0.0099   -0.0172   -0.0053    0.0428    0.0193
[...]
 FREQ.      1468.26        C  2 --  C  3           +9.9% ( 53.3%)    99.7%
 T-DIPOLE    0.0609        C  1 --  C  3           +9.4% ( 52.0%)    58.3%
 TRAVEL      0.0683        C  1 --  C  2           +8.0% ( 48.0%)    58.0%
 RED. MASS   1.4159        C  3 --  C  8           +7.1% ( 45.0%)    90.8%
 EFF. MASS   9.8492

 VIBRATION   62   62A       ATOM PAIR        ENERGY CONTRIBUTION    RADIAL
 FREQ.      1860.46        C  9 --  C 11          +45.0% ( 99.0%)    98.9%
 T-DIPOLE    0.2274        C  6 --  C  9          +16.6% ( 60.2%)    54.4%
 TRAVEL      0.0554        C  9 --  H 25          +15.4% ( 57.8%)     3.9%
 RED. MASS   5.2437        C 11 --  H 27          +10.9% ( 48.7%)    10.9%
 EFF. MASS  11.7926        C 11 --  H 26          +10.7% ( 48.3%)    12.9%

 VIBRATION   63   63A       ATOM PAIR        ENERGY CONTRIBUTION    RADIAL
 FREQ.      1861.39        C  8 --  C 10          +44.5% ( 98.8%)    98.8%
 T-DIPOLE    0.2444        C  3 --  C  8          +16.9% ( 60.9%)    57.1%
 TRAVEL      0.0554        C  8 --  H 24          +15.3% ( 58.0%)     3.7%
 RED. MASS   5.2395        C 10 --  H 29          +10.7% ( 48.4%)    11.0%
 EFF. MASS  11.8218        C 10 --  H 28          +10.5% ( 47.9%)    13.1%

 VIBRATION   64   64A       ATOM PAIR        ENERGY CONTRIBUTION    RADIAL
 FREQ.      2927.93        C  3 --  H 14          +72.4% ( 87.1%)   100.0%
 T-DIPOLE    0.0737        C  1 --  H 12          +20.7% ( 46.6%)   100.0%
 TRAVEL      0.1260        C  1 --  C  3           +1.1% ( 10.7%)    17.0%
 RED. MASS   0.5768        C  2 --  H 13           +0.9% (  9.9%)    99.9%
 EFF. MASS   1.4514

 VIBRATION   65   65A       ATOM PAIR        ENERGY CONTRIBUTION    RADIAL
 FREQ.      2933.09        C  2 --  H 13          +38.5% ( 63.7%)   100.0%
 T-DIPOLE    0.0786        C  1 --  H 12          +22.6% ( 48.8%)   100.0%
 TRAVEL      0.1251        C  3 --  H 14          +13.4% ( 37.5%)   100.0%
 RED. MASS   0.2434        C  6 --  H 20           +9.9% ( 32.3%)    96.4%
 EFF. MASS   1.4688

 VIBRATION   66   66A       ATOM PAIR        ENERGY CONTRIBUTION    RADIAL
 FREQ.      2937.67        C  1 --  H 12          +35.8% ( 61.6%)   100.0%
 T-DIPOLE    0.1010        C  6 --  H 19          +21.9% ( 48.2%)    96.8%
 TRAVEL      0.1242        C  6 --  H 20          +18.8% ( 44.6%)    96.0%
 RED. MASS   0.2339        C  3 --  H 14           +8.1% ( 29.4%)    99.9%
 EFF. MASS   1.4888

 VIBRATION   67   67A       ATOM PAIR        ENERGY CONTRIBUTION    RADIAL
 FREQ.      2943.96        C  2 --  H 13          +48.1% ( 71.2%)   100.0%
 T-DIPOLE    0.1168        C  6 --  H 19          +21.3% ( 47.4%)    97.0%
 TRAVEL      0.1243        C  6 --  H 20          +17.6% ( 43.1%)    96.2%
 RED. MASS   0.3239        C  1 --  H 12           +5.2% ( 23.5%)    99.9%
 EFF. MASS   1.4818

 VIBRATION   68   68A       ATOM PAIR        ENERGY CONTRIBUTION    RADIAL
 FREQ.      2949.94        C  5 --  H 18          +43.0% ( 67.9%)    96.6%
 T-DIPOLE    0.0496        C  5 --  H 17          +43.0% ( 67.9%)    96.5%
 TRAVEL      0.1223        C  1 --  H 12          +10.1% ( 33.0%)   100.0%
 RED. MASS   0.4086        C  1 --  C  5           +1.1% ( 10.7%)     1.2%
 EFF. MASS   1.5285

 VIBRATION   69   69A       ATOM PAIR        ENERGY CONTRIBUTION    RADIAL
 FREQ.      3016.65        C  6 --  H 20          +52.0% ( 71.1%)    98.0%
 T-DIPOLE    0.0539        C  6 --  H 19          +45.6% ( 66.6%)    97.3%
 TRAVEL      0.1322        C  9 --  H 25           +1.0% (  9.9%)    99.7%
 RED. MASS   0.4760        C  6 --  C  9           +0.7% (  8.0%)    30.0%
 EFF. MASS   1.2783

 VIBRATION   70   70A       ATOM PAIR        ENERGY CONTRIBUTION    RADIAL
 FREQ.      3027.23        C  5 --  H 17          +49.2% ( 69.1%)    97.7%
 T-DIPOLE    0.0209        C  5 --  H 18          +48.8% ( 68.8%)    97.7%
 TRAVEL      0.1322        C  5 --  C  7           +0.6% (  7.8%)    26.3%
 RED. MASS   0.4779        C  1 --  C  5           +0.6% (  7.7%)    29.3%
 EFF. MASS   1.2752

 VIBRATION   71   71A       ATOM PAIR        ENERGY CONTRIBUTION    RADIAL
 FREQ.      3031.70        C  4 --  H 16          +60.4% ( 80.9%)    98.1%
 T-DIPOLE    0.1005        C  4 --  H 15          +34.8% ( 61.4%)    94.9%
 TRAVEL      0.1202        C  1 --  C  4           +1.1% ( 11.0%)     0.6%
 RED. MASS   0.5359        C  3 --  C  4           +1.1% ( 10.9%)     0.3%
 EFF. MASS   1.5384

 VIBRATION   72   72A       ATOM PAIR        ENERGY CONTRIBUTION    RADIAL
 FREQ.      3034.32        C  9 --  H 25          +94.9% ( 98.8%)   100.0%
 T-DIPOLE    0.2238        C  9 --  C 11           +1.4% ( 12.0%)    31.0%
 TRAVEL      0.1218        C  6 --  C  9           +1.3% ( 11.6%)    13.6%
 RED. MASS   0.8858        C  6 --  H 20           +0.9% (  9.5%)    99.5%
 EFF. MASS   1.4989

 VIBRATION   73   73A       ATOM PAIR        ENERGY CONTRIBUTION    RADIAL
 FREQ.      3038.15        C  8 --  H 24          +95.5% ( 99.2%)   100.0%
 T-DIPOLE    0.2406        C  8 --  C 10           +1.4% ( 12.1%)    30.8%
 TRAVEL      0.1215        C  3 --  C  8           +1.3% ( 11.8%)    14.2%
 RED. MASS   0.8995        C 10 --  H 28           +0.8% (  9.2%)    95.0%
 EFF. MASS   1.5045

 VIBRATION   74   74A       ATOM PAIR        ENERGY CONTRIBUTION    RADIAL
 FREQ.      3068.48        C  7 --  H 23          +67.8% ( 84.9%)    98.8%
 T-DIPOLE    0.0514        C  7 --  H 21          +26.2% ( 52.8%)    91.7%
 TRAVEL      0.1211        C  7 --  H 22           +4.3% ( 21.3%)    51.0%
 RED. MASS   0.5573        C  5 --  C  7           +1.0% ( 10.2%)     0.1%
 EFF. MASS   1.4990

 VIBRATION   75   75A       ATOM PAIR        ENERGY CONTRIBUTION    RADIAL
 FREQ.      3084.64        C  7 --  H 22          +55.8% ( 77.0%)    98.2%
 T-DIPOLE    0.0063        C  7 --  H 21          +37.7% ( 63.3%)    94.7%
 TRAVEL      0.1205        C  7 --  H 23           +5.1% ( 23.3%)    54.2%
 RED. MASS   0.4843        C  5 --  C  7           +1.0% ( 10.4%)     0.0%
 EFF. MASS   1.5045

 VIBRATION   76   76A       ATOM PAIR        ENERGY CONTRIBUTION    RADIAL
 FREQ.      3099.70        C  4 --  H 15          +63.0% ( 78.8%)    98.6%
 T-DIPOLE    0.0775        C  4 --  H 16          +34.9% ( 58.6%)    94.6%
 TRAVEL      0.1300        C  1 --  C  4           +0.7% (  8.3%)    97.2%
 RED. MASS   0.5179        C  2 --  C  4           +0.7% (  8.3%)    47.5%
 EFF. MASS   1.2878

 VIBRATION   77   77A       ATOM PAIR        ENERGY CONTRIBUTION    RADIAL
 FREQ.      3131.15        C 10 --  H 29          +96.6% ( 99.7%)   100.0%
 T-DIPOLE    0.2058        C 10 --  H 28           +2.0% ( 14.5%)    37.7%
 TRAVEL      0.1194        C  8 --  C 10           +1.4% ( 11.9%)    34.8%
 RED. MASS   0.9203
 EFF. MASS   1.5102

 VIBRATION   78   78A       ATOM PAIR        ENERGY CONTRIBUTION    RADIAL
 FREQ.      3135.90        C 11 --  H 27          +91.4% ( 97.3%)    99.9%
 T-DIPOLE    0.1907        C 11 --  H 26           +7.3% ( 27.5%)    72.9%
 TRAVEL      0.1182        C  9 --  C 11           +1.3% ( 11.7%)    21.3%
 RED. MASS   0.8471
 EFF. MASS   1.5402

 VIBRATION   79   79A       ATOM PAIR        ENERGY CONTRIBUTION    RADIAL
 FREQ.      3147.89        C 11 --  H 26          +90.3% ( 95.7%)    99.7%
 T-DIPOLE    0.2520        C 11 --  H 27           +6.2% ( 25.0%)    44.3%
 TRAVEL      0.1210        C  9 --  C 11           +1.6% ( 12.6%)    73.6%
 RED. MASS   0.7937        C 10 --  H 28           +1.2% ( 10.9%)    99.9%
 EFF. MASS   1.4625

 VIBRATION   80   80A       ATOM PAIR        ENERGY CONTRIBUTION    RADIAL
 FREQ.      3148.08        C 10 --  H 28          +94.9% ( 98.4%)    99.9%
 T-DIPOLE    0.2452        C 10 --  H 29           +1.6% ( 12.9%)     0.4%
 TRAVEL      0.1198        C  8 --  C 10           +1.5% ( 12.4%)    58.3%
 RED. MASS   0.8771        C 11 --  H 26           +1.1% ( 10.6%)    99.6%
 EFF. MASS   1.4936

 VIBRATION   81   81A       ATOM PAIR        ENERGY CONTRIBUTION    RADIAL
 FREQ.      3175.50        C  7 --  H 22          +39.7% ( 60.6%)    97.9%
 T-DIPOLE    0.0299        C  7 --  H 21          +35.4% ( 57.3%)    97.3%
 TRAVEL      0.1365        C  7 --  H 23          +24.6% ( 47.8%)    95.2%
 RED. MASS   0.3367        C  5 --  C  7           +0.3% (  5.2%)    97.0%
 EFF. MASS   1.1393

 SYMMETRY NUMBER FOR POINT-GROUP C1  =  1


          SYSTEM IS A GROUND STATE


    NULL



          MOLECULE IS NOT LINEAR

          THERE ARE 81 GENUINE VIBRATIONS IN THIS SYSTEM
          THIS THERMODYNAMICS CALCULATION IS LIMITED TO
          MOLECULES WHICH HAVE NO INTERNAL ROTATIONS




                    CALCULATED THERMODYNAMIC PROPERTIES
                                          *
   TEMP. (K)   PARTITION FUNCTION   H.O.F.    ENTHALPY  HEAT CAPACITY ENTROPY
                                   KCAL/MOL   CAL/MOLE    CAL/K/MOL  CAL/K/MOL


 298.00  VIB.     0.7861D+04                  5925.8895    40.7018    37.7102
         ROT.     0.1108D+07                   888.2813     2.9808    30.6383
         INT.     0.8708D+10                  6814.1708    43.6826    68.3486
         TRA.     0.1781D+28                  1480.4688     4.9680    40.9296
         TOT.                       16.151    8294.6396    48.6507   109.2782

 200.00  VIB.     0.2948D+03                  2674.4488    26.1625    24.6720
         ROT.     0.6090D+06                   596.1620     2.9808    29.4497
         INT.     0.1795D+09                  3270.6107    29.1433    54.1216
         TRA.     0.9791D+27                   993.6033     4.9680    38.9485
         TOT.                       12.121    4264.2140    34.1113    93.0701

 210.00  VIB.     0.4125D+03                  2942.6801    27.4904    25.9804
         ROT.     0.6553D+06                   625.9700     2.9808    29.5951
         INT.     0.2703D+09                  3568.6502    30.4712    55.5755
         TRA.     0.1053D+28                  1043.2834     4.9680    39.1909
         TOT.                       12.469    4611.9336    35.4392    94.7664

 220.00  VIB.     0.5770D+03                  3224.3917    28.8586    27.2907
         ROT.     0.7026D+06                   655.7781     2.9808    29.7338
         INT.     0.4054D+09                  3880.1698    31.8394    57.0244
         TRA.     0.1130D+28                  1092.9636     4.9680    39.4220
         TOT.                       12.830    4973.1334    36.8075    96.4464

 230.00  VIB.     0.8066D+03                  3519.9870    30.2670    28.6044
         ROT.     0.7511D+06                   685.5862     2.9808    29.8663
         INT.     0.6059D+09                  4205.5732    33.2479    58.4707
         TRA.     0.1207D+28                  1142.6437     4.9680    39.6428
         TOT.                       13.205    5348.2170    38.2159    98.1135

 240.00  VIB.     0.1127D+04                  3829.8618    31.7142    29.9230
         ROT.     0.8006D+06                   715.3943     2.9808    29.9931
         INT.     0.9025D+09                  4545.2562    34.6950    59.9161
         TRA.     0.1287D+28                  1192.3239     4.9680    39.8543
         TOT.                       13.594    5737.5801    39.6630    99.7704

 250.00  VIB.     0.1575D+04                  4154.3920    33.1976    31.2476
         ROT.     0.8511D+06                   745.2024     2.9808    30.1148
         INT.     0.1341D+10                  4899.5945    36.1784    61.3624
         TRA.     0.1368D+28                  1242.0041     4.9680    40.0571
         TOT.                       13.998    6141.5985    41.1464   101.4195

 260.00  VIB.     0.2201D+04                  4493.9239    34.7139    32.5791
         ROT.     0.9027D+06                   775.0105     2.9808    30.2317
         INT.     0.1987D+10                  5268.9345    37.6947    62.8108
         TRA.     0.1451D+28                  1291.6842     4.9680    40.2519
         TOT.                       14.417    6560.6187    42.6628   103.0627

 270.00  VIB.     0.3075D+04                  4848.7670    36.2592    33.9181
         ROT.     0.9553D+06                   804.8186     2.9808    30.3442
         INT.     0.2938D+10                  5653.5857    39.2400    64.2623
         TRA.     0.1536D+28                  1341.3644     4.9680    40.4394
         TOT.                       14.852    6994.9500    44.2080   104.7017

 280.00  VIB.     0.4299D+04                  5219.1891    37.8290    35.2651
         ROT.     0.1009D+07                   834.6267     2.9808    30.4526
         INT.     0.4337D+10                  6053.8158    40.8098    65.7177
         TRA.     0.1622D+28                  1391.0445     4.9680    40.6201
         TOT.                       15.302    7444.8603    45.7778   106.3378

 290.00  VIB.     0.6010D+04                  5605.4129    39.4187    36.6202
         ROT.     0.1063D+07                   864.4348     2.9808    30.5572
         INT.     0.6391D+10                  6469.8477    42.3996    67.1774
         TRA.     0.1710D+28                  1440.7247     4.9680    40.7944
         TOT.                       15.767    7910.5724    47.3676   107.9718

 300.00  VIB.     0.8408D+04                  6007.6151    41.0239    37.9836
         ROT.     0.1119D+07                   894.2429     2.9808    30.6583
         INT.     0.9407D+10                  6901.8580    44.0047    68.6418
         TRA.     0.1799D+28                  1490.4049     4.9680    40.9628
         TOT.                       16.249    8392.2629    48.9727   109.6047

 310.00  VIB.     0.1177D+05                  6425.9258    42.6397    39.3551
         ROT.     0.1175D+07                   924.0510     2.9808    30.7560
         INT.     0.1383D+11                  7349.9769    45.6205    70.1111
         TRA.     0.1889D+28                  1540.0850     4.9680    41.1257
         TOT.                       16.747    8890.0619    50.5885   111.2368

 320.00  VIB.     0.1648D+05                  6860.4303    44.2619    40.7344
         ROT.     0.1233D+07                   953.8591     2.9808    30.8506
         INT.     0.2031D+11                  7814.2894    47.2427    71.5851
         TRA.     0.1982D+28                  1589.7652     4.9680    41.2835
         TOT.                       17.261    9404.0546    52.2107   112.8685

 330.00  VIB.     0.2310D+05                  7311.1703    45.8861    42.1213
         ROT.     0.1291D+07                   983.6672     2.9808    30.9424
         INT.     0.2981D+11                  8294.8375    48.8669    73.0637
         TRA.     0.2075D+28                  1639.4454     4.9680    41.4364
         TOT.                       17.791    9934.2829    53.8350   114.5000

 340.00  VIB.     0.3239D+05                  7778.1470    47.5086    43.5152
         ROT.     0.1350D+07                  1013.4753     2.9808    31.0314
         INT.     0.4372D+11                  8791.6223    50.4894    74.5466
         TRA.     0.2170D+28                  1689.1255     4.9680    41.5847
         TOT.                       18.338   10480.7479    55.4574   116.1313

 350.00  VIB.     0.4546D+05                  8261.3242    49.1256    44.9157
         ROT.     0.1410D+07                  1043.2834     2.9808    31.1178
         INT.     0.6409D+11                  9304.6076    52.1065    76.0335
         TRA.     0.2267D+28                  1738.8057     4.9680    41.7287
         TOT.                       18.900   11043.4133    57.0745   117.7622

 360.00  VIB.     0.6385D+05                  8760.6310    50.7340    46.3222
         ROT.     0.1471D+07                  1073.0915     2.9808    31.2017
         INT.     0.9391D+11                  9833.7225    53.7148    77.5240
         TRA.     0.2364D+28                  1788.4859     4.9680    41.8686
         TOT.                       19.479   11622.2084    58.6829   119.3926

 370.00  VIB.     0.8976D+05                  9275.9661    52.3308    47.7341
         ROT.     0.1532D+07                  1102.8996     2.9808    31.2834
         INT.     0.1376D+12                 10378.8657    55.3116    79.0175
         TRA.     0.2464D+28                  1838.1660     4.9680    42.0047
         TOT.                       20.074   12217.0317    60.2797   121.0222

 380.00  VIB.     0.1263D+06                  9807.2003    53.9135    49.1507
         ROT.     0.1595D+07                  1132.7077     2.9808    31.3629
         INT.     0.2014D+12                 10939.9080    56.8943    80.5136
         TRA.     0.2564D+28                  1887.8462     4.9680    42.1372
         TOT.                       20.685   12827.7542    61.8623   122.6508

 390.00  VIB.     0.1778D+06                 10354.1808    55.4797    50.5714
         ROT.     0.1658D+07                  1162.5158     2.9808    31.4403
         INT.     0.2949D+12                 11516.6966    58.4605    82.0117
         TRA.     0.2666D+28                  1937.5263     4.9680    42.2663
         TOT.                       21.311   13454.2229    63.4285   124.2780

 400.00  VIB.     0.2505D+06                 10916.7336    57.0277    51.9956
         ROT.     0.1723D+07                  1192.3239     2.9808    31.5158
         INT.     0.4316D+12                 12109.0575    60.0085    83.5114
         TRA.     0.2769D+28                  1987.2065     4.9680    42.3921
         TOT.                       21.953   14096.2640    64.9765   125.9035

   *: NOTE: HEATS OF FORMATION ARE RELATIVE TO THE
            ELEMENTS IN THEIR STANDARD STATE AT 298K
              (=  Standard Enthalpy of Formation).

            Hvib:  Zero-point energy is not included.
                   frequencies of less than zero cm-1 are not included.
            Hrot = (3/2)RT
            Htra = (3/2)RT + pV = (5/2)RT

            Heat capacity is Cp, not Cv

           For more information, see: HTTP://OpenMOPAC.net/Manual/thermochemistry.html


           FORCE CONSTANT IN CARTESIAN COORDINATES (Millidynes/A)

    ATOM   CHEMICAL       X               Y               Z
   NUMBER   SYMBOL  FORCE CONSTANT  FORCE CONSTANT  FORCE CONSTANT

      1       C        7.802430        7.906521        8.715190
      2       C        7.753933        8.184806        8.669407
      3       C        8.397946        7.915654        8.901252
      4       C        7.922681        7.901960        8.625147
      5       C        8.284717        8.511956        8.297010
      6       C        8.036133        9.120635        8.397388
      7       C        8.211204        8.310165        8.356379
      8       C       13.257356        6.925004        7.123806
      9       C        3.351294       11.628814       12.123473
     10       C       13.057082        6.559668        6.884574
     11       C        2.940039       11.668705       11.891471
     12       H        1.359611        1.351581        3.532708
     13       H        1.355486        1.245457        3.655744
     14       H        1.204417        1.348136        3.566096
     15       H        1.600281        1.595175        3.438723
     16       H        1.360586        1.349495        3.906799
     17       H        4.531427        1.134979        0.691586
     18       H        1.612977        1.143735        3.641132
     19       H        4.490788        1.057305        0.684656
     20       H        1.625882        1.061506        3.698359
     21       H        1.924615        1.251533        3.605928
     22       H        1.441530        1.399187        3.950934
     23       H        4.811191        1.209727        0.692608
     24       H        1.765336        3.081553        1.358877
     25       H        0.725030        1.347761        4.146359
     26       H        0.374445        5.391990        0.710629
     27       H        0.752617        1.196666        4.518826
     28       H        1.600482        1.602151        3.281377
     29       H        1.934538        3.211300        1.297221



 TOTAL CPU TIME:             6.57 SECONDS

 == MOPAC DONE ==
