 *******************************************************************************
 ** Site#: 14399           For non-commercial use only        Version 13.159M **
 *******************************************************************************
 ** Cite this work as: MOPAC2012, James J. P. Stewart, Stewart Computational  **
 ** Chemistry, Version 13.159M web: HTTP://OpenMOPAC.net  Days remaining:   6 **
 *******************************************************************************
 **                                                                           **
 **                                MOPAC2012                                  **
 **                                                                           **
 *******************************************************************************

                            PM3 CALCULATION RESULTS


 *******************************************************************************
 *  CALCULATION DONE:                                Mon Jun  2 11:11:11 2014  *
 *  PM3      - The PM3 Hamiltonian to be used
 *  PRECISE  - CRITERIA TO BE INCREASED BY 100 TIMES
 *  NOSYM    - POINT-GROUP SYMMETRY SET TO C1
 *  T=       - A TIME OF 172800.0 SECONDS REQUESTED
 *  DUMP=N   - RESTART FILE WRITTEN EVERY  7200.000 SECONDS
 *******************************************************************************
pm3  precise nosym
 InChI=1S/C10H14/c1-3-6-9(2)10-7-4-5-8-10/h3-6,10H,2,7-8H2,1H3

   ATOM   CHEMICAL          X               Y               Z
  NUMBER   SYMBOL      (ANGSTROMS)     (ANGSTROMS)     (ANGSTROMS)
 
     1       C         -1.19620000  *  -0.63740000  *  -0.21680000  *
     2       C         -1.67230000  *   0.38410000  *   0.82750000  *
     3       C         -1.09110000  *   0.10470000  *  -1.55800000  *
     4       C          3.03860000  *   1.02660000  *   0.62000000  *
     5       C          0.04940000  *  -1.41570000  *   0.17790000  *
     6       C         -2.00930000  *   1.58110000  *   0.01110000  *
     7       C         -1.69790000  *   1.43140000  *  -1.26710000  *
     8       C          1.66250000  *   0.51150000  *   0.34510000  *
     9       C          1.37690000  *  -0.79150000  *   0.42810000  *
    10       C         -0.04130000  *  -2.74490000  *   0.31140000  *
    11       H         -2.06370000  *  -1.33220000  *  -0.34670000  *
    12       H         -0.90410000  *   0.66000000  *   1.58510000  *
    13       H         -2.57720000  *   0.03070000  *   1.37440000  *
    14       H         -1.66650000  *  -0.40720000  *  -2.36410000  *
    15       H         -0.04930000  *   0.24900000  *  -1.92380000  *
    16       H          3.76900000  *   0.57790000  *  -0.09100000  *
    17       H          3.06680000  *   2.13280000  *   0.49730000  *
    18       H          3.34150000  *   0.78350000  *   1.66380000  *
    19       H         -2.43830000  *   2.49400000  *   0.41940000  *
    20       H          0.91180000  *   1.24420000  *   0.07640000  *
    21       H         -1.84550000  *   2.20910000  *  -2.01380000  *
    22       H          2.19610000  *  -1.45280000  *   0.70520000  *
    23       H         -0.97120000  *  -3.28150000  *   0.14770000  *
    24       H          0.81140000  *  -3.35750000  *   0.59090000  *
 


          CARTESIAN COORDINATES 

    NO.       ATOM         X         Y         Z

     1         C       -1.1962   -0.6374   -0.2168
     2         C       -1.6723    0.3841    0.8275
     3         C       -1.0911    0.1047   -1.5580
     4         C        3.0386    1.0266    0.6200
     5         C        0.0494   -1.4157    0.1779
     6         C       -2.0093    1.5811    0.0111
     7         C       -1.6979    1.4314   -1.2671
     8         C        1.6625    0.5115    0.3451
     9         C        1.3769   -0.7915    0.4281
    10         C       -0.0413   -2.7449    0.3114
    11         H       -2.0637   -1.3322   -0.3467
    12         H       -0.9041    0.6600    1.5851
    13         H       -2.5772    0.0307    1.3744
    14         H       -1.6665   -0.4072   -2.3641
    15         H       -0.0493    0.2490   -1.9238
    16         H        3.7690    0.5779   -0.0910
    17         H        3.0668    2.1328    0.4973
    18         H        3.3415    0.7835    1.6638
    19         H       -2.4383    2.4940    0.4194
    20         H        0.9118    1.2442    0.0764
    21         H       -1.8455    2.2091   -2.0138
    22         H        2.1961   -1.4528    0.7052
    23         H       -0.9712   -3.2815    0.1477
    24         H        0.8114   -3.3575    0.5909

  H: (PM3): J. J. P. STEWART, J. COMP. CHEM. 10, 209 (1989).
  C: (PM3): J. J. P. STEWART, J. COMP. CHEM. 10, 209 (1989).

           Empirical Formula: C10 H14  =    24 atoms



      MOLECULAR POINT GROUP   :   C1  


      RHF CALCULATION, NO. OF DOUBLY OCCUPIED LEVELS =   27

      Geometry optimization using EF

          DIAGONAL MATRIX USED AS START HESSIAN

 CYCLE:     1 TIME:   0.011 TIME LEFT:  2.00D  GRAD.:    65.126 HEAT: 35.23798
 CYCLE:     2 TIME:   0.022 TIME LEFT:  2.00D  GRAD.:    76.569 HEAT: 34.64093
 CYCLE:     3 TIME:   0.008 TIME LEFT:  2.00D  GRAD.:    70.137 HEAT: 34.19588
 CYCLE:     4 TIME:   0.008 TIME LEFT:  2.00D  GRAD.:    56.543 HEAT: 33.58751
 CYCLE:     5 TIME:   0.018 TIME LEFT:  2.00D  GRAD.:    32.004 HEAT: 33.01956
 CYCLE:     6 TIME:   0.015 TIME LEFT:  2.00D  GRAD.:    19.358 HEAT: 32.78749
 CYCLE:     7 TIME:   0.008 TIME LEFT:  2.00D  GRAD.:    20.855 HEAT: 32.61443
 CYCLE:     8 TIME:   0.008 TIME LEFT:  2.00D  GRAD.:    21.406 HEAT: 32.40058
 CYCLE:     9 TIME:   0.015 TIME LEFT:  2.00D  GRAD.:    20.895 HEAT: 32.34219
 CYCLE:    10 TIME:   0.015 TIME LEFT:  2.00D  GRAD.:    14.099 HEAT: 32.25043
 CYCLE:    11 TIME:   0.014 TIME LEFT:  2.00D  GRAD.:    10.253 HEAT: 32.21772
 CYCLE:    12 TIME:   0.008 TIME LEFT:  2.00D  GRAD.:    13.187 HEAT: 32.20540
 CYCLE:    13 TIME:   0.008 TIME LEFT:  2.00D  GRAD.:     5.609 HEAT: 32.16617
 CYCLE:    14 TIME:   0.008 TIME LEFT:  2.00D  GRAD.:     9.779 HEAT: 32.15180
 CYCLE:    15 TIME:   0.008 TIME LEFT:  2.00D  GRAD.:     6.968 HEAT: 32.12150
 CYCLE:    16 TIME:   0.014 TIME LEFT:  2.00D  GRAD.:     7.794 HEAT: 32.10872
 CYCLE:    17 TIME:   0.008 TIME LEFT:  2.00D  GRAD.:     4.844 HEAT: 32.08492
 CYCLE:    18 TIME:   0.008 TIME LEFT:  2.00D  GRAD.:     9.169 HEAT: 32.06812
 CYCLE:    19 TIME:   0.008 TIME LEFT:  2.00D  GRAD.:     5.987 HEAT: 32.03498
 CYCLE:    20 TIME:   0.008 TIME LEFT:  2.00D  GRAD.:    10.655 HEAT: 32.02213
 CYCLE:    21 TIME:   0.008 TIME LEFT:  2.00D  GRAD.:     7.458 HEAT: 31.98359
 CYCLE:    22 TIME:   0.008 TIME LEFT:  2.00D  GRAD.:     9.429 HEAT: 31.97141
 CYCLE:    23 TIME:   0.008 TIME LEFT:  2.00D  GRAD.:     5.126 HEAT: 31.94659
 CYCLE:    24 TIME:   0.009 TIME LEFT:  2.00D  GRAD.:     6.921 HEAT: 31.93973
 CYCLE:    25 TIME:   0.009 TIME LEFT:  2.00D  GRAD.:     3.581 HEAT: 31.92239
 CYCLE:    26 TIME:   0.008 TIME LEFT:  2.00D  GRAD.:     4.625 HEAT: 31.91598
 CYCLE:    27 TIME:   0.007 TIME LEFT:  2.00D  GRAD.:     2.930 HEAT: 31.90524
 CYCLE:    28 TIME:   0.008 TIME LEFT:  2.00D  GRAD.:     3.879 HEAT: 31.89674
 CYCLE:    29 TIME:   0.008 TIME LEFT:  2.00D  GRAD.:     3.059 HEAT: 31.88688
 CYCLE:    30 TIME:   0.008 TIME LEFT:  2.00D  GRAD.:     3.884 HEAT: 31.87468
 CYCLE:    31 TIME:   0.008 TIME LEFT:  2.00D  GRAD.:     3.541 HEAT: 31.86063
 CYCLE:    32 TIME:   0.008 TIME LEFT:  2.00D  GRAD.:     3.514 HEAT: 31.84633
 CYCLE:    33 TIME:   0.008 TIME LEFT:  2.00D  GRAD.:     2.382 HEAT: 31.83703
 CYCLE:    34 TIME:   0.008 TIME LEFT:  2.00D  GRAD.:     2.614 HEAT: 31.82874
 CYCLE:    35 TIME:   0.008 TIME LEFT:  2.00D  GRAD.:     2.507 HEAT: 31.81813
 CYCLE:    36 TIME:   0.008 TIME LEFT:  2.00D  GRAD.:     2.796 HEAT: 31.80836
 CYCLE:    37 TIME:   0.008 TIME LEFT:  2.00D  GRAD.:     2.695 HEAT: 31.79912
 CYCLE:    38 TIME:   0.008 TIME LEFT:  2.00D  GRAD.:     2.622 HEAT: 31.78989
 CYCLE:    39 TIME:   0.008 TIME LEFT:  2.00D  GRAD.:     2.466 HEAT: 31.78066
 CYCLE:    40 TIME:   0.008 TIME LEFT:  2.00D  GRAD.:     1.968 HEAT: 31.77432
 CYCLE:    41 TIME:   0.008 TIME LEFT:  2.00D  GRAD.:     2.272 HEAT: 31.76547
 CYCLE:    42 TIME:   0.008 TIME LEFT:  2.00D  GRAD.:     2.726 HEAT: 31.75884
 CYCLE:    43 TIME:   0.008 TIME LEFT:  2.00D  GRAD.:     2.247 HEAT: 31.75157
 CYCLE:    44 TIME:   0.011 TIME LEFT:  2.00D  GRAD.:     2.093 HEAT: 31.74292
 CYCLE:    45 TIME:   0.009 TIME LEFT:  2.00D  GRAD.:     2.377 HEAT: 31.73449
 CYCLE:    46 TIME:   0.008 TIME LEFT:  2.00D  GRAD.:     2.258 HEAT: 31.72543
 CYCLE:    47 TIME:   0.008 TIME LEFT:  2.00D  GRAD.:     1.996 HEAT: 31.71627
 CYCLE:    48 TIME:   0.008 TIME LEFT:  2.00D  GRAD.:     2.044 HEAT: 31.70889
 CYCLE:    49 TIME:   0.008 TIME LEFT:  2.00D  GRAD.:     2.220 HEAT: 31.69971
 CYCLE:    50 TIME:   0.010 TIME LEFT:  2.00D  GRAD.:     2.430 HEAT: 31.68717
 CYCLE:    51 TIME:   0.011 TIME LEFT:  2.00D  GRAD.:     2.127 HEAT: 31.67561
 CYCLE:    52 TIME:   0.008 TIME LEFT:  2.00D  GRAD.:     1.974 HEAT: 31.66543
 CYCLE:    53 TIME:   0.008 TIME LEFT:  2.00D  GRAD.:     2.153 HEAT: 31.65574
 CYCLE:    54 TIME:   0.008 TIME LEFT:  2.00D  GRAD.:     2.272 HEAT: 31.64424
 CYCLE:    55 TIME:   0.008 TIME LEFT:  2.00D  GRAD.:     1.796 HEAT: 31.63566
 CYCLE:    56 TIME:   0.008 TIME LEFT:  2.00D  GRAD.:     1.111 HEAT: 31.63111
 CYCLE:    57 TIME:   0.008 TIME LEFT:  2.00D  GRAD.:     0.825 HEAT: 31.62898
 CYCLE:    58 TIME:   0.008 TIME LEFT:  2.00D  GRAD.:     0.717 HEAT: 31.62763
 CYCLE:    59 TIME:   0.008 TIME LEFT:  2.00D  GRAD.:     0.573 HEAT: 31.62633
 CYCLE:    60 TIME:   0.008 TIME LEFT:  2.00D  GRAD.:     0.502 HEAT: 31.62559
 CYCLE:    61 TIME:   0.008 TIME LEFT:  2.00D  GRAD.:     0.534 HEAT: 31.62482
 CYCLE:    62 TIME:   0.008 TIME LEFT:  2.00D  GRAD.:     0.591 HEAT: 31.62399
 CYCLE:    63 TIME:   0.008 TIME LEFT:  2.00D  GRAD.:     0.560 HEAT: 31.62315
 CYCLE:    64 TIME:   0.008 TIME LEFT:  2.00D  GRAD.:     0.491 HEAT: 31.62244
 CYCLE:    65 TIME:   0.008 TIME LEFT:  2.00D  GRAD.:     0.472 HEAT: 31.62186
 CYCLE:    66 TIME:   0.008 TIME LEFT:  2.00D  GRAD.:     0.505 HEAT: 31.62121
 CYCLE:    67 TIME:   0.008 TIME LEFT:  2.00D  GRAD.:     0.484 HEAT: 31.62063
 CYCLE:    68 TIME:   0.008 TIME LEFT:  2.00D  GRAD.:     0.418 HEAT: 31.62002
 CYCLE:    69 TIME:   0.008 TIME LEFT:  2.00D  GRAD.:     0.347 HEAT: 31.61977
 CYCLE:    70 TIME:   0.008 TIME LEFT:  2.00D  GRAD.:     0.450 HEAT: 31.61920
 CYCLE:    71 TIME:   0.008 TIME LEFT:  2.00D  GRAD.:     0.329 HEAT: 31.61899
 CYCLE:    72 TIME:   0.008 TIME LEFT:  2.00D  GRAD.:     0.432 HEAT: 31.61853
 CYCLE:    73 TIME:   0.008 TIME LEFT:  2.00D  GRAD.:     0.286 HEAT: 31.61834
 CYCLE:    74 TIME:   0.008 TIME LEFT:  2.00D  GRAD.:     0.261 HEAT: 31.61799
 CYCLE:    75 TIME:   0.008 TIME LEFT:  2.00D  GRAD.:     0.319 HEAT: 31.61772
 CYCLE:    76 TIME:   0.008 TIME LEFT:  2.00D  GRAD.:     0.654 HEAT: 31.61667
 CYCLE:    77 TIME:   0.008 TIME LEFT:  2.00D  GRAD.:     0.684 HEAT: 31.61593
 CYCLE:    78 TIME:   0.016 TIME LEFT:  2.00D  GRAD.:     3.625 HEAT: 31.61122
 CYCLE:    79 TIME:   0.008 TIME LEFT:  2.00D  GRAD.:     1.527 HEAT: 31.60518
 CYCLE:    80 TIME:   0.008 TIME LEFT:  2.00D  GRAD.:     1.886 HEAT: 31.59605
 CYCLE:    81 TIME:   0.008 TIME LEFT:  2.00D  GRAD.:     4.686 HEAT: 31.58335
 CYCLE:    82 TIME:   0.021 TIME LEFT:  2.00D  GRAD.:     5.131 HEAT: 31.57602
 CYCLE:    83 TIME:   0.008 TIME LEFT:  2.00D  GRAD.:     2.764 HEAT: 31.55886
 CYCLE:    84 TIME:   0.008 TIME LEFT:  2.00D  GRAD.:     2.038 HEAT: 31.54101
 CYCLE:    85 TIME:   0.008 TIME LEFT:  2.00D  GRAD.:     2.187 HEAT: 31.51992
 CYCLE:    86 TIME:   0.008 TIME LEFT:  2.00D  GRAD.:     2.454 HEAT: 31.49316
 CYCLE:    87 TIME:   0.008 TIME LEFT:  2.00D  GRAD.:     2.738 HEAT: 31.45560
 CYCLE:    88 TIME:   0.008 TIME LEFT:  2.00D  GRAD.:    10.889 HEAT: 31.43497
 CYCLE:    89 TIME:   0.008 TIME LEFT:  2.00D  GRAD.:    10.650 HEAT: 31.43472
 CYCLE:    90 TIME:   0.008 TIME LEFT:  2.00D  GRAD.:     3.864 HEAT: 31.35331
 CYCLE:    91 TIME:   0.008 TIME LEFT:  2.00D  GRAD.:     9.837 HEAT: 31.32984
 CYCLE:    92 TIME:   0.008 TIME LEFT:  2.00D  GRAD.:     4.904 HEAT: 31.28387
 CYCLE:    93 TIME:   0.008 TIME LEFT:  2.00D  GRAD.:     3.048 HEAT: 31.19089
 CYCLE:    94 TIME:   0.008 TIME LEFT:  2.00D  GRAD.:     8.231 HEAT: 31.16886
 CYCLE:    95 TIME:   0.008 TIME LEFT:  2.00D  GRAD.:     2.859 HEAT: 31.13875
 CYCLE:    96 TIME:   0.008 TIME LEFT:  2.00D  GRAD.:     2.922 HEAT: 31.12138
 CYCLE:    97 TIME:   0.008 TIME LEFT:  2.00D  GRAD.:     3.575 HEAT: 31.09744
 CYCLE:    98 TIME:   0.008 TIME LEFT:  2.00D  GRAD.:     4.043 HEAT: 31.07480
 CYCLE:    99 TIME:   0.008 TIME LEFT:  2.00D  GRAD.:     3.987 HEAT: 31.03100
 CYCLE:   100 TIME:   0.008 TIME LEFT:  2.00D  GRAD.:     4.339 HEAT: 31.00600
 CYCLE:   101 TIME:   0.008 TIME LEFT:  2.00D  GRAD.:     3.559 HEAT: 30.98554
 CYCLE:   102 TIME:   0.008 TIME LEFT:  2.00D  GRAD.:     4.067 HEAT: 30.96960
 CYCLE:   103 TIME:   0.008 TIME LEFT:  2.00D  GRAD.:     2.610 HEAT: 30.95798
 CYCLE:   104 TIME:   0.008 TIME LEFT:  2.00D  GRAD.:     1.320 HEAT: 30.95184
 CYCLE:   105 TIME:   0.008 TIME LEFT:  2.00D  GRAD.:     1.774 HEAT: 30.94788
 CYCLE:   106 TIME:   0.008 TIME LEFT:  2.00D  GRAD.:     1.271 HEAT: 30.94546
 CYCLE:   107 TIME:   0.008 TIME LEFT:  2.00D  GRAD.:     0.879 HEAT: 30.94320
 CYCLE:   108 TIME:   0.008 TIME LEFT:  2.00D  GRAD.:     0.995 HEAT: 30.94139
 CYCLE:   109 TIME:   0.008 TIME LEFT:  2.00D  GRAD.:     0.882 HEAT: 30.93933
 CYCLE:   110 TIME:   0.008 TIME LEFT:  2.00D  GRAD.:     0.968 HEAT: 30.93750
 CYCLE:   111 TIME:   0.008 TIME LEFT:  2.00D  GRAD.:     0.925 HEAT: 30.93494
 CYCLE:   112 TIME:   0.008 TIME LEFT:  2.00D  GRAD.:     1.294 HEAT: 30.93228
 CYCLE:   113 TIME:   0.008 TIME LEFT:  2.00D  GRAD.:     1.127 HEAT: 30.92981
 CYCLE:   114 TIME:   0.008 TIME LEFT:  2.00D  GRAD.:     1.512 HEAT: 30.92726
 CYCLE:   115 TIME:   0.008 TIME LEFT:  2.00D  GRAD.:     1.356 HEAT: 30.92434
 CYCLE:   116 TIME:   0.008 TIME LEFT:  2.00D  GRAD.:     1.019 HEAT: 30.92130
 CYCLE:   117 TIME:   0.008 TIME LEFT:  2.00D  GRAD.:     0.959 HEAT: 30.91884
 CYCLE:   118 TIME:   0.008 TIME LEFT:  2.00D  GRAD.:     0.835 HEAT: 30.91719
 CYCLE:   119 TIME:   0.008 TIME LEFT:  2.00D  GRAD.:     0.798 HEAT: 30.91570
 CYCLE:   120 TIME:   0.008 TIME LEFT:  2.00D  GRAD.:     0.745 HEAT: 30.91472
 CYCLE:   121 TIME:   0.008 TIME LEFT:  2.00D  GRAD.:     0.536 HEAT: 30.91410
 CYCLE:   122 TIME:   0.008 TIME LEFT:  2.00D  GRAD.:     0.546 HEAT: 30.91349
 CYCLE:   123 TIME:   0.008 TIME LEFT:  2.00D  GRAD.:     0.751 HEAT: 30.91262
 CYCLE:   124 TIME:   0.008 TIME LEFT:  2.00D  GRAD.:     0.830 HEAT: 30.91159
 CYCLE:   125 TIME:   0.008 TIME LEFT:  2.00D  GRAD.:     0.698 HEAT: 30.91018
 CYCLE:   126 TIME:   0.008 TIME LEFT:  2.00D  GRAD.:     0.473 HEAT: 30.90963
 CYCLE:   127 TIME:   0.008 TIME LEFT:  2.00D  GRAD.:     0.421 HEAT: 30.90916
 CYCLE:   128 TIME:   0.008 TIME LEFT:  2.00D  GRAD.:     0.223 HEAT: 30.90904
 CYCLE:   129 TIME:   0.008 TIME LEFT:  2.00D  GRAD.:     0.115 HEAT: 30.90896
 CYCLE:   130 TIME:   0.008 TIME LEFT:  2.00D  GRAD.:     0.129 HEAT: 30.90892
 CYCLE:   131 TIME:   0.008 TIME LEFT:  2.00D  GRAD.:     0.118 HEAT: 30.90889
 CYCLE:   132 TIME:   0.008 TIME LEFT:  2.00D  GRAD.:     0.127 HEAT: 30.90885
 CYCLE:   133 TIME:   0.008 TIME LEFT:  2.00D  GRAD.:     0.174 HEAT: 30.90879
 CYCLE:   134 TIME:   0.008 TIME LEFT:  2.00D  GRAD.:     0.261 HEAT: 30.90870
 CYCLE:   135 TIME:   0.008 TIME LEFT:  2.00D  GRAD.:     0.325 HEAT: 30.90857
 CYCLE:   136 TIME:   0.008 TIME LEFT:  2.00D  GRAD.:     0.377 HEAT: 30.90824
 CYCLE:   137 TIME:   0.008 TIME LEFT:  2.00D  GRAD.:     0.475 HEAT: 30.90787
 CYCLE:   138 TIME:   0.008 TIME LEFT:  2.00D  GRAD.:     0.492 HEAT: 30.90743
 CYCLE:   139 TIME:   0.008 TIME LEFT:  2.00D  GRAD.:     0.788 HEAT: 30.90609
 CYCLE:   140 TIME:   0.008 TIME LEFT:  2.00D  GRAD.:     0.747 HEAT: 30.90534
 CYCLE:   141 TIME:   0.008 TIME LEFT:  2.00D  GRAD.:     1.073 HEAT: 30.90244
 CYCLE:   142 TIME:   0.008 TIME LEFT:  2.00D  GRAD.:     0.709 HEAT: 30.90136
 CYCLE:   143 TIME:   0.008 TIME LEFT:  2.00D  GRAD.:     1.304 HEAT: 30.90016
 CYCLE:   144 TIME:   0.008 TIME LEFT:  2.00D  GRAD.:     0.416 HEAT: 30.89940
 CYCLE:   145 TIME:   0.008 TIME LEFT:  2.00D  GRAD.:     0.306 HEAT: 30.89897
 CYCLE:   146 TIME:   0.008 TIME LEFT:  2.00D  GRAD.:     0.401 HEAT: 30.89861
 CYCLE:   147 TIME:   0.008 TIME LEFT:  2.00D  GRAD.:     0.275 HEAT: 30.89850
 CYCLE:   148 TIME:   0.008 TIME LEFT:  2.00D  GRAD.:     0.209 HEAT: 30.89843
 CYCLE:   149 TIME:   0.008 TIME LEFT:  2.00D  GRAD.:     0.139 HEAT: 30.89833
 CYCLE:   150 TIME:   0.008 TIME LEFT:  2.00D  GRAD.:     0.106 HEAT: 30.89828
 CYCLE:   151 TIME:   0.007 TIME LEFT:  2.00D  GRAD.:     0.049 HEAT: 30.89827

     RMS GRADIENT =  0.04895  IS LESS THAN CUTOFF =  0.05000



 -------------------------------------------------------------------------------
pm3  precise nosym
 InChI=1S/C10H14/c1-3-6-9(2)10-7-4-5-8-10/h3-6,10H,2,7-8H2,1H3



     GEOMETRY OPTIMISED USING EIGENVECTOR FOLLOWING (EF).     
     SCF FIELD WAS ACHIEVED                                   


                              PM3 CALCULATION
                                                       MOPAC2012 (Version: 13.159M)
                                                       Mon Jun  2 11:11:13 2014
                                                       No. of days left =   6




          FINAL HEAT OF FORMATION =         30.89827 KCAL/MOL =     129.27835 KJ/MOL


          TOTAL ENERGY            =      -1399.72178 EV
          ELECTRONIC ENERGY       =      -7872.87393 EV  POINT GROUP:     C1  
          CORE-CORE REPULSION     =       6473.15215 EV
          COSMO AREA              =        189.46 SQUARE ANGSTROMS
          COSMO VOLUME            =        196.43 CUBIC ANGSTROMS

          GRADIENT NORM           =          0.04895
          IONIZATION POTENTIAL    =          9.187769 EV
          HOMO LUMO ENERGIES (EV) =         -9.188  0.384
          NO. OF FILLED LEVELS    =         27
          MOLECULAR WEIGHT        =        134.221

          MOLECULAR DIMENSIONS (Angstroms)

            Atom       Atom       Distance
            H    23    H    18     6.38399
            H    24    H    21     6.24971
            H    15    H    13     3.74824


          SCF CALCULATIONS        =        163
          COMPUTATION TIME        =          1.303 SECONDS




   ATOM   CHEMICAL          X               Y               Z
  NUMBER   SYMBOL      (ANGSTROMS)     (ANGSTROMS)     (ANGSTROMS)
 
     1       C         -1.19345544  *  -0.70055246  *  -0.31964822  *
     2       C         -1.77939073  *   0.22507742  *   0.77340086  *
     3       C         -0.95209866  *   0.20478298  *  -1.54700548  *
     4       C          2.92608066  *   1.07979485  *   0.47925452  *
     5       C          0.02694191  *  -1.43564257  *   0.15602438  *
     6       C         -1.93040254  *   1.55652114  *   0.11071076  *
     7       C         -1.48579167  *   1.54398494  *  -1.15111077  *
     8       C          1.56794563  *   0.49633324  *   0.42498397  *
     9       C          1.34635826  *  -0.79963407  *   0.18626409  *
    10       C         -0.08251417  *  -2.70650546  *   0.56239722  *
    11       H         -1.96485808  *  -1.46063456  *  -0.59282267  *
    12       H         -1.12381942  *   0.29716875  *   1.66179196  *
    13       H         -2.75343025  *  -0.14534300  *   1.14206081  *
    14       H         -1.46756530  *  -0.17851610  *  -2.44620371  *
    15       H          0.12099570  *   0.27613457  *  -1.81054039  *
    16       H          3.72029127  *   0.34204124  *   0.30260989  *
    17       H          3.03416475  *   1.87063762  *  -0.27539653  *
    18       H          3.10861424  *   1.53445973  *   1.46238030  *
    19       H         -2.36153618  *   2.40531440  *   0.64060952  *
    20       H          0.73386596  *   1.19402945  *   0.58726036  *
    21       H         -1.48435474  *   2.38090676  *  -1.84877514  *
    22       H          2.19334833  *  -1.48192643  *   0.02559280  *
    23       H         -1.02440413  *  -3.24813803  *   0.56784630  *
    24       H          0.76534945  *  -3.28536111  *   0.91794867  *

           Empirical Formula: C10 H14  =    24 atoms



      MOLECULAR POINT GROUP   :   C1  


                  EIGENVALUES  
 -41.25399 -35.57993 -32.57406 -28.13637 -26.82710 -25.96572 -20.81498 -20.03888
 -18.72698 -18.50411 -17.60292 -16.23291 -15.77857 -14.90902 -14.32575 -13.85708
 -13.75850 -13.54825 -13.37996 -13.04970 -12.62658 -12.57942 -12.34245 -11.72704
 -10.89707  -9.58094  -9.18777   0.38397   1.08781   1.84937   3.16069   3.38622
   3.43134   3.71056   3.75657   3.80070   3.93110   3.99655   4.02579   4.16568
   4.22622   4.33742   4.35169   4.41399   4.48959   4.57238   4.86362   5.02617
   5.28947   5.54056   5.57299   5.95276   6.07131   6.13097


              NET ATOMIC CHARGES AND DIPOLE CONTRIBUTIONS

  ATOM NO.   TYPE          CHARGE      No. of ELECS.   s-Pop       p-Pop       
    1          C          -0.035398        4.0354     1.17289     2.86250
    2          C          -0.067175        4.0672     1.15775     2.90943
    3          C          -0.073503        4.0735     1.15784     2.91566
    4          C          -0.075543        4.0755     1.12555     2.94999
    5          C          -0.068348        4.0683     1.18688     2.88147
    6          C          -0.161283        4.1613     1.20253     2.95875
    7          C          -0.151952        4.1520     1.20250     2.94945
    8          C          -0.141327        4.1413     1.19664     2.94468
    9          C          -0.114501        4.1145     1.18052     2.93399
   10          C          -0.165497        4.1655     1.18587     2.97963
   11          H           0.066136        0.9339     0.93386
   12          H           0.065895        0.9341     0.93410
   13          H           0.056648        0.9434     0.94335
   14          H           0.057790        0.9422     0.94221
   15          H           0.071975        0.9280     0.92802
   16          H           0.041006        0.9590     0.95899
   17          H           0.044976        0.9550     0.95502
   18          H           0.045204        0.9548     0.95480
   19          H           0.111524        0.8885     0.88848
   20          H           0.114440        0.8856     0.88556
   21          H           0.110976        0.8890     0.88902
   22          H           0.101358        0.8986     0.89864
   23          H           0.083168        0.9168     0.91683
   24          H           0.083432        0.9166     0.91657
 DIPOLE           X         Y         Z       TOTAL
 POINT-CHG.     0.164     0.295    -0.009     0.338
 HYBRID         0.000    -0.020     0.055     0.058
 SUM            0.164     0.275     0.046     0.323


          ATOMIC ORBITAL ELECTRON POPULATIONS

    Atom      s        px        py        pz   
    1  C   1.17289   0.94642   0.96755   0.94854
    2  C   1.15775   1.00271   0.93430   0.97242
    3  C   1.15784   1.01578   0.93383   0.96605
    4  C   1.12555   0.94479   1.00009   1.00511
    5  C   1.18688   0.93733   0.95444   0.98970
    6  C   1.20253   1.01221   0.97937   0.96717
    7  C   1.20250   1.00112   0.97892   0.96942
    8  C   1.19664   0.98473   0.96814   0.99181
    9  C   1.18052   0.95261   0.95956   1.02182
   10  C   1.18587   1.01360   0.95540   1.01063
   11  H   0.93386
   12  H   0.93410
   13  H   0.94335
   14  H   0.94221
   15  H   0.92802
   16  H   0.95899
   17  H   0.95502
   18  H   0.95480
   19  H   0.88848
   20  H   0.88556
   21  H   0.88902
   22  H   0.89864
   23  H   0.91683
   24  H   0.91657
 *******************************************************************************
 ** Site#: 14399           For non-commercial use only        Version 13.159M **
 *******************************************************************************
 ** Cite this work as: MOPAC2012, James J. P. Stewart, Stewart Computational  **
 ** Chemistry, Version 13.159M web: HTTP://OpenMOPAC.net  Days remaining:   6 **
 *******************************************************************************
 **                                                                           **
 **                                MOPAC2012                                  **
 **                                                                           **
 *******************************************************************************

                            PM3 CALCULATION RESULTS


 *******************************************************************************
 *  CALCULATION DONE:                                Mon Jun  2 11:11:13 2014  *
 *  PM3      - The PM3 Hamiltonian to be used
 *  OLDGEO   - PREVIOUS GEOMETRY TO BE USED
 *  PRECISE  - CRITERIA TO BE INCREASED BY 100 TIMES
 *  NOSYM    - POINT-GROUP SYMMETRY SET TO C1
 *  T=       - A TIME OF 172800.0 SECONDS REQUESTED
 *  DUMP=N   - RESTART FILE WRITTEN EVERY  7200.000 SECONDS
 *  THERMO   - THERMODYNAMIC QUANTITIES TO BE CALCULATED
 *******************************************************************************
oldgeo thermo nosym precise  pm3

   ATOM   CHEMICAL          X               Y               Z
  NUMBER   SYMBOL      (ANGSTROMS)     (ANGSTROMS)     (ANGSTROMS)
 
     1       C         -1.19345544  *  -0.70055246  *  -0.31964822  *
     2       C         -1.77939073  *   0.22507742  *   0.77340086  *
     3       C         -0.95209866  *   0.20478298  *  -1.54700548  *
     4       C          2.92608066  *   1.07979485  *   0.47925452  *
     5       C          0.02694191  *  -1.43564257  *   0.15602438  *
     6       C         -1.93040254  *   1.55652114  *   0.11071076  *
     7       C         -1.48579167  *   1.54398494  *  -1.15111077  *
     8       C          1.56794563  *   0.49633324  *   0.42498397  *
     9       C          1.34635826  *  -0.79963407  *   0.18626409  *
    10       C         -0.08251417  *  -2.70650546  *   0.56239722  *
    11       H         -1.96485808  *  -1.46063456  *  -0.59282267  *
    12       H         -1.12381942  *   0.29716875  *   1.66179196  *
    13       H         -2.75343025  *  -0.14534300  *   1.14206081  *
    14       H         -1.46756530  *  -0.17851610  *  -2.44620371  *
    15       H          0.12099570  *   0.27613457  *  -1.81054039  *
    16       H          3.72029127  *   0.34204124  *   0.30260989  *
    17       H          3.03416475  *   1.87063762  *  -0.27539653  *
    18       H          3.10861424  *   1.53445973  *   1.46238030  *
    19       H         -2.36153618  *   2.40531440  *   0.64060952  *
    20       H          0.73386596  *   1.19402945  *   0.58726036  *
    21       H         -1.48435474  *   2.38090676  *  -1.84877514  *
    22       H          2.19334833  *  -1.48192643  *   0.02559280  *
    23       H         -1.02440413  *  -3.24813803  *   0.56784630  *
    24       H          0.76534945  *  -3.28536111  *   0.91794867  *
 


          CARTESIAN COORDINATES 

    NO.       ATOM         X         Y         Z

     1         C       -1.1935   -0.7006   -0.3196
     2         C       -1.7794    0.2251    0.7734
     3         C       -0.9521    0.2048   -1.5470
     4         C        2.9261    1.0798    0.4793
     5         C        0.0269   -1.4356    0.1560
     6         C       -1.9304    1.5565    0.1107
     7         C       -1.4858    1.5440   -1.1511
     8         C        1.5679    0.4963    0.4250
     9         C        1.3464   -0.7996    0.1863
    10         C       -0.0825   -2.7065    0.5624
    11         H       -1.9649   -1.4606   -0.5928
    12         H       -1.1238    0.2972    1.6618
    13         H       -2.7534   -0.1453    1.1421
    14         H       -1.4676   -0.1785   -2.4462
    15         H        0.1210    0.2761   -1.8105
    16         H        3.7203    0.3420    0.3026
    17         H        3.0342    1.8706   -0.2754
    18         H        3.1086    1.5345    1.4624
    19         H       -2.3615    2.4053    0.6406
    20         H        0.7339    1.1940    0.5873
    21         H       -1.4844    2.3809   -1.8488
    22         H        2.1933   -1.4819    0.0256
    23         H       -1.0244   -3.2481    0.5678
    24         H        0.7653   -3.2854    0.9179

  H: (PM3): J. J. P. STEWART, J. COMP. CHEM. 10, 209 (1989).
  C: (PM3): J. J. P. STEWART, J. COMP. CHEM. 10, 209 (1989).

           Empirical Formula: C10 H14  =    24 atoms



      MOLECULAR POINT GROUP   :   C1  


      RHF CALCULATION, NO. OF DOUBLY OCCUPIED LEVELS =   27



          HEAT OF FORMATION =      30.898267 KCALS/MOLE


          INTERNAL COORDINATE DERIVATIVES

   NUMBER  ATOM       BOND         ANGLE      DIHEDRAL

     1       C      0.005790    -0.002022     0.001896
     2       C      0.006913    -0.006315     0.000233
     3       C      0.004654    -0.002773    -0.007054
     4       C      0.004344     0.006358     0.013879
     5       C      0.003225    -0.005777    -0.001676
     6       C      0.002229    -0.010437     0.002493
     7       C     -0.004943    -0.001916    -0.006090
     8       C      0.003483     0.009239     0.003358
     9       C     -0.006248    -0.007648    -0.005818
    10       C     -0.006452     0.014771    -0.008180
    11       H     -0.005761     0.000462     0.001601
    12       H     -0.004481     0.003387     0.011011
    13       H      0.003041    -0.000067    -0.008369
    14       H     -0.003964     0.004274     0.004602
    15       H     -0.002798     0.002103     0.000544
    16       H     -0.003777    -0.008678     0.000068
    17       H     -0.006776     0.007020     0.003789
    18       H      0.010607    -0.007577    -0.009896
    19       H      0.004658     0.004475    -0.002162
    20       H     -0.005859     0.001697    -0.007139
    21       H     -0.002946     0.005280     0.002701
    22       H      0.004559     0.001091     0.000578
    23       H     -0.000269    -0.007032     0.004674
    24       H      0.000770     0.000085     0.004957


          GRADIENT NORM =   0.04857


          TIME FOR SCF CALCULATION =    0.01

          TIME FOR DERIVATIVES     =    0.01

          MOLECULAR WEIGHT =  134.22



          ROTATIONAL CONSTANTS IN CM(-1)

          A =    0.05384354   B =    0.03858380   C =    0.02735048



           PRINCIPAL MOMENTS OF INERTIA IN UNITS OF 10**(-40)*GRAM-CM**2

          A =      519.8911   B =      725.5059   C =     1023.4838


          ORIENTATION OF MOLECULE IN FORCE CALCULATION

    NO.       ATOM         X         Y         Z

     1          C      -0.1962   -0.3857    1.2102
     2          C       1.3513   -0.3857    1.2102
     3          C      -0.6130    1.1011    1.2102
     4          C      -0.1268    0.7271   -3.2097
     5          C      -0.7620   -1.1864    0.0724
     6          C       1.7368    1.0557    1.3034
     7          C       0.6697    1.8627    1.3085
     8          C       0.0001    0.2317   -1.8217
     9          C      -0.8598   -0.6373   -1.2823
    10          C      -1.1937   -2.4345    0.2918
    11          H      -0.5517   -0.8479    2.1628
    12          H       1.7737   -0.8503    0.2992
    13          H       1.7589   -0.9594    2.0626
    14          H      -1.2822    1.3388    2.0569
    15          H      -1.1628    1.3822    0.2911
    16          H      -0.9936    0.3097   -3.7395
    17          H      -0.2277    1.8209   -3.2188
    18          H       0.7704    0.4735   -3.7904
    19          H       2.7820    1.3581    1.3601
    20          H       0.8478    0.6248   -1.2424
    21          H       0.6770    2.9505    1.3702
    22          H      -1.7021   -1.0188   -1.8772
    23          H      -1.1572   -2.9115    1.2674
    24          H      -1.6098   -3.0595   -0.4934


    FIRST DERIVATIVES WILL BE USED IN THE CALCULATION OF SECOND DERIVATIVES

          ESTIMATED TIME TO COMPLETE CALCULATION =        3.37 SECONDS

    FOR POINT-GROUP C1   THERE ARE   1 UNIQUE SYMMETRY FUNCTIONS.

 STEP:   1 TIME =     0.04 SECS, INTEGRAL =      0.04 TIME LEFT: 172799.95
 STEP:   2 TIME =     0.04 SECS, INTEGRAL =      0.07 TIME LEFT: 172799.92
 STEP:   3 TIME =     0.04 SECS, INTEGRAL =      0.11 TIME LEFT: 172799.88
 STEP:   4 TIME =     0.03 SECS, INTEGRAL =      0.14 TIME LEFT: 172799.85
 STEP:   5 TIME =     0.04 SECS, INTEGRAL =      0.18 TIME LEFT: 172799.81
 STEP:   6 TIME =     0.04 SECS, INTEGRAL =      0.21 TIME LEFT: 172799.77
 STEP:   7 TIME =     0.04 SECS, INTEGRAL =      0.25 TIME LEFT: 172799.74
 STEP:   8 TIME =     0.04 SECS, INTEGRAL =      0.29 TIME LEFT: 172799.70
 STEP:   9 TIME =     0.04 SECS, INTEGRAL =      0.33 TIME LEFT: 172799.66
 STEP:  10 TIME =     0.04 SECS, INTEGRAL =      0.37 TIME LEFT: 172799.62
 STEP:  11 TIME =     0.04 SECS, INTEGRAL =      0.40 TIME LEFT: 172799.59
 STEP:  12 TIME =     0.04 SECS, INTEGRAL =      0.44 TIME LEFT: 172799.55
 STEP:  13 TIME =     0.04 SECS, INTEGRAL =      0.47 TIME LEFT: 172799.51
 STEP:  14 TIME =     0.04 SECS, INTEGRAL =      0.51 TIME LEFT: 172799.48
 STEP:  15 TIME =     0.04 SECS, INTEGRAL =      0.55 TIME LEFT: 172799.44
 STEP:  16 TIME =     0.04 SECS, INTEGRAL =      0.58 TIME LEFT: 172799.41
 STEP:  17 TIME =     0.04 SECS, INTEGRAL =      0.62 TIME LEFT: 172799.37
 STEP:  18 TIME =     0.04 SECS, INTEGRAL =      0.66 TIME LEFT: 172799.33
 STEP:  19 TIME =     0.04 SECS, INTEGRAL =      0.69 TIME LEFT: 172799.30
 STEP:  20 TIME =     0.04 SECS, INTEGRAL =      0.73 TIME LEFT: 172799.26
 STEP:  21 TIME =     0.04 SECS, INTEGRAL =      0.77 TIME LEFT: 172799.22
 STEP:  22 TIME =     0.04 SECS, INTEGRAL =      0.81 TIME LEFT: 172799.18
 STEP:  23 TIME =     0.04 SECS, INTEGRAL =      0.85 TIME LEFT: 172799.14
 STEP:  24 TIME =     0.04 SECS, INTEGRAL =      0.88 TIME LEFT: 172799.11
 STEP:  25 TIME =     0.04 SECS, INTEGRAL =      0.92 TIME LEFT: 172799.07
 STEP:  26 TIME =     0.04 SECS, INTEGRAL =      0.96 TIME LEFT: 172799.03
 STEP:  27 TIME =     0.04 SECS, INTEGRAL =      1.00 TIME LEFT: 172798.99
 STEP:  28 TIME =     0.04 SECS, INTEGRAL =      1.04 TIME LEFT: 172798.95
 STEP:  29 TIME =     0.04 SECS, INTEGRAL =      1.07 TIME LEFT: 172798.91
 STEP:  30 TIME =     0.04 SECS, INTEGRAL =      1.11 TIME LEFT: 172798.88
 STEP:  31 TIME =     0.04 SECS, INTEGRAL =      1.15 TIME LEFT: 172798.84
 STEP:  32 TIME =     0.04 SECS, INTEGRAL =      1.18 TIME LEFT: 172798.80
 STEP:  33 TIME =     0.04 SECS, INTEGRAL =      1.22 TIME LEFT: 172798.77
 STEP:  34 TIME =     0.04 SECS, INTEGRAL =      1.26 TIME LEFT: 172798.73
 STEP:  35 TIME =     0.04 SECS, INTEGRAL =      1.29 TIME LEFT: 172798.69
 STEP:  36 TIME =     0.04 SECS, INTEGRAL =      1.33 TIME LEFT: 172798.66
 STEP:  37 TIME =     0.04 SECS, INTEGRAL =      1.37 TIME LEFT: 172798.62
 STEP:  38 TIME =     0.04 SECS, INTEGRAL =      1.40 TIME LEFT: 172798.59
 STEP:  39 TIME =     0.04 SECS, INTEGRAL =      1.44 TIME LEFT: 172798.55
 STEP:  40 TIME =     0.04 SECS, INTEGRAL =      1.48 TIME LEFT: 172798.51
 STEP:  41 TIME =     0.04 SECS, INTEGRAL =      1.52 TIME LEFT: 172798.47
 STEP:  42 TIME =     0.04 SECS, INTEGRAL =      1.55 TIME LEFT: 172798.44
 STEP:  43 TIME =     0.04 SECS, INTEGRAL =      1.59 TIME LEFT: 172798.40
 STEP:  44 TIME =     0.04 SECS, INTEGRAL =      1.63 TIME LEFT: 172798.36
 STEP:  45 TIME =     0.04 SECS, INTEGRAL =      1.66 TIME LEFT: 172798.33
 STEP:  46 TIME =     0.04 SECS, INTEGRAL =      1.70 TIME LEFT: 172798.29
 STEP:  47 TIME =     0.04 SECS, INTEGRAL =      1.73 TIME LEFT: 172798.25
 STEP:  48 TIME =     0.04 SECS, INTEGRAL =      1.77 TIME LEFT: 172798.22
 STEP:  49 TIME =     0.04 SECS, INTEGRAL =      1.81 TIME LEFT: 172798.18
 STEP:  50 TIME =     0.03 SECS, INTEGRAL =      1.84 TIME LEFT: 172798.15
 STEP:  51 TIME =     0.04 SECS, INTEGRAL =      1.88 TIME LEFT: 172798.11
 STEP:  52 TIME =     0.04 SECS, INTEGRAL =      1.92 TIME LEFT: 172798.07
 STEP:  53 TIME =     0.04 SECS, INTEGRAL =      1.95 TIME LEFT: 172798.04
 STEP:  54 TIME =     0.04 SECS, INTEGRAL =      1.99 TIME LEFT: 172798.00
 STEP:  55 TIME =     0.04 SECS, INTEGRAL =      2.03 TIME LEFT: 172797.96
 STEP:  56 TIME =     0.04 SECS, INTEGRAL =      2.06 TIME LEFT: 172797.92
 STEP:  57 TIME =     0.04 SECS, INTEGRAL =      2.10 TIME LEFT: 172797.88
 STEP:  58 TIME =     0.04 SECS, INTEGRAL =      2.14 TIME LEFT: 172797.85
 STEP:  59 TIME =     0.04 SECS, INTEGRAL =      2.18 TIME LEFT: 172797.81
 STEP:  60 TIME =     0.04 SECS, INTEGRAL =      2.21 TIME LEFT: 172797.78
 STEP:  61 TIME =     0.04 SECS, INTEGRAL =      2.25 TIME LEFT: 172797.74
 STEP:  62 TIME =     0.03 SECS, INTEGRAL =      2.28 TIME LEFT: 172797.70
 STEP:  63 TIME =     0.04 SECS, INTEGRAL =      2.32 TIME LEFT: 172797.66
 STEP:  64 TIME =     0.04 SECS, INTEGRAL =      2.36 TIME LEFT: 172797.63
 STEP:  65 TIME =     0.04 SECS, INTEGRAL =      2.40 TIME LEFT: 172797.59
 STEP:  66 TIME =     0.04 SECS, INTEGRAL =      2.44 TIME LEFT: 172797.55
 STEP:  67 TIME =     0.04 SECS, INTEGRAL =      2.48 TIME LEFT: 172797.51
 STEP:  68 TIME =     0.04 SECS, INTEGRAL =      2.52 TIME LEFT: 172797.47
 STEP:  69 TIME =     0.04 SECS, INTEGRAL =      2.56 TIME LEFT: 172797.43
 STEP:  70 TIME =     0.04 SECS, INTEGRAL =      2.60 TIME LEFT: 172797.39
 STEP:  71 TIME =     0.04 SECS, INTEGRAL =      2.64 TIME LEFT: 172797.35
 STEP:  72 TIME =     0.04 SECS, INTEGRAL =      2.67 TIME LEFT: 172797.31

(To convert to Hartree/Bohr^2, multiply by (10^(-21) x N x a0^2)/(4.184 x 627.51) = 0.0642)


           FORCE MATRIX IN MILLIDYNES/ANGSTROM


                  C  1       C  2       C  3       C  4       C  5       C  6
 ------------------------------------------------------------------------------
     C    1  14.469900
     C    2   3.388742  14.539259
     C    3   3.494192   0.716547  14.579255
     C    4   0.007009   0.002385   0.001379  14.710967
     C    5   4.464957   0.598468   0.564663   0.145039  18.353509
     C    6   0.865705   4.731303   1.178439   0.003109   0.033574  18.353783
     C    7   0.867126   1.178596   4.722257   0.001961   0.037634  10.559983
     C    8   0.035916   0.036967   0.052297   5.261486   0.909115   0.016552
     C    9   0.526914   0.019950   0.059202   0.861633   5.294022   0.005710
     C   10   0.845361   0.031622   0.042200   0.018142  10.398875   0.005597
     H   11   4.246345   0.422820   0.418227   0.001039   0.435578   0.023423
     H   12   0.446834   4.497244   0.023458   0.001209   0.050191   0.430586
     H   13   0.436545   4.528344   0.031431   0.000686   0.024464   0.431345
     H   14   0.437347   0.031327   4.537757   0.000408   0.025236   0.039360
     H   15   0.447897   0.023564   4.462210   0.002104   0.049968   0.036852
     H   16   0.000616   0.000487   0.000548   4.720115   0.002595   0.000957
     H   17   0.001105   0.000529   0.000543   4.704729   0.019548   0.000714
     H   18   0.001090   0.000516   0.000385   4.703410   0.020062   0.000725
     H   19   0.042371   0.411640   0.116378   0.000940   0.005092   5.020438
     H   20   0.015419   0.025383   0.011584   0.419049   0.082616   0.019069
     H   21   0.042401   0.116424   0.411476   0.000715   0.005053   0.449777
     H   22   0.033811   0.001705   0.002511   0.085421   0.438893   0.001471
     H   23   0.086127   0.011555   0.007916   0.008495   0.473112   0.002151
     H   24   0.119588   0.016949   0.013707   0.004897   0.473440   0.001887


                  C  7       C  8       C  9       C 10       H 11       H 12
 ------------------------------------------------------------------------------
     C    7  18.352378
     C    8   0.018921  18.024157
     C    9   0.004765  10.478565  18.452171
     C   10   0.006661   0.079223   1.061356  17.934851
     H   11   0.023761   0.002604   0.040073   0.087215   4.679333
     H   12   0.037065   0.012299   0.005340   0.003805   0.028532   5.114023
     H   13   0.038984   0.001994   0.001476   0.002424   0.027758   0.570572
     H   14   0.431732   0.002768   0.002821   0.003484   0.026999   0.003659
     H   15   0.427803   0.025930   0.042810   0.002674   0.028223   0.001483
     H   16   0.000450   0.481332   0.042270   0.001101   0.000231   0.000350
     H   17   0.000784   0.437469   0.036032   0.001698   0.000269   0.000182
     H   18   0.000526   0.437058   0.036196   0.002805   0.000146   0.000185
     H   19   0.449729   0.001021   0.001259   0.001028   0.002354   0.013744
     H   20   0.013820   4.717542   0.469235   0.008657   0.001495   0.021462
     H   21   5.020493   0.001655   0.000906   0.001805   0.002363   0.015768
     H   22   0.001425   0.468688   4.704553   0.054628   0.005111   0.000615
     H   23   0.001893   0.012997   0.119102   5.078801   0.027958   0.000871
     H   24   0.002028   0.007867   0.090625   5.084806   0.002962   0.001002


                  H 13       H 14       H 15       H 16       H 17       H 18
 ------------------------------------------------------------------------------
     H   13   5.131724
     H   14   0.001213   5.135735
     H   15   0.003615   0.559994   5.080048
     H   16   0.000176   0.000178   0.000399   5.447079
     H   17   0.000124   0.000137   0.000355   0.562680   5.422670
     H   18   0.000149   0.000099   0.000457   0.563469   0.575684   5.422382
     H   19   0.015295   0.015636   0.015875   0.000269   0.000295   0.000248
     H   20   0.001204   0.000896   0.016278   0.040369   0.024712   0.024001
     H   21   0.015580   0.015317   0.014146   0.000184   0.000339   0.000188
     H   22   0.000273   0.000391   0.002136   0.030126   0.009396   0.009352
     H   23   0.001125   0.000848   0.000643   0.000201   0.001218   0.001288
     H   24   0.001300   0.001207   0.000784   0.000262   0.000763   0.000602


                  H 19       H 20       H 21       H 22       H 23       H 24
 ------------------------------------------------------------------------------
     H   19   5.417206
     H   20   0.002766   5.079395
     H   21   0.048274   0.002274   5.416978
     H   22   0.000430   0.102277   0.000398   5.077015
     H   23   0.000404   0.003998   0.000355   0.004481   5.475154
     H   24   0.000520   0.002584   0.000449   0.028795   0.418245   5.482824


          HEAT OF FORMATION =      30.898267 KCALS/MOLE

          ZERO POINT ENERGY     131.394 KCAL/MOL


           NORMAL COORDINATE ANALYSIS (Total motion = 1 Angstrom)


   Root No.       1         2         3         4         5         6         7         8

                 1 A       2 A       3 A       4 A       5 A       6 A       7 A       8 A   

                  65.8      76.9     112.8     149.9     163.2     186.2     265.6     310.0
  
           1   -0.0093    0.0188    0.0002    0.0052   -0.0069    0.0108   -0.0276   -0.0067
           2    0.0142   -0.0028   -0.0038   -0.0001    0.0015   -0.0119    0.0162    0.0002
           3   -0.0061   -0.0108    0.0084   -0.0124    0.0058    0.0124    0.0059    0.0122
           4   -0.0092    0.0185    0.0003    0.0050   -0.0069    0.0099   -0.0288   -0.0068
           5   -0.0054    0.0159    0.0035    0.0038   -0.0085   -0.0008   -0.0077   -0.0038
           6    0.0214   -0.0383   -0.0017   -0.0049    0.0103    0.0435   -0.0209   -0.0262
           7    0.0106    0.0012   -0.0068    0.0018    0.0013   -0.0011   -0.0084   -0.0045
           8    0.0196   -0.0079   -0.0058   -0.0005    0.0032   -0.0154    0.0211    0.0027
           9   -0.0252    0.0148    0.0222   -0.0332    0.0186    0.0123    0.0290   -0.0277
          10   -0.0295    0.0019    0.0119   -0.0084    0.0023   -0.0382   -0.0147   -0.0207
          11   -0.0093   -0.0278   -0.0123    0.0284   -0.0255   -0.0009    0.0112   -0.0253
          12   -0.0189   -0.0229   -0.0047    0.0208   -0.0232   -0.0228   -0.0036    0.0146
          13    0.0040   -0.0024   -0.0026    0.0050    0.0021    0.0203   -0.0011    0.0005
          14    0.0046    0.0035    0.0070   -0.0154    0.0071    0.0027    0.0058   -0.0025
          15   -0.0058   -0.0042    0.0023   -0.0017   -0.0027   -0.0032    0.0008    0.0173
          16    0.0070    0.0009   -0.0053    0.0000    0.0025   -0.0011   -0.0058   -0.0054
          17   -0.0118    0.0166    0.0059    0.0043   -0.0107    0.0047   -0.0152   -0.0063
          18    0.0493    0.0267   -0.0148    0.0122   -0.0015    0.0086   -0.0261   -0.0011
          19    0.0175   -0.0088   -0.0092   -0.0018    0.0074   -0.0071    0.0058   -0.0031
          20    0.0021    0.0036    0.0006    0.0021   -0.0042   -0.0032   -0.0001   -0.0030
          21    0.0228    0.0569    0.0007   -0.0059    0.0013   -0.0123    0.0248   -0.0062
          22   -0.0098   -0.0001    0.0129   -0.0005   -0.0340    0.0219    0.0299    0.0297
          23   -0.0118   -0.0074   -0.0166   -0.0002    0.0527    0.0011   -0.0154    0.0231
          24   -0.0214   -0.0152   -0.0063    0.0094    0.0087   -0.0255   -0.0157    0.0279
          25   -0.0169    0.0025   -0.0201    0.0160    0.0149    0.0332    0.0370    0.0284
          26    0.0065   -0.0056    0.0274   -0.0272   -0.0067    0.0039   -0.0203    0.0263
          27   -0.0035   -0.0080    0.0114   -0.0070   -0.0087   -0.0036   -0.0117    0.0311
          28    0.0373   -0.0315    0.0145   -0.0183    0.0132   -0.0305    0.0171   -0.0046
          29   -0.0072    0.0152   -0.0017   -0.0036    0.0021    0.0187    0.0020   -0.0072
          30   -0.0086    0.0067   -0.0161    0.0196   -0.0050   -0.0096    0.0163   -0.0236
          31   -0.0320    0.0457    0.0072    0.0041   -0.0142   -0.0030   -0.0278    0.0023
          32    0.0287   -0.0149   -0.0155    0.0136   -0.0043   -0.0224    0.0143    0.0162
          33   -0.0075   -0.0063    0.0052   -0.0060    0.0004    0.0023    0.0049    0.0219
          34    0.0004    0.0089   -0.0029    0.0108   -0.0087    0.0304   -0.0521   -0.0329
          35    0.0053    0.0672   -0.0029    0.0159   -0.0184   -0.0257   -0.0158    0.0262
          36    0.0203   -0.0691    0.0001   -0.0085    0.0147    0.0663   -0.0282   -0.0547
          37   -0.0311    0.0406    0.0083    0.0025   -0.0128   -0.0035   -0.0219    0.0177
          38   -0.0252   -0.0225    0.0130   -0.0053   -0.0038    0.0296   -0.0143   -0.0335
          39    0.0184   -0.0747    0.0009   -0.0100    0.0162    0.0705   -0.0286   -0.0587
          40   -0.0191   -0.0206    0.0075   -0.0205    0.0188    0.0123    0.0014   -0.0331
          41    0.0300   -0.0348   -0.0120    0.0035    0.0034   -0.0166    0.0203    0.0222
          42   -0.0517    0.0050    0.0351   -0.0520    0.0326    0.0234    0.0368   -0.0563
          43    0.0500    0.0190   -0.0238    0.0240   -0.0154   -0.0197   -0.0084    0.0273
          44    0.0262    0.0059   -0.0060   -0.0061    0.0093   -0.0257    0.0372   -0.0096
          45   -0.0469    0.0083    0.0324   -0.0484    0.0306    0.0205    0.0344   -0.0514
          46   -0.0454    0.0004   -0.0635   -0.0901   -0.0254   -0.0587   -0.0357   -0.0313
          47    0.0027   -0.0324    0.0903    0.1459    0.0005   -0.0064    0.0256   -0.0611
          48   -0.0024   -0.0168    0.0377    0.0621    0.0014    0.0143    0.0189    0.0585
          49   -0.0150    0.0067    0.1489    0.1346    0.0846   -0.0470   -0.0155   -0.0419
          50   -0.0079   -0.0275    0.0000    0.0415   -0.0191   -0.0017    0.0116   -0.0279
          51   -0.0161   -0.0405   -0.0124    0.0343   -0.1039   -0.0186    0.0277   -0.0256
          52   -0.0442    0.0011   -0.0452   -0.0710   -0.0130   -0.0625   -0.0376   -0.0368
          53   -0.0208   -0.0410   -0.1314   -0.0847   -0.1354    0.0055    0.0260   -0.0333
          54   -0.0365   -0.0185   -0.0411   -0.0269    0.0002   -0.0628   -0.0448   -0.0064
          55    0.0092   -0.0030   -0.0059   -0.0018    0.0048   -0.0035    0.0008   -0.0054
          56   -0.0262    0.0268    0.0113    0.0063   -0.0168    0.0142   -0.0316   -0.0097
          57    0.0854    0.0443   -0.0334    0.0354   -0.0114    0.0011   -0.0602    0.0167
          58    0.0108   -0.0032    0.0465   -0.0087   -0.0933    0.0383    0.0340    0.0394
          59   -0.0314    0.0041   -0.0631    0.0062    0.1407    0.0021   -0.0104    0.0392
          60   -0.0389   -0.0190   -0.0245    0.0175    0.0363   -0.0516   -0.0260    0.0009
          61    0.0298   -0.0225   -0.0136   -0.0054    0.0148   -0.0156    0.0244    0.0003
          62    0.0014    0.0010    0.0008    0.0019   -0.0038   -0.0015   -0.0018   -0.0036
          63    0.0327    0.1043   -0.0024   -0.0014   -0.0058   -0.0421    0.0521    0.0045
          64   -0.0375    0.0057   -0.0575    0.0311    0.0723    0.0242    0.0468    0.0270
          65    0.0226   -0.0129    0.0753   -0.0433   -0.0840    0.0092   -0.0320    0.0421
          66    0.0156   -0.0083    0.0340   -0.0179   -0.0414    0.0041   -0.0187    0.0213
          67    0.0548   -0.0387    0.0300   -0.0330    0.0102   -0.0648   -0.0070   -0.0268
          68   -0.0101    0.0213   -0.0192    0.0148    0.0035    0.0171    0.0278   -0.0344
          69   -0.0107    0.0100   -0.0252    0.0292   -0.0041   -0.0091    0.0301   -0.0367
          70    0.0497   -0.0504    0.0143   -0.0249    0.0266   -0.0433    0.0587    0.0128
          71   -0.0145    0.0193    0.0082   -0.0113   -0.0047    0.0344   -0.0274    0.0165
          72   -0.0093    0.0134   -0.0238    0.0293   -0.0068   -0.0154    0.0180   -0.0522


   Root No.       9        10        11        12        13        14        15        16

                 9 A      10 A      11 A      12 A      13 A      14 A      15 A      16 A   

                 366.1     378.9     484.8     554.8     622.5     632.8     688.7     753.6
  
           1    0.0009   -0.0052   -0.0032    0.0147    0.0095   -0.0023    0.0170   -0.0132
           2   -0.0061    0.0070   -0.0033    0.0067    0.0233   -0.0086    0.0218   -0.0150
           3    0.0085   -0.0039    0.0502    0.0181   -0.0124    0.0008   -0.0249    0.0205
           4   -0.0015   -0.0040   -0.0015    0.0184    0.0008    0.0115    0.0261   -0.0231
           5   -0.0151    0.0122    0.0022   -0.0148   -0.0168    0.0070   -0.0142    0.0130
           6   -0.0181   -0.0105   -0.0011    0.0011   -0.0077    0.0023   -0.0092   -0.0105
           7   -0.0135    0.0070    0.0025   -0.0128   -0.0228    0.0090   -0.0200    0.0152
           8   -0.0148    0.0143    0.0002   -0.0112    0.0224   -0.0188    0.0160   -0.0188
           9    0.0003    0.0273   -0.0035   -0.0071    0.0001   -0.0020   -0.0096   -0.0111
          10    0.0069   -0.0052    0.0134   -0.0069    0.0000   -0.0018    0.0022   -0.0005
          11    0.0111   -0.0056    0.0223   -0.0128   -0.0068   -0.0025    0.0059   -0.0020
          12   -0.0185    0.0131   -0.0260    0.0258    0.0150    0.0037   -0.0118    0.0036
          13    0.0035   -0.0085    0.0070   -0.0111    0.0888   -0.0322   -0.0264    0.0135
          14    0.0104   -0.0031    0.0007    0.0621   -0.0099    0.0128    0.0049    0.0044
          15    0.0022   -0.0006    0.0366    0.0028   -0.0098   -0.0032    0.0281   -0.0046
          16   -0.0116    0.0059    0.0013   -0.0053   -0.0161    0.0129   -0.0057    0.0082
          17   -0.0172    0.0075    0.0015   -0.0107   -0.0203    0.0102   -0.0106    0.0091
          18    0.0287    0.0352   -0.0026   -0.0008   -0.0036    0.0023   -0.0030   -0.0206
          19   -0.0121    0.0129    0.0017   -0.0143   -0.0086    0.0013   -0.0098    0.0073
          20   -0.0163    0.0161    0.0017   -0.0198   -0.0068   -0.0063   -0.0124    0.0050
          21   -0.0342   -0.0313   -0.0013   -0.0037    0.0009   -0.0019   -0.0042   -0.0199
          22    0.0049    0.0024   -0.0268    0.0039   -0.0244    0.0002   -0.0007   -0.0013
          23    0.0121   -0.0171   -0.0111   -0.0242   -0.0043    0.0026   -0.0034   -0.0018
          24   -0.0150    0.0062   -0.0295    0.0107    0.0078    0.0040   -0.0083    0.0006
          25    0.0042    0.0015    0.0065   -0.0114   -0.0094   -0.0092    0.0116   -0.0028
          26    0.0213   -0.0214   -0.0151   -0.0224   -0.0089    0.0050    0.0012   -0.0009
          27    0.0036   -0.0064    0.0177   -0.0233    0.0082   -0.0087    0.0227   -0.0040
          28    0.0159   -0.0068   -0.0059    0.0213    0.0012    0.0035   -0.0026    0.0043
          29    0.0142   -0.0096   -0.0052    0.0544    0.0250    0.0021   -0.0103    0.0114
          30    0.0429   -0.0297   -0.0168   -0.0193   -0.0089    0.0016    0.0011   -0.0011
          31    0.0132    0.0001    0.0065    0.0258   -0.0122    0.0161    0.0460   -0.0238
          32   -0.0063   -0.0036    0.0081   -0.0043    0.0301   -0.0209    0.0442   -0.0242
          33    0.0133   -0.0073    0.0576    0.0168   -0.0172    0.0020   -0.0031    0.0128
          34   -0.0222   -0.0114   -0.0450    0.0054    0.0026    0.0199    0.0699   -0.0409
          35    0.0423    0.0638    0.0289   -0.0117   -0.0185    0.0012   -0.0732   -0.0479
          36   -0.0585   -0.0414   -0.0362   -0.0068   -0.0075    0.0105    0.0440    0.0138
          37    0.0192    0.0031    0.0440    0.0308   -0.0100    0.0078   -0.0237   -0.0106
          38   -0.0698   -0.0364   -0.0192   -0.0203   -0.0307    0.0197    0.0314    0.0722
          39   -0.0659   -0.0477   -0.0385   -0.0086   -0.0115    0.0126    0.0482    0.0243
          40    0.0153    0.0783   -0.0337   -0.0454   -0.0011   -0.0031    0.0271    0.0719
          41   -0.0070    0.0127    0.0392    0.0004    0.0040   -0.0133   -0.0166    0.0099
          42    0.0216    0.0855   -0.0443   -0.0366    0.0236   -0.0134    0.0392    0.0270
          43   -0.0492   -0.0649    0.0436    0.0113   -0.0502    0.0208   -0.0806   -0.0419
          44   -0.0306    0.0173   -0.0327   -0.0333    0.0340   -0.0232    0.0369   -0.0488
          45    0.0172    0.0736   -0.0397   -0.0304    0.0214   -0.0115    0.0350    0.0157
          46    0.0095   -0.0107    0.0258   -0.0200    0.0160   -0.0022    0.0022   -0.0004
          47    0.0094    0.0019    0.0550   -0.0007   -0.0092   -0.0088    0.0204   -0.0017
          48   -0.0209    0.0161   -0.0691    0.0367   -0.0080    0.0087   -0.0221    0.0032
          49    0.0063   -0.0048    0.0355   -0.0110    0.0119   -0.0045    0.0072   -0.0001
          50    0.0112   -0.0054    0.0254   -0.0128   -0.0065   -0.0031    0.0071   -0.0020
          51   -0.0212    0.0282    0.0065    0.0589   -0.0002   -0.0049    0.0077    0.0056
          52    0.0092   -0.0108    0.0315   -0.0199    0.0206   -0.0028    0.0030    0.0003
          53    0.0117    0.0007    0.0290    0.0024   -0.0244   -0.0064    0.0162   -0.0025
          54   -0.0155    0.0021   -0.0021    0.0008    0.0535    0.0041   -0.0153    0.0053
          55   -0.0154    0.0065    0.0021   -0.0113   -0.0171    0.0096   -0.0161    0.0055
          56   -0.0143   -0.0036    0.0003    0.0099   -0.0181    0.0208    0.0109   -0.0266
          57    0.0804    0.0843   -0.0118   -0.0008    0.0030    0.0069    0.0791    0.2155
          58    0.0149   -0.0075   -0.0304   -0.0311   -0.0058    0.0049   -0.0070   -0.0049
          59    0.0074   -0.0095    0.0025   -0.0008   -0.0423   -0.0111    0.0204   -0.0030
          60   -0.0264    0.0151   -0.0312    0.0458    0.0071    0.0060   -0.0146    0.0071
          61   -0.0100    0.0187    0.0011   -0.0154    0.0218   -0.0207    0.0076   -0.0267
          62   -0.0138    0.0194    0.0020   -0.0196   -0.0079   -0.0059   -0.0167   -0.0082
          63   -0.0792   -0.0887   -0.0073   -0.0081    0.0171   -0.0073    0.0728    0.2151
          64   -0.0084    0.0145    0.0073    0.0382   -0.0685   -0.0153    0.0271   -0.0063
          65    0.0310   -0.0329   -0.0447   -0.0902    0.0274    0.0216   -0.0201   -0.0043
          66    0.0155   -0.0178    0.0349   -0.0500    0.0699   -0.0104    0.0141    0.0034
          67    0.0358   -0.0244   -0.0551    0.0697   -0.1612   -0.2549   -0.0032    0.0041
          68    0.0514   -0.0337   -0.0498    0.0211    0.0559    0.1158   -0.0542    0.0209
          69    0.0614   -0.0415   -0.0379   -0.0386    0.0109    0.0671   -0.0212    0.0037
          70    0.0105    0.0113    0.0260    0.0134    0.0288    0.3105    0.0372   -0.0152
          71   -0.0182    0.0068    0.0304    0.0739    0.0436   -0.1268    0.0088    0.0137
          72    0.0732   -0.0535   -0.0638   -0.0307   -0.0388   -0.0577   -0.0367    0.0081


   Root No.      17        18        19        20        21        22        23        24

                17 A      18 A      19 A      20 A      21 A      22 A      23 A      24 A   

                 773.1     850.6     865.3     880.3     923.3     943.2     973.8     984.9
  
           1    0.0407    0.0007    0.0004   -0.0005    0.0013   -0.0027    0.0009    0.0116
           2   -0.0312    0.0023   -0.0008   -0.0020    0.0023   -0.0036    0.0053   -0.0053
           3    0.0036    0.0274    0.0031    0.0025    0.0005   -0.0015   -0.0205   -0.0041
           4    0.0003    0.0369    0.0089    0.0012   -0.0016    0.0056    0.0019   -0.0126
           5   -0.0595   -0.0104   -0.0058    0.0028   -0.0009   -0.0014   -0.0048    0.0141
           6   -0.0047    0.0116    0.0278   -0.0108   -0.0002    0.0020    0.0250   -0.0060
           7    0.0592   -0.0227    0.0015   -0.0077    0.0029   -0.0011    0.0022   -0.0167
           8    0.0131    0.0339    0.0037    0.0075   -0.0043    0.0038   -0.0030    0.0047
           9    0.0038    0.0175   -0.0235    0.0149    0.0002    0.0015    0.0224    0.0186
          10    0.0003   -0.0007    0.0052    0.0106    0.0036   -0.0187   -0.0061   -0.0022
          11   -0.0005    0.0065   -0.0058   -0.0136    0.0064   -0.0143   -0.0082   -0.0022
          12   -0.0005    0.0005   -0.0030   -0.0061   -0.0015    0.0100    0.0015    0.0009
          13   -0.0094   -0.0071    0.0007    0.0126   -0.0096   -0.0073   -0.0024   -0.0004
          14    0.0049   -0.0131   -0.0038   -0.0095    0.0048    0.0056   -0.0001   -0.0002
          15    0.0004   -0.0135   -0.0028   -0.0062    0.0058   -0.0081   -0.0022   -0.0010
          16   -0.0991   -0.0021   -0.0016    0.0015   -0.0003   -0.0004    0.0014   -0.0021
          17   -0.0188   -0.0042    0.0008   -0.0017    0.0003    0.0003    0.0028   -0.0094
          18   -0.0054   -0.0107    0.0013   -0.0035    0.0011   -0.0011   -0.0231    0.0258
          19   -0.0084   -0.0029   -0.0018    0.0017   -0.0001   -0.0004   -0.0014    0.0086
          20    0.1010   -0.0045    0.0007   -0.0014    0.0013   -0.0006    0.0001    0.0057
          21    0.0016   -0.0101   -0.0040    0.0013   -0.0002   -0.0013   -0.0136   -0.0363
          22    0.0019    0.0048    0.0066    0.0096    0.0116   -0.0072   -0.0002    0.0004
          23   -0.0006    0.0099   -0.0063   -0.0115   -0.0083   -0.0065    0.0024    0.0007
          24   -0.0003    0.0052   -0.0025   -0.0049   -0.0025   -0.0072   -0.0002   -0.0002
          25   -0.0025   -0.0066   -0.0096   -0.0164    0.0209    0.0274    0.0023    0.0002
          26    0.0017   -0.0062    0.0108    0.0207   -0.0372   -0.0055    0.0043    0.0015
          27   -0.0024   -0.0288    0.0012    0.0074   -0.0270    0.0189    0.0019   -0.0005
          28    0.0014   -0.0077   -0.0016    0.0005   -0.0010   -0.0103    0.0010    0.0003
          29    0.0012   -0.0176   -0.0042   -0.0072    0.0054    0.0060    0.0008    0.0000
          30    0.0001   -0.0056   -0.0018   -0.0035    0.0150   -0.0297    0.0166    0.0035
          31    0.0340    0.0126   -0.0400    0.0168    0.0058   -0.0073   -0.0459    0.1051
          32   -0.0230    0.0057    0.0290   -0.0165    0.0014   -0.0070   -0.0155   -0.0758
          33    0.0052    0.0305    0.0019    0.0015    0.0020   -0.0050   -0.0482   -0.0029
          34    0.0347   -0.0005   -0.0316    0.0122   -0.0042    0.0075   -0.0119    0.0748
          35   -0.0621   -0.0022    0.0752   -0.0316   -0.0052    0.0065    0.0717    0.0483
          36    0.0110   -0.0108   -0.0352    0.0130    0.0010   -0.0008   -0.0226    0.0182
          37    0.0365    0.1038    0.0592   -0.0070   -0.0058    0.0117    0.0049   -0.0824
          38   -0.0266   -0.0025   -0.0727    0.0377   -0.0001    0.0002   -0.0839   -0.0028
          39    0.0034   -0.0153   -0.0443    0.0178    0.0024   -0.0002   -0.0322    0.0178
          40    0.0436   -0.0468    0.0731   -0.0524   -0.0025   -0.0036   -0.0679   -0.0632
          41   -0.0222    0.1066   -0.0060    0.0264   -0.0068    0.0094   -0.0376    0.0534
          42   -0.0017   -0.0228    0.0385   -0.0272   -0.0033   -0.0023   -0.0251   -0.0344
          43    0.0639    0.0136   -0.0791    0.0414    0.0027    0.0071    0.0793    0.0154
          44   -0.0267   -0.0029    0.0099    0.0028   -0.0093    0.0120    0.0327   -0.0713
          45   -0.0095   -0.0168    0.0294   -0.0177   -0.0014   -0.0010   -0.0149   -0.0262
          46   -0.0028    0.0000   -0.0131   -0.0254   -0.0070    0.0235    0.0057    0.0020
          47    0.0009   -0.0310    0.0133    0.0314   -0.0187    0.0575    0.0267    0.0071
          48    0.0034    0.0261    0.0113    0.0171    0.0331   -0.1073   -0.0425   -0.0125
          49   -0.0022   -0.0122   -0.0059   -0.0093   -0.0124    0.0435    0.0146    0.0044
          50   -0.0005    0.0038   -0.0054   -0.0124    0.0044   -0.0076   -0.0055   -0.0014
          51    0.0049   -0.0630    0.0490    0.1100   -0.0351    0.0884    0.0478    0.0124
          52   -0.0035   -0.0054   -0.0154   -0.0286   -0.0135    0.0470    0.0138    0.0046
          53    0.0039   -0.0199    0.0286    0.0601   -0.0002   -0.0189    0.0009   -0.0013
          54   -0.0079    0.0041   -0.0478   -0.0949   -0.0246    0.1119    0.0281    0.0109
          55   -0.0879   -0.0178   -0.0018   -0.0005    0.0007   -0.0037   -0.0065    0.0224
          56   -0.0655    0.0365    0.0201   -0.0062   -0.0023    0.0107    0.0095   -0.0644
          57    0.0250    0.0751   -0.0977    0.0617   -0.0040    0.0050    0.0822   -0.1233
          58   -0.0037    0.0281   -0.0439   -0.0885   -0.1354   -0.0132    0.0135    0.0037
          59    0.0042   -0.0446    0.0592    0.1172    0.1669    0.0624    0.0147    0.0045
          60    0.0048    0.0069    0.0272    0.0526    0.0947   -0.0430   -0.0275   -0.0076
          61    0.0345    0.0442   -0.0054    0.0198   -0.0077    0.0055   -0.0165    0.0593
          62    0.1006   -0.0076   -0.0057    0.0015    0.0013   -0.0008   -0.0025   -0.0062
          63    0.0132    0.0513    0.1141   -0.0516   -0.0002    0.0042    0.0359    0.1569
          64    0.0098   -0.0237    0.0108    0.0186   -0.2043   -0.0253    0.0151    0.0045
          65   -0.0110    0.0394   -0.0121   -0.0267    0.2485    0.0546    0.0092    0.0031
          66   -0.0118   -0.0342   -0.0131   -0.0118    0.1099    0.0567   -0.0192   -0.0076
          67   -0.0113    0.0126   -0.0108   -0.0311    0.0197    0.0906   -0.0171   -0.0040
          68    0.0140    0.0190    0.0147    0.0294   -0.0744    0.1246   -0.0671   -0.0130
          69    0.0071    0.0131    0.0083    0.0164   -0.0263    0.0268   -0.0171   -0.0027
          70    0.0397   -0.0198    0.0015   -0.0219    0.0336   -0.0024    0.0247    0.0080
          71   -0.0203   -0.0582   -0.0197   -0.0222    0.0543   -0.1114    0.0498    0.0071
          72   -0.0027    0.0334    0.0091    0.0207   -0.0435    0.0638   -0.0367   -0.0066


   Root No.      25        26        27        28        29        30        31        32

                25 A      26 A      27 A      28 A      29 A      30 A      31 A      32 A   

                1000.4    1010.3    1016.8    1034.6    1051.9    1070.0    1097.5    1100.7
  
           1    0.0099    0.0111   -0.0105    0.0068    0.0228    0.0021    0.0015   -0.0143
           2    0.0071   -0.0096   -0.0019    0.0071    0.0289   -0.0047   -0.0053   -0.0129
           3   -0.0084    0.0033    0.0018    0.0017    0.0081    0.0033    0.0169    0.0248
           4   -0.0086   -0.0089    0.0072   -0.0037   -0.0099   -0.0015   -0.0113    0.0036
           5    0.0026    0.0170   -0.0081    0.0014   -0.0113    0.0022    0.0103   -0.0053
           6    0.0119    0.0105   -0.0136    0.0063    0.0022    0.0079    0.0015   -0.0116
           7   -0.0033   -0.0187    0.0098   -0.0030   -0.0020    0.0001    0.0146   -0.0050
           8   -0.0042    0.0053    0.0017   -0.0035   -0.0069    0.0006    0.0075   -0.0024
           9    0.0069   -0.0163    0.0057   -0.0026    0.0052   -0.0099   -0.0059   -0.0087
          10    0.0155   -0.0030    0.0095    0.0172   -0.0083   -0.0007   -0.0039   -0.0033
          11    0.0143   -0.0070   -0.0128   -0.0233   -0.0034   -0.0007   -0.0025   -0.0022
          12   -0.0041    0.0011   -0.0038   -0.0101    0.0009   -0.0001   -0.0005   -0.0009
          13    0.0046    0.0062    0.0156   -0.0150    0.0066   -0.0007    0.0076    0.0061
          14    0.0014   -0.0036   -0.0054    0.0057   -0.0102    0.0004   -0.0047   -0.0022
          15    0.0055   -0.0043   -0.0056    0.0048   -0.0006    0.0010    0.0021    0.0013
          16    0.0024   -0.0024   -0.0004    0.0015    0.0134   -0.0010   -0.0111    0.0047
          17   -0.0003   -0.0102    0.0046   -0.0006    0.0100    0.0011   -0.0104    0.0082
          18   -0.0117   -0.0093    0.0109   -0.0035    0.0021   -0.0348   -0.0045   -0.0011
          19    0.0021    0.0088   -0.0056    0.0020    0.0009   -0.0022   -0.0114    0.0080
          20    0.0026    0.0039   -0.0049    0.0035    0.0099   -0.0023   -0.0205    0.0089
          21   -0.0058    0.0161   -0.0047    0.0010    0.0013    0.0330   -0.0069   -0.0037
          22   -0.0054    0.0000   -0.0124   -0.0262    0.0088    0.0006    0.0043    0.0028
          23   -0.0050    0.0049    0.0158    0.0353    0.0004    0.0007    0.0019    0.0020
          24    0.0008    0.0008    0.0057    0.0152    0.0000    0.0002    0.0012    0.0007
          25    0.0009   -0.0024    0.0024    0.0159   -0.0096   -0.0004   -0.0062   -0.0036
          26   -0.0069    0.0034   -0.0025   -0.0213    0.0066    0.0000    0.0015    0.0015
          27    0.0157   -0.0076   -0.0019   -0.0096   -0.0160   -0.0020   -0.0144   -0.0103
          28   -0.0172   -0.0179   -0.0290    0.0168   -0.0120    0.0007   -0.0044   -0.0023
          29    0.0059    0.0071    0.0129   -0.0067   -0.0084    0.0001   -0.0009    0.0018
          30   -0.0171    0.0119    0.0107   -0.0100   -0.0014   -0.0004   -0.0006    0.0013
          31    0.0161    0.0490   -0.0563    0.0432    0.0686    0.0301    0.1313   -0.0069
          32    0.0079   -0.0367    0.0039    0.0173    0.0947   -0.0088    0.0485    0.0309
          33   -0.0048    0.0042   -0.0131    0.0206    0.0572    0.0122    0.0928    0.0514
          34   -0.0035   -0.0355    0.0201   -0.0167   -0.0893    0.1452    0.0717    0.0629
          35    0.0420    0.0329   -0.0369    0.0043   -0.0863    0.1269    0.0750   -0.0031
          36   -0.0072   -0.0108    0.0079   -0.0018    0.0020    0.0133    0.0088    0.0162
          37   -0.0308    0.0776   -0.0207   -0.0012   -0.0628   -0.1487   -0.0259   -0.1121
          38   -0.0492    0.0615    0.0022   -0.0134   -0.0712   -0.1183    0.0171   -0.0633
          39   -0.0129   -0.0009    0.0067   -0.0045   -0.0108   -0.0028    0.0136    0.0051
          40   -0.0470   -0.0095    0.0332   -0.0135   -0.0314    0.0756    0.0541   -0.0422
          41   -0.0668   -0.0505    0.0800   -0.0465   -0.0314    0.1575   -0.0136   -0.1509
          42   -0.0105    0.0071    0.0019    0.0016   -0.0093    0.0059    0.0304    0.0043
          43    0.0208   -0.0678    0.0248   -0.0155   -0.0344   -0.0677    0.0861   -0.0165
          44    0.0175   -0.0046   -0.0091   -0.0075   -0.0835   -0.1275    0.2008    0.0510
          45   -0.0016    0.0114   -0.0069    0.0037   -0.0004   -0.0090    0.0142    0.0163
          46   -0.0119    0.0011   -0.0123   -0.0209    0.0053    0.0002    0.0014    0.0009
          47   -0.0455    0.0157    0.0138    0.0284    0.0152    0.0020    0.0082    0.0071
          48    0.0831   -0.0222    0.0109    0.0115   -0.0350   -0.0035   -0.0175   -0.0150
          49   -0.0264    0.0068   -0.0046   -0.0076    0.0085    0.0008    0.0026    0.0023
          50    0.0095   -0.0056   -0.0125   -0.0225   -0.0018   -0.0005   -0.0019   -0.0017
          51   -0.0759    0.0371    0.0721    0.1282    0.0142    0.0032    0.0096    0.0092
          52   -0.0276    0.0056   -0.0138   -0.0248    0.0104    0.0006    0.0031    0.0026
          53    0.0095    0.0030    0.0350    0.0659   -0.0094    0.0001   -0.0028   -0.0019
          54   -0.0682    0.0104   -0.0583   -0.1103    0.0321    0.0016    0.0104    0.0082
          55    0.0097    0.0210   -0.0165    0.0099    0.0218   -0.0026   -0.0028   -0.0381
          56   -0.0341   -0.0945    0.0658   -0.0311   -0.0189   -0.0134   -0.0450    0.1544
          57    0.0350    0.0300   -0.0321    0.0087   -0.0008    0.0702    0.0044    0.0071
          58   -0.0164    0.0134    0.0272    0.0655    0.0013   -0.0006    0.0009   -0.0014
          59   -0.0272   -0.0026   -0.0419   -0.0866    0.0184    0.0013    0.0005   -0.0077
          60    0.0311   -0.0136   -0.0133   -0.0372   -0.0007    0.0017    0.0068    0.0133
          61    0.0000    0.1027   -0.0464    0.0039   -0.0848    0.0078   -0.1098    0.1687
          62    0.0011    0.0059   -0.0051    0.0034    0.0113    0.0034   -0.0206    0.0067
          63    0.0149   -0.0488    0.0149   -0.0014   -0.0017   -0.0690    0.0033    0.0122
          64   -0.0163    0.0079   -0.0075   -0.0438    0.0152   -0.0011    0.0046    0.0025
          65   -0.0459    0.0086   -0.0014    0.0612    0.0248    0.0055    0.0226    0.0144
          66    0.0648   -0.0255    0.0115    0.0222   -0.0629   -0.0045   -0.0436   -0.0273
          67    0.0825    0.0629    0.1147   -0.0519    0.0220   -0.0015    0.0129    0.0107
          68    0.0548   -0.0547   -0.0580    0.0421   -0.0126    0.0026   -0.0011   -0.0025
          69    0.0041   -0.0216   -0.0296    0.0165   -0.0045    0.0010   -0.0015   -0.0013
          70    0.0416    0.0896    0.1173   -0.0738    0.0227   -0.0022    0.0101    0.0065
          71   -0.0813   -0.0098   -0.0275    0.0119   -0.0367    0.0003   -0.0108   -0.0006
          72    0.0229   -0.0322   -0.0349    0.0236    0.0019    0.0011   -0.0003   -0.0011


   Root No.      33        34        35        36        37        38        39        40

                33 A      34 A      35 A      36 A      37 A      38 A      39 A      40 A   

                1105.8    1131.4    1176.5    1211.2    1226.0    1244.8    1246.9    1255.0
  
           1   -0.0151    0.0188    0.0059   -0.0234    0.0492   -0.0074    0.0298   -0.0005
           2    0.0142    0.0270    0.0019    0.0067   -0.0324   -0.0029   -0.0069   -0.0452
           3    0.0096   -0.0161   -0.0060   -0.0079    0.0055   -0.0021    0.0106   -0.0246
           4    0.0221   -0.0219   -0.0049    0.0032   -0.0091    0.0087   -0.0278   -0.0218
           5    0.0063    0.0226    0.0038   -0.0044    0.0096    0.0010   -0.0054   -0.0192
           6   -0.0148    0.0076    0.0004    0.0057   -0.0050    0.0013   -0.0055    0.0048
           7    0.0016    0.0279    0.0025    0.0028   -0.0098   -0.0038    0.0059   -0.0143
           8   -0.0188   -0.0205   -0.0010   -0.0082    0.0077   -0.0099    0.0338    0.0068
           9    0.0113    0.0134    0.0007    0.0028    0.0023    0.0004   -0.0005    0.0093
          10   -0.0024    0.0015   -0.0234   -0.0072   -0.0017   -0.0082   -0.0035    0.0024
          11   -0.0012    0.0006    0.0004   -0.0063   -0.0025   -0.0005   -0.0016    0.0023
          12   -0.0013    0.0015   -0.0425    0.0031    0.0032   -0.0129   -0.0025   -0.0013
          13    0.0026   -0.0004    0.0035   -0.0053   -0.0103   -0.0001   -0.0025   -0.0058
          14   -0.0029   -0.0026    0.0002   -0.0003    0.0045    0.0017    0.0047   -0.0069
          15    0.0029    0.0029    0.0082   -0.0137    0.0006   -0.0055    0.0039   -0.0135
          16   -0.0073   -0.0244   -0.0021   -0.0004    0.0035   -0.0005    0.0053    0.0152
          17   -0.0103   -0.0205   -0.0013   -0.0023    0.0173    0.0079   -0.0179    0.0100
          18    0.0024   -0.0009    0.0000   -0.0010    0.0023    0.0006   -0.0006    0.0007
          19    0.0038   -0.0123   -0.0024    0.0060   -0.0175   -0.0047    0.0126    0.0137
          20    0.0077   -0.0277   -0.0039    0.0058   -0.0106    0.0030   -0.0087    0.0094
          21   -0.0053   -0.0024   -0.0004    0.0007   -0.0025   -0.0002    0.0003    0.0002
          22    0.0027    0.0004    0.0175    0.0057    0.0008    0.0281    0.0100   -0.0067
          23    0.0010   -0.0004   -0.0031    0.0140    0.0070    0.0041    0.0059   -0.0082
          24    0.0014    0.0006    0.0403   -0.0257   -0.0136    0.0400    0.0053    0.0074
          25   -0.0036   -0.0031    0.0033    0.0159    0.0065   -0.0209   -0.0052    0.0040
          26    0.0011   -0.0009   -0.0049    0.0211    0.0068   -0.0099    0.0002   -0.0052
          27   -0.0065   -0.0013    0.0133   -0.0115   -0.0092   -0.0127   -0.0122    0.0180
          28   -0.0031   -0.0022    0.0001    0.0002    0.0028    0.0004   -0.0003    0.0060
          29   -0.0021   -0.0038    0.0042   -0.0042   -0.0034    0.0022   -0.0042    0.0116
          30   -0.0020   -0.0046   -0.0050    0.0069    0.0018    0.0000   -0.0006    0.0030
          31   -0.1706    0.0198   -0.0255    0.0929   -0.1270    0.0196   -0.0623    0.0471
          32    0.1778    0.1191   -0.0325    0.0460    0.0809    0.0305   -0.0232    0.1600
          33    0.0304    0.0277   -0.0346    0.0538   -0.0057    0.0241   -0.0316    0.0925
          34    0.1458   -0.0544   -0.0138    0.0141   -0.0535   -0.0149    0.0428    0.0186
          35    0.0755    0.0486    0.0009    0.0072   -0.0362   -0.0253    0.0736    0.0207
          36    0.0092   -0.0188   -0.0038    0.0044   -0.0037    0.0035   -0.0108    0.0027
          37    0.0300    0.0305    0.0102    0.0459   -0.0730   -0.0089    0.0088    0.0653
          38    0.0636    0.0746    0.0033    0.0038   -0.0301   -0.0229    0.0680    0.0284
          39    0.0187    0.0143   -0.0075   -0.0083   -0.0011   -0.0056    0.0240   -0.0039
          40   -0.0465    0.0464    0.0060   -0.0076    0.0128    0.0169   -0.0521   -0.0470
          41   -0.0668    0.0434    0.0176   -0.0037    0.0636    0.0249   -0.0687    0.0548
          42   -0.0106    0.0077   -0.0024   -0.0060    0.0044    0.0066   -0.0161   -0.0266
          43   -0.0088    0.0542    0.0083   -0.0053    0.0227    0.0175   -0.0547   -0.0355
          44   -0.0602   -0.0794   -0.0037   -0.0305    0.0764    0.0243   -0.0542   -0.0053
          45    0.0035   -0.0194   -0.0041   -0.0001    0.0056   -0.0011    0.0073    0.0165
          46    0.0010    0.0001    0.0129   -0.0094   -0.0056    0.0183    0.0025    0.0034
          47    0.0060   -0.0025    0.0824   -0.0163   -0.0129    0.0576    0.0106    0.0060
          48   -0.0125    0.0061   -0.1718    0.0210    0.0206   -0.1034   -0.0206   -0.0081
          49    0.0015   -0.0012    0.0148    0.0055   -0.0001    0.0216    0.0059   -0.0005
          50   -0.0007    0.0004    0.0069   -0.0080   -0.0040    0.0069   -0.0002    0.0032
          51    0.0039   -0.0032   -0.0497    0.0711    0.0352   -0.0546    0.0039   -0.0296
          52    0.0014   -0.0012   -0.0072    0.0213    0.0095   -0.0061    0.0034   -0.0081
          53   -0.0005    0.0003    0.0367   -0.0300   -0.0169    0.0441    0.0033    0.0138
          54    0.0042   -0.0027   -0.0392    0.0640    0.0302   -0.0385    0.0052   -0.0253
          55    0.0363   -0.0676   -0.0039   -0.0060    0.0279    0.0129   -0.0299    0.0032
          56   -0.1529    0.1173    0.0040    0.0174   -0.0658   -0.0367    0.1001    0.0547
          57   -0.0135    0.0049   -0.0008    0.0024   -0.0042   -0.0018    0.0035    0.0051
          58   -0.0004    0.0076   -0.0594   -0.0527   -0.0179    0.0763    0.0167    0.0018
          59   -0.0008    0.0194   -0.1540   -0.0973   -0.0367    0.0873    0.0100    0.0070
          60    0.0070   -0.0234    0.2556    0.1369    0.0435   -0.0809   -0.0056   -0.0163
          61   -0.0138    0.1506    0.0113   -0.0064    0.0670    0.0401   -0.1126   -0.0253
          62    0.0061   -0.0326   -0.0043    0.0060   -0.0117    0.0027   -0.0075    0.0110
          63    0.0108    0.0079    0.0004    0.0010    0.0029    0.0020   -0.0059    0.0020
          64    0.0042    0.0018    0.0296   -0.0399   -0.0142   -0.0813   -0.0314    0.0176
          65    0.0154    0.0074    0.0535   -0.1144   -0.0299   -0.1370   -0.0483    0.0180
          66   -0.0268   -0.0138   -0.0565    0.1553    0.0437    0.1512    0.0551   -0.0160
          67    0.0076    0.0012    0.0136   -0.0147   -0.0201   -0.0090   -0.0195    0.0281
          68    0.0032    0.0091    0.0327   -0.0466   -0.0155   -0.0155   -0.0276    0.0668
          69    0.0000    0.0012    0.0082   -0.0131   -0.0027   -0.0086   -0.0094    0.0239
          70   -0.0026   -0.0017    0.0033   -0.0074   -0.0005   -0.0006   -0.0060    0.0224
          71   -0.0076   -0.0123   -0.0009    0.0046   -0.0091   -0.0019   -0.0339    0.0938
          72    0.0022    0.0016   -0.0009    0.0013    0.0070    0.0022    0.0240   -0.0665


   Root No.      41        42        43        44        45        46        47        48

                41 A      42 A      43 A      44 A      45 A      46 A      47 A      48 A   

                1343.5    1366.9    1368.6    1390.0    1396.0    1403.4    1409.1    1420.6
  
           1   -0.0040    0.0013   -0.0147    0.0092    0.0001   -0.0008    0.0089    0.0125
           2   -0.0046    0.0116   -0.0215    0.0134    0.0001   -0.0052   -0.0111    0.0186
           3    0.0077    0.0021   -0.0043    0.0082    0.0000   -0.0030   -0.0011    0.0161
           4    0.0251   -0.0339    0.0122   -0.0074   -0.0001    0.0156   -0.0056   -0.0065
           5    0.0258   -0.0266    0.0147   -0.0060    0.0001   -0.0313    0.0501   -0.0063
           6    0.0009   -0.0024    0.0023   -0.0017    0.0000   -0.0011    0.0025   -0.0024
           7    0.0175    0.0048    0.0228   -0.0073   -0.0003   -0.0441   -0.0383   -0.0037
           8    0.0297    0.0206    0.0382   -0.0111   -0.0001    0.0067   -0.0038   -0.0095
           9    0.0008    0.0002    0.0037   -0.0021    0.0000   -0.0016   -0.0016   -0.0028
          10   -0.0009    0.0002   -0.0005   -0.0232    0.0240    0.0000    0.0008    0.0157
          11    0.0006    0.0019   -0.0056   -0.0273   -0.0333   -0.0001    0.0002   -0.0146
          12   -0.0030   -0.0040    0.0125    0.0250   -0.0135    0.0002    0.0014    0.0619
          13   -0.0097    0.0014   -0.0010   -0.0033    0.0001    0.0003   -0.0031   -0.0087
          14   -0.0188   -0.0044    0.0085   -0.0041    0.0000    0.0012    0.0017   -0.0043
          15   -0.0056    0.0080   -0.0247   -0.0005    0.0001   -0.0008   -0.0010   -0.0184
          16   -0.0109    0.0152   -0.0034    0.0019    0.0000    0.0091   -0.0078    0.0014
          17   -0.0142    0.0373    0.0043    0.0005   -0.0001    0.0043   -0.0369    0.0010
          18   -0.0011    0.0024    0.0000    0.0002    0.0000    0.0006   -0.0022    0.0002
          19   -0.0086   -0.0271   -0.0186    0.0034    0.0002    0.0090    0.0311    0.0006
          20   -0.0129   -0.0173   -0.0186    0.0041    0.0001    0.0130    0.0135    0.0019
          21   -0.0010   -0.0018   -0.0018    0.0005    0.0000    0.0012    0.0020    0.0003
          22    0.0040    0.0039   -0.0108   -0.0041    0.0003   -0.0006   -0.0007   -0.0128
          23    0.0030    0.0027   -0.0083    0.0038   -0.0005   -0.0005   -0.0006    0.0002
          24   -0.0014   -0.0005    0.0003   -0.0168   -0.0005    0.0000   -0.0003   -0.0240
[...]
 T-DIPOLE    0.0617        C  4 --  H 18          +20.8% ( 39.4%)    11.0%
 TRAVEL      0.1759        C  4 --  H 17          +20.3% ( 38.9%)    11.8%
 RED. MASS   0.4211        C  4 --  C  8           +5.0% ( 19.4%)     0.0%
 EFF. MASS   1.5609

 VIBRATION   46   46A       ATOM PAIR        ENERGY CONTRIBUTION    RADIAL
 FREQ.      1403.36        C  3 --  H 15          +22.0% ( 50.7%)     4.8%
 T-DIPOLE    0.0478        C  3 --  H 14          +19.6% ( 47.9%)     6.0%
 TRAVEL      0.1209        C  2 --  H 12          +14.4% ( 41.1%)     4.8%
 RED. MASS   0.4042        C  2 --  H 13          +13.6% ( 39.8%)     5.6%
 EFF. MASS   3.2895

 VIBRATION   47   47A       ATOM PAIR        ENERGY CONTRIBUTION    RADIAL
 FREQ.      1409.10        C  2 --  C  6          +15.5% ( 50.3%)    94.6%
 T-DIPOLE    0.0933        C  2 --  H 12          +13.9% ( 47.7%)     5.6%
 TRAVEL      0.0910        C  2 --  H 13          +13.5% ( 47.0%)     6.1%
 RED. MASS   0.6943        C  3 --  C  7          +10.4% ( 41.2%)    91.7%
 EFF. MASS   5.7799

 VIBRATION   48   48A       ATOM PAIR        ENERGY CONTRIBUTION    RADIAL
 FREQ.      1420.61        C  4 --  H 16          +21.6% ( 59.5%)     7.2%
 T-DIPOLE    0.0149        C  4 --  H 18          +18.1% ( 54.5%)     1.7%
 TRAVEL      0.0929        C  4 --  H 17          +18.1% ( 54.4%)     1.7%
 RED. MASS   0.9977        C  4 --  C  8          +16.3% ( 51.6%)    92.1%
 EFF. MASS   5.4985

 VIBRATION   49   49A       ATOM PAIR        ENERGY CONTRIBUTION    RADIAL
 FREQ.      1471.08        C  1 --  C  5          +25.4% ( 77.2%)    92.5%
 T-DIPOLE    0.1385        C  5 --  C  9          +22.1% ( 72.0%)    81.8%
 TRAVEL      0.0639        C  5 --  C 10          +14.2% ( 57.7%)     0.0%
 RED. MASS   3.5330        C  1 --  C  3           +6.1% ( 38.0%)    25.9%
 EFF. MASS  11.2163

 VIBRATION   50   50A       ATOM PAIR        ENERGY CONTRIBUTION    RADIAL
 FREQ.      1827.92        C  6 --  C  7          +45.6% ( 99.8%)   100.0%
 T-DIPOLE    0.0993        C  3 --  C  7          +13.9% ( 55.0%)    25.7%
 TRAVEL      0.0557        C  2 --  C  6          +13.8% ( 55.0%)    25.6%
 RED. MASS   5.3289        C  7 --  H 21          +12.9% ( 53.1%)     9.7%
 EFF. MASS  11.8701        C  6 --  H 19          +12.9% ( 53.1%)     9.7%

 VIBRATION   51   51A       ATOM PAIR        ENERGY CONTRIBUTION    RADIAL
 FREQ.      1841.83        C  5 --  C 10          +39.9% ( 93.2%)   100.0%
 T-DIPOLE    0.1106        C  1 --  C  5          +14.4% ( 56.0%)    34.5%
 TRAVEL      0.0555        C  5 --  C  9          +13.9% ( 55.1%)    12.8%
 RED. MASS   4.2966        C 10 --  H 24           +9.7% ( 45.9%)    11.5%
 EFF. MASS  11.8664

 VIBRATION   52   52A       ATOM PAIR        ENERGY CONTRIBUTION    RADIAL
 FREQ.      1890.02        C  8 --  C  9          +37.9% ( 91.1%)    95.8%
 T-DIPOLE    0.5179        C  5 --  C  9          +17.5% ( 61.8%)    56.9%
 TRAVEL      0.0550        C  9 --  H 22          +12.9% ( 53.1%)     2.4%
 RED. MASS   4.3363        C  4 --  C  8          +11.3% ( 49.6%)    55.1%
 EFF. MASS  11.8018        C  8 --  H 20          +10.5% ( 47.9%)     3.5%

 VIBRATION   53   53A       ATOM PAIR        ENERGY CONTRIBUTION    RADIAL
 FREQ.      2875.54        C  1 --  H 11          +96.0% ( 99.7%)   100.0%
 T-DIPOLE    0.0613        C  1 --  C  3           +1.1% ( 10.7%)     8.2%
 TRAVEL      0.1268        C  1 --  C  2           +1.1% ( 10.7%)     8.3%
 RED. MASS   0.9183        C  1 --  C  5           +1.1% ( 10.6%)     8.9%
 EFF. MASS   1.4581

 VIBRATION   54   54A       ATOM PAIR        ENERGY CONTRIBUTION    RADIAL
 FREQ.      2970.06        C  3 --  H 15          +60.0% ( 80.3%)    97.9%
 T-DIPOLE    0.1226        C  3 --  H 14          +36.1% ( 62.2%)    94.8%
 TRAVEL      0.1216        C  3 --  C  7           +1.1% ( 10.9%)     0.2%
 RED. MASS   0.5284        C  1 --  C  3           +1.1% ( 10.8%)     0.2%
 EFF. MASS   1.5353

 VIBRATION   55   55A       ATOM PAIR        ENERGY CONTRIBUTION    RADIAL
 FREQ.      2974.36        C  2 --  H 12          +52.3% ( 75.0%)    97.2%
 T-DIPOLE    0.0766        C  2 --  H 13          +43.6% ( 68.5%)    96.0%
 TRAVEL      0.1215        C  2 --  C  6           +1.1% ( 10.8%)     0.0%
 RED. MASS   0.5011        C  1 --  C  2           +1.1% ( 10.8%)     0.0%
 EFF. MASS   1.5370

 VIBRATION   56   56A       ATOM PAIR        ENERGY CONTRIBUTION    RADIAL
 FREQ.      3015.53        C  9 --  H 22          +97.0% ( 99.9%)   100.0%
 T-DIPOLE    0.2504        C  8 --  C  9           +1.4% ( 12.2%)    37.0%
 TRAVEL      0.1218        C  5 --  C  9           +1.4% ( 11.8%)    13.9%
 RED. MASS   0.9257        C  8 --  H 20           +0.1% (  3.9%)    87.1%
 EFF. MASS   1.5076

 VIBRATION   57   57A       ATOM PAIR        ENERGY CONTRIBUTION    RADIAL
 FREQ.      3017.54        C  8 --  H 20          +95.5% ( 99.3%)   100.0%
 T-DIPOLE    0.3673        C  8 --  C  9           +1.6% ( 12.7%)    39.1%
 TRAVEL      0.1210        C  4 --  C  8           +1.4% ( 12.1%)    12.2%
 RED. MASS   0.9034        C  4 --  H 16           +0.6% (  7.9%)    97.4%
 EFF. MASS   1.5262

 VIBRATION   58   58A       ATOM PAIR        ENERGY CONTRIBUTION    RADIAL
 FREQ.      3047.90        C  3 --  H 14          +62.1% ( 77.8%)    98.7%
 T-DIPOLE    0.1368        C  3 --  H 15          +35.6% ( 58.9%)    95.2%
 TRAVEL      0.1312        C  1 --  C  3           +0.7% (  8.2%)    36.1%
 RED. MASS   0.5050        C  3 --  C  7           +0.7% (  8.2%)    30.6%
 EFF. MASS   1.2859

 VIBRATION   59   59A       ATOM PAIR        ENERGY CONTRIBUTION    RADIAL
 FREQ.      3053.51        C  2 --  H 13          +53.4% ( 72.1%)    98.1%
 T-DIPOLE    0.1042        C  2 --  H 12          +44.1% ( 65.5%)    96.9%
 TRAVEL      0.1311        C  1 --  C  2           +0.7% (  8.1%)    36.9%
 RED. MASS   0.4774        C  2 --  C  6           +0.7% (  8.1%)    31.5%
 EFF. MASS   1.2840

 VIBRATION   60   60A       ATOM PAIR        ENERGY CONTRIBUTION    RADIAL
 FREQ.      3069.14        C  4 --  H 18          +50.5% ( 73.3%)    97.2%
 T-DIPOLE    0.0319        C  4 --  H 17          +47.6% ( 71.2%)    96.8%
 TRAVEL      0.1210        C  4 --  C  8           +1.0% ( 10.2%)     0.0%
 RED. MASS   0.5094        C  4 --  H 16           +1.0% ( 10.1%)     1.1%
 EFF. MASS   1.5011

 VIBRATION   61   61A       ATOM PAIR        ENERGY CONTRIBUTION    RADIAL
 FREQ.      3074.60        C  4 --  H 16          +63.6% ( 82.2%)    98.9%
 T-DIPOLE    0.0614        C  4 --  H 17          +18.7% ( 44.6%)    86.1%
 TRAVEL      0.1206        C  4 --  H 18          +15.8% ( 41.0%)    83.3%
 RED. MASS   0.4927        C  4 --  C  8           +1.0% ( 10.4%)     0.0%
 EFF. MASS   1.5089

 VIBRATION   62   62A       ATOM PAIR        ENERGY CONTRIBUTION    RADIAL
 FREQ.      3115.64        C  7 --  H 21          +49.0% ( 71.1%)   100.0%
 T-DIPOLE    0.3727        C  6 --  H 19          +48.4% ( 70.7%)   100.0%
 TRAVEL      0.1217        C  6 --  C  7           +1.1% ( 10.7%)     0.0%
 RED. MASS   0.4648        C  3 --  C  7           +0.7% (  8.6%)    27.2%
 EFF. MASS   1.4621

 VIBRATION   63   63A       ATOM PAIR        ENERGY CONTRIBUTION    RADIAL
 FREQ.      3134.64        C  6 --  H 19          +48.0% ( 70.6%)    99.9%
 T-DIPOLE    0.3641        C  7 --  H 21          +47.4% ( 70.1%)    99.9%
 TRAVEL      0.1142        C  6 --  C  7           +2.5% ( 16.0%)   100.0%
 RED. MASS   0.4652        C  2 --  C  6           +0.9% (  9.9%)    20.6%
 EFF. MASS   1.6503

 VIBRATION   64   64A       ATOM PAIR        ENERGY CONTRIBUTION    RADIAL
 FREQ.      3137.89        C 10 --  H 23          +69.8% ( 85.6%)    98.8%
 T-DIPOLE    0.1959        C 10 --  H 24          +28.9% ( 55.1%)    93.3%
 TRAVEL      0.1161        C  5 --  C 10           +1.3% ( 11.8%)     3.8%
 RED. MASS   0.6107
 EFF. MASS   1.5950

 VIBRATION   65   65A       ATOM PAIR        ENERGY CONTRIBUTION    RADIAL
 FREQ.      3141.28        C 10 --  H 24          +70.7% ( 84.1%)    98.0%
 T-DIPOLE    0.3299        C 10 --  H 23          +27.8% ( 52.7%)    88.3%
 TRAVEL      0.1242        C  5 --  C 10           +1.5% ( 12.1%)    93.0%
 RED. MASS   0.5675
 EFF. MASS   1.3926

 VIBRATION   66   66A       ATOM PAIR        ENERGY CONTRIBUTION    RADIAL
 FREQ.      3168.49        C  4 --  H 16          +34.3% ( 56.3%)    97.2%
 T-DIPOLE    0.0785        C  4 --  H 18          +32.7% ( 55.1%)    97.1%
 TRAVEL      0.1367        C  4 --  H 17          +32.7% ( 55.1%)    97.1%
 RED. MASS   0.3271        C  4 --  C  8           +0.3% (  5.4%)   100.0%
 EFF. MASS   1.1392

 SYMMETRY NUMBER FOR POINT-GROUP C1  =  1


          SYSTEM IS A GROUND STATE


    NULL



          MOLECULE IS NOT LINEAR

          THERE ARE 66 GENUINE VIBRATIONS IN THIS SYSTEM
          THIS THERMODYNAMICS CALCULATION IS LIMITED TO
          MOLECULES WHICH HAVE NO INTERNAL ROTATIONS




                    CALCULATED THERMODYNAMIC PROPERTIES
                                          *
   TEMP. (K)   PARTITION FUNCTION   H.O.F.    ENTHALPY  HEAT CAPACITY ENTROPY
                                   KCAL/MOL   CAL/MOLE    CAL/K/MOL  CAL/K/MOL


 298.00  VIB.     0.7392D+03                  4708.8782    33.2809    28.9281
         ROT.     0.7009D+06                   888.2813     2.9808    29.7289
         INT.     0.5181D+09                  5597.1595    36.2617    58.6570
         TRA.     0.1503D+28                  1480.4688     4.9680    40.5931
         TOT.                       30.898    7077.6284    41.2297    99.2500

 200.00  VIB.     0.5608D+02                  2071.7542    20.9226    18.3609
         ROT.     0.3854D+06                   596.1620     2.9808    28.5402
         INT.     0.2161D+08                  2667.9161    23.9034    46.9011
         TRA.     0.8266D+27                   993.6033     4.9680    38.6119
         TOT.                       27.482    3661.5194    28.8714    85.5130

 210.00  VIB.     0.7279D+02                  2286.6357    22.0597    19.4091
         ROT.     0.4146D+06                   625.9700     2.9808    28.6856
         INT.     0.3018D+08                  2912.6057    25.0405    48.0947
         TRA.     0.8893D+27                  1043.2834     4.9680    38.8543
         TOT.                       27.777    3955.8892    30.0085    86.9490

 220.00  VIB.     0.9451D+02                  2513.0654    23.2320    20.4622
         ROT.     0.4446D+06                   655.7781     2.9808    28.8243
         INT.     0.4202D+08                  3168.8435    26.2128    49.2865
         TRA.     0.9536D+27                  1092.9636     4.9680    39.0854
         TOT.                       28.082    4261.8071    31.1808    88.3720

 230.00  VIB.     0.1228D+03                  2751.3876    24.4378    21.5214
         ROT.     0.4753D+06                   685.5862     2.9808    28.9568
         INT.     0.5834D+08                  3436.9738    27.4186    50.4782
         TRA.     0.1019D+28                  1142.6437     4.9680    39.3063
         TOT.                       28.400    4579.6175    32.3867    89.7845

 240.00  VIB.     0.1595D+03                  3001.9255    25.6747    22.5875
         ROT.     0.5066D+06                   715.3943     2.9808    29.0836
         INT.     0.8081D+08                  3717.3198    28.6555    51.6712
         TRA.     0.1087D+28                  1192.3239     4.9680    39.5177
         TOT.                       28.730    4909.6437    33.6235    91.1889

 250.00  VIB.     0.2074D+03                  3264.9743    26.9394    23.6612
         ROT.     0.5386D+06                   745.2024     2.9808    29.2053
         INT.     0.1117D+09                  4010.1767    29.9202    52.8665
         TRA.     0.1155D+28                  1242.0041     4.9680    39.7205
         TOT.                       29.073    5252.1808    34.8883    92.5870

 260.00  VIB.     0.2699D+03                  3540.7954    28.2285    24.7428
         ROT.     0.5712D+06                   775.0105     2.9808    29.3222
         INT.     0.1542D+09                  4315.8060    31.2094    54.0650
         TRA.     0.1225D+28                  1291.6842     4.9680    39.9154
         TOT.                       29.428    5607.4902    36.1774    93.9804

 270.00  VIB.     0.3514D+03                  3829.6137    29.5382    25.8326
         ROT.     0.6045D+06                   804.8186     2.9808    29.4347
         INT.     0.2124D+09                  4634.4323    32.5190    55.2674
         TRA.     0.1297D+28                  1341.3644     4.9680    40.1029
         TOT.                       29.796    5975.7967    37.4870    95.3702

 280.00  VIB.     0.4579D+03                  4131.6146    30.8644    26.9308
         ROT.     0.6384D+06                   834.6267     2.9808    29.5431
         INT.     0.2923D+09                  4966.2413    33.8452    56.4739
         TRA.     0.1369D+28                  1391.0445     4.9680    40.2835
         TOT.                       30.178    6357.2859    38.8133    96.7575

 290.00  VIB.     0.5973D+03                  4446.9444    32.2033    28.0372
         ROT.     0.6729D+06                   864.4348     2.9808    29.6477
         INT.     0.4019D+09                  5311.3792    35.1841    57.6849
         TRA.     0.1443D+28                  1440.7247     4.9680    40.4579
         TOT.                       30.573    6752.1039    40.1521    98.1428

 300.00  VIB.     0.7797D+03                  4775.7101    33.5510    29.1516
         ROT.     0.7080D+06                   894.2429     2.9808    29.7488
         INT.     0.5520D+09                  5669.9530    36.5318    58.9004
         TRA.     0.1518D+28                  1490.4049     4.9680    40.6263
         TOT.                       30.981    7160.3579    41.4998    99.5267

 310.00  VIB.     0.1019D+04                  5117.9806    34.9037    30.2738
         ROT.     0.7437D+06                   924.0510     2.9808    29.8465
         INT.     0.7577D+09                  6042.0316    37.8845    60.1204
         TRA.     0.1595D+28                  1540.0850     4.9680    40.7892
         TOT.                       31.403    7582.1166    42.8525   100.9096

 320.00  VIB.     0.1333D+04                  5473.7889    36.2580    31.4034
         ROT.     0.7799D+06                   953.8591     2.9808    29.9412
         INT.     0.1039D+10                  6427.6481    39.2388    61.3445
         TRA.     0.1673D+28                  1589.7652     4.9680    40.9469
         TOT.                       31.838    8017.4133    44.2068   102.2915

 330.00  VIB.     0.1745D+04                  5843.1343    37.6106    32.5398
         ROT.     0.8168D+06                   983.6672     2.9808    30.0329
         INT.     0.1425D+10                  6826.8015    40.5914    62.5727
         TRA.     0.1752D+28                  1639.4454     4.9680    41.0998
         TOT.                       32.287    8466.2469    45.5594   103.6725

 340.00  VIB.     0.2287D+04                  6225.9848    38.9585    33.6826
         ROT.     0.8542D+06                  1013.4753     2.9808    30.1219
         INT.     0.1953D+10                  7239.4601    41.9393    63.8045
         TRA.     0.1832D+28                  1689.1255     4.9680    41.2481
         TOT.                       32.749    8928.5856    46.9073   105.0526

 350.00  VIB.     0.3000D+04                  6622.2799    40.2991    34.8313
         ROT.     0.8921D+06                  1043.2834     2.9808    30.2083
         INT.     0.2677D+10                  7665.5633    43.2799    65.0396
         TRA.     0.1914D+28                  1738.8057     4.9680    41.3921
         TOT.                       33.225    9404.3690    48.2479   106.4317

 360.00  VIB.     0.3940D+04                  7031.9339    41.6299    35.9852
         ROT.     0.9307D+06                  1073.0915     2.9808    30.2923
         INT.     0.3667D+10                  8105.0254    44.6107    66.2775
         TRA.     0.1996D+28                  1788.4859     4.9680    41.5321
         TOT.                       33.714    9893.5112    49.5787   107.8096

 370.00  VIB.     0.5180D+04                  7454.8382    42.9488    37.1438
         ROT.     0.9697D+06                  1102.8996     2.9808    30.3739
         INT.     0.5023D+10                  8557.7378    45.9296    67.5178
         TRA.     0.2080D+28                  1838.1660     4.9680    41.6682
         TOT.                       34.217   10395.9038    50.8976   109.1860

 380.00  VIB.     0.6816D+04                  7890.8644    44.2540    38.3066
         ROT.     0.1009D+07                  1132.7077     2.9808    30.4534
         INT.     0.6879D+10                  9023.5721    47.2348    68.7600
         TRA.     0.2165D+28                  1887.8462     4.9680    41.8007
         TOT.                       34.732   10911.4183    52.2028   110.5607

 390.00  VIB.     0.8978D+04                  8339.8672    45.5439    39.4728
         ROT.     0.1049D+07                  1162.5158     2.9808    30.5309
         INT.     0.9421D+10                  9502.3830    48.5247    70.0037
         TRA.     0.2251D+28                  1937.5263     4.9680    41.9297
         TOT.                       35.261   11439.9093    53.4927   111.9334

 400.00  VIB.     0.1184D+05                  8801.6862    46.8171    40.6420
         ROT.     0.1090D+07                  1192.3239     2.9808    30.6063
         INT.     0.1290D+11                  9994.0101    49.7979    71.2483
         TRA.     0.2338D+28                  1987.2065     4.9680    42.0555
         TOT.                       35.802   11981.2166    54.7659   113.3038

   *: NOTE: HEATS OF FORMATION ARE RELATIVE TO THE
            ELEMENTS IN THEIR STANDARD STATE AT 298K
              (=  Standard Enthalpy of Formation).

            Hvib:  Zero-point energy is not included.
                   frequencies of less than zero cm-1 are not included.
            Hrot = (3/2)RT
            Htra = (3/2)RT + pV = (5/2)RT

            Heat capacity is Cp, not Cv

           For more information, see: HTTP://OpenMOPAC.net/Manual/thermochemistry.html


           FORCE CONSTANT IN CARTESIAN COORDINATES (Millidynes/A)

    ATOM   CHEMICAL       X               Y               Z
   NUMBER   SYMBOL  FORCE CONSTANT  FORCE CONSTANT  FORCE CONSTANT

      1       C        7.520058        8.687371        8.640002
      2       C        7.547619        9.344411        8.125457
      3       C        9.569585        7.360174        8.168813
      4       C        8.246817        8.199138        8.992374
      5       C        4.740230       13.353055        9.955738
      6       C       14.548691       10.491907        2.359129
      7       C       11.903506       13.126286        2.376278
      8       C        9.340176        7.785079        9.896452
      9       C        9.128665        8.277393       10.118582
     10       C        3.776808       13.558406        9.145876
     11       H        1.089955        1.396967        3.532685
     12       H        1.336064        1.365085        3.701786
     13       H        1.259098        1.765999        3.367190
     14       H        2.178394        0.882833        3.329843
     15       H        1.659860        1.009357        3.716244
     16       H        3.623627        1.400323        1.742514
     17       H        0.691058        5.301579        0.664942
     18       H        3.854900        0.918297        1.885595
     19       H        4.978061        1.078396        0.363687
     20       H        3.171524        1.071694        1.909749
     21       H        0.711187        5.342034        0.368614
     22       H        3.120866        1.062245        1.978727
     23       H        0.397852        1.566240        4.501360
     24       H        1.087681        2.226270        3.173910



 TOTAL CPU TIME:             4.01 SECONDS

 == MOPAC DONE ==
