 *******************************************************************************
 ** Site#: 14399           For non-commercial use only        Version 13.159M **
 *******************************************************************************
 ** Cite this work as: MOPAC2012, James J. P. Stewart, Stewart Computational  **
 ** Chemistry, Version 13.159M web: HTTP://OpenMOPAC.net  Days remaining:   6 **
 *******************************************************************************
 **                                                                           **
 **                                MOPAC2012                                  **
 **                                                                           **
 *******************************************************************************

                            PM3 CALCULATION RESULTS


 *******************************************************************************
 *  CALCULATION DONE:                                Mon Jun  2 11:11:06 2014  *
 *  PM3      - The PM3 Hamiltonian to be used
 *  PRECISE  - CRITERIA TO BE INCREASED BY 100 TIMES
 *  NOSYM    - POINT-GROUP SYMMETRY SET TO C1
 *  T=       - A TIME OF 172800.0 SECONDS REQUESTED
 *  DUMP=N   - RESTART FILE WRITTEN EVERY  7200.000 SECONDS
 *******************************************************************************
pm3  precise nosym
 InChI=1S/C10H14/c1-3-9(4-2)10-7-5-6-8-10/h3-5,7,9-10H,1-2,6,8H2

   ATOM   CHEMICAL          X               Y               Z
  NUMBER   SYMBOL      (ANGSTROMS)     (ANGSTROMS)     (ANGSTROMS)
 
     1       C         -0.54710000  *   0.02190000  *  -0.57970000  *
     2       C          0.89220000  *   0.02790000  *  -0.02190000  *
     3       C         -1.51460000  *   0.96830000  *   0.15470000  *
     4       C         -2.79500000  *   0.18070000  *   0.43010000  *
     5       C         -1.22170000  *  -1.30550000  *  -0.44650000  *
     6       C         -2.42600000  *  -1.21720000  *   0.09300000  *
     7       C          1.50830000  *   1.39960000  *  -0.14290000  *
     8       C          1.77910000  *  -0.93250000  *  -0.77580000  *
     9       C          1.94670000  *   2.09460000  *   0.91030000  *
    10       C          2.40780000  *  -1.95460000  *  -0.18880000  *
    11       H         -0.53460000  *   0.27370000  *  -1.66750000  *
    12       H          0.83640000  *  -0.27250000  *   1.05380000  *
    13       H         -1.72190000  *   1.88350000  *  -0.44730000  *
    14       H         -1.09780000  *   1.31420000  *   1.13030000  *
    15       H         -3.63170000  *   0.51010000  *  -0.22780000  *
    16       H         -3.10620000  *   0.25310000  *   1.49770000  *
    17       H         -0.80660000  *  -2.24480000  *  -0.80770000  *
    18       H          1.59880000  *   1.84730000  *  -1.13270000  *
    19       H          1.91160000  *  -0.79060000  *  -1.84850000  *
    20       H         -3.08710000  *  -2.07120000  *   0.22690000  *
    21       H          2.38190000  *   3.08190000  *   0.76850000  *
    22       H          1.88110000  *   1.70050000  *   1.92300000  *
    23       H          2.31200000  *  -2.14850000  *   0.87820000  *
    24       H          3.03450000  *  -2.62010000  *  -0.77930000  *
 


          CARTESIAN COORDINATES 

    NO.       ATOM         X         Y         Z

     1         C       -0.5471    0.0219   -0.5797
     2         C        0.8922    0.0279   -0.0219
     3         C       -1.5146    0.9683    0.1547
     4         C       -2.7950    0.1807    0.4301
     5         C       -1.2217   -1.3055   -0.4465
     6         C       -2.4260   -1.2172    0.0930
     7         C        1.5083    1.3996   -0.1429
     8         C        1.7791   -0.9325   -0.7758
     9         C        1.9467    2.0946    0.9103
    10         C        2.4078   -1.9546   -0.1888
    11         H       -0.5346    0.2737   -1.6675
    12         H        0.8364   -0.2725    1.0538
    13         H       -1.7219    1.8835   -0.4473
    14         H       -1.0978    1.3142    1.1303
    15         H       -3.6317    0.5101   -0.2278
    16         H       -3.1062    0.2531    1.4977
    17         H       -0.8066   -2.2448   -0.8077
    18         H        1.5988    1.8473   -1.1327
    19         H        1.9116   -0.7906   -1.8485
    20         H       -3.0871   -2.0712    0.2269
    21         H        2.3819    3.0819    0.7685
    22         H        1.8811    1.7005    1.9230
    23         H        2.3120   -2.1485    0.8782
    24         H        3.0345   -2.6201   -0.7793

  H: (PM3): J. J. P. STEWART, J. COMP. CHEM. 10, 209 (1989).
  C: (PM3): J. J. P. STEWART, J. COMP. CHEM. 10, 209 (1989).

           Empirical Formula: C10 H14  =    24 atoms



      MOLECULAR POINT GROUP   :   C1  


      RHF CALCULATION, NO. OF DOUBLY OCCUPIED LEVELS =   27

      Geometry optimization using EF

          DIAGONAL MATRIX USED AS START HESSIAN

 CYCLE:     1 TIME:   0.011 TIME LEFT:  2.00D  GRAD.:    61.433 HEAT: 41.74051
 CYCLE:     2 TIME:   0.022 TIME LEFT:  2.00D  GRAD.:    90.047 HEAT: 41.73683
 CYCLE:     3 TIME:   0.008 TIME LEFT:  2.00D  GRAD.:    71.340 HEAT: 41.01475
 CYCLE:     4 TIME:   0.008 TIME LEFT:  2.00D  GRAD.:    91.380 HEAT: 40.99487
 CYCLE:     5 TIME:   0.008 TIME LEFT:  2.00D  GRAD.:    75.933 HEAT: 40.77311
 CYCLE:     6 TIME:   0.008 TIME LEFT:  2.00D  GRAD.:    77.621 HEAT: 40.40665
 CYCLE:     7 TIME:   0.015 TIME LEFT:  2.00D  GRAD.:    24.342 HEAT: 39.59500
 CYCLE:     8 TIME:   0.015 TIME LEFT:  2.00D  GRAD.:    14.755 HEAT: 39.42691
 CYCLE:     9 TIME:   0.009 TIME LEFT:  2.00D  GRAD.:    16.015 HEAT: 39.30594
 CYCLE:    10 TIME:   0.008 TIME LEFT:  2.00D  GRAD.:    25.262 HEAT: 39.23451
 CYCLE:    11 TIME:   0.015 TIME LEFT:  2.00D  GRAD.:    13.992 HEAT: 39.11595
 CYCLE:    12 TIME:   0.014 TIME LEFT:  2.00D  GRAD.:    12.365 HEAT: 39.07263
 CYCLE:    13 TIME:   0.008 TIME LEFT:  2.00D  GRAD.:     8.851 HEAT: 39.03267
 CYCLE:    14 TIME:   0.008 TIME LEFT:  2.00D  GRAD.:    15.020 HEAT: 39.02243
 CYCLE:    15 TIME:   0.008 TIME LEFT:  2.00D  GRAD.:     6.984 HEAT: 38.97222
 CYCLE:    16 TIME:   0.021 TIME LEFT:  2.00D  GRAD.:     5.770 HEAT: 38.96119
 CYCLE:    17 TIME:   0.008 TIME LEFT:  2.00D  GRAD.:     3.654 HEAT: 38.94739
 CYCLE:    18 TIME:   0.008 TIME LEFT:  2.00D  GRAD.:     6.020 HEAT: 38.93697
 CYCLE:    19 TIME:   0.008 TIME LEFT:  2.00D  GRAD.:     4.925 HEAT: 38.92336
 CYCLE:    20 TIME:   0.014 TIME LEFT:  2.00D  GRAD.:     6.027 HEAT: 38.91945
 CYCLE:    21 TIME:   0.008 TIME LEFT:  2.00D  GRAD.:     6.428 HEAT: 38.91639
 CYCLE:    22 TIME:   0.007 TIME LEFT:  2.00D  GRAD.:     4.587 HEAT: 38.90593
 CYCLE:    23 TIME:   0.014 TIME LEFT:  2.00D  GRAD.:     3.407 HEAT: 38.90127
 CYCLE:    24 TIME:   0.008 TIME LEFT:  2.00D  GRAD.:     2.608 HEAT: 38.89717
 CYCLE:    25 TIME:   0.008 TIME LEFT:  2.00D  GRAD.:     4.482 HEAT: 38.89663
 CYCLE:    26 TIME:   0.008 TIME LEFT:  2.00D  GRAD.:     3.383 HEAT: 38.89127
 CYCLE:    27 TIME:   0.007 TIME LEFT:  2.00D  GRAD.:     3.176 HEAT: 38.88758
 CYCLE:    28 TIME:   0.008 TIME LEFT:  2.00D  GRAD.:     2.522 HEAT: 38.88354
 CYCLE:    29 TIME:   0.008 TIME LEFT:  2.00D  GRAD.:     4.653 HEAT: 38.88313
 CYCLE:    30 TIME:   0.008 TIME LEFT:  2.00D  GRAD.:     2.380 HEAT: 38.87652
 CYCLE:    31 TIME:   0.008 TIME LEFT:  2.00D  GRAD.:     3.094 HEAT: 38.87374
 CYCLE:    32 TIME:   0.008 TIME LEFT:  2.00D  GRAD.:     2.264 HEAT: 38.86871
 CYCLE:    33 TIME:   0.008 TIME LEFT:  2.00D  GRAD.:     4.737 HEAT: 38.86848
 CYCLE:    34 TIME:   0.008 TIME LEFT:  2.00D  GRAD.:     2.113 HEAT: 38.85930
 CYCLE:    35 TIME:   0.008 TIME LEFT:  2.00D  GRAD.:     2.081 HEAT: 38.85480
 CYCLE:    36 TIME:   0.008 TIME LEFT:  2.00D  GRAD.:     2.040 HEAT: 38.84821
 CYCLE:    37 TIME:   0.008 TIME LEFT:  2.00D  GRAD.:     2.443 HEAT: 38.83951
 CYCLE:    38 TIME:   0.008 TIME LEFT:  2.00D  GRAD.:     1.888 HEAT: 38.83576
 CYCLE:    39 TIME:   0.008 TIME LEFT:  2.00D  GRAD.:     1.426 HEAT: 38.83256
 CYCLE:    40 TIME:   0.008 TIME LEFT:  2.00D  GRAD.:     1.228 HEAT: 38.82813
 CYCLE:    41 TIME:   0.008 TIME LEFT:  2.00D  GRAD.:     1.287 HEAT: 38.82555
 CYCLE:    42 TIME:   0.008 TIME LEFT:  2.00D  GRAD.:     1.094 HEAT: 38.82271
 CYCLE:    43 TIME:   0.008 TIME LEFT:  2.00D  GRAD.:     1.110 HEAT: 38.81960
 CYCLE:    44 TIME:   0.008 TIME LEFT:  2.00D  GRAD.:     1.290 HEAT: 38.81620
 CYCLE:    45 TIME:   0.008 TIME LEFT:  2.00D  GRAD.:     1.708 HEAT: 38.81110
 CYCLE:    46 TIME:   0.008 TIME LEFT:  2.00D  GRAD.:     1.991 HEAT: 38.80497
 CYCLE:    47 TIME:   0.008 TIME LEFT:  2.00D  GRAD.:     2.012 HEAT: 38.79677
 CYCLE:    48 TIME:   0.008 TIME LEFT:  2.00D  GRAD.:     1.909 HEAT: 38.78784
 CYCLE:    49 TIME:   0.008 TIME LEFT:  2.00D  GRAD.:     1.624 HEAT: 38.78109
 CYCLE:    50 TIME:   0.008 TIME LEFT:  2.00D  GRAD.:     1.517 HEAT: 38.77689
 CYCLE:    51 TIME:   0.008 TIME LEFT:  2.00D  GRAD.:     1.053 HEAT: 38.77360
 CYCLE:    52 TIME:   0.008 TIME LEFT:  2.00D  GRAD.:     0.879 HEAT: 38.77132
 CYCLE:    53 TIME:   0.008 TIME LEFT:  2.00D  GRAD.:     0.827 HEAT: 38.76942
 CYCLE:    54 TIME:   0.008 TIME LEFT:  2.00D  GRAD.:     0.696 HEAT: 38.76774
 CYCLE:    55 TIME:   0.008 TIME LEFT:  2.00D  GRAD.:     0.552 HEAT: 38.76667
 CYCLE:    56 TIME:   0.008 TIME LEFT:  2.00D  GRAD.:     0.473 HEAT: 38.76603
 CYCLE:    57 TIME:   0.008 TIME LEFT:  2.00D  GRAD.:     0.398 HEAT: 38.76558
 CYCLE:    58 TIME:   0.008 TIME LEFT:  2.00D  GRAD.:     0.341 HEAT: 38.76522
 CYCLE:    59 TIME:   0.008 TIME LEFT:  2.00D  GRAD.:     0.268 HEAT: 38.76497
 CYCLE:    60 TIME:   0.008 TIME LEFT:  2.00D  GRAD.:     0.224 HEAT: 38.76481
 CYCLE:    61 TIME:   0.008 TIME LEFT:  2.00D  GRAD.:     0.209 HEAT: 38.76469
 CYCLE:    62 TIME:   0.008 TIME LEFT:  2.00D  GRAD.:     0.199 HEAT: 38.76459
 CYCLE:    63 TIME:   0.008 TIME LEFT:  2.00D  GRAD.:     0.200 HEAT: 38.76450
 CYCLE:    64 TIME:   0.008 TIME LEFT:  2.00D  GRAD.:     0.230 HEAT: 38.76439
 CYCLE:    65 TIME:   0.012 TIME LEFT:  2.00D  GRAD.:     0.278 HEAT: 38.76425
 CYCLE:    66 TIME:   0.008 TIME LEFT:  2.00D  GRAD.:     0.344 HEAT: 38.76401
 CYCLE:    67 TIME:   0.008 TIME LEFT:  2.00D  GRAD.:     0.431 HEAT: 38.76361
 CYCLE:    68 TIME:   0.008 TIME LEFT:  2.00D  GRAD.:     0.386 HEAT: 38.76332
 CYCLE:    69 TIME:   0.008 TIME LEFT:  2.00D  GRAD.:     0.468 HEAT: 38.76274
 CYCLE:    70 TIME:   0.008 TIME LEFT:  2.00D  GRAD.:     0.446 HEAT: 38.76247
 CYCLE:    71 TIME:   0.008 TIME LEFT:  2.00D  GRAD.:     0.510 HEAT: 38.76134
 CYCLE:    72 TIME:   0.008 TIME LEFT:  2.00D  GRAD.:     0.438 HEAT: 38.76101
 CYCLE:    73 TIME:   0.008 TIME LEFT:  2.00D  GRAD.:     0.580 HEAT: 38.76003
 CYCLE:    74 TIME:   0.008 TIME LEFT:  2.00D  GRAD.:     0.524 HEAT: 38.75955
 CYCLE:    75 TIME:   0.008 TIME LEFT:  2.00D  GRAD.:     0.535 HEAT: 38.75857
 CYCLE:    76 TIME:   0.008 TIME LEFT:  2.00D  GRAD.:     0.574 HEAT: 38.75791
 CYCLE:    77 TIME:   0.008 TIME LEFT:  2.00D  GRAD.:     0.710 HEAT: 38.75670
 CYCLE:    78 TIME:   0.008 TIME LEFT:  2.00D  GRAD.:     0.606 HEAT: 38.75606
 CYCLE:    79 TIME:   0.008 TIME LEFT:  2.00D  GRAD.:     1.085 HEAT: 38.75505
 CYCLE:    80 TIME:   0.008 TIME LEFT:  2.00D  GRAD.:     0.634 HEAT: 38.75411
 CYCLE:    81 TIME:   0.008 TIME LEFT:  2.00D  GRAD.:     0.479 HEAT: 38.75346
 CYCLE:    82 TIME:   0.008 TIME LEFT:  2.00D  GRAD.:     0.644 HEAT: 38.75175
 CYCLE:    83 TIME:   0.012 TIME LEFT:  2.00D  GRAD.:     0.635 HEAT: 38.75097
 CYCLE:    84 TIME:   0.008 TIME LEFT:  2.00D  GRAD.:     0.757 HEAT: 38.75002
 CYCLE:    85 TIME:   0.012 TIME LEFT:  2.00D  GRAD.:     0.502 HEAT: 38.74931
 CYCLE:    86 TIME:   0.009 TIME LEFT:  2.00D  GRAD.:     0.555 HEAT: 38.74817
 CYCLE:    87 TIME:   0.008 TIME LEFT:  2.00D  GRAD.:     0.471 HEAT: 38.74783
 CYCLE:    88 TIME:   0.008 TIME LEFT:  2.00D  GRAD.:     0.655 HEAT: 38.74733
 CYCLE:    89 TIME:   0.008 TIME LEFT:  2.00D  GRAD.:     0.362 HEAT: 38.74680
 CYCLE:    90 TIME:   0.008 TIME LEFT:  2.00D  GRAD.:     0.336 HEAT: 38.74638
 CYCLE:    91 TIME:   0.008 TIME LEFT:  2.00D  GRAD.:     0.379 HEAT: 38.74581
 CYCLE:    92 TIME:   0.008 TIME LEFT:  2.00D  GRAD.:     0.381 HEAT: 38.74523
 CYCLE:    93 TIME:   0.009 TIME LEFT:  2.00D  GRAD.:     0.387 HEAT: 38.74474
 CYCLE:    94 TIME:   0.008 TIME LEFT:  2.00D  GRAD.:     0.349 HEAT: 38.74421
 CYCLE:    95 TIME:   0.008 TIME LEFT:  2.00D  GRAD.:     0.235 HEAT: 38.74386
 CYCLE:    96 TIME:   0.008 TIME LEFT:  2.00D  GRAD.:     0.178 HEAT: 38.74373
 CYCLE:    97 TIME:   0.008 TIME LEFT:  2.00D  GRAD.:     0.154 HEAT: 38.74368
 CYCLE:    98 TIME:   0.008 TIME LEFT:  2.00D  GRAD.:     0.150 HEAT: 38.74361
 CYCLE:    99 TIME:   0.008 TIME LEFT:  2.00D  GRAD.:     0.264 HEAT: 38.74358
 CYCLE:   100 TIME:   0.008 TIME LEFT:  2.00D  GRAD.:     0.180 HEAT: 38.74350
 CYCLE:   101 TIME:   0.008 TIME LEFT:  2.00D  GRAD.:     0.094 HEAT: 38.74341
 CYCLE:   102 TIME:   0.008 TIME LEFT:  2.00D  GRAD.:     0.078 HEAT: 38.74339
 CYCLE:   103 TIME:   0.008 TIME LEFT:  2.00D  GRAD.:     0.049 HEAT: 38.74337

     RMS GRADIENT =  0.04939  IS LESS THAN CUTOFF =  0.05000



 -------------------------------------------------------------------------------
pm3  precise nosym
 InChI=1S/C10H14/c1-3-9(4-2)10-7-5-6-8-10/h3-5,7,9-10H,1-2,6,8H2



     GEOMETRY OPTIMISED USING EIGENVECTOR FOLLOWING (EF).     
     SCF FIELD WAS ACHIEVED                                   


                              PM3 CALCULATION
                                                       MOPAC2012 (Version: 13.159M)
                                                       Mon Jun  2 11:11:07 2014
                                                       No. of days left =   6




          FINAL HEAT OF FORMATION =         38.74337 KCAL/MOL =     162.10226 KJ/MOL


          TOTAL ENERGY            =      -1399.38159 EV
          ELECTRONIC ENERGY       =      -7831.37153 EV  POINT GROUP:     C1  
          CORE-CORE REPULSION     =       6431.98994 EV
          COSMO AREA              =        192.27 SQUARE ANGSTROMS
          COSMO VOLUME            =        199.50 CUBIC ANGSTROMS

          GRADIENT NORM           =          0.04939
          IONIZATION POTENTIAL    =          9.575797 EV
          HOMO LUMO ENERGIES (EV) =         -9.576  0.908
          NO. OF FILLED LEVELS    =         27
          MOLECULAR WEIGHT        =        134.221

          MOLECULAR DIMENSIONS (Angstroms)

            Atom       Atom       Distance
            H    20    H    21     7.41731
            H    24    H    15     6.98239
            H    11    H    22     3.49561


          SCF CALCULATIONS        =        114
          COMPUTATION TIME        =          0.907 SECONDS




   ATOM   CHEMICAL          X               Y               Z
  NUMBER   SYMBOL      (ANGSTROMS)     (ANGSTROMS)     (ANGSTROMS)
 
     1       C         -0.53383717  *   0.04048981  *  -0.64628876  *
     2       C          0.87578609  *   0.00494121  *  -0.03146047  *
     3       C         -1.48295702  *   1.01082591  *   0.09150266  *
     4       C         -2.69345829  *   0.17881324  *   0.53758180  *
     5       C         -1.21584956  *  -1.29497227  *  -0.54211766  *
     6       C         -2.38876284  *  -1.21540052  *   0.09446374  *
     7       C          1.51079382  *   1.36047233  *  -0.12644839  *
     8       C          1.74230844  *  -0.97043727  *  -0.77127922  *
     9       C          1.80432201  *   2.09591436  *   0.93911432  *
    10       C          2.39199123  *  -1.95980543  *  -0.17039225  *
    11       H         -0.44989467  *   0.32258623  *  -1.72295752  *
    12       H          0.78686581  *  -0.30208497  *   1.04114001  *
    13       H         -1.78818502  *   1.84177008  *  -0.56886832  *
    14       H         -0.97799716  *   1.48511357  *   0.95469958  *
    15       H         -3.63495775  *   0.53744910  *   0.08225280  *
    16       H         -2.84736503  *   0.21892686  *   1.63150702  *
    17       H         -0.75342311  *  -2.19135595  *  -0.95600990  *
    18       H          1.72378091  *   1.71685371  *  -1.14174258  *
    19       H          1.81943586  *  -0.81370888  *  -1.85438248  *
    20       H         -3.07817772  *  -2.03586489  *   0.29119945  *
    21       H          2.26599982  *   3.07569434  *   0.86414572  *
    22       H          1.60563461  *   1.77506693  *   1.95851288  *
    23       H          2.34085925  *  -2.14539987  *   0.89924715  *
    24       H          3.02466783  *  -2.65674162  *  -0.71152995  *

           Empirical Formula: C10 H14  =    24 atoms



      MOLECULAR POINT GROUP   :   C1  


                  EIGENVALUES  
 -41.37316 -35.93375 -31.75483 -28.33547 -27.84339 -24.07688 -20.21913 -20.03381
 -19.53496 -18.32487 -17.47102 -16.35554 -16.09095 -15.91804 -14.61155 -14.44740
 -13.65652 -13.05365 -12.89426 -12.78266 -12.63162 -12.11536 -11.91517 -11.83075
 -10.38115 -10.22947  -9.57580   0.90830   1.16745   1.31001   3.17795   3.42905
   3.50409   3.59241   3.68860   3.81815   3.88845   3.90522   4.03043   4.07363
   4.09563   4.19143   4.28298   4.37528   4.45521   4.62802   5.07679   5.19056
   5.49076   5.51927   5.67386   5.71904   5.94426   6.03582


              NET ATOMIC CHARGES AND DIPOLE CONTRIBUTIONS

  ATOM NO.   TYPE          CHARGE      No. of ELECS.   s-Pop       p-Pop       
    1          C          -0.039238        4.0392     1.17530     2.86393
    2          C          -0.013615        4.0136     1.16035     2.85326
    3          C          -0.105538        4.1055     1.16972     2.93581
    4          C          -0.065078        4.0651     1.15368     2.91140
    5          C          -0.155739        4.1557     1.20493     2.95081
    6          C          -0.150770        4.1508     1.20193     2.94884
    7          C          -0.131776        4.1318     1.19716     2.93462
    8          C          -0.133300        4.1333     1.19706     2.93624
    9          C          -0.162214        4.1622     1.18293     2.97929
   10          C          -0.159852        4.1599     1.18264     2.97721
   11          H           0.069946        0.9301     0.93005
   12          H           0.076183        0.9238     0.92382
   13          H           0.051505        0.9485     0.94850
   14          H           0.060129        0.9399     0.93987
   15          H           0.055488        0.9445     0.94451
   16          H           0.055044        0.9450     0.94496
   17          H           0.116410        0.8836     0.88359
   18          H           0.099108        0.9009     0.90089
   19          H           0.098538        0.9015     0.90146
   20          H           0.110518        0.8895     0.88948
   21          H           0.079655        0.9203     0.92034
   22          H           0.082620        0.9174     0.91738
   23          H           0.082985        0.9170     0.91702
   24          H           0.078991        0.9210     0.92101
 DIPOLE           X         Y         Z       TOTAL
 POINT-CHG.    -0.136     0.132     0.005     0.190
 HYBRID         0.040     0.001    -0.018     0.044
 SUM           -0.096     0.133    -0.013     0.165


          ATOMIC ORBITAL ELECTRON POPULATIONS

    Atom      s        px        py        pz   
    1  C   1.17530   0.93361   0.93912   0.99120
    2  C   1.16035   0.93005   0.92798   0.99523
    3  C   1.16972   0.96075   0.97025   1.00482
    4  C   1.15368   0.97341   0.93785   1.00013
    5  C   1.20493   0.96931   0.97774   1.00376
    6  C   1.20193   0.97746   0.97469   0.99669
    7  C   1.19716   0.98934   0.95938   0.98590
    8  C   1.19706   0.98062   0.96597   0.98965
    9  C   1.18293   1.00795   0.99408   0.97725
   10  C   1.18264   0.99575   0.97938   1.00207
   11  H   0.93005
   12  H   0.92382
   13  H   0.94850
   14  H   0.93987
   15  H   0.94451
   16  H   0.94496
   17  H   0.88359
   18  H   0.90089
   19  H   0.90146
   20  H   0.88948
   21  H   0.92034
   22  H   0.91738
   23  H   0.91702
   24  H   0.92101
 *******************************************************************************
 ** Site#: 14399           For non-commercial use only        Version 13.159M **
 *******************************************************************************
 ** Cite this work as: MOPAC2012, James J. P. Stewart, Stewart Computational  **
 ** Chemistry, Version 13.159M web: HTTP://OpenMOPAC.net  Days remaining:   6 **
 *******************************************************************************
 **                                                                           **
 **                                MOPAC2012                                  **
 **                                                                           **
 *******************************************************************************

                            PM3 CALCULATION RESULTS


 *******************************************************************************
 *  CALCULATION DONE:                                Mon Jun  2 11:11:07 2014  *
 *  PM3      - The PM3 Hamiltonian to be used
 *  OLDGEO   - PREVIOUS GEOMETRY TO BE USED
 *  PRECISE  - CRITERIA TO BE INCREASED BY 100 TIMES
 *  NOSYM    - POINT-GROUP SYMMETRY SET TO C1
 *  T=       - A TIME OF 172800.0 SECONDS REQUESTED
 *  DUMP=N   - RESTART FILE WRITTEN EVERY  7200.000 SECONDS
 *  THERMO   - THERMODYNAMIC QUANTITIES TO BE CALCULATED
 *******************************************************************************
oldgeo thermo nosym precise  pm3

   ATOM   CHEMICAL          X               Y               Z
  NUMBER   SYMBOL      (ANGSTROMS)     (ANGSTROMS)     (ANGSTROMS)
 
     1       C         -0.53383717  *   0.04048981  *  -0.64628876  *
     2       C          0.87578609  *   0.00494121  *  -0.03146047  *
     3       C         -1.48295702  *   1.01082591  *   0.09150266  *
     4       C         -2.69345829  *   0.17881324  *   0.53758180  *
     5       C         -1.21584956  *  -1.29497227  *  -0.54211766  *
     6       C         -2.38876284  *  -1.21540052  *   0.09446374  *
     7       C          1.51079382  *   1.36047233  *  -0.12644839  *
     8       C          1.74230844  *  -0.97043727  *  -0.77127922  *
     9       C          1.80432201  *   2.09591436  *   0.93911432  *
    10       C          2.39199123  *  -1.95980543  *  -0.17039225  *
    11       H         -0.44989467  *   0.32258623  *  -1.72295752  *
    12       H          0.78686581  *  -0.30208497  *   1.04114001  *
    13       H         -1.78818502  *   1.84177008  *  -0.56886832  *
    14       H         -0.97799716  *   1.48511357  *   0.95469958  *
    15       H         -3.63495775  *   0.53744910  *   0.08225280  *
    16       H         -2.84736503  *   0.21892686  *   1.63150702  *
    17       H         -0.75342311  *  -2.19135595  *  -0.95600990  *
    18       H          1.72378091  *   1.71685371  *  -1.14174258  *
    19       H          1.81943586  *  -0.81370888  *  -1.85438248  *
    20       H         -3.07817772  *  -2.03586489  *   0.29119945  *
    21       H          2.26599982  *   3.07569434  *   0.86414572  *
    22       H          1.60563461  *   1.77506693  *   1.95851288  *
    23       H          2.34085925  *  -2.14539987  *   0.89924715  *
    24       H          3.02466783  *  -2.65674162  *  -0.71152995  *
 


          CARTESIAN COORDINATES 

    NO.       ATOM         X         Y         Z

     1         C       -0.5338    0.0405   -0.6463
     2         C        0.8758    0.0049   -0.0315
     3         C       -1.4830    1.0108    0.0915
     4         C       -2.6935    0.1788    0.5376
     5         C       -1.2158   -1.2950   -0.5421
     6         C       -2.3888   -1.2154    0.0945
     7         C        1.5108    1.3605   -0.1264
     8         C        1.7423   -0.9704   -0.7713
     9         C        1.8043    2.0959    0.9391
    10         C        2.3920   -1.9598   -0.1704
    11         H       -0.4499    0.3226   -1.7230
    12         H        0.7869   -0.3021    1.0411
    13         H       -1.7882    1.8418   -0.5689
    14         H       -0.9780    1.4851    0.9547
    15         H       -3.6350    0.5374    0.0823
    16         H       -2.8474    0.2189    1.6315
    17         H       -0.7534   -2.1914   -0.9560
    18         H        1.7238    1.7169   -1.1417
    19         H        1.8194   -0.8137   -1.8544
    20         H       -3.0782   -2.0359    0.2912
    21         H        2.2660    3.0757    0.8641
    22         H        1.6056    1.7751    1.9585
    23         H        2.3409   -2.1454    0.8992
    24         H        3.0247   -2.6567   -0.7115

  H: (PM3): J. J. P. STEWART, J. COMP. CHEM. 10, 209 (1989).
  C: (PM3): J. J. P. STEWART, J. COMP. CHEM. 10, 209 (1989).

           Empirical Formula: C10 H14  =    24 atoms



      MOLECULAR POINT GROUP   :   C1  


      RHF CALCULATION, NO. OF DOUBLY OCCUPIED LEVELS =   27



          HEAT OF FORMATION =      38.743370 KCALS/MOLE


          INTERNAL COORDINATE DERIVATIVES

   NUMBER  ATOM       BOND         ANGLE      DIHEDRAL

     1       C     -0.004138     0.001565     0.000306
     2       C     -0.007721     0.003788     0.003176
     3       C     -0.000266    -0.000937     0.003807
     4       C     -0.000768    -0.004717     0.002471
     5       C     -0.007402    -0.000777    -0.000961
     6       C     -0.000097    -0.001503    -0.001438
     7       C     -0.006007    -0.017259    -0.001910
     8       C     -0.007911     0.003612     0.001416
     9       C      0.010148     0.015367    -0.006160
    10       C     -0.006032     0.004834    -0.001131
    11       H     -0.003676     0.001832     0.000940
    12       H     -0.009506     0.006354    -0.000151
    13       H      0.002204    -0.004054     0.001202
    14       H      0.003085     0.001910     0.000207
    15       H      0.002625    -0.000506    -0.002043
    16       H     -0.001366    -0.005171     0.004477
    17       H      0.000489    -0.001422     0.001509
    18       H      0.019990    -0.007596    -0.002650
    19       H     -0.011818     0.003346     0.006241
    20       H      0.004521    -0.004944    -0.002799
    21       H     -0.003564    -0.000830    -0.001491
    22       H      0.017424     0.003443     0.000450
    23       H      0.006008     0.000738    -0.003508
    24       H      0.003779     0.002927    -0.001964


          GRADIENT NORM =   0.04924


          TIME FOR SCF CALCULATION =    0.01

          TIME FOR DERIVATIVES     =    0.01

          MOLECULAR WEIGHT =  134.22



          ROTATIONAL CONSTANTS IN CM(-1)

          A =    0.06168686   B =    0.03457762   C =    0.02443294



           PRINCIPAL MOMENTS OF INERTIA IN UNITS OF 10**(-40)*GRAM-CM**2

          A =      453.7882   B =      809.5633   C =     1145.6983


          ORIENTATION OF MOLECULE IN FORCE CALCULATION

    NO.       ATOM         X         Y         Z

     1          C      -0.7309   -0.1896   -0.2858
     2          C       0.8074   -0.1896   -0.2858
     3          C      -1.3282    1.2351   -0.2858
     4          C      -2.2399    1.3237    0.9460
     5          C      -1.2834   -0.8225    0.9606
     6          C      -2.1056   -0.0020    1.6225
     7          C       1.3200    0.4762   -1.5282
     8          C       1.3283   -1.5959   -0.2599
     9          C       1.9979    1.6175   -1.5079
    10          C       2.1867   -2.0315    0.6542
    11          H      -1.0908   -0.7619   -1.1740
    12          H       1.1617    0.3644    0.6197
    13          H      -1.8910    1.4265   -1.2166
    14          H      -0.5314    2.0028   -0.2553
    15          H      -3.2929    1.5179    0.6707
    16          H      -1.9446    2.1437    1.6259
    17          H      -1.0043   -1.8384    1.2413
    18          H       1.1011   -0.0405   -2.4708
    19          H       0.9625   -2.2548   -1.0572
    20          H      -2.6397   -0.2236    2.5459
    21          H       2.3683    2.0937   -2.4105
    22          H       2.2307    2.1568   -0.5932
    23          H       2.5716   -1.4086    1.4573
    24          H       2.5662   -3.0487    0.6613


    FIRST DERIVATIVES WILL BE USED IN THE CALCULATION OF SECOND DERIVATIVES

          ESTIMATED TIME TO COMPLETE CALCULATION =        3.29 SECONDS

    FOR POINT-GROUP C1   THERE ARE   1 UNIQUE SYMMETRY FUNCTIONS.

 STEP:   1 TIME =     0.04 SECS, INTEGRAL =      0.04 TIME LEFT: 172799.95
 STEP:   2 TIME =     0.04 SECS, INTEGRAL =      0.07 TIME LEFT: 172799.92
 STEP:   3 TIME =     0.04 SECS, INTEGRAL =      0.11 TIME LEFT: 172799.88
 STEP:   4 TIME =     0.04 SECS, INTEGRAL =      0.14 TIME LEFT: 172799.84
 STEP:   5 TIME =     0.04 SECS, INTEGRAL =      0.18 TIME LEFT: 172799.81
 STEP:   6 TIME =     0.04 SECS, INTEGRAL =      0.22 TIME LEFT: 172799.77
 STEP:   7 TIME =     0.04 SECS, INTEGRAL =      0.25 TIME LEFT: 172799.74
 STEP:   8 TIME =     0.04 SECS, INTEGRAL =      0.29 TIME LEFT: 172799.70
 STEP:   9 TIME =     0.05 SECS, INTEGRAL =      0.34 TIME LEFT: 172799.65
 STEP:  10 TIME =     0.04 SECS, INTEGRAL =      0.38 TIME LEFT: 172799.61
 STEP:  11 TIME =     0.04 SECS, INTEGRAL =      0.42 TIME LEFT: 172799.57
 STEP:  12 TIME =     0.04 SECS, INTEGRAL =      0.46 TIME LEFT: 172799.53
 STEP:  13 TIME =     0.04 SECS, INTEGRAL =      0.49 TIME LEFT: 172799.50
 STEP:  14 TIME =     0.04 SECS, INTEGRAL =      0.53 TIME LEFT: 172799.46
 STEP:  15 TIME =     0.04 SECS, INTEGRAL =      0.56 TIME LEFT: 172799.42
 STEP:  16 TIME =     0.04 SECS, INTEGRAL =      0.60 TIME LEFT: 172799.39
 STEP:  17 TIME =     0.04 SECS, INTEGRAL =      0.64 TIME LEFT: 172799.35
 STEP:  18 TIME =     0.04 SECS, INTEGRAL =      0.68 TIME LEFT: 172799.31
 STEP:  19 TIME =     0.04 SECS, INTEGRAL =      0.71 TIME LEFT: 172799.28
 STEP:  20 TIME =     0.04 SECS, INTEGRAL =      0.75 TIME LEFT: 172799.24
 STEP:  21 TIME =     0.03 SECS, INTEGRAL =      0.78 TIME LEFT: 172799.21
 STEP:  22 TIME =     0.04 SECS, INTEGRAL =      0.82 TIME LEFT: 172799.17
 STEP:  23 TIME =     0.04 SECS, INTEGRAL =      0.85 TIME LEFT: 172799.13
 STEP:  24 TIME =     0.04 SECS, INTEGRAL =      0.89 TIME LEFT: 172799.10
 STEP:  25 TIME =     0.04 SECS, INTEGRAL =      0.93 TIME LEFT: 172799.06
 STEP:  26 TIME =     0.04 SECS, INTEGRAL =      0.96 TIME LEFT: 172799.03
 STEP:  27 TIME =     0.03 SECS, INTEGRAL =      1.00 TIME LEFT: 172798.99
 STEP:  28 TIME =     0.04 SECS, INTEGRAL =      1.03 TIME LEFT: 172798.96
 STEP:  29 TIME =     0.04 SECS, INTEGRAL =      1.07 TIME LEFT: 172798.92
 STEP:  30 TIME =     0.04 SECS, INTEGRAL =      1.10 TIME LEFT: 172798.88
 STEP:  31 TIME =     0.04 SECS, INTEGRAL =      1.14 TIME LEFT: 172798.85
 STEP:  32 TIME =     0.04 SECS, INTEGRAL =      1.18 TIME LEFT: 172798.81
 STEP:  33 TIME =     0.04 SECS, INTEGRAL =      1.22 TIME LEFT: 172798.77
 STEP:  34 TIME =     0.04 SECS, INTEGRAL =      1.25 TIME LEFT: 172798.73
 STEP:  35 TIME =     0.04 SECS, INTEGRAL =      1.29 TIME LEFT: 172798.70
 STEP:  36 TIME =     0.04 SECS, INTEGRAL =      1.33 TIME LEFT: 172798.66
 STEP:  37 TIME =     0.04 SECS, INTEGRAL =      1.36 TIME LEFT: 172798.63
 STEP:  38 TIME =     0.04 SECS, INTEGRAL =      1.40 TIME LEFT: 172798.59
 STEP:  39 TIME =     0.04 SECS, INTEGRAL =      1.43 TIME LEFT: 172798.55
 STEP:  40 TIME =     0.04 SECS, INTEGRAL =      1.47 TIME LEFT: 172798.52
 STEP:  41 TIME =     0.04 SECS, INTEGRAL =      1.51 TIME LEFT: 172798.48
 STEP:  42 TIME =     0.04 SECS, INTEGRAL =      1.54 TIME LEFT: 172798.44
 STEP:  43 TIME =     0.04 SECS, INTEGRAL =      1.58 TIME LEFT: 172798.41
 STEP:  44 TIME =     0.04 SECS, INTEGRAL =      1.62 TIME LEFT: 172798.37
 STEP:  45 TIME =     0.04 SECS, INTEGRAL =      1.65 TIME LEFT: 172798.33
 STEP:  46 TIME =     0.04 SECS, INTEGRAL =      1.69 TIME LEFT: 172798.30
 STEP:  47 TIME =     0.04 SECS, INTEGRAL =      1.73 TIME LEFT: 172798.26
 STEP:  48 TIME =     0.04 SECS, INTEGRAL =      1.76 TIME LEFT: 172798.23
 STEP:  49 TIME =     0.04 SECS, INTEGRAL =      1.80 TIME LEFT: 172798.19
 STEP:  50 TIME =     0.03 SECS, INTEGRAL =      1.83 TIME LEFT: 172798.16
 STEP:  51 TIME =     0.04 SECS, INTEGRAL =      1.87 TIME LEFT: 172798.12
 STEP:  52 TIME =     0.04 SECS, INTEGRAL =      1.91 TIME LEFT: 172798.08
 STEP:  53 TIME =     0.04 SECS, INTEGRAL =      1.94 TIME LEFT: 172798.04
 STEP:  54 TIME =     0.04 SECS, INTEGRAL =      1.99 TIME LEFT: 172798.00
 STEP:  55 TIME =     0.04 SECS, INTEGRAL =      2.03 TIME LEFT: 172797.96
 STEP:  56 TIME =     0.04 SECS, INTEGRAL =      2.06 TIME LEFT: 172797.92
 STEP:  57 TIME =     0.04 SECS, INTEGRAL =      2.10 TIME LEFT: 172797.89
 STEP:  58 TIME =     0.04 SECS, INTEGRAL =      2.14 TIME LEFT: 172797.85
 STEP:  59 TIME =     0.04 SECS, INTEGRAL =      2.17 TIME LEFT: 172797.81
 STEP:  60 TIME =     0.04 SECS, INTEGRAL =      2.21 TIME LEFT: 172797.78
 STEP:  61 TIME =     0.04 SECS, INTEGRAL =      2.25 TIME LEFT: 172797.74
 STEP:  62 TIME =     0.04 SECS, INTEGRAL =      2.28 TIME LEFT: 172797.70
 STEP:  63 TIME =     0.04 SECS, INTEGRAL =      2.32 TIME LEFT: 172797.67
 STEP:  64 TIME =     0.04 SECS, INTEGRAL =      2.36 TIME LEFT: 172797.63
 STEP:  65 TIME =     0.04 SECS, INTEGRAL =      2.40 TIME LEFT: 172797.59
 STEP:  66 TIME =     0.03 SECS, INTEGRAL =      2.43 TIME LEFT: 172797.56
 STEP:  67 TIME =     0.04 SECS, INTEGRAL =      2.47 TIME LEFT: 172797.52
 STEP:  68 TIME =     0.04 SECS, INTEGRAL =      2.51 TIME LEFT: 172797.48
 STEP:  69 TIME =     0.04 SECS, INTEGRAL =      2.54 TIME LEFT: 172797.45
 STEP:  70 TIME =     0.04 SECS, INTEGRAL =      2.58 TIME LEFT: 172797.41
 STEP:  71 TIME =     0.04 SECS, INTEGRAL =      2.61 TIME LEFT: 172797.37
 STEP:  72 TIME =     0.04 SECS, INTEGRAL =      2.65 TIME LEFT: 172797.34

(To convert to Hartree/Bohr^2, multiply by (10^(-21) x N x a0^2)/(4.184 x 627.51) = 0.0642)


           FORCE MATRIX IN MILLIDYNES/ANGSTROM


                  C  1       C  2       C  3       C  4       C  5       C  6
 ------------------------------------------------------------------------------
     C    1  14.467209
     C    2   3.532162  14.810674
     C    3   3.476028   0.547133  14.189417
     C    4   0.718782   0.034762   3.785597  14.695784
     C    5   4.453520   0.627969   0.868509   1.187219  18.385473
     C    6   1.139452   0.040716   0.892242   4.757309  10.613180  18.394977
     C    7   0.677084   4.563271   0.053275   0.004499   0.050438   0.009488
     C    8   0.669272   4.580183   0.048926   0.006544   0.057307   0.004639
     C    9   0.039036   0.808300   0.022987   0.002442   0.009093   0.002817
     C   10   0.040770   0.805799   0.007728   0.001275   0.012865   0.002307
     H   11   4.241136   0.442796   0.421531   0.025043   0.405081   0.037211
     H   12   0.426863   4.173248   0.022362   0.001232   0.018670   0.002976
     H   13   0.439342   0.026596   4.580353   0.439389   0.029986   0.029142
     H   14   0.451916   0.064624   4.501692   0.438799   0.024426   0.026459
     H   15   0.026605   0.004578   0.435762   4.518403   0.038230   0.430376
     H   16   0.030753   0.001573   0.435700   4.524202   0.038798   0.430235
     H   17   0.417523   0.013761   0.041324   0.114075   5.000972   0.447608
     H   18   0.015388   0.436382   0.002838   0.000316   0.002368   0.000743
     H   19   0.023133   0.435973   0.002109   0.000735   0.004479   0.000726
     H   20   0.113610   0.016011   0.043028   0.412529   0.448973   5.020394
     H   21   0.018979   0.134456   0.001327   0.000491   0.003172   0.000889
     H   22   0.013250   0.095989   0.002861   0.000595   0.002879   0.000997
     H   23   0.010012   0.094818   0.001994   0.000429   0.001938   0.000993
     H   24   0.017608   0.134299   0.002816   0.000552   0.001031   0.000714


                  C  7       C  8       C  9       C 10       H 11       H 12
 ------------------------------------------------------------------------------
     C    7  18.112622
     C    8   0.765764  18.128717
     C    9  11.093349   0.043010  18.033245
     C   10   0.039257  11.101423   0.007231  18.045971
     H   11   0.024887   0.030615   0.001755   0.001613   4.715340
     H   12   0.441746   0.439740   0.053813   0.053784   0.040694   4.650889
     H   13   0.002561   0.004949   0.000948   0.000757   0.028826   0.001310
     H   14   0.020367   0.002518   0.013485   0.000850   0.026806   0.025100
     H   15   0.000656   0.000683   0.000450   0.000470   0.001224   0.000549
     H   16   0.000485   0.000665   0.000339   0.000287   0.003750   0.000446
     H   17   0.002607   0.010374   0.000856   0.007212   0.014149   0.002620
     H   18   4.788817   0.027821   0.453842   0.001810   0.011860   0.036227
     H   19   0.020287   4.780722   0.001847   0.453606   0.020628   0.036379
     H   20   0.002907   0.001588   0.000805   0.000801   0.014470   0.000662
     H   21   0.462001   0.018372   5.106374   0.002072   0.000569   0.002159
     H   22   0.489790   0.010126   5.063381   0.002353   0.000663   0.029952
     H   23   0.011631   0.490053   0.002580   5.070721   0.000626   0.029883
     H   24   0.019830   0.461965   0.002228   5.104248   0.000506   0.002219


                  H 13       H 14       H 15       H 16       H 17       H 18
 ------------------------------------------------------------------------------
     H   13   5.183900
     H   14   0.581567   5.117021
     H   15   0.029685   0.027430   5.124830
     H   16   0.026196   0.029694   0.573852   5.130696
     H   17   0.003080   0.002637   0.015820   0.015360   5.397062
     H   18   0.000898   0.001305   0.000269   0.000295   0.001002   5.165523
     H   19   0.000456   0.000841   0.000316   0.000261   0.002461   0.013760
     H   20   0.003186   0.002792   0.014255   0.014751   0.046964   0.000205
     H   21   0.000312   0.000707   0.000192   0.000120   0.000351   0.078800
     H   22   0.000336   0.005282   0.000202   0.000186   0.000274   0.117650
     H   23   0.000244   0.000293   0.000144   0.000211   0.001500   0.000886
     H   24   0.000356   0.000261   0.000116   0.000145   0.001368   0.000865


                  H 19       H 20       H 21       H 22       H 23       H 24
 ------------------------------------------------------------------------------
     H   19   5.158886
     H   20   0.000640   5.416234
     H   21   0.000826   0.000198   5.493573
     H   22   0.000724   0.000337   0.420196   5.458617
     H   23   0.115837   0.000372   0.000594   0.001127   5.464963
     H   24   0.078411   0.000257   0.001457   0.000580   0.422205   5.492240


          HEAT OF FORMATION =      38.743370 KCALS/MOLE

          ZERO POINT ENERGY     130.843 KCAL/MOL


           NORMAL COORDINATE ANALYSIS (Total motion = 1 Angstrom)


   Root No.       1         2         3         4         5         6         7         8

                 1 A       2 A       3 A       4 A       5 A       6 A       7 A       8 A   

                  57.0      75.8      81.6      95.3     198.5     232.6     305.6     331.1
  
           1    0.0001   -0.0050   -0.0177   -0.0049    0.0072   -0.0134   -0.0058   -0.0137
           2   -0.0187    0.0035   -0.0127    0.0045   -0.0138   -0.0100   -0.0012    0.0037
           3    0.0090    0.0153   -0.0164   -0.0015    0.0179   -0.0129    0.0106   -0.0136
           4    0.0002   -0.0056   -0.0175   -0.0049    0.0073   -0.0160   -0.0047   -0.0093
           5   -0.0133    0.0059    0.0026   -0.0126   -0.0036   -0.0226   -0.0064    0.0017
           6    0.0073    0.0035   -0.0014    0.0120    0.0084   -0.0251   -0.0187    0.0216
           7   -0.0065   -0.0100   -0.0286    0.0160    0.0214    0.0269   -0.0136   -0.0081
           8   -0.0215    0.0014   -0.0172    0.0138   -0.0069    0.0084   -0.0028    0.0096
           9   -0.0310    0.0084   -0.0242    0.0096    0.0049    0.0115    0.0095    0.0015
          10    0.0002   -0.0402    0.0326    0.0090    0.0176    0.0006   -0.0075   -0.0125
          11    0.0123   -0.0089    0.0102    0.0147    0.0135   -0.0008    0.0081    0.0011
          12   -0.0288   -0.0131    0.0191    0.0042   -0.0009   -0.0083    0.0153   -0.0004
          13    0.0065    0.0019   -0.0152   -0.0290   -0.0237   -0.0003   -0.0067   -0.0209
          14    0.0153    0.0101   -0.0114   -0.0027   -0.0065   -0.0016    0.0091   -0.0032
          15    0.0292    0.0218   -0.0145   -0.0162    0.0070   -0.0029    0.0188   -0.0219
          16    0.0073   -0.0181    0.0142   -0.0229   -0.0335    0.0196   -0.0273    0.0253
          17    0.0324    0.0030    0.0015    0.0020    0.0016    0.0095    0.0013    0.0133
          18    0.0091    0.0060    0.0058   -0.0144   -0.0140    0.0081    0.0043    0.0152
          19   -0.0018   -0.0108   -0.0070    0.0049   -0.0342   -0.0184    0.0367    0.0008
          20    0.0089    0.0053    0.0072   -0.0223    0.0147   -0.0022   -0.0226   -0.0109
          21    0.0185    0.0008    0.0056    0.0105   -0.0006   -0.0138   -0.0119    0.0196
          22    0.0042   -0.0014   -0.0020   -0.0067    0.0360    0.0062    0.0192    0.0277
          23   -0.0123    0.0070    0.0085   -0.0129    0.0073   -0.0123    0.0016    0.0135
          24   -0.0160   -0.0078    0.0034    0.0200   -0.0148   -0.0133   -0.0319   -0.0026
          25   -0.0224    0.0579    0.0279   -0.0249   -0.0057   -0.0089    0.0075   -0.0027
          26    0.0210   -0.0356   -0.0137   -0.0046   -0.0024   -0.0082   -0.0053   -0.0096
          27    0.0370    0.0020    0.0196    0.0043   -0.0122    0.0316    0.0042   -0.0102
          28    0.0136    0.0281    0.0088    0.0579    0.0054   -0.0004   -0.0026    0.0121
          29   -0.0229    0.0118    0.0244    0.0156   -0.0060    0.0309    0.0166   -0.0162
          30   -0.0299   -0.0333    0.0009   -0.0269    0.0079    0.0147   -0.0044   -0.0020
          31    0.0006   -0.0107   -0.0054   -0.0033    0.0100   -0.0365   -0.0187    0.0020
          32   -0.0452   -0.0036   -0.0187    0.0203   -0.0159    0.0028   -0.0084    0.0186
          33    0.0259    0.0219   -0.0171   -0.0123    0.0176   -0.0107    0.0206   -0.0285
          34   -0.0015    0.0008   -0.0336   -0.0068    0.0133   -0.0195   -0.0039   -0.0270
          35   -0.0264    0.0037    0.0059   -0.0107   -0.0049   -0.0231   -0.0067    0.0010
          36    0.0159    0.0023    0.0030    0.0116    0.0065   -0.0213   -0.0180    0.0277
          37   -0.0125    0.0134   -0.0797    0.0250    0.0274    0.0610   -0.0235   -0.0020
          38   -0.0526    0.0064   -0.0502    0.0317   -0.0100    0.0580   -0.0134    0.0270
          39   -0.0338   -0.0046   -0.0002    0.0078    0.0005    0.0014    0.0133    0.0016
          40   -0.0093   -0.0129   -0.0342    0.0269    0.0278    0.0498   -0.0162   -0.0031
          41   -0.0172    0.0031   -0.0090    0.0022   -0.0131   -0.0162    0.0001    0.0037
          42   -0.0591    0.0344   -0.0890    0.0225    0.0009    0.0603   -0.0040    0.0170
          43   -0.0019   -0.0398    0.0276    0.0151    0.0274    0.0000   -0.0038   -0.0209
          44    0.0015   -0.0439    0.0551    0.0414    0.0613   -0.0391    0.0394   -0.0514
          45   -0.0288   -0.0396    0.0706   -0.0003   -0.0041   -0.0342    0.0241   -0.0080
          46    0.0017   -0.0800    0.0983    0.0217    0.0479   -0.0407    0.0182   -0.0512
          47    0.0330    0.0089   -0.0069   -0.0019   -0.0079    0.0190   -0.0069    0.0292
          48   -0.0545   -0.0174    0.0114    0.0187    0.0123   -0.0148    0.0228   -0.0184
          49    0.0095    0.0195   -0.0331   -0.0497   -0.0465   -0.0022   -0.0018   -0.0434
          50    0.0238    0.0190   -0.0197   -0.0113   -0.0112   -0.0018    0.0136   -0.0150
          51    0.0569    0.0366   -0.0267   -0.0270    0.0117   -0.0019    0.0301   -0.0423
          52    0.0145   -0.0706   -0.0272    0.0356   -0.0957   -0.0261    0.1212    0.0131
          53    0.0159    0.0367    0.0275   -0.0437    0.0417    0.0286   -0.0598   -0.0342
          54    0.0110   -0.0025   -0.0008    0.0151   -0.0015   -0.0281   -0.0109    0.0286
          55   -0.0009   -0.0223    0.0008   -0.0585    0.0843    0.0370    0.0737    0.0812
          56   -0.0027    0.0044   -0.0002   -0.0359    0.0261   -0.0291    0.0107    0.0425
          57   -0.0217    0.0039    0.0094    0.0628   -0.0524   -0.0123   -0.0639   -0.0519
          58    0.0115   -0.0199    0.0254   -0.0373   -0.0683    0.0412   -0.0475    0.0693
          59    0.0576    0.0048    0.0063   -0.0020    0.0026    0.0220   -0.0064    0.0257
          60    0.0176    0.0054    0.0134   -0.0236   -0.0338    0.0236   -0.0091    0.0437
          61   -0.0241    0.0592    0.0386   -0.0210   -0.0412   -0.0018    0.0678    0.0024
          62    0.0379   -0.0411   -0.0119   -0.0093    0.0063    0.0261   -0.0232   -0.0404
          63    0.0452   -0.0003    0.0249    0.0034   -0.0222    0.0528    0.0196   -0.0245
          64   -0.0392    0.1189    0.0494   -0.0562    0.0566   -0.0072   -0.0820   -0.0117
          65    0.0149   -0.0671   -0.0345    0.0162   -0.0272   -0.0472    0.0300    0.0216
          66    0.0449    0.0049    0.0263    0.0000   -0.0136    0.0545    0.0064   -0.0267
          67    0.0196    0.0497    0.0062    0.1099   -0.0418   -0.0386   -0.0652   -0.0354
          68   -0.0331    0.0144    0.0340    0.0387   -0.0255    0.0604    0.0177   -0.0592
          69   -0.0249   -0.0457   -0.0053   -0.0698    0.0456    0.0106    0.0251    0.0536
          70    0.0162    0.0333    0.0210    0.0642    0.0245    0.0321    0.0393    0.0443
          71   -0.0221    0.0137    0.0290    0.0180    0.0009    0.0435    0.0325   -0.0050
          72   -0.0476   -0.0441    0.0049   -0.0264   -0.0092    0.0464   -0.0060   -0.0597


   Root No.       9        10        11        12        13        14        15        16

                 9 A      10 A      11 A      12 A      13 A      14 A      15 A      16 A   

                 379.7     452.2     472.7     522.4     630.9     658.0     716.2     760.3
  
           1    0.0093   -0.0006   -0.0069    0.0343    0.0037    0.0083   -0.0215    0.0053
           2    0.0315    0.0073   -0.0119    0.0151    0.0036    0.0158    0.0298    0.0129
           3   -0.0084   -0.0008    0.0017    0.0284    0.0030    0.0192    0.0161   -0.0072
           4    0.0104   -0.0187   -0.0075    0.0288   -0.0001   -0.0047   -0.0185    0.0159
           5   -0.0123    0.0156    0.0313    0.0135   -0.0052   -0.0069   -0.0062    0.0042
           6   -0.0063    0.0324   -0.0157    0.0157    0.0059   -0.0092   -0.0094    0.0082
           7   -0.0303    0.0166    0.0118   -0.0001   -0.0031    0.0045    0.0081    0.0046
           8    0.0224    0.0091   -0.0078   -0.0038    0.0075    0.0110    0.0375   -0.0026
           9   -0.0050   -0.0117    0.0024   -0.0021   -0.0001   -0.0074   -0.0325   -0.0184
          10   -0.0141    0.0197    0.0071   -0.0010   -0.0023    0.0096    0.0297   -0.0026
          11    0.0068   -0.0080   -0.0021   -0.0024    0.0035   -0.0059   -0.0299   -0.0299
          12    0.0125   -0.0129   -0.0044   -0.0040    0.0004   -0.0062   -0.0156   -0.0106
          13    0.0254    0.0390   -0.0075   -0.0220    0.0051   -0.0008   -0.0091   -0.0264
          14    0.0237   -0.0007   -0.0084   -0.0118    0.0002   -0.0077   -0.0064    0.0183
          15   -0.0115    0.0076    0.0068   -0.0111   -0.0055    0.0039    0.0214   -0.0082
          16   -0.0034    0.0039   -0.0021    0.0104    0.0047    0.0039   -0.0095   -0.0256
          17   -0.0045   -0.0167    0.0004    0.0049    0.0002   -0.0048   -0.0196   -0.0111
          18   -0.0135   -0.0207    0.0035    0.0090   -0.0068    0.0036    0.0297    0.0286
          19   -0.0173   -0.0189   -0.0090   -0.0019   -0.0408   -0.0207    0.0127   -0.0048
          20   -0.0166   -0.0223   -0.0083   -0.0205    0.0178    0.0226   -0.0056    0.0028
          21   -0.0165    0.0232   -0.0443   -0.0126    0.0139   -0.0121    0.0055   -0.0067
          22    0.0236   -0.0184    0.0096   -0.0081    0.0316   -0.0207    0.0166   -0.0021
          23   -0.0118    0.0225    0.0466    0.0053   -0.0043   -0.0225    0.0051   -0.0069
          24    0.0083   -0.0089    0.0291   -0.0198   -0.0254    0.0200   -0.0064   -0.0014
          25   -0.0172   -0.0159   -0.0045   -0.0119   -0.0005    0.0073    0.0011   -0.0001
          26   -0.0183   -0.0278   -0.0117   -0.0172   -0.0082    0.0090    0.0018    0.0001
          27    0.0225    0.0110    0.0180    0.0131    0.0027   -0.0041   -0.0002   -0.0014
          28    0.0184   -0.0154    0.0057   -0.0151    0.0011    0.0076    0.0043    0.0002
          29   -0.0199    0.0208   -0.0210    0.0197   -0.0049   -0.0066   -0.0032   -0.0015
          30    0.0118   -0.0167   -0.0008   -0.0100    0.0051    0.0046    0.0033   -0.0002
          31    0.0062   -0.0008   -0.0099    0.0664    0.0056   -0.0019   -0.0654    0.0409
          32    0.0343    0.0006   -0.0183    0.0182    0.0095    0.0173    0.0271    0.0108
          33   -0.0095    0.0035    0.0074    0.0109   -0.0019    0.0210    0.0360   -0.0203
          34    0.0214   -0.0258   -0.0131    0.0654    0.0054    0.0262   -0.0275    0.0367
          35   -0.0082    0.0138    0.0698    0.0123   -0.0246   -0.0085   -0.0086   -0.0014
          36   -0.0130    0.0365   -0.0369    0.0019    0.0155   -0.0200   -0.0041    0.0029
          37   -0.0610    0.0248    0.0271   -0.0201   -0.0087   -0.0147   -0.0159    0.0459
          38   -0.0076    0.0186    0.0104   -0.0639   -0.0042   -0.0303    0.0219    0.0403
          39    0.0071   -0.0147   -0.0029   -0.0035    0.0007   -0.0057   -0.0237   -0.0336
          40   -0.0519    0.0208    0.0223   -0.0298   -0.0093   -0.0155   -0.0067    0.0069
          41    0.0440    0.0056   -0.0179    0.0271    0.0136    0.0323    0.0547   -0.0049
          42   -0.0331   -0.0043    0.0180   -0.0423   -0.0081   -0.0438   -0.0702    0.0442
          43   -0.0169    0.0243    0.0094   -0.0068   -0.0038    0.0066    0.0258    0.0089
          44    0.0239    0.0201   -0.0014   -0.0470   -0.0005   -0.0358   -0.0710    0.0689
          45    0.0365   -0.0077   -0.0127   -0.0170    0.0031   -0.0182   -0.0302    0.0283
          46    0.0063    0.0390    0.0047   -0.0355   -0.0061   -0.0164    0.0018    0.0987
          47   -0.0115   -0.0304    0.0010    0.0244    0.0017    0.0058   -0.0205   -0.0769
          48    0.0264    0.0064   -0.0072   -0.0229    0.0041   -0.0105   -0.0176    0.0051
          49    0.0586    0.0929   -0.0171   -0.0946    0.0069   -0.0338   -0.0209    0.0766
          50    0.0327    0.0189   -0.0102   -0.0442    0.0002   -0.0266   -0.0253    0.0575
          51   -0.0107    0.0255    0.0091   -0.0573   -0.0073   -0.0321   -0.0366    0.0316
          52   -0.0521   -0.0085    0.0298   -0.0168    0.0101    0.0087    0.0176   -0.0146
          53    0.0121   -0.0517   -0.0210   -0.0237   -0.0205    0.0191    0.0009    0.0006
          54   -0.0231    0.0365   -0.0443   -0.0064    0.0225   -0.0167    0.0005   -0.0030
          55    0.0433    0.0109   -0.0114   -0.0247   -0.0122    0.0116    0.0221   -0.0081
          56   -0.0109    0.0508    0.0507    0.0151   -0.0244   -0.0234   -0.0040   -0.0013
          57   -0.0016   -0.0459    0.0325   -0.0195    0.0119    0.0063   -0.0015   -0.0029
          58   -0.0096   -0.0179   -0.0053    0.0110    0.0061   -0.0238   -0.0611    0.1153
          59   -0.0331   -0.0229    0.0108    0.0096   -0.0053   -0.0057   -0.0018    0.0534
          60   -0.0240   -0.0352    0.0041    0.0105   -0.0075   -0.0128    0.0043    0.1257
          61   -0.0391    0.0101    0.0771   -0.0183    0.1743    0.1259   -0.0634    0.0369
          62    0.0350   -0.0560    0.0149    0.0237   -0.1366   -0.0521    0.0249   -0.0011
          63    0.0425    0.0075    0.0668    0.0332    0.0067    0.0118   -0.0149    0.0135
          64    0.0049   -0.0394   -0.0815   -0.0179   -0.1155   -0.0672    0.0451   -0.0281
          65   -0.0719   -0.0064   -0.0391   -0.0523    0.0796    0.0483   -0.0087   -0.0032
          66    0.0492    0.0042    0.0554    0.0362   -0.0202   -0.0080   -0.0057    0.0082
          67    0.0061   -0.0606    0.0688   -0.0194    0.0896   -0.0724    0.0470   -0.0196
          68   -0.0334    0.0040   -0.0855    0.0466    0.0466   -0.0276   -0.0016    0.0119
          69    0.0281    0.0179    0.0169   -0.0281   -0.0765    0.0596   -0.0187   -0.0004
          70    0.0257    0.0340   -0.0643   -0.0194   -0.1351    0.1346   -0.0637    0.0270
          71   -0.0178    0.0394   -0.0488    0.0194   -0.0547    0.0397   -0.0288    0.0089
          72   -0.0027   -0.0598   -0.0619    0.0260    0.1380   -0.0767    0.0401    0.0075


   Root No.      17        18        19        20        21        22        23        24

                17 A      18 A      19 A      20 A      21 A      22 A      23 A      24 A   

                 786.2     822.3     893.8     930.2     933.7     948.6     959.4     988.7
  
           1    0.0103   -0.0012   -0.0148    0.0000    0.0023    0.0036   -0.0014   -0.0043
           2   -0.0052    0.0026   -0.0073   -0.0006    0.0041    0.0008   -0.0015    0.0207
           3   -0.0444    0.0047   -0.0069   -0.0004    0.0028    0.0029   -0.0026    0.0145
           4    0.0074    0.0059    0.0084   -0.0014   -0.0147    0.0101    0.0010   -0.0166
           5    0.0020    0.0034    0.0145    0.0092    0.0022   -0.0017    0.0194    0.0003
           6    0.0036    0.0033    0.0236   -0.0006    0.0051   -0.0053   -0.0117   -0.0021
           7    0.0190   -0.0251   -0.0101    0.0009    0.0100   -0.0134    0.0016    0.0051
           8   -0.0319   -0.0001    0.0098   -0.0004   -0.0086    0.0015   -0.0006   -0.0236
           9   -0.0048   -0.0194   -0.0067    0.0001    0.0072   -0.0085    0.0026    0.0151
          10    0.0171   -0.0137    0.0129    0.0005   -0.0078    0.0109    0.0012   -0.0069
          11   -0.0185   -0.0058    0.0047   -0.0004   -0.0011    0.0031   -0.0007    0.0057
          12    0.0232   -0.0103    0.0057    0.0002   -0.0038    0.0054   -0.0006   -0.0128
          13    0.0030    0.0165   -0.0071    0.0004    0.0088   -0.0164    0.0020   -0.0142
          14    0.0701    0.0025   -0.0126    0.0024    0.0102   -0.0120    0.0007   -0.0083
          15   -0.0125    0.0122    0.0045   -0.0014   -0.0022   -0.0055    0.0023   -0.0163
          16   -0.0200    0.0189    0.0012   -0.0006   -0.0001    0.0036   -0.0030    0.0176
          17    0.0007    0.0058    0.0001   -0.0002   -0.0008    0.0024   -0.0006    0.0026
          18    0.0462    0.0086   -0.0011    0.0004    0.0003    0.0025   -0.0016    0.0182
          19   -0.0076   -0.0002    0.0040   -0.0304   -0.0128   -0.0088    0.0032    0.0028
          20    0.0004   -0.0001    0.0027    0.0160    0.0106    0.0024   -0.0086   -0.0005
          21    0.0049   -0.0008   -0.0101   -0.0015   -0.0042   -0.0027   -0.0052   -0.0001
          22   -0.0034    0.0004    0.0017    0.0214   -0.0164   -0.0093    0.0011    0.0042
          23    0.0027   -0.0038   -0.0103    0.0040   -0.0094   -0.0033    0.0040    0.0015
          24    0.0010   -0.0010   -0.0008   -0.0142    0.0146    0.0047    0.0093   -0.0003
          25   -0.0038    0.0000    0.0052   -0.0104   -0.0012   -0.0061   -0.0034    0.0069
          26   -0.0040   -0.0002    0.0050    0.0029    0.0058   -0.0002   -0.0073   -0.0020
          27    0.0021   -0.0006   -0.0185    0.0040   -0.0094    0.0123    0.0296   -0.0022
          28   -0.0024    0.0010    0.0039    0.0080   -0.0020   -0.0050    0.0034    0.0068
          29    0.0025   -0.0023   -0.0187   -0.0095   -0.0110    0.0066   -0.0307   -0.0055
          30   -0.0018    0.0000   -0.0035   -0.0059    0.0025    0.0046   -0.0074   -0.0038
          31    0.0322    0.0000    0.0087    0.0045   -0.0016    0.0444   -0.0108   -0.0188
          32   -0.0378   -0.0312   -0.0077    0.0000    0.0020    0.0020   -0.0096    0.0806
          33   -0.0333    0.0267   -0.0142   -0.0025    0.0050   -0.0139    0.0065   -0.0200
          34   -0.0138    0.0168   -0.0109   -0.0024   -0.0313    0.0633   -0.0051   -0.0254
          35   -0.0001   -0.0005    0.0164    0.0186    0.0071   -0.0014    0.0983    0.0040
          36    0.0130    0.0015    0.0289   -0.0058    0.0088   -0.0264   -0.0573   -0.0004
          37   -0.0163    0.0851   -0.0201    0.0021    0.0115    0.0077   -0.0049    0.0546
          38   -0.0105    0.1106    0.0637   -0.0007   -0.0524    0.0579   -0.0016   -0.0918
          39    0.0211   -0.0593    0.0107   -0.0006   -0.0030   -0.0085    0.0061   -0.0294
          40    0.0250    0.0115    0.0188    0.0002   -0.0079    0.0102   -0.0030   -0.0208
          41   -0.0379   -0.0390   -0.0194    0.0003    0.0098   -0.0229    0.0045    0.0037
          42   -0.0172    0.1313    0.0001    0.0000   -0.0097    0.0347   -0.0025    0.0263
          43    0.0164   -0.0274    0.0021    0.0011    0.0040   -0.0087    0.0056   -0.0032
          44   -0.0990    0.0522   -0.0557   -0.0005    0.0407   -0.0577    0.0050    0.0478
          45   -0.0359    0.0940   -0.0013   -0.0019   -0.0165    0.0348   -0.0138    0.0071
          46   -0.0508    0.0964   -0.0333   -0.0004    0.0131   -0.0047   -0.0046    0.0588
          47    0.0412   -0.0252    0.0316   -0.0006   -0.0181    0.0422   -0.0057    0.0444
          48   -0.0247   -0.0302   -0.0082    0.0006    0.0083   -0.0357    0.0078   -0.0861
          49   -0.0459   -0.1261    0.0478   -0.0005   -0.0273    0.0752   -0.0186    0.1311
          50    0.0399   -0.0632    0.0163    0.0022   -0.0133    0.0335   -0.0078    0.0288
          51   -0.0750   -0.0847    0.0553   -0.0016   -0.0515    0.0687   -0.0080   -0.0240
          52   -0.0224   -0.0062   -0.0298    0.2245    0.1051    0.0641   -0.0155   -0.0120
          53    0.0000   -0.0019   -0.0188   -0.1350   -0.0631   -0.0120    0.0553    0.0130
          54    0.0083    0.0017    0.0103    0.0221    0.0089   -0.0119   -0.0362   -0.0041
          55   -0.0092   -0.0033   -0.0147   -0.1561    0.1350    0.0630   -0.0128   -0.0137
          56    0.0058   -0.0016    0.0230   -0.0504    0.0519    0.0082    0.0583   -0.0024
          57    0.0009   -0.0009   -0.0199    0.1123   -0.1055   -0.0383   -0.0289    0.0114
          58   -0.1480   -0.0783   -0.0464    0.0020    0.0270   -0.0514    0.0131   -0.0771
          59   -0.1105   -0.0349    0.0018   -0.0033   -0.0113   -0.0030    0.0127   -0.0522
          60   -0.0545   -0.0573   -0.0279    0.0011    0.0130   -0.0303    0.0109   -0.0506
          61    0.0199    0.0066    0.0495   -0.0069    0.0192   -0.0130   -0.0717   -0.0233
          62   -0.0270    0.0031    0.0871   -0.0192    0.0380   -0.0579   -0.1050    0.0263
          63    0.0000    0.0040    0.0445   -0.0064    0.0161   -0.0220   -0.0519    0.0003
          64   -0.0166   -0.0079   -0.0518    0.1626    0.0587    0.0652    0.0295   -0.0308
          65    0.0080   -0.0027   -0.0626   -0.0814   -0.0686    0.0186    0.1085    0.0122
          66   -0.0020    0.0031    0.0386    0.0091    0.0202   -0.0183   -0.0500   -0.0008
          67   -0.0072   -0.0096   -0.0463   -0.1275    0.0750    0.0602   -0.0622   -0.0339
          68   -0.0005    0.0081    0.0636   -0.0092    0.0551   -0.0066    0.0899    0.0038
          69    0.0026   -0.0025   -0.0402    0.0602   -0.0846   -0.0173   -0.0659    0.0093
          70    0.0040    0.0118    0.0624    0.0338    0.0224   -0.0096    0.0942   -0.0038
          71    0.0050    0.0020    0.0051    0.0009   -0.0015    0.0041    0.0059   -0.0091
          72   -0.0114    0.0118    0.0870    0.0436    0.0365   -0.0401    0.1091    0.0404


   Root No.      25        26        27        28        29        30        31        32

                25 A      26 A      27 A      28 A      29 A      30 A      31 A      32 A   

                1000.4    1025.4    1029.0    1033.1    1055.1    1081.4    1096.4    1114.1
  
           1   -0.0080    0.0102   -0.0019   -0.0092    0.0186   -0.0011   -0.0108   -0.0056
           2    0.0034   -0.0180   -0.0044    0.0040    0.0047    0.0047   -0.0054   -0.0012
           3    0.0264   -0.0003    0.0006    0.0003    0.0043    0.0095   -0.0024   -0.0036
           4   -0.0017   -0.0031    0.0036    0.0081   -0.0166    0.0032    0.0196   -0.0035
           5    0.0011   -0.0019   -0.0030    0.0016   -0.0026    0.0032   -0.0020   -0.0018
           6    0.0010   -0.0010    0.0007   -0.0016   -0.0071   -0.0015    0.0036    0.0035
           7    0.0024    0.0194    0.0084   -0.0012    0.0012   -0.0148    0.0224    0.0189
           8   -0.0023    0.0242    0.0072   -0.0041   -0.0046   -0.0105    0.0064   -0.0006
           9   -0.0260   -0.0158   -0.0052    0.0047    0.0061    0.0142    0.0165   -0.0161
          10   -0.0027   -0.0202   -0.0114   -0.0023    0.0177    0.0174   -0.0200   -0.0197
          11    0.0300   -0.0058    0.0022    0.0051   -0.0106   -0.0175   -0.0142    0.0094
          12    0.0225    0.0083    0.0017   -0.0052    0.0073   -0.0067   -0.0162    0.0173
          13    0.0003   -0.0167   -0.0066    0.0012    0.0021   -0.0113   -0.0024    0.0053
          14    0.0065    0.0005   -0.0035   -0.0040    0.0120    0.0105    0.0049   -0.0080
          15   -0.0168   -0.0118   -0.0037    0.0014   -0.0052   -0.0246   -0.0070    0.0126
          16   -0.0133    0.0197    0.0085    0.0002   -0.0161    0.0139    0.0029   -0.0052
          17   -0.0205    0.0110    0.0016   -0.0042    0.0027    0.0186    0.0048    0.0008
          18   -0.0052    0.0087    0.0068    0.0060   -0.0245   -0.0083   -0.0043    0.0005
          19    0.0006   -0.0051    0.0266    0.0096    0.0056    0.0009   -0.0050    0.0004
          20    0.0002    0.0033   -0.0158   -0.0062   -0.0025   -0.0002    0.0028   -0.0006
          21    0.0000   -0.0001    0.0001    0.0039    0.0048    0.0042    0.0008   -0.0048
          22    0.0006    0.0039   -0.0072    0.0251    0.0042   -0.0004   -0.0034    0.0012
          23    0.0002    0.0034    0.0009    0.0101    0.0041   -0.0016    0.0021    0.0017
          24   -0.0003   -0.0021    0.0068   -0.0187   -0.0006   -0.0005    0.0042   -0.0006
          25    0.0049    0.0090   -0.0407   -0.0149   -0.0051   -0.0005    0.0033   -0.0001
          26   -0.0009   -0.0051    0.0250    0.0069    0.0030    0.0007   -0.0016    0.0000
          27   -0.0001   -0.0001   -0.0031   -0.0013   -0.0047   -0.0008    0.0015    0.0006
          28    0.0016   -0.0090    0.0112   -0.0384   -0.0033    0.0006    0.0019   -0.0008
          29   -0.0005   -0.0040    0.0043   -0.0137   -0.0058    0.0006    0.0029   -0.0006
          30   -0.0007    0.0045   -0.0108    0.0295    0.0009    0.0001   -0.0007    0.0003
          31   -0.0521    0.0049   -0.0244   -0.0434   -0.0168   -0.0799   -0.1277    0.0739
          32   -0.1231   -0.0664   -0.0190    0.0239   -0.0076   -0.1357   -0.0100    0.0287
          33    0.1251    0.0327    0.0192    0.0016    0.0256    0.1318    0.0494   -0.0563
          34    0.0280   -0.0362   -0.0174   -0.0057   -0.0900    0.0241    0.0709   -0.0054
          35   -0.0007    0.0129    0.0130   -0.0090    0.0081    0.0032   -0.0100   -0.0097
          36   -0.0089    0.0029   -0.0009    0.0103    0.0157   -0.0092   -0.0113    0.0089
          37    0.0638    0.0417    0.0176   -0.0063    0.0430   -0.0202   -0.0991    0.0502
          38    0.0132   -0.0510   -0.0243   -0.0040   -0.0481   -0.0025    0.0259   -0.0431
          39   -0.0585   -0.0443   -0.0175    0.0069   -0.0258    0.0208    0.0938   -0.0432
          40    0.0593   -0.0253    0.0006    0.0088   -0.0580   -0.0406    0.0667    0.0628
          41   -0.0592    0.0689    0.0156   -0.0136    0.0541    0.0114   -0.0345   -0.0435
          42   -0.0173   -0.0280   -0.0225   -0.0109    0.0691    0.0699   -0.1048   -0.0672
          43   -0.0095   -0.0290   -0.0093    0.0083   -0.0401    0.0289   -0.0594   -0.0561
          44   -0.0251    0.0063    0.0226    0.0329   -0.1394   -0.0185   -0.0252   -0.0471
          45    0.0081    0.0571    0.0104   -0.0274    0.1403   -0.0513    0.1287    0.1165
          46   -0.0466   -0.0057   -0.0005    0.0076    0.0409   -0.0237    0.0846   -0.0385
          47    0.0844   -0.0698   -0.0170    0.0177    0.0528   -0.0888    0.0055   -0.0318
          48   -0.0266    0.0796    0.0205   -0.0242   -0.0795    0.0967   -0.0856    0.0754
          49    0.0667   -0.0053    0.0146    0.0261   -0.0361    0.0899    0.0022    0.0807
          50    0.0026    0.0343    0.0082   -0.0096    0.0155    0.0224    0.0067   -0.0285
          51   -0.0898    0.0988    0.0190   -0.0412    0.0404   -0.0835   -0.0063   -0.1313
          52    0.0018    0.0149   -0.0735   -0.0350   -0.0208   -0.0097    0.0079    0.0105
          53   -0.0016   -0.0081    0.0487    0.0011    0.0071   -0.0171   -0.0230    0.0208
          54    0.0011    0.0015   -0.0120    0.0101    0.0056    0.0162    0.0121   -0.0189
          55   -0.0023   -0.0170    0.0098   -0.0737   -0.0093    0.0047   -0.0133   -0.0051
          56   -0.0023   -0.0003    0.0244   -0.0165   -0.0036   -0.0059    0.0418   -0.0006
          57    0.0032    0.0102   -0.0205    0.0487    0.0118    0.0006   -0.0241    0.0042
          58    0.1124   -0.0301   -0.0121   -0.0060    0.0372   -0.0710   -0.0068   -0.0689
          59   -0.1154   -0.0850   -0.0448   -0.0056    0.0612    0.1369    0.0016    0.1588
          60    0.0434   -0.0426   -0.0161    0.0019    0.0201   -0.0300   -0.0113    0.0039
          61   -0.0155   -0.0359    0.1660    0.0562    0.0227    0.0054   -0.0069   -0.0022
          62    0.0156    0.0242   -0.1002   -0.0348    0.0002    0.0039    0.0046   -0.0035
          63    0.0001   -0.0030    0.0154    0.0064    0.0055    0.0036    0.0007   -0.0026
          64   -0.0142   -0.0306    0.1374    0.0423    0.0082    0.0002   -0.0078    0.0031
          65    0.0095    0.0153   -0.0752   -0.0331   -0.0227   -0.0070    0.0064    0.0061
          66   -0.0011   -0.0020    0.0105    0.0076    0.0071    0.0039   -0.0001   -0.0040
          67   -0.0068    0.0213   -0.0478    0.1280    0.0016    0.0009   -0.0058    0.0003
          68   -0.0012    0.0162   -0.0085    0.0489    0.0133   -0.0033    0.0010    0.0021
          69    0.0041   -0.0258    0.0274   -0.0987   -0.0162    0.0031    0.0049   -0.0023
          70   -0.0021    0.0348   -0.0482    0.1538    0.0195   -0.0015   -0.0059    0.0027
          71   -0.0019    0.0124   -0.0170    0.0570    0.0029   -0.0004    0.0006    0.0008
          72    0.0078   -0.0231    0.0393   -0.1171    0.0018   -0.0006    0.0025    0.0004


   Root No.      33        34        35        36        37        38        39        40

                33 A      34 A      35 A      36 A      37 A      38 A      39 A      40 A   

                1122.1    1134.4    1155.1    1180.9    1191.2    1196.0    1224.3    1233.5
  
           1   -0.0151    0.0113    0.0099   -0.0236   -0.0301    0.0163    0.0129   -0.0120
           2    0.0221    0.0185   -0.0060   -0.0125   -0.0026   -0.0086    0.0167    0.0264
           3    0.0108    0.0290    0.0054   -0.0010   -0.0030    0.0138   -0.0138   -0.0088
           4    0.0011   -0.0360    0.0076   -0.0236    0.0098    0.0031    0.0058   -0.0134
           5   -0.0033    0.0024   -0.0325   -0.0107    0.0286   -0.0172    0.0044    0.0067
           6    0.0004    0.0004    0.0217    0.0088    0.0505   -0.0020    0.0004    0.0005
           7   -0.0036    0.0007   -0.0093    0.0018    0.0024   -0.0038    0.0041    0.0012
           8   -0.0292   -0.0108    0.0030    0.0106   -0.0006   -0.0041   -0.0053    0.0013
           9   -0.0129    0.0032   -0.0012    0.0119    0.0101   -0.0086   -0.0073    0.0086
          10    0.0077   -0.0028    0.0048    0.0074    0.0064    0.0006   -0.0123   -0.0065
          11   -0.0074   -0.0125    0.0000   -0.0037   -0.0035    0.0013   -0.0010   -0.0056
          12    0.0107   -0.0094   -0.0021   -0.0079   -0.0059   -0.0008    0.0173    0.0098
          13    0.0001   -0.0046   -0.0007    0.0052    0.0033   -0.0030    0.0043    0.0074
          14    0.0096    0.0095    0.0028    0.0100    0.0077    0.0034   -0.0088   -0.0029
          15   -0.0050   -0.0103   -0.0028    0.0009    0.0011   -0.0014   -0.0090   -0.0093
          16    0.0059    0.0092   -0.0001   -0.0019   -0.0003   -0.0011    0.0041    0.0058
          17    0.0131    0.0118    0.0001    0.0027    0.0049    0.0045   -0.0150   -0.0129
          18   -0.0170   -0.0087    0.0009   -0.0051   -0.0078    0.0007    0.0064    0.0004
          19    0.0005    0.0076   -0.0051    0.0028    0.0006   -0.0061   -0.0048    0.0017
          20   -0.0004   -0.0049    0.0000   -0.0067   -0.0050   -0.0001   -0.0009   -0.0008
          21    0.0028   -0.0041   -0.0223    0.0202   -0.0325    0.0246    0.0231   -0.0056
          22    0.0021    0.0056    0.0025    0.0062    0.0004    0.0047   -0.0011    0.0033
          23    0.0065    0.0034    0.0115    0.0117   -0.0351   -0.0224    0.0080   -0.0234
          24    0.0021   -0.0045    0.0078   -0.0005   -0.0217   -0.0068    0.0025   -0.0116
          25    0.0003   -0.0029   -0.0002   -0.0030   -0.0003    0.0002   -0.0053    0.0012
          26    0.0005    0.0021   -0.0056   -0.0027    0.0010   -0.0029   -0.0116    0.0034
          27   -0.0014   -0.0027   -0.0037   -0.0144    0.0086   -0.0111   -0.0125    0.0034
          28    0.0011   -0.0028    0.0016   -0.0023   -0.0002    0.0025   -0.0043    0.0084
          29   -0.0021   -0.0070    0.0051   -0.0037    0.0101    0.0102   -0.0036    0.0063
          30    0.0018   -0.0007    0.0058    0.0001    0.0065    0.0086   -0.0075    0.0155
          31   -0.1107    0.1364   -0.0257    0.0948   -0.0471   -0.0253   -0.0702    0.0691
          32    0.1324   -0.0314    0.0027   -0.0455    0.0079    0.0670   -0.0186   -0.0882
          33   -0.0216    0.0106    0.0150   -0.0298   -0.0010   -0.0176    0.0433    0.0309
          34    0.0878   -0.0624   -0.0821    0.2112   -0.0344   -0.0834   -0.0002    0.0084
          35   -0.0360   -0.0095   -0.1328    0.0132    0.0891    0.2377    0.0283    0.0158
          36   -0.0129    0.0191    0.1179   -0.0976    0.0314   -0.1233   -0.0087   -0.0158
          37    0.0553   -0.0765   -0.0163    0.0079    0.0253   -0.0213    0.0124    0.0360
          38   -0.0340    0.0841    0.0254   -0.0496   -0.0538    0.0593    0.0090   -0.0484
          39   -0.0501    0.0710    0.0079   -0.0033   -0.0149    0.0145   -0.0102   -0.0223
          40    0.0462    0.0926   -0.0176   -0.0383   -0.0136    0.0095    0.0216    0.0406
          41   -0.0814   -0.1014    0.0095    0.0499    0.0158   -0.0171   -0.0210   -0.0361
          42   -0.0025   -0.0479    0.0245    0.0215    0.0024   -0.0018   -0.0239   -0.0323
          43    0.0017   -0.0081    0.0112   -0.0005   -0.0034   -0.0017    0.0084    0.0095
          44   -0.0596   -0.0157    0.0072   -0.0240   -0.0335   -0.0064    0.0568    0.0303
          45    0.0035    0.0111   -0.0229    0.0114    0.0155    0.0023   -0.0274   -0.0266
          46   -0.0360    0.0185   -0.0033    0.0209    0.0157   -0.0105   -0.0120    0.0124
          47   -0.0705   -0.0481    0.0022   -0.0036   -0.0165   -0.0144    0.0440    0.0293
          48    0.1021    0.0218   -0.0009   -0.0142    0.0043    0.0225   -0.0349   -0.0401
          49   -0.0662   -0.0077    0.0191   -0.0023   -0.0121    0.0279   -0.0438   -0.0595
          50    0.0193    0.0197    0.0026    0.0007    0.0022    0.0025    0.0019    0.0053
          51    0.0862    0.0251   -0.0220   -0.0261   -0.0064   -0.0345    0.0771    0.0831
          52   -0.0001    0.0061    0.1217    0.0520    0.0507    0.0271    0.0782   -0.0249
          53   -0.0018    0.0542    0.1565    0.1055    0.0793    0.0372    0.1212   -0.0322
          54    0.0038   -0.0359   -0.1364   -0.0503   -0.0889   -0.0019   -0.0600    0.0169
          55   -0.0214    0.0250   -0.1261   -0.0219    0.0489   -0.0702    0.0616   -0.0944
          56    0.0388   -0.0625    0.1709    0.0164   -0.1145    0.0728   -0.0742    0.0959
          57   -0.0133    0.0417   -0.0665    0.0088    0.0226   -0.0545    0.0439   -0.0691
          58    0.0258    0.0198    0.0020    0.0164    0.0192    0.0063   -0.0447   -0.0317
          59   -0.0290   -0.0420   -0.0037   -0.0291   -0.0326   -0.0131    0.0915    0.0698
          60   -0.0166   -0.0170    0.0009   -0.0032   -0.0066    0.0007    0.0051   -0.0011
          61    0.0045    0.0050   -0.0082    0.0270   -0.0067    0.0219    0.0020    0.0007
          62    0.0058    0.0009   -0.0127    0.0420   -0.0106    0.0413    0.0028    0.0047
          63    0.0031   -0.0009   -0.0129    0.0210   -0.0028    0.0214   -0.0002    0.0032
          64   -0.0013    0.0106   -0.0006   -0.0098    0.0302   -0.0174   -0.0349    0.0125
          65   -0.0032   -0.0028    0.0113   -0.0304    0.0481   -0.0238   -0.0534    0.0169
          66    0.0015   -0.0036   -0.0162    0.0051   -0.0272    0.0076    0.0184   -0.0067
          67    0.0011    0.0021   -0.0014   -0.0015    0.0429    0.0161   -0.0195    0.0505
          68    0.0055    0.0051    0.0129    0.0112   -0.0459   -0.0094    0.0165   -0.0471
          69   -0.0028   -0.0125    0.0028   -0.0108    0.0278    0.0146   -0.0170    0.0388
          70    0.0113    0.0149   -0.0054    0.0121   -0.0212   -0.0369    0.0004    0.0044
          71    0.0020   -0.0009    0.0043    0.0021   -0.0004   -0.0044   -0.0013    0.0026
          72    0.0130    0.0115   -0.0027    0.0120   -0.0277   -0.0522   -0.0012    0.0072


   Root No.      41        42        43        44        45        46        47        48

                41 A      42 A      43 A      44 A      45 A      46 A      47 A      48 A   

                1275.4    1279.3    1310.3    1339.1    1357.0    1374.7    1390.8    1411.9
  
           1    0.0018    0.0140   -0.0309    0.0101   -0.0202    0.0243   -0.0374   -0.0236
           2    0.0174   -0.0021    0.0478    0.0142    0.0017   -0.0096   -0.0195   -0.0029
           3   -0.0117    0.0028   -0.0195   -0.0182    0.0078   -0.0099    0.0393    0.0207
           4   -0.0086   -0.0291    0.0256    0.0124    0.0249   -0.0202    0.0234    0.0109
           5    0.0274   -0.0181   -0.0210   -0.0021   -0.0084    0.0443    0.0271    0.0000
           6   -0.0097    0.0280    0.0000   -0.0112   -0.0106   -0.0148   -0.0286   -0.0062
           7    0.0290    0.0182    0.0174   -0.0071    0.0054   -0.0068    0.0106    0.0118
           8   -0.0272   -0.0144   -0.0205    0.0005   -0.0007    0.0030    0.0011   -0.0297
           9   -0.0210   -0.0234   -0.0021    0.0093   -0.0043    0.0062   -0.0112    0.0046
          10   -0.0058   -0.0106    0.0000    0.0075   -0.0172   -0.0055    0.0092   -0.0138
          11    0.0052   -0.0050    0.0039    0.0162   -0.0302    0.0006   -0.0190    0.0524
          12    0.0045    0.0199   -0.0032   -0.0216    0.0442    0.0070   -0.0008   -0.0144
          13   -0.0076    0.0045   -0.0052   -0.0047   -0.0047   -0.0058    0.0092    0.0155
          14   -0.0149    0.0003   -0.0166   -0.0095   -0.0020   -0.0054    0.0197    0.0088
          15    0.0181   -0.0069    0.0209    0.0100    0.0105    0.0080   -0.0232   -0.0262
          16   -0.0016    0.0031    0.0006   -0.0039    0.0032   -0.0032    0.0052    0.0036
          17    0.0116   -0.0034    0.0090   -0.0049    0.0311    0.0097   -0.0079   -0.0351
          18   -0.0045   -0.0018   -0.0077    0.0096   -0.0258   -0.0007   -0.0035    0.0173
          19    0.0030   -0.0003   -0.0063   -0.0123   -0.0053   -0.0014   -0.0039   -0.0005
          20    0.0019   -0.0089    0.0013   -0.0136   -0.0029   -0.0080   -0.0065   -0.0007
          21    0.0102   -0.0233   -0.0004    0.0147    0.0079    0.0118    0.0171    0.0024
          22   -0.0041    0.0058    0.0107   -0.0069   -0.0061    0.0069   -0.0017   -0.0011
          23   -0.0138    0.0063    0.0007    0.0107    0.0106   -0.0250   -0.0096    0.0011
          24   -0.0111   -0.0007    0.0134   -0.0023    0.0008   -0.0005    0.0018    0.0011
          25   -0.0035    0.0036    0.0013   -0.0077   -0.0025   -0.0076   -0.0077   -0.0008
          26   -0.0043    0.0084   -0.0009   -0.0148   -0.0060   -0.0110   -0.0132   -0.0016
          27   -0.0028    0.0062    0.0002   -0.0031   -0.0014   -0.0017   -0.0023   -0.0003
          28    0.0050   -0.0030    0.0024   -0.0055   -0.0054    0.0141    0.0058   -0.0002
          29    0.0018   -0.0010   -0.0021    0.0014    0.0018   -0.0042   -0.0012    0.0002
          30    0.0071   -0.0011    0.0018   -0.0071   -0.0074    0.0160    0.0049   -0.0007
          31   -0.0091   -0.0426    0.0685   -0.0079    0.0392   -0.0386    0.0497    0.0328
          32   -0.0103    0.0266   -0.0826   -0.0279   -0.0025    0.0122    0.0371    0.0022
          33    0.0099    0.0061    0.0249    0.0164   -0.0125    0.0009   -0.0316   -0.0060
          34    0.0248    0.0607   -0.0421   -0.0302   -0.0436    0.0398   -0.0393   -0.0165
          35   -0.0319    0.0125    0.0276   -0.0029    0.0061   -0.0681   -0.0455   -0.0092
          36    0.0132   -0.0257   -0.0040    0.0056    0.0060    0.0311    0.0390    0.0088
          37   -0.0705   -0.0464   -0.0317   -0.0026    0.0413    0.0384   -0.0307    0.0320
          38    0.0531    0.0678   -0.0308   -0.0334    0.0365    0.0299   -0.0051    0.1279
          39    0.0561    0.0321    0.0273    0.0012   -0.0229   -0.0193    0.0150    0.0132
          40   -0.0693   -0.0503   -0.0215    0.0231   -0.0204    0.0028   -0.0164   -0.0974
          41    0.0699    0.0535    0.0159   -0.0321    0.0331    0.0005    0.0234    0.0991
          42    0.0613    0.0320    0.0479    0.0126   -0.0540   -0.0527    0.0338   -0.0667
          43   -0.0149    0.0050   -0.0098   -0.0155    0.0321    0.0039    0.0044   -0.0265
          44    0.0119    0.0542   -0.0116   -0.0205   -0.0351   -0.0428    0.1052   -0.1367
          45    0.0379   -0.0077    0.0240    0.0387   -0.1212   -0.0433    0.0695   -0.0513
          46   -0.0345   -0.0280   -0.0081   -0.0189    0.1156    0.0579   -0.1130    0.1211
          47    0.0022    0.0401   -0.0101   -0.0233    0.0050   -0.0190    0.0516   -0.0673
          48    0.0233   -0.0231    0.0172    0.0381   -0.0666   -0.0035   -0.0182    0.0522
          49    0.0227   -0.0077   -0.0042    0.0018    0.0277    0.0219   -0.0231   -0.0417
          50   -0.0175    0.0024   -0.0183   -0.0092   -0.0069   -0.0072    0.0227    0.0141
          51   -0.0190    0.0132    0.0129    0.0072   -0.0409   -0.0227    0.0130    0.0492
          52    0.0139   -0.0312    0.0047    0.0145    0.0075    0.0074    0.0115    0.0015
          53    0.0328   -0.0451   -0.0099    0.0168    0.0033    0.0261    0.0204    0.0010
          54   -0.0083    0.0021    0.0029   -0.0082    0.0016   -0.0083   -0.0007    0.0010
          55   -0.0274    0.0001    0.0058    0.0094    0.0119   -0.0199   -0.0008    0.0017
          56    0.0191   -0.0096    0.0084   -0.0064   -0.0055    0.0150    0.0062    0.0014
          57   -0.0289    0.0156    0.0101    0.0043    0.0060   -0.0220   -0.0119   -0.0004
          58    0.0215   -0.0200    0.0241    0.0070    0.0204    0.0077   -0.0128   -0.0347
          59   -0.0423    0.0492   -0.0462   -0.0302   -0.0080   -0.0148    0.0336    0.0502
          60   -0.0037   -0.0020   -0.0080    0.0108   -0.0271    0.0004   -0.0056    0.0167
          61   -0.0205    0.0395    0.0117    0.0685    0.0208    0.0217    0.0254    0.0034
          62   -0.0353    0.0763    0.0156    0.1287    0.0353    0.0504    0.0495    0.0052
          63   -0.0230    0.0503    0.0122    0.0971    0.0284    0.0408    0.0428    0.0049
          64   -0.0287    0.0713    0.0056    0.0702    0.0154    0.0296    0.0239    0.0020
[...]
 TRAVEL      0.0845        C  4 --  H 15          +14.8% ( 52.5%)     0.1%
 RED. MASS   1.1980        C  3 --  C  4           +9.3% ( 41.5%)    68.6%
 EFF. MASS   6.9562

 VIBRATION   46   46A       ATOM PAIR        ENERGY CONTRIBUTION    RADIAL
 FREQ.      1374.70        C  2 --  C  8          +16.0% ( 54.9%)    97.0%
 T-DIPOLE    0.0649        C  2 --  H 12          +13.3% ( 50.1%)     0.1%
 TRAVEL      0.0867        C  1 --  C  2          +13.2% ( 49.8%)    40.3%
 RED. MASS   0.9931        C  2 --  C  7          +11.1% ( 45.8%)    39.7%
 EFF. MASS   6.5278

 VIBRATION   47   47A       ATOM PAIR        ENERGY CONTRIBUTION    RADIAL
 FREQ.      1390.80        C  1 --  C  2          +15.9% ( 56.9%)    35.2%
 T-DIPOLE    0.1279        C  1 --  C  5          +15.0% ( 55.2%)    96.0%
 TRAVEL      0.0796        C  1 --  H 11          +10.5% ( 46.2%)     0.7%
 RED. MASS   1.2613        C  1 --  C  3           +9.4% ( 43.8%)     0.0%
 EFF. MASS   7.6488

 VIBRATION   48   48A       ATOM PAIR        ENERGY CONTRIBUTION    RADIAL
 FREQ.      1411.92        C  4 --  C  6          +16.4% ( 53.2%)    97.6%
 T-DIPOLE    0.0278        C  4 --  H 15          +12.7% ( 46.7%)     5.6%
 TRAVEL      0.0877        C  4 --  H 16          +12.6% ( 46.6%)     5.8%
 RED. MASS   0.7834        C  3 --  C  4          +10.7% ( 43.0%)     0.3%
 EFF. MASS   6.2055

 VIBRATION   49   49A       ATOM PAIR        ENERGY CONTRIBUTION    RADIAL
 FREQ.      1421.67        C  3 --  H 14          +25.9% ( 53.9%)     4.8%
 T-DIPOLE    0.0539        C  3 --  H 13          +24.9% ( 52.9%)     5.2%
 TRAVEL      0.1240        C  3 --  C  4          +11.5% ( 35.9%)    97.1%
 RED. MASS   0.4073        C  4 --  H 16           +9.1% ( 32.0%)     5.7%
 EFF. MASS   3.0863

 VIBRATION   50   50A       ATOM PAIR        ENERGY CONTRIBUTION    RADIAL
 FREQ.      1831.61        C  5 --  C  6          +45.7% (100.1%)   100.0%
 T-DIPOLE    0.1318        C  1 --  C  5          +13.9% ( 55.2%)    25.0%
 TRAVEL      0.0557        C  4 --  C  6          +13.8% ( 55.1%)    25.6%
 RED. MASS   5.3683        C  5 --  H 17          +13.0% ( 53.3%)    10.2%
 EFF. MASS  11.8851        C  6 --  H 20          +12.9% ( 53.2%)     9.6%

 VIBRATION   51   51A       ATOM PAIR        ENERGY CONTRIBUTION    RADIAL
 FREQ.      1854.59        C  7 --  C  9          +24.9% ( 73.8%)    99.1%
 T-DIPOLE    0.0894        C  8 --  C 10          +20.2% ( 66.5%)    99.1%
 TRAVEL      0.0556        C  2 --  C  7           +9.3% ( 45.2%)    52.7%
 RED. MASS   2.6280        C  7 --  H 18           +8.3% ( 42.7%)     4.4%
 EFF. MASS  11.7812

 VIBRATION   52   52A       ATOM PAIR        ENERGY CONTRIBUTION    RADIAL
 FREQ.      1863.80        C  8 --  C 10          +25.4% ( 74.1%)    99.0%
 T-DIPOLE    0.1226        C  7 --  C  9          +20.6% ( 66.7%)    99.0%
 TRAVEL      0.0553        C  2 --  C  8           +9.0% ( 44.0%)    49.9%
 RED. MASS   2.7269        C  8 --  H 19           +8.6% ( 43.1%)     4.2%
 EFF. MASS  11.8119

 VIBRATION   53   53A       ATOM PAIR        ENERGY CONTRIBUTION    RADIAL
 FREQ.      2861.35        C  2 --  H 12          +94.2% ( 98.8%)   100.0%
 T-DIPOLE    0.0470        C  1 --  H 11           +2.3% ( 15.4%)    99.8%
 TRAVEL      0.1273        C  1 --  C  2           +1.1% ( 10.9%)     8.7%
 RED. MASS   0.8855        C  2 --  C  8           +1.1% ( 10.6%)    11.9%
 EFF. MASS   1.4539

 VIBRATION   54   54A       ATOM PAIR        ENERGY CONTRIBUTION    RADIAL
 FREQ.      2888.25        C  1 --  H 11          +94.3% ( 98.6%)   100.0%
 T-DIPOLE    0.0717        C  2 --  H 12           +2.2% ( 15.1%)    99.8%
 TRAVEL      0.1273        C  1 --  C  3           +1.0% ( 10.3%)    10.3%
 RED. MASS   0.8813        C  1 --  C  5           +1.0% ( 10.2%)    10.4%
 EFF. MASS   1.4409

 VIBRATION   55   55A       ATOM PAIR        ENERGY CONTRIBUTION    RADIAL
 FREQ.      2969.58        C  3 --  H 14          +28.1% ( 55.2%)    97.5%
 T-DIPOLE    0.0364        C  4 --  H 15          +26.4% ( 53.5%)    96.5%
 TRAVEL      0.1209        C  4 --  H 16          +25.6% ( 52.7%)    96.4%
 RED. MASS   0.2659        C  3 --  H 13          +17.3% ( 43.3%)    94.5%
 EFF. MASS   1.5539

 VIBRATION   56   56A       ATOM PAIR        ENERGY CONTRIBUTION    RADIAL
 FREQ.      2984.00        C  3 --  H 14          +33.4% ( 59.7%)    98.0%
 T-DIPOLE    0.0759        C  4 --  H 15          +23.5% ( 50.1%)    96.9%
 TRAVEL      0.1217        C  4 --  H 16          +22.2% ( 48.7%)    96.6%
 RED. MASS   0.2700        C  3 --  H 13          +18.7% ( 44.7%)    94.5%
 EFF. MASS   1.5254

 VIBRATION   57   57A       ATOM PAIR        ENERGY CONTRIBUTION    RADIAL
 FREQ.      3041.03        C  8 --  H 19          +96.3% ( 99.5%)   100.0%
 T-DIPOLE    0.2366        C  8 --  C 10           +1.4% ( 12.1%)    31.3%
 TRAVEL      0.1216        C  2 --  C  8           +1.3% ( 11.7%)    13.8%
 RED. MASS   0.9119        C 10 --  H 24           +0.9% (  9.7%)    96.2%
 EFF. MASS   1.5007

 VIBRATION   58   58A       ATOM PAIR        ENERGY CONTRIBUTION    RADIAL
 FREQ.      3043.31        C  7 --  H 18          +96.3% ( 99.5%)   100.0%
 T-DIPOLE    0.2388        C  7 --  C  9           +1.4% ( 12.0%)    31.2%
 TRAVEL      0.1215        C  2 --  C  7           +1.3% ( 11.7%)    13.8%
 RED. MASS   0.9114        C  9 --  H 21           +0.9% (  9.9%)    95.6%
 EFF. MASS   1.5003

 VIBRATION   59   59A       ATOM PAIR        ENERGY CONTRIBUTION    RADIAL
 FREQ.      3055.00        C  4 --  H 16          +47.4% ( 67.9%)    97.7%
 T-DIPOLE    0.0775        C  4 --  H 15          +44.7% ( 66.0%)    97.4%
 TRAVEL      0.1311        C  3 --  H 13           +4.2% ( 20.2%)    98.8%
 RED. MASS   0.4254        C  3 --  H 14           +2.2% ( 14.7%)    94.8%
 EFF. MASS   1.2845

 VIBRATION   60   60A       ATOM PAIR        ENERGY CONTRIBUTION    RADIAL
 FREQ.      3062.72        C  3 --  H 13          +59.2% ( 75.9%)    98.9%
 T-DIPOLE    0.0804        C  3 --  H 14          +33.0% ( 56.7%)    95.4%
 TRAVEL      0.1310        C  4 --  H 15           +3.4% ( 18.1%)    98.0%
 RED. MASS   0.4539        C  4 --  H 16           +2.9% ( 16.9%)    97.4%
 EFF. MASS   1.2838

 VIBRATION   61   61A       ATOM PAIR        ENERGY CONTRIBUTION    RADIAL
 FREQ.      3112.27        C  5 --  H 17          +61.5% ( 79.7%)   100.0%
 T-DIPOLE    0.3820        C  6 --  H 20          +35.9% ( 60.8%)   100.0%
 TRAVEL      0.1216        C  5 --  C  6           +1.1% ( 10.8%)     1.8%
 RED. MASS   0.4974        C  1 --  C  5           +0.9% (  9.9%)    24.4%
 EFF. MASS   1.4654

 VIBRATION   62   62A       ATOM PAIR        ENERGY CONTRIBUTION    RADIAL
 FREQ.      3132.08        C  6 --  H 20          +60.4% ( 79.2%)    99.9%
 T-DIPOLE    0.3416        C  5 --  H 17          +35.0% ( 60.3%)    99.9%
 TRAVEL      0.1142        C  5 --  C  6           +2.5% ( 16.0%)    98.0%
 RED. MASS   0.4978        C  4 --  C  6           +1.2% ( 11.0%)    21.5%
 EFF. MASS   1.6496

 VIBRATION   63   63A       ATOM PAIR        ENERGY CONTRIBUTION    RADIAL
 FREQ.      3133.04        C  9 --  H 22          +93.3% ( 98.2%)    99.9%
 T-DIPOLE    0.1849        C  9 --  H 21           +5.2% ( 23.1%)    65.0%
 TRAVEL      0.1185        C  7 --  C  9           +1.3% ( 11.7%)    25.4%
 RED. MASS   0.8739        C 10 --  H 23           +0.2% (  4.1%)   100.0%
 EFF. MASS   1.5315

 VIBRATION   64   64A       ATOM PAIR        ENERGY CONTRIBUTION    RADIAL
 FREQ.      3134.67        C 10 --  H 23          +90.8% ( 97.0%)    99.8%
 T-DIPOLE    0.1980        C 10 --  H 24           +7.7% ( 28.3%)    75.6%
 TRAVEL      0.1181        C  8 --  C 10           +1.3% ( 11.7%)    20.8%
 RED. MASS   0.8380        C  9 --  H 22           +0.1% (  3.9%)    99.7%
 EFF. MASS   1.5424

 VIBRATION   65   65A       ATOM PAIR        ENERGY CONTRIBUTION    RADIAL
 FREQ.      3146.25        C 10 --  H 24          +72.5% ( 85.8%)    99.4%
 T-DIPOLE    0.3038        C  9 --  H 21          +19.1% ( 44.0%)    99.8%
 TRAVEL      0.1209        C 10 --  H 23           +5.2% ( 22.9%)    46.1%
 RED. MASS   0.5479        C  8 --  C 10           +1.3% ( 11.4%)    74.9%
 EFF. MASS   1.4652

 VIBRATION   66   66A       ATOM PAIR        ENERGY CONTRIBUTION    RADIAL
 FREQ.      3146.53        C  9 --  H 21          +74.3% ( 86.8%)    99.8%
 T-DIPOLE    0.2028        C 10 --  H 24          +18.3% ( 43.1%)    99.3%
 TRAVEL      0.1207        C  9 --  H 22           +3.5% ( 18.9%)    29.6%
 RED. MASS   0.5676        C 10 --  H 23           +1.5% ( 12.1%)    50.2%
 EFF. MASS   1.4711

 SYMMETRY NUMBER FOR POINT-GROUP C1  =  1


          SYSTEM IS A GROUND STATE


    NULL



          MOLECULE IS NOT LINEAR

          THERE ARE 66 GENUINE VIBRATIONS IN THIS SYSTEM
          THIS THERMODYNAMICS CALCULATION IS LIMITED TO
          MOLECULES WHICH HAVE NO INTERNAL ROTATIONS




                    CALCULATED THERMODYNAMIC PROPERTIES
                                          *
   TEMP. (K)   PARTITION FUNCTION   H.O.F.    ENTHALPY  HEAT CAPACITY ENTROPY
                                   KCAL/MOL   CAL/MOLE    CAL/K/MOL  CAL/K/MOL


 298.00  VIB.     0.1014D+04                  4644.7593    33.0295    29.3409
         ROT.     0.7319D+06                   888.2813     2.9808    29.8147
         INT.     0.7420D+09                  5533.0406    36.0103    59.1556
         TRA.     0.1503D+28                  1480.4688     4.9680    40.5931
         TOT.                       38.743    7013.5094    40.9784    99.7487

 200.00  VIB.     0.7976D+02                  2047.8394    20.3795    18.9412
         ROT.     0.4024D+06                   596.1620     2.9808    28.6261
         INT.     0.3209D+08                  2644.0014    23.3603    47.5673
         TRA.     0.8266D+27                   993.6033     4.9680    38.6119
         TOT.                       35.367    3637.6046    28.3283    86.1792

 210.00  VIB.     0.1032D+03                  2257.3901    21.5371    19.9634
         ROT.     0.4329D+06                   625.9700     2.9808    28.7715
         INT.     0.4468D+08                  2883.3601    24.5180    48.7349
         TRA.     0.8893D+27                  1043.2834     4.9680    38.8543
         TOT.                       35.657    3926.6436    29.4860    87.5892

 220.00  VIB.     0.1335D+03                  2478.7098    22.7330    20.9927
         ROT.     0.4642D+06                   655.7781     2.9808    28.9102
         INT.     0.6198D+08                  3134.4879    25.7138    49.9029
         TRA.     0.9536D+27                  1092.9636     4.9680    39.0854
         TOT.                       35.957    4227.4515    30.6818    88.9883

 230.00  VIB.     0.1728D+03                  2712.1713    23.9651    22.0303
         ROT.     0.4962D+06                   685.5862     2.9808    29.0427
         INT.     0.8575D+08                  3397.7575    26.9459    51.0730
         TRA.     0.1019D+28                  1142.6437     4.9680    39.3063
         TOT.                       36.270    4540.4013    31.9139    90.3792

 240.00  VIB.     0.2237D+03                  2958.1230    25.2305    23.0769
         ROT.     0.5290D+06                   715.3943     2.9808    29.1695
         INT.     0.1183D+09                  3673.5173    28.2113    52.2464
         TRA.     0.1087D+28                  1192.3239     4.9680    39.5177
         TOT.                       36.596    4865.8412    33.1793    91.7641

 250.00  VIB.     0.2897D+03                  3216.8813    26.5258    24.1330
         ROT.     0.5624D+06                   745.2024     2.9808    29.2912
         INT.     0.1629D+09                  3962.0838    29.5066    53.4242
         TRA.     0.1155D+28                  1242.0041     4.9680    39.7205
         TOT.                       36.934    5204.0878    34.4746    93.1447

 260.00  VIB.     0.3755D+03                  3488.7257    27.8471    25.1990
         ROT.     0.5964D+06                   775.0105     2.9808    29.4081
         INT.     0.2240D+09                  4263.7363    30.8279    54.6071
         TRA.     0.1225D+28                  1291.6842     4.9680    39.9154
         TOT.                       37.285    5555.4205    35.7959    94.5225

 270.00  VIB.     0.4871D+03                  3773.8949    29.1900    26.2751
         ROT.     0.6312D+06                   804.8186     2.9808    29.5206
         INT.     0.3074D+09                  4578.7135    32.1709    55.7957
         TRA.     0.1297D+28                  1341.3644     4.9680    40.1029
         TOT.                       37.650    5920.0779    37.1389    95.8986

 280.00  VIB.     0.6323D+03                  4072.5847    30.5505    27.3612
         ROT.     0.6666D+06                   834.6267     2.9808    29.6290
         INT.     0.4215D+09                  4907.2114    33.5313    56.9902
         TRA.     0.1369D+28                  1391.0445     4.9680    40.2835
         TOT.                       38.028    6298.2560    38.4993    97.2738

 290.00  VIB.     0.8216D+03                  4384.9481    31.9240    28.4572
         ROT.     0.7026D+06                   864.4348     2.9808    29.7336
         INT.     0.5773D+09                  5249.3829    34.9049    58.1908
         TRA.     0.1443D+28                  1440.7247     4.9680    40.4579
         TOT.                       38.420    6690.1076    39.8729    98.6487

 300.00  VIB.     0.1069D+04                  4711.0953    33.3066    29.5627
         ROT.     0.7392D+06                   894.2429     2.9808    29.8347
         INT.     0.7900D+09                  5605.3383    36.2874    59.3974
         TRA.     0.1518D+28                  1490.4049     4.9680    40.6263
         TOT.                       38.826    7095.7431    41.2554   100.0237

 310.00  VIB.     0.1391D+04                  5051.0957    34.6940    30.6775
         ROT.     0.7765D+06                   924.0510     2.9808    29.9324
         INT.     0.1080D+10                  5975.1467    37.6748    60.6099
         TRA.     0.1595D+28                  1540.0850     4.9680    40.7892
         TOT.                       39.245    7515.2317    42.6428   101.3991

 320.00  VIB.     0.1814D+04                  5404.9794    36.0826    31.8009
         ROT.     0.8144D+06                   953.8591     2.9808    30.0271
         INT.     0.1477D+10                  6358.8385    39.0634    61.8280
         TRA.     0.1673D+28                  1589.7652     4.9680    40.9469
         TOT.                       39.678    7948.6037    44.0315   102.7749

 330.00  VIB.     0.2367D+04                  5772.7404    37.4689    32.9324
         ROT.     0.8529D+06                   983.6672     2.9808    30.1188
         INT.     0.2019D+10                  6756.4076    40.4497    63.0512
         TRA.     0.1752D+28                  1639.4454     4.9680    41.0998
         TOT.                       40.126    8395.8530    45.4178   104.1510

 340.00  VIB.     0.3092D+04                  6154.3395    38.8497    34.0715
         ROT.     0.8919D+06                  1013.4753     2.9808    30.2078
         INT.     0.2758D+10                  7167.8148    41.8305    64.2793
         TRA.     0.1832D+28                  1689.1255     4.9680    41.2481
         TOT.                       40.587    8856.9404    46.7986   105.5274

 350.00  VIB.     0.4045D+04                  6549.7072    40.2222    35.2175
         ROT.     0.9315D+06                  1043.2834     2.9808    30.2942
         INT.     0.3768D+10                  7592.9906    43.2030    65.5117
         TRA.     0.1914D+28                  1738.8057     4.9680    41.3921
         TOT.                       41.062    9331.7963    48.1710   106.9038

 360.00  VIB.     0.5296D+04                  6958.7469    41.5837    36.3697
         ROT.     0.9718D+06                  1073.0915     2.9808    30.3781
         INT.     0.5147D+10                  8031.8384    44.5646    66.7479
         TRA.     0.1996D+28                  1788.4859     4.9680    41.5321
         TOT.                       41.550    9820.3243    49.5326   108.2799

 370.00  VIB.     0.6943D+04                  7381.3383    42.9322    37.5275
         ROT.     0.1013D+07                  1102.8996     2.9808    30.4598
         INT.     0.7030D+10                  8484.2380    45.9130    67.9873
         TRA.     0.2080D+28                  1838.1660     4.9680    41.6682
         TOT.                       42.052   10322.4040    50.8810   109.6555

 380.00  VIB.     0.9113D+04                  7817.3404    44.2656    38.6902
         ROT.     0.1054D+07                  1132.7077     2.9808    30.5393
         INT.     0.9603D+10                  8950.0481    47.2464    69.2295
         TRA.     0.2165D+28                  1887.8462     4.9680    41.8007
         TOT.                       42.568   10837.8943    52.2144   111.0302

 390.00  VIB.     0.1197D+05                  8266.5941    45.5823    39.8570
         ROT.     0.1096D+07                  1162.5158     2.9808    30.6167
         INT.     0.1312D+11                  9429.1099    48.5631    70.4738
         TRA.     0.2251D+28                  1937.5263     4.9680    41.9297
         TOT.                       43.096   11366.6362    53.5311   112.4035

 400.00  VIB.     0.1575D+05                  8728.9255    46.8809    41.0275
         ROT.     0.1138D+07                  1192.3239     2.9808    30.6922
         INT.     0.1792D+11                  9921.2494    49.8617    71.7197
         TRA.     0.2338D+28                  1987.2065     4.9680    42.0555
         TOT.                       43.638   11908.4559    54.8297   113.7752

   *: NOTE: HEATS OF FORMATION ARE RELATIVE TO THE
            ELEMENTS IN THEIR STANDARD STATE AT 298K
              (=  Standard Enthalpy of Formation).

            Hvib:  Zero-point energy is not included.
                   frequencies of less than zero cm-1 are not included.
            Hrot = (3/2)RT
            Htra = (3/2)RT + pV = (5/2)RT

            Heat capacity is Cp, not Cv

           For more information, see: HTTP://OpenMOPAC.net/Manual/thermochemistry.html


           FORCE CONSTANT IN CARTESIAN COORDINATES (Millidynes/A)

    ATOM   CHEMICAL       X               Y               Z
   NUMBER   SYMBOL  FORCE CONSTANT  FORCE CONSTANT  FORCE CONSTANT

      1       C        8.199656        7.774362        8.962950
      2       C        7.771584        9.012624        8.816098
      3       C        7.981812        8.000028        8.449038
      4       C        8.301262        9.279584        7.728241
      5       C        7.341570       12.110484        8.016893
      6       C        7.645481        9.818266       10.034659
      7       C        6.032612       12.201245        8.868709
      8       C        8.008981        9.176278        9.931218
      9       C        5.561854       11.952183        8.984110
     10       C        7.639805        9.279545        9.614895
     11       H        1.136400        1.719212        3.151159
     12       H        1.112811        1.693133        3.233598
     13       H        1.911255        0.807872        3.781690
     14       H        2.982672        2.785829        0.713843
     15       H        4.630984        0.751742        1.003192
     16       H        1.055823        3.003189        2.335781
     17       H        0.779779        4.687077        0.928376
     18       H        0.631346        1.602680        3.992596
     19       H        1.003076        2.329639        2.893817
     20       H        1.608935        0.867317        3.950377
     21       H        0.980194        1.496887        4.001701
     22       H        0.650054        1.760461        4.044470
     23       H        1.082341        2.240553        3.144275
     24       H        1.057168        4.844021        0.574977



 TOTAL CPU TIME:             3.59 SECONDS

 == MOPAC DONE ==
