 *******************************************************************************
 ** Site#: 14399           For non-commercial use only        Version 13.159M **
 *******************************************************************************
 ** Cite this work as: MOPAC2012, James J. P. Stewart, Stewart Computational  **
 ** Chemistry, Version 13.159M web: HTTP://OpenMOPAC.net  Days remaining:   6 **
 *******************************************************************************
 **                                                                           **
 **                                MOPAC2012                                  **
 **                                                                           **
 *******************************************************************************

                            PM3 CALCULATION RESULTS


 *******************************************************************************
 *  CALCULATION DONE:                                Mon Jun  2 11:04:16 2014  *
 *  PM3      - The PM3 Hamiltonian to be used
 *  PRECISE  - CRITERIA TO BE INCREASED BY 100 TIMES
 *  NOSYM    - POINT-GROUP SYMMETRY SET TO C1
 *  T=       - A TIME OF 172800.0 SECONDS REQUESTED
 *  DUMP=N   - RESTART FILE WRITTEN EVERY  7200.000 SECONDS
 *******************************************************************************
pm3  precise nosym
 InChI=1S/C12H20/c1-5-9-10(6-2)12(8-4)11(9)7-3/h5-6,9-12H,1-2,7-8H2,3-4H3

   ATOM   CHEMICAL          X               Y               Z
  NUMBER   SYMBOL      (ANGSTROMS)     (ANGSTROMS)     (ANGSTROMS)
 
     1       C          0.24800000  *   0.73780000  *   0.15130000  *
     2       C          1.07220000  *  -0.59150000  *   0.03140000  *
     3       C         -1.00870000  *  -0.08190000  *  -0.16010000  *
     4       C         -0.25650000  *  -1.35640000  *   0.07690000  *
     5       C          0.61960000  *   1.81340000  *  -0.87720000  *
     6       C          2.02780000  *  -0.88830000  *   1.19420000  *
     7       C         -0.30810000  *   3.02130000  *  -0.81050000  *
     8       C          3.26020000  *   0.00880000  *   1.17880000  *
     9       C         -2.14570000  *   0.15930000  *   0.79950000  *
    10       C         -0.42800000  *  -2.40790000  *  -0.98870000  *
    11       C         -3.37700000  *   0.46420000  *   0.38420000  *
    12       C         -1.58410000  *  -3.05560000  *  -1.15030000  *
    13       H          0.26820000  *   1.14660000  *   1.19190000  *
    14       H          1.59170000  *  -0.68270000  *  -0.95430000  *
    15       H         -1.31910000  *   0.03030000  *  -1.22960000  *
    16       H         -0.44790000  *  -1.80450000  *   1.08370000  *
    17       H          1.66060000  *   2.15510000  *  -0.67510000  *
    18       H          0.60710000  *   1.40340000  *  -1.91410000  *
    19       H          1.51430000  *  -0.77710000  *   2.17780000  *
    20       H          2.36090000  *  -1.94880000  *   1.11470000  *
    21       H         -1.35650000  *   2.73170000  *  -1.05070000  *
    22       H         -0.28370000  *   3.48510000  *   0.20190000  *
    23       H          0.01580000  *   3.78750000  *  -1.55080000  *
    24       H          3.81870000  *  -0.09810000  *   0.22090000  *
    25       H          2.97650000  *   1.07670000  *   1.31700000  *
    26       H          3.94320000  *  -0.27450000  *   2.01140000  *
    27       H         -1.96120000  *   0.08500000  *   1.87100000  *
    28       H          0.40820000  *  -2.66820000  *  -1.63650000  *
    29       H         -4.17080000  *   0.63180000  *   1.10950000  *
    30       H         -3.61730000  *   0.55250000  *  -0.67400000  *
    31       H         -2.44700000  *  -2.83760000  *  -0.52260000  *
    32       H         -1.68130000  *  -3.81730000  *  -1.92150000  *
 


          CARTESIAN COORDINATES 

    NO.       ATOM         X         Y         Z

     1         C        0.2480    0.7378    0.1513
     2         C        1.0722   -0.5915    0.0314
     3         C       -1.0087   -0.0819   -0.1601
     4         C       -0.2565   -1.3564    0.0769
     5         C        0.6196    1.8134   -0.8772
     6         C        2.0278   -0.8883    1.1942
     7         C       -0.3081    3.0213   -0.8105
     8         C        3.2602    0.0088    1.1788
     9         C       -2.1457    0.1593    0.7995
    10         C       -0.4280   -2.4079   -0.9887
    11         C       -3.3770    0.4642    0.3842
    12         C       -1.5841   -3.0556   -1.1503
    13         H        0.2682    1.1466    1.1919
    14         H        1.5917   -0.6827   -0.9543
    15         H       -1.3191    0.0303   -1.2296
    16         H       -0.4479   -1.8045    1.0837
    17         H        1.6606    2.1551   -0.6751
    18         H        0.6071    1.4034   -1.9141
    19         H        1.5143   -0.7771    2.1778
    20         H        2.3609   -1.9488    1.1147
    21         H       -1.3565    2.7317   -1.0507
    22         H       -0.2837    3.4851    0.2019
    23         H        0.0158    3.7875   -1.5508
    24         H        3.8187   -0.0981    0.2209
    25         H        2.9765    1.0767    1.3170
    26         H        3.9432   -0.2745    2.0114
    27         H       -1.9612    0.0850    1.8710
    28         H        0.4082   -2.6682   -1.6365
    29         H       -4.1708    0.6318    1.1095
    30         H       -3.6173    0.5525   -0.6740
    31         H       -2.4470   -2.8376   -0.5226
    32         H       -1.6813   -3.8173   -1.9215

  H: (PM3): J. J. P. STEWART, J. COMP. CHEM. 10, 209 (1989).
  C: (PM3): J. J. P. STEWART, J. COMP. CHEM. 10, 209 (1989).

           Empirical Formula: C12 H20  =    32 atoms



      MOLECULAR POINT GROUP   :   C1  


      RHF CALCULATION, NO. OF DOUBLY OCCUPIED LEVELS =   34

      Geometry optimization using EF

          DIAGONAL MATRIX USED AS START HESSIAN

 CYCLE:     1 TIME:   0.017 TIME LEFT:  2.00D  GRAD.:   113.730 HEAT: 16.33957
 CYCLE:     2 TIME:   0.026 TIME LEFT:  2.00D  GRAD.:   101.953 HEAT: 14.50326
 CYCLE:     3 TIME:   0.025 TIME LEFT:  2.00D  GRAD.:    45.212 HEAT: 12.46997
 CYCLE:     4 TIME:   0.025 TIME LEFT:  2.00D  GRAD.:    39.770 HEAT: 12.12026
 CYCLE:     5 TIME:   0.014 TIME LEFT:  2.00D  GRAD.:    34.697 HEAT: 11.87801
 CYCLE:     6 TIME:   0.014 TIME LEFT:  2.00D  GRAD.:    35.635 HEAT: 11.66371
 CYCLE:     7 TIME:   0.016 TIME LEFT:  2.00D  GRAD.:    41.916 HEAT: 11.62896
 CYCLE:     8 TIME:   0.016 TIME LEFT:  2.00D  GRAD.:    39.631 HEAT: 11.50335
 CYCLE:     9 TIME:   0.016 TIME LEFT:  2.00D  GRAD.:    30.875 HEAT: 11.35470
 CYCLE:    10 TIME:   0.014 TIME LEFT:  2.00D  GRAD.:    32.175 HEAT: 11.29419
 CYCLE:    11 TIME:   0.025 TIME LEFT:  2.00D  GRAD.:    15.452 HEAT: 11.08124
 CYCLE:    12 TIME:   0.024 TIME LEFT:  2.00D  GRAD.:    12.452 HEAT: 11.04165
 CYCLE:    13 TIME:   0.013 TIME LEFT:  2.00D  GRAD.:    12.466 HEAT: 11.02362
 CYCLE:    14 TIME:   0.013 TIME LEFT:  2.00D  GRAD.:    10.164 HEAT: 10.99594
 CYCLE:    15 TIME:   0.024 TIME LEFT:  2.00D  GRAD.:     6.059 HEAT: 10.97214
 CYCLE:    16 TIME:   0.013 TIME LEFT:  2.00D  GRAD.:     7.246 HEAT: 10.96441
 CYCLE:    17 TIME:   0.013 TIME LEFT:  2.00D  GRAD.:     5.494 HEAT: 10.94392
 CYCLE:    18 TIME:   0.013 TIME LEFT:  2.00D  GRAD.:     8.286 HEAT: 10.93593
 CYCLE:    19 TIME:   0.013 TIME LEFT:  2.00D  GRAD.:     8.710 HEAT: 10.92135
 CYCLE:    20 TIME:   0.013 TIME LEFT:  2.00D  GRAD.:     8.234 HEAT: 10.90660
 CYCLE:    21 TIME:   0.024 TIME LEFT:  2.00D  GRAD.:     6.116 HEAT: 10.89219
 CYCLE:    22 TIME:   0.024 TIME LEFT:  2.00D  GRAD.:     3.543 HEAT: 10.88335
 CYCLE:    23 TIME:   0.013 TIME LEFT:  2.00D  GRAD.:     2.468 HEAT: 10.87621
 CYCLE:    24 TIME:   0.014 TIME LEFT:  2.00D  GRAD.:     8.707 HEAT: 10.86039
 CYCLE:    25 TIME:   0.024 TIME LEFT:  2.00D  GRAD.:     9.780 HEAT: 10.84693
 CYCLE:    26 TIME:   0.013 TIME LEFT:  2.00D  GRAD.:    10.402 HEAT: 10.83722
 CYCLE:    27 TIME:   0.013 TIME LEFT:  2.00D  GRAD.:     7.932 HEAT: 10.81165
 CYCLE:    28 TIME:   0.024 TIME LEFT:  2.00D  GRAD.:     6.658 HEAT: 10.79486
 CYCLE:    29 TIME:   0.013 TIME LEFT:  2.00D  GRAD.:     5.945 HEAT: 10.78231
 CYCLE:    30 TIME:   0.014 TIME LEFT:  2.00D  GRAD.:     9.225 HEAT: 10.78225
 CYCLE:    31 TIME:   0.013 TIME LEFT:  2.00D  GRAD.:     6.915 HEAT: 10.76077
 CYCLE:    32 TIME:   0.013 TIME LEFT:  2.00D  GRAD.:     5.520 HEAT: 10.73932
 CYCLE:    33 TIME:   0.013 TIME LEFT:  2.00D  GRAD.:     8.345 HEAT: 10.73059
 CYCLE:    34 TIME:   0.013 TIME LEFT:  2.00D  GRAD.:     4.611 HEAT: 10.69559
 CYCLE:    35 TIME:   0.014 TIME LEFT:  2.00D  GRAD.:     9.791 HEAT: 10.68189
 CYCLE:    36 TIME:   0.014 TIME LEFT:  2.00D  GRAD.:     4.885 HEAT: 10.63344
 CYCLE:    37 TIME:   0.014 TIME LEFT:  2.00D  GRAD.:     7.644 HEAT: 10.61155
 CYCLE:    38 TIME:   0.014 TIME LEFT:  2.00D  GRAD.:     6.023 HEAT: 10.57231
 CYCLE:    39 TIME:   0.014 TIME LEFT:  2.00D  GRAD.:     6.383 HEAT: 10.54460
 CYCLE:    40 TIME:   0.014 TIME LEFT:  2.00D  GRAD.:     5.970 HEAT: 10.50578
 CYCLE:    41 TIME:   0.014 TIME LEFT:  2.00D  GRAD.:     7.514 HEAT: 10.47957
 CYCLE:    42 TIME:   0.013 TIME LEFT:  2.00D  GRAD.:     4.396 HEAT: 10.45089
 CYCLE:    43 TIME:   0.013 TIME LEFT:  2.00D  GRAD.:     4.626 HEAT: 10.43282
 CYCLE:    44 TIME:   0.013 TIME LEFT:  2.00D  GRAD.:     4.712 HEAT: 10.40435
 CYCLE:    45 TIME:   0.013 TIME LEFT:  2.00D  GRAD.:     4.782 HEAT: 10.36050
 CYCLE:    46 TIME:   0.013 TIME LEFT:  2.00D  GRAD.:     3.863 HEAT: 10.33525
 CYCLE:    47 TIME:   0.013 TIME LEFT:  2.00D  GRAD.:     4.546 HEAT: 10.30128
 CYCLE:    48 TIME:   0.013 TIME LEFT:  2.00D  GRAD.:     5.376 HEAT: 10.26172
 CYCLE:    49 TIME:   0.013 TIME LEFT:  2.00D  GRAD.:     4.826 HEAT: 10.22373
 CYCLE:    50 TIME:   0.013 TIME LEFT:  2.00D  GRAD.:     3.994 HEAT: 10.19362
 CYCLE:    51 TIME:   0.014 TIME LEFT:  2.00D  GRAD.:     4.245 HEAT: 10.17251
 CYCLE:    52 TIME:   0.013 TIME LEFT:  2.00D  GRAD.:     3.983 HEAT: 10.15567
 CYCLE:    53 TIME:   0.013 TIME LEFT:  2.00D  GRAD.:     3.300 HEAT: 10.13869
 CYCLE:    54 TIME:   0.013 TIME LEFT:  2.00D  GRAD.:     2.581 HEAT: 10.12076
 CYCLE:    55 TIME:   0.014 TIME LEFT:  2.00D  GRAD.:     2.460 HEAT: 10.10970
 CYCLE:    56 TIME:   0.014 TIME LEFT:  2.00D  GRAD.:     2.091 HEAT: 10.09940
 CYCLE:    57 TIME:   0.014 TIME LEFT:  2.00D  GRAD.:     2.352 HEAT: 10.09071
 CYCLE:    58 TIME:   0.014 TIME LEFT:  2.00D  GRAD.:     1.845 HEAT: 10.08311
 CYCLE:    59 TIME:   0.014 TIME LEFT:  2.00D  GRAD.:     1.622 HEAT: 10.07548
 CYCLE:    60 TIME:   0.014 TIME LEFT:  2.00D  GRAD.:     1.512 HEAT: 10.07016
 CYCLE:    61 TIME:   0.014 TIME LEFT:  2.00D  GRAD.:     1.469 HEAT: 10.06542
 CYCLE:    62 TIME:   0.014 TIME LEFT:  2.00D  GRAD.:     1.289 HEAT: 10.06074
 CYCLE:    63 TIME:   0.016 TIME LEFT:  2.00D  GRAD.:     1.111 HEAT: 10.05697
 CYCLE:    64 TIME:   0.013 TIME LEFT:  2.00D  GRAD.:     0.993 HEAT: 10.05429
 CYCLE:    65 TIME:   0.013 TIME LEFT:  2.00D  GRAD.:     1.030 HEAT: 10.05180
 CYCLE:    66 TIME:   0.014 TIME LEFT:  2.00D  GRAD.:     1.041 HEAT: 10.04918
 CYCLE:    67 TIME:   0.015 TIME LEFT:  2.00D  GRAD.:     1.036 HEAT: 10.04630
 CYCLE:    68 TIME:   0.013 TIME LEFT:  2.00D  GRAD.:     0.992 HEAT: 10.04351
 CYCLE:    69 TIME:   0.014 TIME LEFT:  2.00D  GRAD.:     0.897 HEAT: 10.04135
 CYCLE:    70 TIME:   0.013 TIME LEFT:  2.00D  GRAD.:     0.828 HEAT: 10.03953
 CYCLE:    71 TIME:   0.014 TIME LEFT:  2.00D  GRAD.:     0.737 HEAT: 10.03814
 CYCLE:    72 TIME:   0.014 TIME LEFT:  2.00D  GRAD.:     0.722 HEAT: 10.03673
 CYCLE:    73 TIME:   0.014 TIME LEFT:  2.00D  GRAD.:     0.747 HEAT: 10.03533
 CYCLE:    74 TIME:   0.014 TIME LEFT:  2.00D  GRAD.:     0.689 HEAT: 10.03400
 CYCLE:    75 TIME:   0.016 TIME LEFT:  2.00D  GRAD.:     0.586 HEAT: 10.03287
 CYCLE:    76 TIME:   0.015 TIME LEFT:  2.00D  GRAD.:     0.549 HEAT: 10.03199
 CYCLE:    77 TIME:   0.017 TIME LEFT:  2.00D  GRAD.:     0.590 HEAT: 10.03118
 CYCLE:    78 TIME:   0.017 TIME LEFT:  2.00D  GRAD.:     0.653 HEAT: 10.03022
 CYCLE:    79 TIME:   0.015 TIME LEFT:  2.00D  GRAD.:     0.641 HEAT: 10.02915
 CYCLE:    80 TIME:   0.014 TIME LEFT:  2.00D  GRAD.:     0.580 HEAT: 10.02810
 CYCLE:    81 TIME:   0.014 TIME LEFT:  2.00D  GRAD.:     0.570 HEAT: 10.02721
 CYCLE:    82 TIME:   0.014 TIME LEFT:  2.00D  GRAD.:     0.630 HEAT: 10.02632
 CYCLE:    83 TIME:   0.014 TIME LEFT:  2.00D  GRAD.:     0.682 HEAT: 10.02535
 CYCLE:    84 TIME:   0.014 TIME LEFT:  2.00D  GRAD.:     0.703 HEAT: 10.02423
 CYCLE:    85 TIME:   0.014 TIME LEFT:  2.00D  GRAD.:     0.697 HEAT: 10.02308
 CYCLE:    86 TIME:   0.014 TIME LEFT:  2.00D  GRAD.:     0.769 HEAT: 10.02178
 CYCLE:    87 TIME:   0.014 TIME LEFT:  2.00D  GRAD.:     0.917 HEAT: 10.02007
 CYCLE:    88 TIME:   0.014 TIME LEFT:  2.00D  GRAD.:     1.033 HEAT: 10.01783
 CYCLE:    89 TIME:   0.014 TIME LEFT:  2.00D  GRAD.:     0.993 HEAT: 10.01487
 CYCLE:    90 TIME:   0.014 TIME LEFT:  2.00D  GRAD.:     0.754 HEAT: 10.01341
 CYCLE:    91 TIME:   0.014 TIME LEFT:  2.00D  GRAD.:     0.857 HEAT: 10.01167
 CYCLE:    92 TIME:   0.014 TIME LEFT:  2.00D  GRAD.:     0.640 HEAT: 10.01100
 CYCLE:    93 TIME:   0.015 TIME LEFT:  2.00D  GRAD.:     0.642 HEAT: 10.00968
 CYCLE:    94 TIME:   0.014 TIME LEFT:  2.00D  GRAD.:     0.494 HEAT: 10.00913
 CYCLE:    95 TIME:   0.018 TIME LEFT:  2.00D  GRAD.:     0.329 HEAT: 10.00868
 CYCLE:    96 TIME:   0.014 TIME LEFT:  2.00D  GRAD.:     0.360 HEAT: 10.00822
 CYCLE:    97 TIME:   0.014 TIME LEFT:  2.00D  GRAD.:     0.425 HEAT: 10.00768
 CYCLE:    98 TIME:   0.014 TIME LEFT:  2.00D  GRAD.:     0.468 HEAT: 10.00717
 CYCLE:    99 TIME:   0.014 TIME LEFT:  2.00D  GRAD.:     0.579 HEAT: 10.00626
 CYCLE:   100 TIME:   0.014 TIME LEFT:  2.00D  GRAD.:     0.672 HEAT: 10.00544
 CYCLE:   101 TIME:   0.015 TIME LEFT:  2.00D  GRAD.:     1.356 HEAT: 10.00249
 CYCLE:   102 TIME:   0.014 TIME LEFT:  2.00D  GRAD.:     1.218 HEAT: 10.00045
 CYCLE:   103 TIME:   0.015 TIME LEFT:  2.00D  GRAD.:     2.756 HEAT: 9.993548
 CYCLE:   104 TIME:   0.014 TIME LEFT:  2.00D  GRAD.:     1.815 HEAT: 9.991471
 CYCLE:   105 TIME:   0.014 TIME LEFT:  2.00D  GRAD.:     0.957 HEAT: 9.987222
 CYCLE:   106 TIME:   0.014 TIME LEFT:  2.00D  GRAD.:     1.375 HEAT: 9.983709
 CYCLE:   107 TIME:   0.014 TIME LEFT:  2.00D  GRAD.:     1.491 HEAT: 9.980575
 CYCLE:   108 TIME:   0.014 TIME LEFT:  2.00D  GRAD.:     0.928 HEAT: 9.976411
 CYCLE:   109 TIME:   0.015 TIME LEFT:  2.00D  GRAD.:     1.174 HEAT: 9.974789
 CYCLE:   110 TIME:   0.018 TIME LEFT:  2.00D  GRAD.:     0.825 HEAT: 9.972641
 CYCLE:   111 TIME:   0.015 TIME LEFT:  2.00D  GRAD.:     0.885 HEAT: 9.970225
 CYCLE:   112 TIME:   0.015 TIME LEFT:  2.00D  GRAD.:     1.056 HEAT: 9.967320
 CYCLE:   113 TIME:   0.015 TIME LEFT:  2.00D  GRAD.:     1.260 HEAT: 9.963963
 CYCLE:   114 TIME:   0.015 TIME LEFT:  2.00D  GRAD.:     1.406 HEAT: 9.960198
 CYCLE:   115 TIME:   0.015 TIME LEFT:  2.00D  GRAD.:     2.652 HEAT: 9.958856
 CYCLE:   116 TIME:   0.014 TIME LEFT:  2.00D  GRAD.:     1.829 HEAT: 9.953275
 CYCLE:   117 TIME:   0.014 TIME LEFT:  2.00D  GRAD.:     1.240 HEAT: 9.949696
 CYCLE:   118 TIME:   0.015 TIME LEFT:  2.00D  GRAD.:     1.354 HEAT: 9.943981
 CYCLE:   119 TIME:   0.015 TIME LEFT:  2.00D  GRAD.:     2.019 HEAT: 9.938207
 CYCLE:   120 TIME:   0.014 TIME LEFT:  2.00D  GRAD.:     2.110 HEAT: 9.930961
 CYCLE:   121 TIME:   0.015 TIME LEFT:  2.00D  GRAD.:     2.965 HEAT: 9.919897
 CYCLE:   122 TIME:   0.014 TIME LEFT:  2.00D  GRAD.:     4.003 HEAT: 9.914909
 CYCLE:   123 TIME:   0.014 TIME LEFT:  2.00D  GRAD.:     2.378 HEAT: 9.902074
 CYCLE:   124 TIME:   0.016 TIME LEFT:  2.00D  GRAD.:     1.729 HEAT: 9.893955
 CYCLE:   125 TIME:   0.020 TIME LEFT:  2.00D  GRAD.:     2.962 HEAT: 9.881600
 CYCLE:   126 TIME:   0.014 TIME LEFT:  2.00D  GRAD.:     1.723 HEAT: 9.873895
 CYCLE:   127 TIME:   0.018 TIME LEFT:  2.00D  GRAD.:     1.557 HEAT: 9.867717
 CYCLE:   128 TIME:   0.015 TIME LEFT:  2.00D  GRAD.:     2.372 HEAT: 9.861297
 CYCLE:   129 TIME:   0.014 TIME LEFT:  2.00D  GRAD.:     2.540 HEAT: 9.854872
 CYCLE:   130 TIME:   0.014 TIME LEFT:  2.00D  GRAD.:     2.409 HEAT: 9.845001
 CYCLE:   131 TIME:   0.014 TIME LEFT:  2.00D  GRAD.:     6.980 HEAT: 9.835796
 CYCLE:   132 TIME:   0.013 TIME LEFT:  2.00D  GRAD.:     3.157 HEAT: 9.820830
 CYCLE:   133 TIME:   0.013 TIME LEFT:  2.00D  GRAD.:     2.130 HEAT: 9.807939
 CYCLE:   134 TIME:   0.015 TIME LEFT:  2.00D  GRAD.:     4.809 HEAT: 9.772754
 CYCLE:   135 TIME:   0.014 TIME LEFT:  2.00D  GRAD.:     5.321 HEAT: 9.754220
 CYCLE:   136 TIME:   0.014 TIME LEFT:  2.00D  GRAD.:     5.709 HEAT: 9.714621
 CYCLE:   137 TIME:   0.024 TIME LEFT:  2.00D  GRAD.:     3.531 HEAT: 9.699052
 CYCLE:   138 TIME:   0.014 TIME LEFT:  2.00D  GRAD.:     4.152 HEAT: 9.680722
 CYCLE:   139 TIME:   0.014 TIME LEFT:  2.00D  GRAD.:     3.296 HEAT: 9.664370
 CYCLE:   140 TIME:   0.014 TIME LEFT:  2.00D  GRAD.:     4.063 HEAT: 9.650855
 CYCLE:   141 TIME:   0.014 TIME LEFT:  2.00D  GRAD.:     2.003 HEAT: 9.636051
 CYCLE:   142 TIME:   0.014 TIME LEFT:  2.00D  GRAD.:     2.575 HEAT: 9.630145
 CYCLE:   143 TIME:   0.015 TIME LEFT:  2.00D  GRAD.:     1.235 HEAT: 9.626859
 CYCLE:   144 TIME:   0.016 TIME LEFT:  2.00D  GRAD.:     2.107 HEAT: 9.623839
 CYCLE:   145 TIME:   0.014 TIME LEFT:  2.00D  GRAD.:     1.524 HEAT: 9.621183
 CYCLE:   146 TIME:   0.014 TIME LEFT:  2.00D  GRAD.:     1.262 HEAT: 9.618444
 CYCLE:   147 TIME:   0.015 TIME LEFT:  2.00D  GRAD.:     1.135 HEAT: 9.615097
 CYCLE:   148 TIME:   0.014 TIME LEFT:  2.00D  GRAD.:     1.040 HEAT: 9.613807
 CYCLE:   149 TIME:   0.014 TIME LEFT:  2.00D  GRAD.:     1.242 HEAT: 9.611214
 CYCLE:   150 TIME:   0.014 TIME LEFT:  2.00D  GRAD.:     1.113 HEAT: 9.609841
 CYCLE:   151 TIME:   0.015 TIME LEFT:  2.00D  GRAD.:     1.456 HEAT: 9.603156
 CYCLE:   152 TIME:   0.014 TIME LEFT:  2.00D  GRAD.:     1.533 HEAT: 9.601341
 CYCLE:   153 TIME:   0.014 TIME LEFT:  2.00D  GRAD.:     1.169 HEAT: 9.598620
 CYCLE:   154 TIME:   0.014 TIME LEFT:  2.00D  GRAD.:     1.199 HEAT: 9.595203
 CYCLE:   155 TIME:   0.015 TIME LEFT:  2.00D  GRAD.:     1.436 HEAT: 9.589283
 CYCLE:   156 TIME:   0.014 TIME LEFT:  2.00D  GRAD.:     1.620 HEAT: 9.583635
 CYCLE:   157 TIME:   0.014 TIME LEFT:  2.00D  GRAD.:     1.415 HEAT: 9.577311
 CYCLE:   158 TIME:   0.014 TIME LEFT:  2.00D  GRAD.:     0.995 HEAT: 9.575026
 CYCLE:   159 TIME:   0.014 TIME LEFT:  2.00D  GRAD.:     1.577 HEAT: 9.573074
 CYCLE:   160 TIME:   0.014 TIME LEFT:  2.00D  GRAD.:     1.546 HEAT: 9.572912
 CYCLE:   161 TIME:   0.017 TIME LEFT:  2.00D  GRAD.:     0.720 HEAT: 9.570812
 CYCLE:   162 TIME:   0.014 TIME LEFT:  2.00D  GRAD.:     0.660 HEAT: 9.570114
 CYCLE:   163 TIME:   0.015 TIME LEFT:  2.00D  GRAD.:     0.955 HEAT: 9.569182
 CYCLE:   164 TIME:   0.014 TIME LEFT:  2.00D  GRAD.:     0.825 HEAT: 9.568624
 CYCLE:   165 TIME:   0.014 TIME LEFT:  2.00D  GRAD.:     0.729 HEAT: 9.567803
 CYCLE:   166 TIME:   0.014 TIME LEFT:  2.00D  GRAD.:     0.641 HEAT: 9.566876
 CYCLE:   167 TIME:   0.015 TIME LEFT:  2.00D  GRAD.:     0.758 HEAT: 9.565297
 CYCLE:   168 TIME:   0.013 TIME LEFT:  2.00D  GRAD.:     0.655 HEAT: 9.564400
 CYCLE:   169 TIME:   0.014 TIME LEFT:  2.00D  GRAD.:     0.896 HEAT: 9.561949
 CYCLE:   170 TIME:   0.014 TIME LEFT:  2.00D  GRAD.:     0.812 HEAT: 9.560721
 CYCLE:   171 TIME:   0.014 TIME LEFT:  2.00D  GRAD.:     0.719 HEAT: 9.558978
 CYCLE:   172 TIME:   0.014 TIME LEFT:  2.00D  GRAD.:     0.692 HEAT: 9.557731
 CYCLE:   173 TIME:   0.014 TIME LEFT:  2.00D  GRAD.:     0.430 HEAT: 9.557257
 CYCLE:   174 TIME:   0.014 TIME LEFT:  2.00D  GRAD.:     0.427 HEAT: 9.556849
 CYCLE:   175 TIME:   0.014 TIME LEFT:  2.00D  GRAD.:     0.392 HEAT: 9.556589
 CYCLE:   176 TIME:   0.013 TIME LEFT:  2.00D  GRAD.:     0.228 HEAT: 9.556431
 CYCLE:   177 TIME:   0.014 TIME LEFT:  2.00D  GRAD.:     0.281 HEAT: 9.556265
 CYCLE:   178 TIME:   0.014 TIME LEFT:  2.00D  GRAD.:     0.186 HEAT: 9.556209
 CYCLE:   179 TIME:   0.014 TIME LEFT:  2.00D  GRAD.:     0.186 HEAT: 9.556140
 CYCLE:   180 TIME:   0.013 TIME LEFT:  2.00D  GRAD.:     0.161 HEAT: 9.556074
 CYCLE:   181 TIME:   0.014 TIME LEFT:  2.00D  GRAD.:     0.386 HEAT: 9.555921
 CYCLE:   182 TIME:   0.014 TIME LEFT:  2.00D  GRAD.:     0.270 HEAT: 9.555786
 CYCLE:   183 TIME:   0.014 TIME LEFT:  2.00D  GRAD.:     0.362 HEAT: 9.555430
 CYCLE:   184 TIME:   0.013 TIME LEFT:  2.00D  GRAD.:     0.262 HEAT: 9.555296
 CYCLE:   185 TIME:   0.014 TIME LEFT:  2.00D  GRAD.:     0.198 HEAT: 9.555046
 CYCLE:   186 TIME:   0.014 TIME LEFT:  2.00D  GRAD.:     0.164 HEAT: 9.554957
 CYCLE:   187 TIME:   0.014 TIME LEFT:  2.00D  GRAD.:     0.167 HEAT: 9.554785
 CYCLE:   188 TIME:   0.013 TIME LEFT:  2.00D  GRAD.:     0.160 HEAT: 9.554707
 CYCLE:   189 TIME:   0.014 TIME LEFT:  2.00D  GRAD.:     0.165 HEAT: 9.554661
 CYCLE:   190 TIME:   0.014 TIME LEFT:  2.00D  GRAD.:     0.142 HEAT: 9.554602
 CYCLE:   191 TIME:   0.013 TIME LEFT:  2.00D  GRAD.:     0.098 HEAT: 9.554579
 CYCLE:   192 TIME:   0.013 TIME LEFT:  2.00D  GRAD.:     0.079 HEAT: 9.554555
 CYCLE:   193 TIME:   0.013 TIME LEFT:  2.00D  GRAD.:     0.066 HEAT: 9.554539
 CYCLE:   194 TIME:   0.013 TIME LEFT:  2.00D  GRAD.:     0.082 HEAT: 9.554518
 CYCLE:   195 TIME:   0.013 TIME LEFT:  2.00D  GRAD.:     0.077 HEAT: 9.554507
 CYCLE:   196 TIME:   0.013 TIME LEFT:  2.00D  GRAD.:     0.043 HEAT: 9.554500

     RMS GRADIENT =  0.04340  IS LESS THAN CUTOFF =  0.05000



 -------------------------------------------------------------------------------
pm3  precise nosym
 InChI=1S/C12H20/c1-5-9-10(6-2)12(8-4)11(9)7-3/h5-6,9-12H,1-2,7-8H2,3-4H3



     GEOMETRY OPTIMISED USING EIGENVECTOR FOLLOWING (EF).     
     SCF FIELD WAS ACHIEVED                                   


                              PM3 CALCULATION
                                                       MOPAC2012 (Version: 13.159M)
                                                       Mon Jun  2 11:04:19 2014
                                                       No. of days left =   6




          FINAL HEAT OF FORMATION =          9.55450 KCAL/MOL =      39.97603 KJ/MOL


          TOTAL ENERGY            =      -1729.92424 EV
          ELECTRONIC ENERGY       =     -11225.93322 EV  POINT GROUP:     C1  
          CORE-CORE REPULSION     =       9496.00898 EV
          COSMO AREA              =        234.59 SQUARE ANGSTROMS
          COSMO VOLUME            =        257.63 CUBIC ANGSTROMS

          GRADIENT NORM           =          0.04340
          IONIZATION POTENTIAL    =          9.938514 EV
          HOMO LUMO ENERGIES (EV) =         -9.939  0.984
          NO. OF FILLED LEVELS    =         34
          MOLECULAR WEIGHT        =        164.290

          MOLECULAR DIMENSIONS (Angstroms)

            Atom       Atom       Distance
            H    31    H    23     8.42084
            H    32    H    22     8.19097
            H    29    H    23     4.43296


          SCF CALCULATIONS        =        208
          COMPUTATION TIME        =          2.901 SECONDS




   ATOM   CHEMICAL          X               Y               Z
  NUMBER   SYMBOL      (ANGSTROMS)     (ANGSTROMS)     (ANGSTROMS)
 
     1       C          0.22982478  *   0.77359426  *   0.06514672  *
     2       C          0.97250492  *  -0.59200512  *   0.04744353  *
     3       C         -1.13063683  *   0.03657511  *  -0.10053078  *
     4       C         -0.39090876  *  -1.33357989  *  -0.05823219  *
     5       C          0.60884728  *   1.70415642  *  -1.06780180  *
     6       C          1.76626329  *  -0.91415451  *   1.29612410  *
     7       C         -0.18496220  *   2.99054296  *  -1.03172983  *
     8       C          3.05892836  *  -0.13097303  *   1.35200814  *
     9       C         -2.07249460  *   0.24908604  *   1.02692060  *
    10       C         -0.54689933  *  -2.13873608  *  -1.29530806  *
    11       C         -3.30883443  *   0.70321063  *   0.85740590  *
    12       C         -0.93196607  *  -3.40956751  *  -1.28564580  *
    13       H          0.31891224  *   1.30494002  *   1.03851075  *
    14       H          1.61110879  *  -0.72482278  *  -0.85360424  *
    15       H         -1.61908638  *   0.24007226  *  -1.07920492  *
    16       H         -0.63159496  *  -1.93254628  *   0.84768412  *
    17       H          1.69385250  *   1.92179572  *  -0.99949915  *
    18       H          0.46569484  *   1.19666886  *  -2.04350635  *
    19       H          1.15679413  *  -0.70776968  *   2.19953991  *
    20       H          1.97707608  *  -2.00161042  *   1.32067003  *
    21       H         -1.26390320  *   2.79820414  *  -1.10909567  *
    22       H         -0.01882573  *   3.54418101  *  -0.09807109  *
    23       H          0.09275037  *   3.65322812  *  -1.86108507  *
    24       H          3.72029068  *  -0.37908920  *   0.51117328  *
    25       H          2.87340071  *   0.95139774  *   1.31116611  *
    26       H          3.61119544  *  -0.33783778  *   2.27723387  *
    27       H         -1.68574354  *   0.01175383  *   2.02636891  *
    28       H         -0.32368141  *  -1.61927717  *  -2.23618261  *
    29       H         -3.99319787  *   0.85978175  *   1.68551405  *
    30       H         -3.72481853  *   0.95087425  *  -0.11569557  *
    31       H         -1.16246959  *  -3.95666226  *  -0.37534129  *
    32       H         -1.04463459  *  -3.99319623  *  -2.19416253  *

           Empirical Formula: C12 H20  =    32 atoms



      MOLECULAR POINT GROUP   :   C1  


                  EIGENVALUES  
 -42.59888 -34.76076 -34.53833 -32.93938 -29.84604 -24.93934 -24.75609 -22.71356
 -20.73948 -19.83382 -19.25869 -19.13777 -17.06254 -16.38098 -15.68403 -15.54068
 -15.32719 -14.87976 -14.50878 -14.34026 -14.10995 -13.74609 -13.13828 -13.06576
 -12.47592 -12.31929 -12.19261 -11.97597 -11.92034 -11.61697 -11.37788 -11.13282
 -10.32252  -9.93851   0.98394   1.20473   3.15091   3.28034   3.37470   3.58885
   3.59954   3.76063   3.81999   3.89355   3.91339   3.95700   3.97219   4.04345
   4.06443   4.11761   4.13331   4.15799   4.27945   4.41810   4.47750   4.50124
   4.65122   4.72566   4.86705   4.95002   4.95928   5.04708   5.29864   5.34258
   5.63495   5.74378   5.94916   6.00095


              NET ATOMIC CHARGES AND DIPOLE CONTRIBUTIONS

  ATOM NO.   TYPE          CHARGE      No. of ELECS.   s-Pop       p-Pop       
    1          C          -0.092217        4.0922     1.19663     2.89559
    2          C          -0.092834        4.0928     1.19676     2.89608
    3          C          -0.061050        4.0610     1.18422     2.87683
    4          C          -0.061328        4.0613     1.18440     2.87692
    5          C          -0.089247        4.0892     1.15751     2.93174
    6          C          -0.088873        4.0889     1.15722     2.93165
    7          C          -0.111062        4.1111     1.13812     2.97294
    8          C          -0.111124        4.1111     1.13837     2.97275
    9          C          -0.127804        4.1278     1.19370     2.93410
   10          C          -0.128850        4.1289     1.19370     2.93515
   11          C          -0.159670        4.1597     1.18296     2.97671
   12          C          -0.158409        4.1584     1.18289     2.97552
   13          H           0.081690        0.9183     0.91831
   14          H           0.080200        0.9198     0.91980
   15          H           0.083748        0.9163     0.91625
   16          H           0.082035        0.9180     0.91796
   17          H           0.050880        0.9491     0.94912
   18          H           0.050409        0.9496     0.94959
   19          H           0.050598        0.9494     0.94940
   20          H           0.051561        0.9484     0.94844
   21          H           0.041332        0.9587     0.95867
   22          H           0.038876        0.9611     0.96112
   23          H           0.036943        0.9631     0.96306
   24          H           0.038217        0.9618     0.96178
   25          H           0.040587        0.9594     0.95941
   26          H           0.037656        0.9623     0.96234
   27          H           0.098488        0.9015     0.90151
   28          H           0.098755        0.9012     0.90125
   29          H           0.078580        0.9214     0.92142
   30          H           0.081735        0.9183     0.91826
   31          H           0.081649        0.9184     0.91835
   32          H           0.078528        0.9215     0.92147
 DIPOLE           X         Y         Z       TOTAL
 POINT-CHG.     0.251     0.121     0.029     0.280
 HYBRID        -0.045    -0.004    -0.004     0.045
 SUM            0.206     0.117     0.025     0.238


          ATOMIC ORBITAL ELECTRON POPULATIONS

    Atom      s        px        py        pz   
    1  C   1.19663   0.95174   0.94701   0.99683
    2  C   1.19676   0.95001   0.95606   0.99000
    3  C   1.18422   0.94150   0.95522   0.98011
    4  C   1.18440   0.95951   0.94620   0.97121
    5  C   1.15751   0.99440   0.95984   0.97750
    6  C   1.15722   0.96479   0.99705   0.96981
    7  C   1.13812   0.99882   0.96550   1.00863
    8  C   1.13837   0.96617   0.99850   1.00808
    9  C   1.19370   0.95939   0.99391   0.98081
   10  C   1.19370   0.99603   0.96250   0.97662
   11  C   1.18296   0.96279   1.00321   1.01072
   12  C   1.18289   1.00386   0.96046   1.01120
   13  H   0.91831
   14  H   0.91980
   15  H   0.91625
   16  H   0.91796
   17  H   0.94912
   18  H   0.94959
   19  H   0.94940
   20  H   0.94844
   21  H   0.95867
   22  H   0.96112
   23  H   0.96306
   24  H   0.96178
   25  H   0.95941
   26  H   0.96234
   27  H   0.90151
   28  H   0.90125
   29  H   0.92142
   30  H   0.91826
   31  H   0.91835
   32  H   0.92147
 *******************************************************************************
 ** Site#: 14399           For non-commercial use only        Version 13.159M **
 *******************************************************************************
 ** Cite this work as: MOPAC2012, James J. P. Stewart, Stewart Computational  **
 ** Chemistry, Version 13.159M web: HTTP://OpenMOPAC.net  Days remaining:   6 **
 *******************************************************************************
 **                                                                           **
 **                                MOPAC2012                                  **
 **                                                                           **
 *******************************************************************************

                            PM3 CALCULATION RESULTS


 *******************************************************************************
 *  CALCULATION DONE:                                Mon Jun  2 11:04:19 2014  *
 *  PM3      - The PM3 Hamiltonian to be used
 *  OLDGEO   - PREVIOUS GEOMETRY TO BE USED
 *  PRECISE  - CRITERIA TO BE INCREASED BY 100 TIMES
 *  NOSYM    - POINT-GROUP SYMMETRY SET TO C1
 *  T=       - A TIME OF 172800.0 SECONDS REQUESTED
 *  DUMP=N   - RESTART FILE WRITTEN EVERY  7200.000 SECONDS
 *  THERMO   - THERMODYNAMIC QUANTITIES TO BE CALCULATED
 *******************************************************************************
oldgeo thermo nosym precise  pm3

   ATOM   CHEMICAL          X               Y               Z
  NUMBER   SYMBOL      (ANGSTROMS)     (ANGSTROMS)     (ANGSTROMS)
 
     1       C          0.22982478  *   0.77359426  *   0.06514672  *
     2       C          0.97250492  *  -0.59200512  *   0.04744353  *
     3       C         -1.13063683  *   0.03657511  *  -0.10053078  *
     4       C         -0.39090876  *  -1.33357989  *  -0.05823219  *
     5       C          0.60884728  *   1.70415642  *  -1.06780180  *
     6       C          1.76626329  *  -0.91415451  *   1.29612410  *
     7       C         -0.18496220  *   2.99054296  *  -1.03172983  *
     8       C          3.05892836  *  -0.13097303  *   1.35200814  *
     9       C         -2.07249460  *   0.24908604  *   1.02692060  *
    10       C         -0.54689933  *  -2.13873608  *  -1.29530806  *
    11       C         -3.30883443  *   0.70321063  *   0.85740590  *
    12       C         -0.93196607  *  -3.40956751  *  -1.28564580  *
    13       H          0.31891224  *   1.30494002  *   1.03851075  *
    14       H          1.61110879  *  -0.72482278  *  -0.85360424  *
    15       H         -1.61908638  *   0.24007226  *  -1.07920492  *
    16       H         -0.63159496  *  -1.93254628  *   0.84768412  *
    17       H          1.69385250  *   1.92179572  *  -0.99949915  *
    18       H          0.46569484  *   1.19666886  *  -2.04350635  *
    19       H          1.15679413  *  -0.70776968  *   2.19953991  *
    20       H          1.97707608  *  -2.00161042  *   1.32067003  *
    21       H         -1.26390320  *   2.79820414  *  -1.10909567  *
    22       H         -0.01882573  *   3.54418101  *  -0.09807109  *
    23       H          0.09275037  *   3.65322812  *  -1.86108507  *
    24       H          3.72029068  *  -0.37908920  *   0.51117328  *
    25       H          2.87340071  *   0.95139774  *   1.31116611  *
    26       H          3.61119544  *  -0.33783778  *   2.27723387  *
    27       H         -1.68574354  *   0.01175383  *   2.02636891  *
    28       H         -0.32368141  *  -1.61927717  *  -2.23618261  *
    29       H         -3.99319787  *   0.85978175  *   1.68551405  *
    30       H         -3.72481853  *   0.95087425  *  -0.11569557  *
    31       H         -1.16246959  *  -3.95666226  *  -0.37534129  *
    32       H         -1.04463459  *  -3.99319623  *  -2.19416253  *
 


          CARTESIAN COORDINATES 

    NO.       ATOM         X         Y         Z

     1         C        0.2298    0.7736    0.0651
     2         C        0.9725   -0.5920    0.0474
     3         C       -1.1306    0.0366   -0.1005
     4         C       -0.3909   -1.3336   -0.0582
     5         C        0.6088    1.7042   -1.0678
     6         C        1.7663   -0.9142    1.2961
     7         C       -0.1850    2.9905   -1.0317
     8         C        3.0589   -0.1310    1.3520
     9         C       -2.0725    0.2491    1.0269
    10         C       -0.5469   -2.1387   -1.2953
    11         C       -3.3088    0.7032    0.8574
    12         C       -0.9320   -3.4096   -1.2856
    13         H        0.3189    1.3049    1.0385
    14         H        1.6111   -0.7248   -0.8536
    15         H       -1.6191    0.2401   -1.0792
    16         H       -0.6316   -1.9325    0.8477
    17         H        1.6939    1.9218   -0.9995
    18         H        0.4657    1.1967   -2.0435
    19         H        1.1568   -0.7078    2.1995
    20         H        1.9771   -2.0016    1.3207
    21         H       -1.2639    2.7982   -1.1091
    22         H       -0.0188    3.5442   -0.0981
    23         H        0.0928    3.6532   -1.8611
    24         H        3.7203   -0.3791    0.5112
    25         H        2.8734    0.9514    1.3112
    26         H        3.6112   -0.3378    2.2772
    27         H       -1.6857    0.0118    2.0264
    28         H       -0.3237   -1.6193   -2.2362
    29         H       -3.9932    0.8598    1.6855
    30         H       -3.7248    0.9509   -0.1157
    31         H       -1.1625   -3.9567   -0.3753
    32         H       -1.0446   -3.9932   -2.1942

  H: (PM3): J. J. P. STEWART, J. COMP. CHEM. 10, 209 (1989).
  C: (PM3): J. J. P. STEWART, J. COMP. CHEM. 10, 209 (1989).

           Empirical Formula: C12 H20  =    32 atoms



      MOLECULAR POINT GROUP   :   C1  


      RHF CALCULATION, NO. OF DOUBLY OCCUPIED LEVELS =   34



          HEAT OF FORMATION =       9.554499 KCALS/MOLE


          INTERNAL COORDINATE DERIVATIVES

   NUMBER  ATOM       BOND         ANGLE      DIHEDRAL

     1       C     -0.000108    -0.000239    -0.000720
     2       C      0.000714    -0.003043     0.000169
     3       C     -0.000640     0.001789    -0.000336
     4       C      0.002822    -0.000096     0.000963
     5       C     -0.003464    -0.000011    -0.000591
     6       C      0.004045    -0.004656     0.000475
     7       C     -0.002487    -0.004848    -0.000040
     8       C     -0.000291    -0.002434     0.000699
     9       C     -0.001391     0.002786    -0.002176
    10       C      0.004094     0.016229    -0.001207
    11       C      0.003821     0.001081    -0.004566
    12       C     -0.002237    -0.022557    -0.001067
    13       H      0.004834    -0.008592     0.001408
    14       H     -0.000508    -0.007829     0.000447
    15       H      0.004271     0.008716    -0.000395
    16       H     -0.006670     0.013131     0.000560
    17       H      0.004449     0.002059     0.000747
    18       H     -0.002081    -0.002404     0.000975
    19       H     -0.001451     0.000289    -0.000187
    20       H      0.002491    -0.005547    -0.001002
    21       H      0.000642    -0.010295     0.000950
    22       H     -0.001364    -0.002530     0.003974
    23       H     -0.001220     0.000220    -0.000608
    24       H     -0.005724     0.004408    -0.002189
    25       H      0.003925    -0.001178    -0.000479
    26       H     -0.003930     0.005805     0.002703
    27       H     -0.000232     0.004634     0.000945
    28       H     -0.002942     0.004229    -0.004167
    29       H     -0.001461    -0.000046    -0.000123
    30       H      0.008308     0.005617     0.001330
    31       H     -0.008066    -0.001530     0.003978
    32       H      0.001853     0.006841    -0.000471


          GRADIENT NORM =   0.04554


          TIME FOR SCF CALCULATION =    0.01

          TIME FOR DERIVATIVES     =    0.01

          MOLECULAR WEIGHT =  164.29



          ROTATIONAL CONSTANTS IN CM(-1)

          A =    0.02646869   B =    0.02637051   C =    0.01784670



           PRINCIPAL MOMENTS OF INERTIA IN UNITS OF 10**(-40)*GRAM-CM**2

          A =     1057.5808   B =     1061.5182   C =     1568.5127


          ORIENTATION OF MOLECULE IN FORCE CALCULATION

    NO.       ATOM         X         Y         Z

     1          C      -0.6321   -0.7545    0.0098
     2          C       0.9225   -0.7545    0.0098
     3          C      -0.6327    0.8017    0.0098
     4          C       0.9238    0.8000   -0.0504
     5          C      -1.2555   -1.4062    1.2262
     6          C       1.5705   -1.4285   -1.1814
     7          C      -2.7652   -1.3259    1.1986
     8          C       1.4994   -2.9356   -1.0754
     9          C      -1.2822    1.4041   -1.1813
    10          C       1.5706    1.4497    1.1168
    11          C      -2.2698    2.2876   -1.0941
    12          C       2.5029    2.3876    0.9960
    13          H      -1.0673   -1.1878   -0.9178
    14          H       1.3545   -1.1537    0.9539
    15          H      -1.0337    1.2364    0.9522
    16          H       1.3247    1.1978   -1.0088
    17          H      -0.9291   -2.4650    1.2672
    18          H      -0.8670   -0.9366    2.1528
    19          H       1.0878   -1.0898   -2.1207
    20          H       2.6262   -1.1000   -1.2533
    21          H      -3.1108   -0.2834    1.1688
    22          H      -3.1828   -1.8329    0.3187
    23          H      -3.2052   -1.7944    2.0880
    24          H       2.0429   -3.3065   -0.1962
    25          H       0.4605   -3.2821   -0.9853
    26          H       1.9345   -3.4187   -1.9592
    27          H      -0.9003    1.0722   -2.1553
    28          H       1.2317    1.1086    2.1036
    29          H      -2.7437    2.7234   -1.9682
    30          H      -2.6750    2.6374   -0.1482
    31          H       2.8630    2.7515    0.0373
    32          H       2.9721    2.8595    1.8539


    FIRST DERIVATIVES WILL BE USED IN THE CALCULATION OF SECOND DERIVATIVES

          ESTIMATED TIME TO COMPLETE CALCULATION =        8.81 SECONDS

    FOR POINT-GROUP C1   THERE ARE   1 UNIQUE SYMMETRY FUNCTIONS.

 STEP:   1 TIME =     0.06 SECS, INTEGRAL =      0.06 TIME LEFT: 172799.92
 STEP:   2 TIME =     0.06 SECS, INTEGRAL =      0.12 TIME LEFT: 172799.86
 STEP:   3 TIME =     0.06 SECS, INTEGRAL =      0.18 TIME LEFT: 172799.80
 STEP:   4 TIME =     0.06 SECS, INTEGRAL =      0.24 TIME LEFT: 172799.74
 STEP:   5 TIME =     0.06 SECS, INTEGRAL =      0.31 TIME LEFT: 172799.67
 STEP:   6 TIME =     0.06 SECS, INTEGRAL =      0.37 TIME LEFT: 172799.61
 STEP:   7 TIME =     0.06 SECS, INTEGRAL =      0.43 TIME LEFT: 172799.55
 STEP:   8 TIME =     0.06 SECS, INTEGRAL =      0.49 TIME LEFT: 172799.49
 STEP:   9 TIME =     0.06 SECS, INTEGRAL =      0.55 TIME LEFT: 172799.43
 STEP:  10 TIME =     0.06 SECS, INTEGRAL =      0.61 TIME LEFT: 172799.37
 STEP:  11 TIME =     0.06 SECS, INTEGRAL =      0.67 TIME LEFT: 172799.31
 STEP:  12 TIME =     0.06 SECS, INTEGRAL =      0.73 TIME LEFT: 172799.25
 STEP:  13 TIME =     0.06 SECS, INTEGRAL =      0.79 TIME LEFT: 172799.19
 STEP:  14 TIME =     0.06 SECS, INTEGRAL =      0.85 TIME LEFT: 172799.13
 STEP:  15 TIME =     0.06 SECS, INTEGRAL =      0.91 TIME LEFT: 172799.07
 STEP:  16 TIME =     0.07 SECS, INTEGRAL =      0.98 TIME LEFT: 172799.00
 STEP:  17 TIME =     0.06 SECS, INTEGRAL =      1.04 TIME LEFT: 172798.93
 STEP:  18 TIME =     0.06 SECS, INTEGRAL =      1.10 TIME LEFT: 172798.87
 STEP:  19 TIME =     0.06 SECS, INTEGRAL =      1.16 TIME LEFT: 172798.81
 STEP:  20 TIME =     0.06 SECS, INTEGRAL =      1.22 TIME LEFT: 172798.76
 STEP:  21 TIME =     0.06 SECS, INTEGRAL =      1.28 TIME LEFT: 172798.70
 STEP:  22 TIME =     0.06 SECS, INTEGRAL =      1.34 TIME LEFT: 172798.64
 STEP:  23 TIME =     0.06 SECS, INTEGRAL =      1.40 TIME LEFT: 172798.58
 STEP:  24 TIME =     0.06 SECS, INTEGRAL =      1.46 TIME LEFT: 172798.52
 STEP:  25 TIME =     0.06 SECS, INTEGRAL =      1.52 TIME LEFT: 172798.46
 STEP:  26 TIME =     0.06 SECS, INTEGRAL =      1.58 TIME LEFT: 172798.40
 STEP:  27 TIME =     0.06 SECS, INTEGRAL =      1.64 TIME LEFT: 172798.34
 STEP:  28 TIME =     0.06 SECS, INTEGRAL =      1.70 TIME LEFT: 172798.28
 STEP:  29 TIME =     0.06 SECS, INTEGRAL =      1.77 TIME LEFT: 172798.21
 STEP:  30 TIME =     0.06 SECS, INTEGRAL =      1.82 TIME LEFT: 172798.15
 STEP:  31 TIME =     0.06 SECS, INTEGRAL =      1.89 TIME LEFT: 172798.09
 STEP:  32 TIME =     0.06 SECS, INTEGRAL =      1.95 TIME LEFT: 172798.03
 STEP:  33 TIME =     0.06 SECS, INTEGRAL =      2.01 TIME LEFT: 172797.97
 STEP:  34 TIME =     0.06 SECS, INTEGRAL =      2.07 TIME LEFT: 172797.91
 STEP:  35 TIME =     0.06 SECS, INTEGRAL =      2.13 TIME LEFT: 172797.84
 STEP:  36 TIME =     0.06 SECS, INTEGRAL =      2.19 TIME LEFT: 172797.79
 STEP:  37 TIME =     0.06 SECS, INTEGRAL =      2.26 TIME LEFT: 172797.72
 STEP:  38 TIME =     0.06 SECS, INTEGRAL =      2.32 TIME LEFT: 172797.66
 STEP:  39 TIME =     0.06 SECS, INTEGRAL =      2.38 TIME LEFT: 172797.60
 STEP:  40 TIME =     0.06 SECS, INTEGRAL =      2.44 TIME LEFT: 172797.53
 STEP:  41 TIME =     0.06 SECS, INTEGRAL =      2.51 TIME LEFT: 172797.47
 STEP:  42 TIME =     0.06 SECS, INTEGRAL =      2.57 TIME LEFT: 172797.41
 STEP:  43 TIME =     0.06 SECS, INTEGRAL =      2.63 TIME LEFT: 172797.35
 STEP:  44 TIME =     0.06 SECS, INTEGRAL =      2.69 TIME LEFT: 172797.28
 STEP:  45 TIME =     0.07 SECS, INTEGRAL =      2.76 TIME LEFT: 172797.22
 STEP:  46 TIME =     0.07 SECS, INTEGRAL =      2.83 TIME LEFT: 172797.15
 STEP:  47 TIME =     0.06 SECS, INTEGRAL =      2.89 TIME LEFT: 172797.09
 STEP:  48 TIME =     0.06 SECS, INTEGRAL =      2.95 TIME LEFT: 172797.03
 STEP:  49 TIME =     0.06 SECS, INTEGRAL =      3.01 TIME LEFT: 172796.96
 STEP:  50 TIME =     0.06 SECS, INTEGRAL =      3.07 TIME LEFT: 172796.90
 STEP:  51 TIME =     0.06 SECS, INTEGRAL =      3.14 TIME LEFT: 172796.84
 STEP:  52 TIME =     0.06 SECS, INTEGRAL =      3.20 TIME LEFT: 172796.78
 STEP:  53 TIME =     0.06 SECS, INTEGRAL =      3.26 TIME LEFT: 172796.72
 STEP:  54 TIME =     0.06 SECS, INTEGRAL =      3.32 TIME LEFT: 172796.65
 STEP:  55 TIME =     0.06 SECS, INTEGRAL =      3.38 TIME LEFT: 172796.59
 STEP:  56 TIME =     0.06 SECS, INTEGRAL =      3.45 TIME LEFT: 172796.53
 STEP:  57 TIME =     0.06 SECS, INTEGRAL =      3.51 TIME LEFT: 172796.47
 STEP:  58 TIME =     0.06 SECS, INTEGRAL =      3.57 TIME LEFT: 172796.41
 STEP:  59 TIME =     0.06 SECS, INTEGRAL =      3.63 TIME LEFT: 172796.35
 STEP:  60 TIME =     0.07 SECS, INTEGRAL =      3.70 TIME LEFT: 172796.28
 STEP:  61 TIME =     0.06 SECS, INTEGRAL =      3.76 TIME LEFT: 172796.21
 STEP:  62 TIME =     0.06 SECS, INTEGRAL =      3.82 TIME LEFT: 172796.16
 STEP:  63 TIME =     0.06 SECS, INTEGRAL =      3.88 TIME LEFT: 172796.09
 STEP:  64 TIME =     0.06 SECS, INTEGRAL =      3.95 TIME LEFT: 172796.03
 STEP:  65 TIME =     0.06 SECS, INTEGRAL =      4.01 TIME LEFT: 172795.97
 STEP:  66 TIME =     0.06 SECS, INTEGRAL =      4.07 TIME LEFT: 172795.91
 STEP:  67 TIME =     0.07 SECS, INTEGRAL =      4.13 TIME LEFT: 172795.84
 STEP:  68 TIME =     0.06 SECS, INTEGRAL =      4.20 TIME LEFT: 172795.78
 STEP:  69 TIME =     0.06 SECS, INTEGRAL =      4.26 TIME LEFT: 172795.72
 STEP:  70 TIME =     0.06 SECS, INTEGRAL =      4.32 TIME LEFT: 172795.66
 STEP:  71 TIME =     0.06 SECS, INTEGRAL =      4.38 TIME LEFT: 172795.60
 STEP:  72 TIME =     0.06 SECS, INTEGRAL =      4.44 TIME LEFT: 172795.53
 STEP:  73 TIME =     0.06 SECS, INTEGRAL =      4.50 TIME LEFT: 172795.47
 STEP:  74 TIME =     0.06 SECS, INTEGRAL =      4.56 TIME LEFT: 172795.41
 STEP:  75 TIME =     0.06 SECS, INTEGRAL =      4.63 TIME LEFT: 172795.35
 STEP:  76 TIME =     0.06 SECS, INTEGRAL =      4.69 TIME LEFT: 172795.29
 STEP:  77 TIME =     0.07 SECS, INTEGRAL =      4.76 TIME LEFT: 172795.22
 STEP:  78 TIME =     0.06 SECS, INTEGRAL =      4.82 TIME LEFT: 172795.16
 STEP:  79 TIME =     0.06 SECS, INTEGRAL =      4.88 TIME LEFT: 172795.10
 STEP:  80 TIME =     0.07 SECS, INTEGRAL =      4.95 TIME LEFT: 172795.03
 STEP:  81 TIME =     0.06 SECS, INTEGRAL =      5.01 TIME LEFT: 172794.97
 STEP:  82 TIME =     0.06 SECS, INTEGRAL =      5.07 TIME LEFT: 172794.90
 STEP:  83 TIME =     0.06 SECS, INTEGRAL =      5.14 TIME LEFT: 172794.84
 STEP:  84 TIME =     0.06 SECS, INTEGRAL =      5.20 TIME LEFT: 172794.78
 STEP:  85 TIME =     0.06 SECS, INTEGRAL =      5.26 TIME LEFT: 172794.72
 STEP:  86 TIME =     0.06 SECS, INTEGRAL =      5.32 TIME LEFT: 172794.65
 STEP:  87 TIME =     0.06 SECS, INTEGRAL =      5.39 TIME LEFT: 172794.59
 STEP:  88 TIME =     0.07 SECS, INTEGRAL =      5.45 TIME LEFT: 172794.52
 STEP:  89 TIME =     0.06 SECS, INTEGRAL =      5.52 TIME LEFT: 172794.46
 STEP:  90 TIME =     0.06 SECS, INTEGRAL =      5.58 TIME LEFT: 172794.40
 STEP:  91 TIME =     0.07 SECS, INTEGRAL =      5.64 TIME LEFT: 172794.33
 STEP:  92 TIME =     0.06 SECS, INTEGRAL =      5.71 TIME LEFT: 172794.27
 STEP:  93 TIME =     0.06 SECS, INTEGRAL =      5.77 TIME LEFT: 172794.21
 STEP:  94 TIME =     0.06 SECS, INTEGRAL =      5.83 TIME LEFT: 172794.15
 STEP:  95 TIME =     0.06 SECS, INTEGRAL =      5.89 TIME LEFT: 172794.08
 STEP:  96 TIME =     0.06 SECS, INTEGRAL =      5.96 TIME LEFT: 172794.02

(To convert to Hartree/Bohr^2, multiply by (10^(-21) x N x a0^2)/(4.184 x 627.51) = 0.0642)


           FORCE MATRIX IN MILLIDYNES/ANGSTROM


                  C  1       C  2       C  3       C  4       C  5       C  6
 ------------------------------------------------------------------------------
     C    1  14.336702
     C    2   3.240440  14.362815
     C    3   3.166462   1.772173  14.722744
     C    4   1.771923   3.189296   3.108322  14.743078
     C    5   4.309334   0.541064   0.535395   0.039781  14.488076
     C    6   0.535420   4.312408   0.039773   0.541607   0.034182  14.492430
     C    7   0.658669   0.049617   0.031113   0.005025   4.470207   0.006763
     C    8   0.031564   0.665149   0.004815   0.050454   0.004622   4.458220
     C    9   0.588017   0.042789   5.039519   0.591022   0.033690   0.006820
     C   10   0.043061   0.589021   0.593678   5.045327   0.007067   0.033961
     C   11   0.033707   0.003636   0.857150   0.036505   0.005308   0.001426
     C   12   0.003770   0.035564   0.034975   0.856606   0.001161   0.005469
     H   13   4.362765   0.436414   0.438088   0.025732   0.428407   0.032966
     H   14   0.437748   4.366802   0.025876   0.436361   0.039734   0.428948
     H   15   0.435151   0.026058   4.362922   0.434602   0.031877   0.001587
     H   16   0.026014   0.434688   0.434767   4.367607   0.001584   0.037653
     H   17   0.430897   0.020418   0.047068   0.002951   4.438626   0.001859
     H   18   0.449776   0.022527   0.023440   0.002115   4.423989   0.000894
     H   19   0.025490   0.449728   0.002006   0.021016   0.001284   4.422293
     H   20   0.046305   0.433031   0.003314   0.019424   0.005886   4.462193
     H   21   0.020470   0.001815   0.007498   0.000503   0.463082   0.000480
     H   22   0.023571   0.001558   0.002253   0.000377   0.463621   0.000564
     H   23   0.051993   0.008260   0.002200   0.000769   0.450747   0.001362
     H   24   0.002083   0.023023   0.000433   0.001550   0.000884   0.463476
     H   25   0.007643   0.023038   0.000615   0.001977   0.004645   0.463357
     H   26   0.002158   0.051606   0.000632   0.008366   0.000220   0.450605
     H   27   0.017464   0.001599   0.436700   0.022339   0.001101   0.003547
     H   28   0.001573   0.020075   0.019792   0.436541   0.003634   0.001205
     H   29   0.017099   0.001952   0.138022   0.016387   0.002105   0.000721
     H   30   0.010269   0.001051   0.098898   0.009524   0.001420   0.000190
     H   31   0.000964   0.009582   0.010020   0.098952   0.000329   0.001526
     H   32   0.001838   0.016400   0.016796   0.138233   0.000555   0.001917


                  C  7       C  8       C  9       C 10       C 11       C 12
 ------------------------------------------------------------------------------
     C    7  14.373582
     C    8   0.000527  14.364798
     C    9   0.003979   0.001534  18.304707
     C   10   0.001228   0.007051   0.034262  18.310038
     C   11   0.001441   0.001083  11.066190   0.006160  18.034250
     C   12   0.001270   0.002188   0.005767  11.067218   0.001880  18.035715
     H   13   0.030496   0.008343   0.038273   0.002959   0.003274   0.000634
     H   14   0.002664   0.032628   0.002641   0.038587   0.000684   0.003239
     H   15   0.008498   0.000644   0.443745   0.038399   0.052528   0.003034
     H   16   0.000537   0.002791   0.039003   0.444253   0.002913   0.052192
     H   17   0.439547   0.003004   0.006347   0.001482   0.001542   0.000383
     H   18   0.437729   0.000332   0.000819   0.003056   0.000782   0.000742
     H   19   0.000687   0.438240   0.003013   0.000699   0.000751   0.000595
     H   20   0.001527   0.439581   0.001034   0.002529   0.000469   0.000884
     H   21   4.712393   0.000345   0.001478   0.000649   0.001343   0.000469
     H   22   4.727557   0.000264   0.001082   0.000238   0.000311   0.000346
     H   23   4.753668   0.000387   0.000561   0.000764   0.000648   0.000341
     H   24   0.000248   4.725400   0.000382   0.000775   0.000193   0.000346
     H   25   0.000565   4.703929   0.000742   0.000553   0.000323   0.000397
     H   26   0.000320   4.758160   0.000568   0.001444   0.000294   0.000499
     H   27   0.000630   0.000894   4.764230   0.001584   0.454143   0.000720
     H   28   0.000910   0.000540   0.001515   4.763358   0.000744   0.453885
     H   29   0.000355   0.000339   0.461067   0.002638   5.107293   0.000568
     H   30   0.001688   0.000258   0.490849   0.001579   5.067757   0.000804
     H   31   0.000329   0.000721   0.001636   0.490535   0.001020   5.070722
     H   32   0.000307   0.000717   0.002722   0.460739   0.000431   5.106317


                  H 13       H 14       H 15       H 16       H 17       H 18
 ------------------------------------------------------------------------------
     H   13   4.879698
     H   14   0.028783   4.884139
     H   15   0.028229   0.002426   4.874761
     H   16   0.002483   0.028366   0.027660   4.879691
     H   17   0.026448   0.011786   0.003026   0.000535   5.041950
     H   18   0.042116   0.021575   0.025885   0.000507   0.565024   5.037684
     H   19   0.027375   0.042127   0.000527   0.019553   0.000305   0.000488
     H   20   0.002954   0.024585   0.000545   0.011802   0.000350   0.000336
     H   21   0.002017   0.000485   0.012108   0.000287   0.048282   0.024100
     H   22   0.021103   0.000519   0.000553   0.000089   0.024908   0.047693
     H   23   0.002043   0.000630   0.000601   0.000122   0.028383   0.030681
     H   24   0.000492   0.021027   0.000114   0.000535   0.001249   0.000186
     H   25   0.011652   0.002224   0.000255   0.000509   0.008720   0.000306
     H   26   0.000584   0.002055   0.000132   0.000658   0.000354   0.000166
     H   27   0.017696   0.000785   0.036365   0.024696   0.000370   0.000630
     H   28   0.000809   0.021527   0.021202   0.036532   0.000564   0.008020
     H   29   0.000981   0.000245   0.002051   0.000897   0.000364   0.000215
     H   30   0.000768   0.000199   0.029642   0.000756   0.000513   0.000244
     H   31   0.000228   0.000786   0.000796   0.029504   0.000125   0.000180
     H   32   0.000227   0.000982   0.001026   0.001970   0.000223   0.000196


                  H 19       H 20       H 21       H 22       H 23       H 24
 ------------------------------------------------------------------------------
     H   19   5.037893
     H   20   0.568190   5.070341
     H   21   0.000079   0.000112   5.445148
     H   22   0.000170   0.000144   0.575350   5.469644
     H   23   0.000149   0.000334   0.568472   0.570315   5.489321
     H   24   0.047657   0.025867   0.000157   0.000079   0.000096   5.468296
     H   25   0.022873   0.048402   0.000171   0.000225   0.000152   0.576092
     H   26   0.031332   0.027360   0.000111   0.000055   0.000107   0.570187
     H   27   0.007858   0.000543   0.000455   0.000447   0.000179   0.000309
     H   28   0.000638   0.000493   0.000254   0.000303   0.000260   0.000169
     H   29   0.000206   0.000195   0.000280   0.000187   0.000139   0.000073
     H   30   0.000166   0.000160   0.003758   0.000315   0.000387   0.000134
     H   31   0.000160   0.000225   0.000079   0.000107   0.000117   0.000131
     H   32   0.000096   0.000259   0.000115   0.000099   0.000128   0.000106


                  H 25       H 26       H 27       H 28       H 29       H 30
 ------------------------------------------------------------------------------
     H   25   5.438625
     H   26   0.566775   5.492321
     H   27   0.000240   0.000221   5.135772
     H   28   0.000180   0.000241   0.000730   5.134521
     H   29   0.000081   0.000089   0.078354   0.000278   5.494782
     H   30   0.000144   0.000106   0.117107   0.000511   0.421312   5.462514
     H   31   0.000139   0.000169   0.000494   0.117279   0.000246   0.000376
     H   32   0.000102   0.000132   0.000279   0.078419   0.000333   0.000255


                  H 31       H 32
 ------------------------------
     H   31   5.466193
     H   32   0.422178   5.494113


          HEAT OF FORMATION =       9.554499 KCALS/MOLE

          ZERO POINT ENERGY     179.870 KCAL/MOL


           NORMAL COORDINATE ANALYSIS (Total motion = 1 Angstrom)


   Root No.       1         2         3         4         5         6         7         8

                 1 A       2 A       3 A       4 A       5 A       6 A       7 A       8 A   

                  36.0      62.4      71.6      81.0     109.0     138.1     167.5     182.2
  
           1   -0.0007   -0.0022    0.0085   -0.0043    0.0060    0.0050   -0.0054    0.0131
           2    0.0019   -0.0108   -0.0001   -0.0071   -0.0118    0.0065    0.0047   -0.0073
           3   -0.0070    0.0028   -0.0013   -0.0108   -0.0031   -0.0189    0.0029    0.0073
           4   -0.0008   -0.0019    0.0085   -0.0040    0.0061    0.0047   -0.0052    0.0125
           5    0.0004   -0.0070   -0.0087   -0.0089    0.0029    0.0106    0.0023    0.0040
           6    0.0047   -0.0003    0.0025   -0.0102    0.0102   -0.0156    0.0053    0.0020
           7    0.0012   -0.0060    0.0170   -0.0023   -0.0085   -0.0003   -0.0006    0.0012
           8    0.0019   -0.0110   -0.0003   -0.0071   -0.0121    0.0062    0.0051   -0.0084
           9    0.0069    0.0012    0.0022   -0.0036    0.0008   -0.0143    0.0131    0.0033
          10    0.0008   -0.0057    0.0170   -0.0027   -0.0087    0.0007   -0.0001    0.0011
          11   -0.0001   -0.0074   -0.0086   -0.0088    0.0029    0.0102    0.0018    0.0046
          12   -0.0048   -0.0021    0.0022   -0.0044    0.0036   -0.0142    0.0126    0.0007
          13   -0.0134    0.0057   -0.0011   -0.0059    0.0001    0.0223   -0.0052    0.0017
          14   -0.0104   -0.0136    0.0014   -0.0075   -0.0206   -0.0087   -0.0214   -0.0045
          15   -0.0203    0.0056   -0.0057   -0.0117   -0.0110   -0.0184   -0.0115    0.0017
          16    0.0092   -0.0040    0.0053    0.0001    0.0254    0.0035   -0.0127   -0.0065
          17   -0.0102   -0.0079   -0.0129   -0.0045    0.0072   -0.0140    0.0065    0.0028
          18    0.0164   -0.0010    0.0030   -0.0105    0.0185   -0.0012   -0.0011   -0.0082
          19   -0.0133    0.0050   -0.0001   -0.0036    0.0020    0.0227   -0.0048    0.0025
          20   -0.0134   -0.0296    0.0198    0.0470    0.0214   -0.0082   -0.0096    0.0165
          21   -0.0384    0.0093   -0.0094    0.0181    0.0065    0.0140    0.0071   -0.0223
          22    0.0121   -0.0044   -0.0302    0.0460   -0.0151   -0.0257   -0.0038   -0.0121
          23   -0.0093   -0.0079   -0.0124   -0.0052    0.0071   -0.0114    0.0065    0.0034
          24    0.0326    0.0002   -0.0124    0.0092   -0.0129    0.0334    0.0039    0.0024
          25   -0.0098    0.0005    0.0148   -0.0043   -0.0105   -0.0062    0.0154   -0.0103
          26    0.0158   -0.0047    0.0039    0.0020   -0.0135    0.0137    0.0035   -0.0221
          27    0.0202    0.0009    0.0059    0.0023    0.0012   -0.0073    0.0028    0.0031
          28    0.0128   -0.0087    0.0132   -0.0048   -0.0113   -0.0126    0.0128   -0.0067
          29    0.0085    0.0018   -0.0041   -0.0134    0.0150    0.0003    0.0035    0.0102
          30   -0.0164   -0.0058    0.0019   -0.0007   -0.0020   -0.0005    0.0042    0.0022
          31   -0.0108    0.0610   -0.0091   -0.0003    0.0047   -0.0106    0.0039    0.0060
          32    0.0128    0.0629   -0.0234    0.0057    0.0035    0.0079   -0.0075   -0.0042
          33    0.0405    0.0003    0.0121    0.0122    0.0018    0.0047   -0.0207    0.0053
          34    0.0132   -0.0417   -0.0345   -0.0184    0.0083   -0.0037    0.0067    0.0022
          35    0.0060    0.0340    0.0432    0.0009   -0.0056   -0.0056    0.0079    0.0020
          36   -0.0335   -0.0118    0.0016    0.0051   -0.0116    0.0256   -0.0128    0.0066
          37    0.0073   -0.0036    0.0090   -0.0056    0.0181    0.0042   -0.0040    0.0168
          38    0.0120   -0.0131    0.0052   -0.0033   -0.0128    0.0093    0.0172   -0.0117
          39   -0.0156    0.0046   -0.0041   -0.0117   -0.0084   -0.0197   -0.0040    0.0069
          40   -0.0095    0.0012    0.0042   -0.0053    0.0011    0.0025   -0.0053    0.0231
          41    0.0074   -0.0050   -0.0119   -0.0119    0.0103    0.0179   -0.0039    0.0059
          42    0.0117   -0.0009    0.0031   -0.0107    0.0156   -0.0107    0.0025   -0.0027
          43    0.0106   -0.0062    0.0212    0.0003   -0.0140    0.0000   -0.0051    0.0002
          44   -0.0075   -0.0120   -0.0006   -0.0118   -0.0186   -0.0005    0.0041   -0.0078
          45    0.0153    0.0015    0.0042   -0.0001    0.0016   -0.0108    0.0107    0.0027
          46   -0.0075   -0.0093    0.0200   -0.0020   -0.0130    0.0047   -0.0033   -0.0025
          47   -0.0080   -0.0087   -0.0118   -0.0055    0.0015    0.0163    0.0009    0.0077
          48   -0.0117   -0.0042    0.0021   -0.0027    0.0010   -0.0091    0.0102    0.0008
          49   -0.0114    0.0165   -0.0136   -0.0419   -0.0274    0.0228   -0.0139   -0.0104
          50   -0.0101   -0.0103   -0.0026   -0.0193   -0.0299   -0.0097   -0.0258   -0.0080
          51   -0.0261    0.0071   -0.0097   -0.0359   -0.0359   -0.0415   -0.0476    0.0045
          52   -0.0259    0.0031    0.0023    0.0268    0.0212    0.0400    0.0066   -0.0035
          53   -0.0181   -0.0077   -0.0073   -0.0370   -0.0497   -0.0231   -0.0533   -0.0090
          54   -0.0114    0.0038   -0.0027   -0.0103   -0.0050   -0.0184   -0.0006    0.0060
          55    0.0150   -0.0056    0.0221   -0.0210    0.0616    0.0143   -0.0257   -0.0249
          56   -0.0218   -0.0084    0.0064   -0.0295    0.0356   -0.0242    0.0024    0.0010
          57    0.0093   -0.0004    0.0014   -0.0086    0.0100   -0.0100    0.0039    0.0003
          58    0.0089   -0.0041    0.0134   -0.0102    0.0354    0.0092   -0.0156   -0.0074
          59   -0.0084   -0.0083   -0.0361    0.0250   -0.0169   -0.0332    0.0125   -0.0005
          60    0.0201   -0.0032    0.0164   -0.0274    0.0565   -0.0014   -0.0143   -0.0318
          61   -0.0146   -0.0060    0.0126    0.0320    0.0296    0.0218    0.0015    0.0187
          62   -0.0139   -0.0332    0.0241    0.0597    0.0315   -0.0074   -0.0050    0.0209
          63   -0.0419    0.0134   -0.0104    0.0476    0.0382    0.0551    0.0994   -0.0606
          64   -0.0019    0.0082   -0.0040   -0.0378   -0.0208    0.0052   -0.0161    0.0086
          65   -0.0137   -0.0315    0.0248    0.0812    0.0566    0.0203    0.0681   -0.0045
          66   -0.0436    0.0089   -0.0104    0.0147   -0.0030    0.0059   -0.0322   -0.0132
          67   -0.0230    0.0121   -0.0081   -0.0036   -0.0016    0.0411    0.0003   -0.0185
          68   -0.0147   -0.0368    0.0252    0.0429    0.0095   -0.0374   -0.0827    0.0510
          69   -0.0438    0.0091   -0.0105    0.0160   -0.0016    0.0077   -0.0287   -0.0148
          70    0.0142   -0.0029   -0.0500    0.0713   -0.0604   -0.0185    0.0394    0.0945
          71    0.0009   -0.0075   -0.0330    0.0211   -0.0227   -0.0028    0.0095   -0.0009
          72    0.0356   -0.0006   -0.0089    0.0047    0.0024    0.0326   -0.0215   -0.0654
          73    0.0127   -0.0044   -0.0390    0.0573   -0.0270   -0.0315    0.0012   -0.0055
          74   -0.0098   -0.0075    0.0096   -0.0336    0.0297    0.0122    0.0042    0.0170
          75    0.0383    0.0024   -0.0293    0.0306   -0.0626    0.0597    0.0547    0.1356
          76    0.0112   -0.0064   -0.0295    0.0453    0.0098   -0.0512   -0.0451   -0.1307
          77   -0.0180   -0.0086   -0.0136   -0.0036    0.0138   -0.0409    0.0060   -0.0047
          78    0.0370   -0.0004   -0.0114    0.0079   -0.0044    0.0371   -0.0161   -0.0513
          79   -0.0180   -0.0427    0.0315   -0.0097   -0.0237   -0.0072    0.0393   -0.0334
          80    0.0293   -0.0544    0.0292    0.0063   -0.0277    0.0256    0.0089   -0.0477
          81    0.0124    0.0009    0.0039   -0.0012    0.0008   -0.0115    0.0099    0.0028
          82    0.0220    0.0159    0.0482    0.0043   -0.0277   -0.0321    0.0292   -0.0204
          83    0.0176   -0.0167   -0.0384   -0.0284    0.0408   -0.0044    0.0030    0.0207
          84   -0.0102   -0.0039    0.0020   -0.0027    0.0012   -0.0085    0.0093    0.0012
          85   -0.0195    0.0715   -0.0140   -0.0023    0.0051   -0.0158    0.0197   -0.0032
          86    0.0230    0.0729   -0.0222    0.0132    0.0043    0.0144   -0.0140   -0.0124
          87    0.0503   -0.0005    0.0154    0.0170    0.0020    0.0107   -0.0325    0.0062
          88   -0.0031    0.1049   -0.0258    0.0054    0.0182   -0.0095   -0.0219    0.0302
          89   -0.0002    0.1144   -0.0494    0.0014    0.0181   -0.0036   -0.0113    0.0206
          90    0.0486    0.0001    0.0146    0.0162    0.0021    0.0095   -0.0305    0.0065
          91    0.0046   -0.0670   -0.0699   -0.0276    0.0246    0.0172   -0.0105    0.0168
          92   -0.0027    0.0529    0.0781    0.0158   -0.0316    0.0003    0.0076   -0.0079
          93   -0.0400   -0.0141    0.0016    0.0074   -0.0154    0.0358   -0.0194    0.0084
          94    0.0222   -0.0462   -0.0420   -0.0216    0.0100   -0.0167    0.0185   -0.0044
          95    0.0124    0.0439    0.0509   -0.0013    0.0017   -0.0172    0.0123    0.0042
          96   -0.0420   -0.0149    0.0015    0.0081   -0.0166    0.0392   -0.0217    0.0090


   Root No.       9        10        11        12        13        14        15        16

                 9 A      10 A      11 A      12 A      13 A      14 A      15 A      16 A   

                 213.9     226.5     253.7     318.3     344.6     384.4     404.3     440.4
  
           1    0.0076   -0.0045    0.0055   -0.0048   -0.0025   -0.0026    0.0029    0.0005
           2    0.0010   -0.0021   -0.0070    0.0136   -0.0109    0.0131   -0.0009   -0.0248
           3    0.0103   -0.0049    0.0037    0.0005   -0.0101   -0.0254    0.0118   -0.0242
           4    0.0068   -0.0027    0.0058   -0.0024    0.0018   -0.0056   -0.0041    0.0009
           5    0.0016   -0.0088   -0.0064   -0.0018    0.0036   -0.0067    0.0008    0.0014
           6   -0.0021    0.0065    0.0031    0.0058    0.0003    0.0056    0.0358   -0.0047
           7    0.0047    0.0013    0.0060    0.0156    0.0089    0.0063   -0.0039   -0.0247
           8   -0.0003   -0.0020   -0.0084    0.0127   -0.0144    0.0107    0.0017   -0.0271
           9   -0.0023   -0.0141   -0.0011   -0.0050   -0.0235   -0.0077   -0.0301   -0.0062
          10    0.0048    0.0004    0.0042    0.0178    0.0057    0.0070   -0.0009   -0.0169
          11    0.0025   -0.0090   -0.0048    0.0028   -0.0024   -0.0057   -0.0004    0.0129
          12   -0.0086   -0.0034    0.0058   -0.0092   -0.0018    0.0363   -0.0031    0.0248
          13   -0.0004   -0.0038    0.0029   -0.0180   -0.0190    0.0126    0.0135   -0.0018
          14    0.0162    0.0188   -0.0057   -0.0056    0.0049    0.0187   -0.0185    0.0123
          15    0.0137    0.0083    0.0029   -0.0156   -0.0073   -0.0210    0.0061   -0.0041
          16   -0.0062    0.0195   -0.0250   -0.0056    0.0004   -0.0094   -0.0285   -0.0041
          17   -0.0031   -0.0038   -0.0083   -0.0111    0.0301   -0.0044    0.0038   -0.0125
          18   -0.0071    0.0153   -0.0149    0.0075   -0.0111    0.0020    0.0265   -0.0041
          19   -0.0012   -0.0049    0.0034   -0.0199   -0.0220    0.0146    0.0178   -0.0030
          20    0.0050   -0.0059    0.0018   -0.0126   -0.0082    0.0014    0.0019    0.0024
          21   -0.0177    0.0102   -0.0041    0.0175    0.0162   -0.0010   -0.0093    0.0038
          22    0.0006    0.0079   -0.0007    0.0085   -0.0135    0.0002    0.0005    0.0007
          23   -0.0029   -0.0050   -0.0093   -0.0136    0.0363   -0.0063    0.0020   -0.0167
          24    0.0003   -0.0159   -0.0038   -0.0145    0.0219   -0.0014   -0.0070   -0.0043
          25   -0.0149    0.0060    0.0247   -0.0090    0.0182   -0.0117   -0.0061   -0.0078
          26   -0.0180    0.0151    0.0123   -0.0122   -0.0179   -0.0107    0.0094   -0.0030
          27   -0.0001   -0.0079    0.0006   -0.0044   -0.0277   -0.0098   -0.0313   -0.0053
          28    0.0006   -0.0122   -0.0319    0.0079    0.0057   -0.0017    0.0081    0.0241
          29   -0.0009    0.0016    0.0352    0.0208   -0.0055   -0.0009   -0.0065    0.0248
          30   -0.0039   -0.0031    0.0035   -0.0107   -0.0003    0.0422   -0.0051    0.0055
          31   -0.0003   -0.0029    0.0102   -0.0010    0.0222   -0.0042   -0.0065   -0.0014
          32   -0.0023    0.0040   -0.0053   -0.0040   -0.0197   -0.0030    0.0077    0.0043
          33    0.0078    0.0099    0.0126    0.0032    0.0302    0.0052    0.0055   -0.0007
          34    0.0007   -0.0062   -0.0017    0.0152    0.0009   -0.0052    0.0034    0.0293
          35    0.0006   -0.0048    0.0045    0.0182   -0.0008   -0.0039   -0.0008    0.0253
          36    0.0100   -0.0050   -0.0047    0.0214   -0.0025   -0.0191    0.0029    0.0148
          37    0.0064   -0.0027    0.0052   -0.0028    0.0051   -0.0024    0.0153    0.0115
          38   -0.0074   -0.0102   -0.0086    0.0234   -0.0213    0.0186   -0.0168   -0.0429
          39    0.0141   -0.0010    0.0044   -0.0057   -0.0085   -0.0278    0.0127   -0.0198
          40    0.0155   -0.0134    0.0153   -0.0096    0.0014   -0.0239   -0.0016   -0.0021
          41    0.0054   -0.0074   -0.0081    0.0006   -0.0027   -0.0288    0.0097   -0.0007
          42   -0.0046    0.0118   -0.0031    0.0093   -0.0024    0.0046    0.0378   -0.0046
          43    0.0107    0.0005   -0.0008    0.0268    0.0002   -0.0058   -0.0078   -0.0535
          44    0.0070   -0.0018   -0.0118    0.0232   -0.0114    0.0084    0.0116   -0.0547
          45   -0.0028   -0.0137   -0.0016   -0.0051   -0.0276   -0.0113   -0.0358   -0.0056
          46    0.0035    0.0094    0.0125    0.0235    0.0144    0.0263    0.0133   -0.0313
          47    0.0032   -0.0170   -0.0113   -0.0108   -0.0017   -0.0047   -0.0194    0.0234
          48   -0.0082   -0.0032    0.0061   -0.0116    0.0014    0.0440   -0.0049    0.0229
          49    0.0068    0.0105   -0.0014   -0.0205   -0.0174    0.0257    0.0058    0.0046
          50    0.0194    0.0241   -0.0069   -0.0080    0.0056    0.0226   -0.0221    0.0167
          51    0.0346    0.0328    0.0029   -0.0447    0.0040   -0.0163   -0.0185    0.0442
          52   -0.0197   -0.0113    0.0023   -0.0088   -0.0171    0.0187    0.0180   -0.0044
          53    0.0327    0.0445   -0.0079   -0.0295    0.0153    0.0310   -0.0415    0.0551
          54    0.0132   -0.0013    0.0041   -0.0074   -0.0131   -0.0292    0.0153   -0.0237
          55   -0.0180    0.0439   -0.0619   -0.0083   -0.0078   -0.0182   -0.0592   -0.0110
          56   -0.0093    0.0147   -0.0219   -0.0084    0.0271   -0.0063    0.0086   -0.0189
          57   -0.0033    0.0094   -0.0012    0.0095   -0.0079    0.0056    0.0427   -0.0029
          58   -0.0080    0.0238   -0.0318   -0.0067   -0.0010   -0.0116   -0.0351   -0.0047
          59   -0.0001   -0.0106    0.0043   -0.0069    0.0315    0.0003    0.0193   -0.0143
          60   -0.0211    0.0453   -0.0553    0.0067   -0.0201   -0.0063    0.0000   -0.0155
          61   -0.0105   -0.0240    0.0092   -0.0272   -0.0352    0.0005    0.0381   -0.0138
          62    0.0052   -0.0110    0.0038   -0.0155   -0.0126   -0.0032    0.0087   -0.0009
          63    0.0996    0.0585   -0.0015    0.0111    0.0238    0.0060   -0.0181    0.0128
          64    0.0272    0.0044    0.0054   -0.0409   -0.0343    0.0083    0.0222   -0.0049
          65    0.1080    0.0269    0.0080   -0.0296   -0.0136   -0.0033    0.0077    0.0034
          66   -0.0907   -0.0131   -0.0087    0.0377    0.0255    0.0048   -0.0150    0.0043
          67   -0.0212    0.0036   -0.0040    0.0076    0.0017    0.0354   -0.0041    0.0083
          68   -0.1074   -0.0551    0.0003   -0.0013   -0.0133   -0.0059    0.0125   -0.0066
          69   -0.0868   -0.0113   -0.0086    0.0376    0.0258    0.0056   -0.0151    0.0048
          70   -0.0295    0.0686   -0.0234    0.0162   -0.0263    0.0018    0.0085    0.0035
          71    0.0066   -0.0338    0.0088   -0.0236    0.0560   -0.0052   -0.0095   -0.0165
          72    0.0229   -0.0658    0.0179   -0.0238    0.0385   -0.0020   -0.0171   -0.0060
          73   -0.0001    0.0100    0.0033    0.0128   -0.0191    0.0029    0.0091    0.0031
          74   -0.0101    0.0062   -0.0293   -0.0267    0.0522   -0.0149   -0.0263   -0.0238
          75   -0.0366    0.0526   -0.0367   -0.0175    0.0239   -0.0044   -0.0196   -0.0052
          76    0.0373   -0.0643    0.0394    0.0107   -0.0119    0.0055    0.0142    0.0029
          77   -0.0054    0.0115   -0.0083    0.0074    0.0053    0.0001    0.0386   -0.0124
          78    0.0196   -0.0606    0.0152   -0.0253    0.0405   -0.0024   -0.0208   -0.0059
          79   -0.0452    0.0161    0.0535   -0.0450    0.0060   -0.0555   -0.0106    0.0136
          80   -0.0462    0.0422    0.0516   -0.0480   -0.0045   -0.0525    0.0305    0.0263
          81   -0.0023   -0.0127   -0.0013   -0.0062   -0.0357   -0.0122   -0.0392   -0.0068
          82   -0.0043   -0.0279   -0.0932   -0.0199    0.0151    0.0049    0.0307    0.0618
          83   -0.0070    0.0172    0.1024    0.0346   -0.0150    0.0244   -0.0318    0.0075
          84   -0.0074   -0.0031    0.0055   -0.0148   -0.0005    0.0517   -0.0059    0.0127
          85   -0.0188   -0.0033    0.0222   -0.0337   -0.0112   -0.0514   -0.0223    0.0313
          86   -0.0149    0.0228    0.0218   -0.0319    0.0144   -0.0367    0.0384    0.0471
          87    0.0117    0.0196    0.0198    0.0072    0.0663    0.0142    0.0296    0.0029
          88    0.0318   -0.0111   -0.0157    0.0394    0.0586    0.0502    0.0079   -0.0272
          89    0.0251   -0.0250   -0.0491    0.0319   -0.0555    0.0387   -0.0243   -0.0301
          90    0.0115    0.0173    0.0179    0.0073    0.0599    0.0134    0.0242    0.0011
          91    0.0075    0.0084    0.0601    0.0570   -0.0106   -0.0338   -0.0185    0.0072
          92    0.0087   -0.0217   -0.0657    0.0162    0.0082   -0.0535    0.0315    0.0687
          93    0.0158   -0.0059   -0.0082    0.0368   -0.0034   -0.0496    0.0070    0.0232
          94   -0.0062   -0.0152   -0.0349   -0.0198    0.0077    0.0206    0.0204    0.0578
          95   -0.0064    0.0061    0.0458    0.0175   -0.0051    0.0434   -0.0275   -0.0174
          96    0.0177   -0.0061   -0.0093    0.0415   -0.0039   -0.0600    0.0084    0.0238


   Root No.      17        18        19        20        21        22        23        24

                17 A      18 A      19 A      20 A      21 A      22 A      23 A      24 A   

                 473.4     492.5     542.9     635.6     673.3     720.5     823.5     833.5
  
           1   -0.0213    0.0236   -0.0146    0.0025   -0.0057   -0.0110   -0.0088    0.0143
           2    0.0195    0.0069    0.0004    0.0167    0.0141   -0.0206   -0.0008   -0.0013
           3    0.0000    0.0207    0.0206    0.0051    0.0047   -0.0139   -0.0053    0.0077
           4   -0.0265    0.0315   -0.0131    0.0008   -0.0053   -0.0196    0.0027    0.0014
           5    0.0152    0.0227   -0.0078    0.0101   -0.0203    0.0211    0.0015   -0.0034
           6   -0.0177   -0.0042   -0.0252   -0.0020    0.0025   -0.0175    0.0016    0.0038
           7   -0.0123   -0.0002   -0.0023   -0.0086    0.0146    0.0254    0.0023   -0.0013
           8    0.0129    0.0067    0.0078    0.0026    0.0051   -0.0135    0.0137    0.0110
           9    0.0189   -0.0067   -0.0148    0.0040   -0.0028   -0.0164    0.0067    0.0074
          10   -0.0222   -0.0045    0.0045    0.0085    0.0134    0.0253   -0.0002   -0.0021
          11    0.0212    0.0271   -0.0049    0.0034   -0.0135    0.0223    0.0000   -0.0036
          12   -0.0049   -0.0007    0.0163   -0.0029    0.0011   -0.0207   -0.0006    0.0041
          13    0.0106   -0.0159   -0.0013    0.0007    0.0017   -0.0014   -0.0014   -0.0010
          14    0.0008   -0.0027   -0.0232    0.0086    0.0042   -0.0156   -0.0236   -0.0128
          15    0.0022    0.0003    0.0292   -0.0077   -0.0013    0.0104   -0.0038   -0.0121
          16   -0.0031    0.0068    0.0183   -0.0028    0.0053   -0.0179    0.0185   -0.0184
          17   -0.0101   -0.0150   -0.0029   -0.0004    0.0013    0.0016   -0.0010    0.0006
          18    0.0115   -0.0057   -0.0214    0.0051   -0.0093    0.0148    0.0052   -0.0099
          19    0.0135   -0.0219   -0.0016    0.0005    0.0035   -0.0025   -0.0014   -0.0002
          20    0.0040   -0.0054   -0.0012    0.0003   -0.0002   -0.0017   -0.0062   -0.0035
          21   -0.0086    0.0087   -0.0030   -0.0006   -0.0013    0.0019    0.0002   -0.0027
          22    0.0058    0.0039    0.0023    0.0005    0.0005   -0.0018    0.0046   -0.0053
          23   -0.0145   -0.0202   -0.0025   -0.0009    0.0040    0.0016   -0.0013    0.0002
          24   -0.0062   -0.0081    0.0021   -0.0006    0.0009    0.0018    0.0004   -0.0020
          25    0.0259   -0.0001   -0.0062   -0.0291   -0.0183   -0.0018   -0.0017   -0.0011
          26   -0.0215    0.0034    0.0083   -0.0338   -0.0193   -0.0029   -0.0010    0.0010
          27   -0.0120   -0.0127   -0.0246   -0.0053    0.0050    0.0173   -0.0042   -0.0053
          28   -0.0082   -0.0122    0.0131    0.0233   -0.0241   -0.0010   -0.0007   -0.0013
          29    0.0052   -0.0035    0.0066   -0.0238    0.0254    0.0024    0.0002   -0.0003
          30   -0.0059    0.0226    0.0165    0.0066    0.0018    0.0208    0.0001   -0.0032
          31    0.0289   -0.0007   -0.0083    0.0035    0.0000    0.0004   -0.0007   -0.0016
          32   -0.0260    0.0023    0.0070    0.0019    0.0017   -0.0002    0.0003    0.0016
          33    0.0199    0.0017   -0.0007    0.0007   -0.0002    0.0018   -0.0024   -0.0032
          34   -0.0006   -0.0085    0.0097   -0.0027    0.0020    0.0001   -0.0006   -0.0012
          35   -0.0020   -0.0124    0.0118    0.0012   -0.0004    0.0002   -0.0003   -0.0010
          36    0.0002   -0.0104    0.0029   -0.0005    0.0003    0.0021    0.0002   -0.0019
          37   -0.0412    0.0392   -0.0399    0.0032   -0.0211   -0.0226   -0.0181    0.0370
          38    0.0345   -0.0024   -0.0021    0.0216    0.0294   -0.0338    0.0273    0.0069
          39    0.0019    0.0170    0.0338    0.0015    0.0041   -0.0017   -0.0130   -0.0066
          40   -0.0341    0.0577   -0.0111    0.0017   -0.0179   -0.0293   -0.0125    0.0231
          41    0.0240    0.0427   -0.0272    0.0138   -0.0443    0.0417    0.0064   -0.0098
          42   -0.0093   -0.0083   -0.0336   -0.0003   -0.0024   -0.0035    0.0101   -0.0084
          43   -0.0208   -0.0099   -0.0070   -0.0003    0.0395    0.0511    0.0166    0.0006
          44    0.0229    0.0114    0.0252    0.0195    0.0291   -0.0247    0.0338    0.0250
          45    0.0103   -0.0127   -0.0251   -0.0008   -0.0028   -0.0001    0.0033    0.0015
          46   -0.0370   -0.0053    0.0165    0.0010    0.0421    0.0498    0.0003   -0.0025
          47    0.0340    0.0501    0.0012    0.0156   -0.0424    0.0399   -0.0031   -0.0103
          48   -0.0058    0.0089    0.0236   -0.0004    0.0013   -0.0026   -0.0018    0.0011
          49    0.0172   -0.0274   -0.0121    0.0021    0.0023    0.0036    0.0581    0.0420
          50    0.0022   -0.0072   -0.0275    0.0079    0.0028   -0.0115    0.0016    0.0055
          51   -0.0146   -0.0191    0.0047   -0.0297   -0.0291    0.0538    0.0976    0.0668
          52    0.0144   -0.0218   -0.0024    0.0026    0.0065   -0.0078   -0.0525   -0.0501
          53   -0.0084   -0.0270   -0.0498   -0.0079   -0.0166    0.0205    0.0791    0.0638
          54    0.0050    0.0144    0.0415   -0.0003    0.0067   -0.0047   -0.0313   -0.0275
          55    0.0314   -0.0085    0.0590   -0.0002    0.0136    0.0187   -0.0663    0.0753
          56   -0.0111   -0.0228   -0.0038   -0.0011    0.0062    0.0053   -0.0462    0.0571
          57   -0.0061   -0.0008   -0.0409    0.0035   -0.0113   -0.0024    0.0298   -0.0346
          58    0.0009    0.0086    0.0244   -0.0019    0.0053   -0.0123   -0.0029    0.0074
          59   -0.0130   -0.0277   -0.0122   -0.0022    0.0045   -0.0041    0.0410   -0.0535
          60    0.0501   -0.0336    0.0212    0.0072    0.0038    0.0572   -0.0839    0.0852
          61    0.0200   -0.0294    0.0245   -0.0109   -0.0007    0.0258    0.0828    0.0504
          62    0.0063   -0.0082    0.0074   -0.0035   -0.0017    0.0081    0.0244    0.0154
          63   -0.0141    0.0098   -0.0180    0.0019   -0.0032   -0.0021    0.0129    0.0197
[...]
 TRAVEL      0.0554        C  4 --  C 10           +9.6% ( 45.8%)    56.2%
 RED. MASS   2.6853        C 10 --  H 28           +8.7% ( 43.7%)     3.8%
 EFF. MASS  11.7994

 VIBRATION   71   71A       ATOM PAIR        ENERGY CONTRIBUTION    RADIAL
 FREQ.      2928.24        C  3 --  H 15          +32.8% ( 58.8%)   100.0%
 T-DIPOLE    0.0200        C  1 --  H 13          +26.3% ( 52.7%)   100.0%
 TRAVEL      0.1249        C  4 --  H 16          +18.3% ( 43.9%)   100.0%
 RED. MASS   0.2385        C  2 --  H 14          +14.7% ( 39.4%)   100.0%
 EFF. MASS   1.4769

 VIBRATION   72   72A       ATOM PAIR        ENERGY CONTRIBUTION    RADIAL
 FREQ.      2932.95        C  1 --  H 13          +27.4% ( 53.5%)   100.0%
 T-DIPOLE    0.0945        C  3 --  H 15          +26.0% ( 52.1%)   100.0%
 TRAVEL      0.1263        C  2 --  H 14          +19.3% ( 45.0%)   100.0%
 RED. MASS   0.2167        C  4 --  H 16          +18.0% ( 43.5%)   100.0%
 EFF. MASS   1.4406

 VIBRATION   73   73A       ATOM PAIR        ENERGY CONTRIBUTION    RADIAL
 FREQ.      2933.18        C  4 --  H 16          +30.8% ( 56.8%)   100.0%
 T-DIPOLE    0.0928        C  2 --  H 14          +28.5% ( 54.6%)   100.0%
 TRAVEL      0.1263        C  3 --  H 15          +17.2% ( 42.4%)   100.0%
 RED. MASS   0.2333        C  1 --  H 13          +15.3% ( 40.0%)   100.0%
 EFF. MASS   1.4404

 VIBRATION   74   74A       ATOM PAIR        ENERGY CONTRIBUTION    RADIAL
 FREQ.      2941.26        C  4 --  H 16          +26.8% ( 53.0%)   100.0%
 T-DIPOLE    0.1641        C  2 --  H 14          +22.0% ( 48.0%)   100.0%
 TRAVEL      0.1250        C  3 --  H 15          +17.7% ( 43.1%)   100.0%
 RED. MASS   0.1793        C  1 --  H 13          +12.1% ( 35.6%)    99.9%
 EFF. MASS   1.4662

 VIBRATION   75   75A       ATOM PAIR        ENERGY CONTRIBUTION    RADIAL
 FREQ.      2947.74        C  5 --  H 18          +41.3% ( 66.5%)    96.8%
 T-DIPOLE    0.0600        C  5 --  H 17          +38.5% ( 64.2%)    96.3%
 TRAVEL      0.1225        C  1 --  H 13          +12.8% ( 37.0%)   100.0%
 RED. MASS   0.3596        C  6 --  H 19           +1.5% ( 12.5%)    96.9%
 EFF. MASS   1.5246

 VIBRATION   76   76A       ATOM PAIR        ENERGY CONTRIBUTION    RADIAL
 FREQ.      2950.65        C  6 --  H 19          +47.9% ( 71.6%)    97.3%
 T-DIPOLE    0.0548        C  6 --  H 20          +36.3% ( 62.4%)    95.6%
 TRAVEL      0.1224        C  2 --  H 14          +10.3% ( 33.1%)   100.0%
 RED. MASS   0.3990        C  1 --  H 13           +1.1% ( 10.6%)    99.9%
 EFF. MASS   1.5261

 VIBRATION   77   77A       ATOM PAIR        ENERGY CONTRIBUTION    RADIAL
 FREQ.      3024.02        C  5 --  H 17          +50.9% ( 70.3%)    97.9%
 T-DIPOLE    0.0425        C  5 --  H 18          +46.5% ( 67.2%)    97.4%
 TRAVEL      0.1321        C 10 --  H 28           +0.8% (  8.6%)   100.0%
 RED. MASS   0.4729        C  5 --  C  7           +0.6% (  7.8%)    26.8%
 EFF. MASS   1.2770

 VIBRATION   78   78A       ATOM PAIR        ENERGY CONTRIBUTION    RADIAL
 FREQ.      3029.32        C  6 --  H 20          +55.3% ( 73.4%)    98.5%
 T-DIPOLE    0.0591        C  6 --  H 19          +40.4% ( 62.7%)    96.6%
 TRAVEL      0.1318        C  9 --  H 27           +2.3% ( 14.9%)   100.0%
 RED. MASS   0.4669        C  6 --  C  8           +0.6% (  7.8%)    26.1%
 EFF. MASS   1.2821

 VIBRATION   79   79A       ATOM PAIR        ENERGY CONTRIBUTION    RADIAL
 FREQ.      3034.41        C 10 --  H 28          +94.1% ( 98.3%)   100.0%
 T-DIPOLE    0.2434        C  9 --  H 27           +1.4% ( 12.2%)   100.0%
 TRAVEL      0.1216        C 10 --  C 12           +1.4% ( 12.0%)    31.4%
 RED. MASS   0.8706        C  4 --  C 10           +1.3% ( 11.6%)    14.5%
 EFF. MASS   1.5026

 VIBRATION   80   80A       ATOM PAIR        ENERGY CONTRIBUTION    RADIAL
 FREQ.      3034.85        C  9 --  H 27          +92.8% ( 97.6%)   100.0%
 T-DIPOLE    0.2100        C 10 --  H 28           +1.5% ( 12.4%)   100.0%
 TRAVEL      0.1217        C  9 --  C 11           +1.4% ( 11.9%)    31.4%
 RED. MASS   0.8453        C  3 --  C  9           +1.3% ( 11.6%)    14.6%
 EFF. MASS   1.4994

 VIBRATION   81   81A       ATOM PAIR        ENERGY CONTRIBUTION    RADIAL
 FREQ.      3074.05        C  8 --  H 25          +61.0% ( 80.5%)    98.3%
 T-DIPOLE    0.0114        C  8 --  H 24          +35.2% ( 61.2%)    94.5%
 TRAVEL      0.1209        C  8 --  H 26           +2.4% ( 15.8%)    29.8%
 RED. MASS   0.5234        C  6 --  C  8           +1.0% ( 10.2%)     0.0%
 EFF. MASS   1.5011

 VIBRATION   82   82A       ATOM PAIR        ENERGY CONTRIBUTION    RADIAL
 FREQ.      3075.62        C  7 --  H 21          +61.0% ( 80.6%)    98.4%
 T-DIPOLE    0.0144        C  7 --  H 22          +34.7% ( 60.8%)    94.3%
 TRAVEL      0.1208        C  7 --  H 23           +2.8% ( 17.2%)    35.3%
 RED. MASS   0.5217        C  5 --  C  7           +1.0% ( 10.2%)     0.0%
 EFF. MASS   1.5020

 VIBRATION   83   83A       ATOM PAIR        ENERGY CONTRIBUTION    RADIAL
 FREQ.      3084.48        C  7 --  H 23          +59.1% ( 79.3%)    98.5%
 T-DIPOLE    0.0022        C  7 --  H 22          +31.0% ( 57.4%)    92.8%
 TRAVEL      0.1206        C  7 --  H 21           +8.5% ( 30.1%)    69.3%
 RED. MASS   0.4808        C  5 --  C  7           +1.0% ( 10.4%)     0.0%
 EFF. MASS   1.5043

 VIBRATION   84   84A       ATOM PAIR        ENERGY CONTRIBUTION    RADIAL
 FREQ.      3085.11        C  8 --  H 26          +58.8% ( 79.0%)    98.5%
 T-DIPOLE    0.0023        C  8 --  H 24          +30.4% ( 56.9%)    92.5%
 TRAVEL      0.1205        C  8 --  H 25           +9.4% ( 31.6%)    71.7%
 RED. MASS   0.4751        C  6 --  C  8           +1.0% ( 10.3%)     0.0%
 EFF. MASS   1.5041

 VIBRATION   85   85A       ATOM PAIR        ENERGY CONTRIBUTION    RADIAL
 FREQ.      3134.02        C 11 --  H 30          +92.7% ( 98.0%)    99.9%
 T-DIPOLE    0.1956        C 11 --  H 29           +5.9% ( 24.8%)    68.3%
 TRAVEL      0.1184        C  9 --  C 11           +1.3% ( 11.7%)    23.8%
 RED. MASS   0.8661
 EFF. MASS   1.5348

 VIBRATION   86   86A       ATOM PAIR        ENERGY CONTRIBUTION    RADIAL
 FREQ.      3134.88        C 12 --  H 31          +91.0% ( 97.1%)    99.8%
 T-DIPOLE    0.1932        C 12 --  H 32           +7.7% ( 28.2%)    73.5%
 TRAVEL      0.1181        C 10 --  C 12           +1.3% ( 11.7%)    20.8%
 RED. MASS   0.8419
 EFF. MASS   1.5419

 VIBRATION   87   87A       ATOM PAIR        ENERGY CONTRIBUTION    RADIAL
 FREQ.      3146.75        C 12 --  H 32          +80.4% ( 90.3%)    99.7%
 T-DIPOLE    0.2814        C 11 --  H 29          +10.9% ( 33.2%)    99.7%
 TRAVEL      0.1210        C 12 --  H 31           +5.8% ( 24.2%)    46.4%
 RED. MASS   0.6411        C 10 --  C 12           +1.4% ( 11.9%)    74.4%
 EFF. MASS   1.4629

 VIBRATION   88   88A       ATOM PAIR        ENERGY CONTRIBUTION    RADIAL
 FREQ.      3146.85        C 11 --  H 29          +81.8% ( 91.1%)    99.7%
 T-DIPOLE    0.2343        C 12 --  H 32          +10.6% ( 32.8%)    99.7%
 TRAVEL      0.1208        C 11 --  H 30           +4.4% ( 21.2%)    35.0%
 RED. MASS   0.6609        C  9 --  C 11           +1.4% ( 11.9%)    71.0%
 EFF. MASS   1.4680

 VIBRATION   89   89A       ATOM PAIR        ENERGY CONTRIBUTION    RADIAL
 FREQ.      3178.24        C  8 --  H 26          +38.4% ( 59.6%)    97.8%
 T-DIPOLE    0.0128        C  8 --  H 24          +33.5% ( 55.7%)    97.1%
 TRAVEL      0.1366        C  8 --  H 25          +27.8% ( 50.7%)    96.0%
 RED. MASS   0.3310        C  6 --  C  8           +0.3% (  5.1%)    98.7%
 EFF. MASS   1.1374

 VIBRATION   90   90A       ATOM PAIR        ENERGY CONTRIBUTION    RADIAL
 FREQ.      3178.71        C  7 --  H 23          +37.5% ( 59.0%)    97.7%
 T-DIPOLE    0.0110        C  7 --  H 22          +33.3% ( 55.5%)    97.1%
 TRAVEL      0.1366        C  7 --  H 21          +28.8% ( 51.6%)    96.3%
 RED. MASS   0.3296        C  5 --  C  7           +0.3% (  5.1%)    99.1%
 EFF. MASS   1.1370

 SYMMETRY NUMBER FOR POINT-GROUP C1  =  1


          SYSTEM IS A GROUND STATE


    NULL



          MOLECULE IS NOT LINEAR

          THERE ARE 90 GENUINE VIBRATIONS IN THIS SYSTEM
          THIS THERMODYNAMICS CALCULATION IS LIMITED TO
          MOLECULES WHICH HAVE NO INTERNAL ROTATIONS




                    CALCULATED THERMODYNAMIC PROPERTIES
                                          *
   TEMP. (K)   PARTITION FUNCTION   H.O.F.    ENTHALPY  HEAT CAPACITY ENTROPY
                                   KCAL/MOL   CAL/MOLE    CAL/K/MOL  CAL/K/MOL


 298.00  VIB.     0.5992D+05                  6980.5418    46.3603    45.2854
         ROT.     0.1497D+07                   888.2813     2.9808    31.2368
         INT.     0.8969D+11                  7868.8231    49.3411    76.5222
         TRA.     0.2036D+28                  1480.4688     4.9680    41.1956
         TOT.                        9.554    9349.2919    54.3092   117.7178

 200.00  VIB.     0.1195D+04                  3228.1271    30.7529    30.2226
         ROT.     0.8230D+06                   596.1620     2.9808    30.0481
         INT.     0.9839D+09                  3824.2890    33.7337    60.2706
         TRA.     0.1119D+28                   993.6033     4.9680    39.2145
         TOT.                        5.023    4817.8923    38.7017    99.4852

 210.00  VIB.     0.1793D+04                  3542.7932    32.1866    31.7575
         ROT.     0.8855D+06                   625.9700     2.9808    30.1935
         INT.     0.1587D+10                  4168.7632    35.1674    61.9511
         TRA.     0.1204D+28                  1043.2834     4.9680    39.4569
         TOT.                        5.417    5212.0466    40.1354   101.4080

 220.00  VIB.     0.2683D+04                  3871.9891    33.6592    33.2887
         ROT.     0.9495D+06                   655.7781     2.9808    30.3322
         INT.     0.2548D+10                  4527.7672    36.6400    63.6209
         TRA.     0.1291D+28                  1092.9636     4.9680    39.6880
         TOT.                        5.826    5620.7308    41.6080   103.3089

 230.00  VIB.     0.4011D+04                  4216.1097    35.1716    34.8181
         ROT.     0.1015D+07                   685.5862     2.9808    30.4647
         INT.     0.4071D+10                  4901.6960    38.1524    65.2828
         TRA.     0.1380D+28                  1142.6437     4.9680    39.9088
         TOT.                        6.250    6044.3397    43.1205   105.1917

 240.00  VIB.     0.5985D+04                  4575.5533    36.7236    36.3477
         ROT.     0.1082D+07                   715.3943     2.9808    30.5916
         INT.     0.6476D+10                  5290.9477    39.7044    66.9392
         TRA.     0.1471D+28                  1192.3239     4.9680    40.1203
         TOT.                        6.688    6483.2716    44.6724   107.0595

 250.00  VIB.     0.8921D+04                  4950.7067    38.3132    37.8789
         ROT.     0.1150D+07                   745.2024     2.9808    30.7132
         INT.     0.1026D+11                  5695.9091    41.2940    68.5921
         TRA.     0.1564D+28                  1242.0041     4.9680    40.3231
         TOT.                        7.143    6937.9132    46.2620   108.9152

 260.00  VIB.     0.1328D+05                  5341.9338    39.9378    39.4131
         ROT.     0.1220D+07                   775.0105     2.9808    30.8302
         INT.     0.1621D+11                  6116.9443    42.9186    70.2433
         TRA.     0.1659D+28                  1291.6842     4.9680    40.5179
         TOT.                        7.614    7408.6286    47.8866   110.7612

 270.00  VIB.     0.1976D+05                  5749.5665    41.5937    40.9513
         ROT.     0.1291D+07                   804.8186     2.9808    30.9426
         INT.     0.2551D+11                  6554.3852    44.5745    71.8940
         TRA.     0.1756D+28                  1341.3644     4.9680    40.7054
         TOT.                        8.101    7895.7495    49.5425   112.5994

 280.00  VIB.     0.2938D+05                  6173.8978    43.2768    42.4943
         ROT.     0.1363D+07                   834.6267     2.9808    31.0511
         INT.     0.4006D+11                  7008.5245    46.2576    73.5454
         TRA.     0.1854D+28                  1391.0445     4.9680    40.8861
         TOT.                        8.605    8399.5691    51.2256   114.4315

 290.00  VIB.     0.4366D+05                  6615.1772    44.9825    44.0427
         ROT.     0.1437D+07                   864.4348     2.9808    31.1557
         INT.     0.6274D+11                  7479.6121    47.9633    75.1983
         TRA.     0.1954D+28                  1440.7247     4.9680    41.0604
         TOT.                        9.126    8920.3368    52.9314   116.2588

 300.00  VIB.     0.6485D+05                  7073.6083    46.7063    45.5966
         ROT.     0.1512D+07                   894.2429     2.9808    31.2567
         INT.     0.9806D+11                  7967.8512    49.6871    76.8534
         TRA.     0.2056D+28                  1490.4049     4.9680    41.2289
         TOT.                        9.663    9458.2561    54.6551   118.0822

 310.00  VIB.     0.9630D+05                  7549.3475    48.4434    47.1564
         ROT.     0.1588D+07                   924.0510     2.9808    31.3544
         INT.     0.1530D+12                  8473.3985    51.4242    78.5109
         TRA.     0.2160D+28                  1540.0850     4.9680    41.3918
         TOT.                       10.219   10013.4836    56.3922   119.9027

 320.00  VIB.     0.1430D+06                  8042.5046    50.1891    48.7220
         ROT.     0.1666D+07                   953.8591     2.9808    31.4491
         INT.     0.2382D+12                  8996.3637    53.1699    80.1711
         TRA.     0.2265D+28                  1589.7652     4.9680    41.5495
         TOT.                       10.791   10586.1289    58.1379   121.7206

 330.00  VIB.     0.2123D+06                  8553.1441    51.9391    50.2932
         ROT.     0.1744D+07                   983.6672     2.9808    31.5408
         INT.     0.3703D+12                  9536.8113    54.9199    81.8340
         TRA.     0.2372D+28                  1639.4454     4.9680    41.7024
         TOT.                       11.381   11176.2567    59.8880   123.5364

 340.00  VIB.     0.3152D+06                  9081.2873    53.6892    51.8697
         ROT.     0.1824D+07                  1013.4753     2.9808    31.6298
         INT.     0.5751D+12                 10094.7626    56.6700    83.4995
         TRA.     0.2481D+28                  1689.1255     4.9680    41.8507
         TOT.                       11.989   11783.8882    61.6380   125.3502

 350.00  VIB.     0.4681D+06                  9626.9153    55.4355    53.4512
         ROT.     0.1905D+07                  1043.2834     2.9808    31.7162
         INT.     0.8919D+12                 10670.1987    58.4163    85.1674
         TRA.     0.2591D+28                  1738.8057     4.9680    41.9947
         TOT.                       12.614   12409.0044    63.3843   127.1621

 360.00  VIB.     0.6952D+06                 10189.9718    57.1743    55.0373
         ROT.     0.1988D+07                  1073.0915     2.9808    31.8002
         INT.     0.1382D+13                 11263.0633    60.1551    86.8375
         TRA.     0.2703D+28                  1788.4859     4.9680    42.1347
         TOT.                       13.257   13051.5491    65.1232   128.9721

 370.00  VIB.     0.1033D+07                 10770.3668    58.9026    56.6274
         ROT.     0.2071D+07                  1102.8996     2.9808    31.8818
         INT.     0.2139D+13                 11873.2664    61.8835    88.5093
         TRA.     0.2817D+28                  1838.1660     4.9680    42.2708
         TOT.                       13.917   13711.4324    66.8515   130.7800

 380.00  VIB.     0.1535D+07                 11367.9799    60.6175    58.2210
         ROT.     0.2156D+07                  1132.7077     2.9808    31.9613
         INT.     0.3308D+13                 12500.6876    63.5983    90.1824
         TRA.     0.2932D+28                  1887.8462     4.9680    42.4033
         TOT.                       14.594   14388.5338    68.5663   132.5856

 390.00  VIB.     0.2281D+07                 11982.6640    62.3164    59.8176
         ROT.     0.2241D+07                  1162.5158     2.9808    32.0388
         INT.     0.5112D+13                 13145.1798    65.2973    91.8564
         TRA.     0.3048D+28                  1937.5263     4.9680    42.5323
         TOT.                       15.288   15082.7062    70.2653   134.3887

 400.00  VIB.     0.3391D+07                 12614.2484    63.9972    61.4166
         ROT.     0.2328D+07                  1192.3239     2.9808    32.1142
         INT.     0.7894D+13                 13806.5723    66.9781    93.5308
         TRA.     0.3166D+28                  1987.2065     4.9680    42.6581
         TOT.                       15.999   15793.7788    71.9461   136.1889

   *: NOTE: HEATS OF FORMATION ARE RELATIVE TO THE
            ELEMENTS IN THEIR STANDARD STATE AT 298K
              (=  Standard Enthalpy of Formation).

            Hvib:  Zero-point energy is not included.
                   frequencies of less than zero cm-1 are not included.
            Hrot = (3/2)RT
            Htra = (3/2)RT + pV = (5/2)RT

            Heat capacity is Cp, not Cv

           For more information, see: HTTP://OpenMOPAC.net/Manual/thermochemistry.html


           FORCE CONSTANT IN CARTESIAN COORDINATES (Millidynes/A)

    ATOM   CHEMICAL       X               Y               Z
   NUMBER   SYMBOL  FORCE CONSTANT  FORCE CONSTANT  FORCE CONSTANT

      1       C        7.964159        7.768711        8.731769
      2       C        7.788959        7.982841        8.738942
      3       C        7.834542        7.757157        9.337789
      4       C        7.792358        7.836308        9.336791
      5       C        8.513174        8.292486        8.286149
      6       C        8.332905        8.477501        8.289266
      7       C        8.317522        8.232870        8.342417
      8       C        8.222739        8.319881        8.334427
      9       C        9.784572        8.378063        9.192684
     10       C        9.034809        9.113024        9.210643
     11       C        9.471180        7.988297        9.045327
     12       C        8.678601        8.764622        9.061854
     13       H        1.378396        1.361007        3.516873
     14       H        1.367027        1.278792        3.618330
     15       H        1.283355        1.373673        3.605625
     16       H        1.283999        1.277574        3.706637
     17       H        1.055888        4.604640        0.690089
     18       H        1.217168        1.536094        3.630555
     19       H        1.585343        1.095915        3.703884
     20       H        4.614421        1.067596        0.699698
     21       H        1.129389        4.948067        0.670811
     22       H        1.337931        1.703202        3.742466
     23       H        1.406490        1.549559        3.838126
     24       H        1.855986        1.202358        3.723623
     25       H        4.913441        1.132969        0.694609
     26       H        1.426105        1.556655        3.813744
     27       H        1.097488        0.921783        4.181665
     28       H        0.962239        0.970094        4.268078
     29       H        1.427232        1.251938        3.801545
     30       H        1.194738        0.986984        4.280638
     31       H        1.036825        1.049694        4.381654
     32       H        1.390040        1.402129        3.688652



 TOTAL CPU TIME:             8.92 SECONDS

 == MOPAC DONE ==
