 *******************************************************************************
 ** Site#: 14399           For non-commercial use only        Version 13.159M **
 *******************************************************************************
 ** Cite this work as: MOPAC2012, James J. P. Stewart, Stewart Computational  **
 ** Chemistry, Version 13.159M web: HTTP://OpenMOPAC.net  Days remaining:   6 **
 *******************************************************************************
 **                                                                           **
 **                                MOPAC2012                                  **
 **                                                                           **
 *******************************************************************************

                            PM3 CALCULATION RESULTS


 *******************************************************************************
 *  CALCULATION DONE:                                Mon Jun  2 11:08:10 2014  *
 *  PM3      - The PM3 Hamiltonian to be used
 *  PRECISE  - CRITERIA TO BE INCREASED BY 100 TIMES
 *  NOSYM    - POINT-GROUP SYMMETRY SET TO C1
 *  T=       - A TIME OF 172800.0 SECONDS REQUESTED
 *  DUMP=N   - RESTART FILE WRITTEN EVERY  7200.000 SECONDS
 *******************************************************************************
pm3  precise nosym
 InChI=1S/C10H16/c1-3-5-9-7-10(8-9)6-4-2/h3-4,9-10H,1-2,5-8H2

   ATOM   CHEMICAL          X               Y               Z
  NUMBER   SYMBOL      (ANGSTROMS)     (ANGSTROMS)     (ANGSTROMS)
 
     1       C          1.16330000  *  -0.87980000  *  -0.65240000  *
     2       C         -0.99690000  *  -0.98170000  *  -0.72370000  *
     3       C          0.09540000  *  -1.92150000  *  -0.32730000  *
     4       C          0.02230000  *   0.10440000  *  -1.06040000  *
     5       C          2.00390000  *  -0.42980000  *   0.54800000  *
     6       C         -1.97340000  *  -0.62400000  *   0.40500000  *
     7       C          2.93200000  *   0.68830000  *   0.16690000  *
     8       C         -2.98360000  *   0.39080000  *  -0.05090000  *
     9       C          2.87850000  *   1.89520000  *   0.73530000  *
    10       C         -3.10290000  *   1.59420000  *   0.51510000  *
    11       H          1.78770000  *  -1.18780000  *  -1.52530000  *
    12       H         -1.53220000  *  -1.34440000  *  -1.63460000  *
    13       H          0.07680000  *  -2.24850000  *   0.73990000  *
    14       H          0.15920000  *  -2.80700000  *  -1.00280000  *
    15       H          0.04540000  *   0.34700000  *  -2.14830000  *
    16       H         -0.04130000  *   1.02250000  *  -0.42920000  *
    17       H          1.34520000  *  -0.15130000  *   1.40510000  *
    18       H         -1.41780000  *  -0.28070000  *   1.31050000  *
    19       H          2.62720000  *  -1.28650000  *   0.89180000  *
    20       H         -2.53010000  *  -1.54110000  *   0.70490000  *
    21       H          3.67710000  *   0.50500000  *  -0.60630000  *
    22       H         -3.64310000  *   0.13250000  *  -0.87860000  *
    23       H          3.57150000  *   2.67480000  *   0.42480000  *
    24       H          2.14980000  *   2.13040000  *   1.50930000  *
    25       H         -3.84900000  *   2.29680000  *   0.14890000  *
    26       H         -2.46510000  *   1.90240000  *   1.34190000  *
 


          CARTESIAN COORDINATES 

    NO.       ATOM         X         Y         Z

     1         C        1.1633   -0.8798   -0.6524
     2         C       -0.9969   -0.9817   -0.7237
     3         C        0.0954   -1.9215   -0.3273
     4         C        0.0223    0.1044   -1.0604
     5         C        2.0039   -0.4298    0.5480
     6         C       -1.9734   -0.6240    0.4050
     7         C        2.9320    0.6883    0.1669
     8         C       -2.9836    0.3908   -0.0509
     9         C        2.8785    1.8952    0.7353
    10         C       -3.1029    1.5942    0.5151
    11         H        1.7877   -1.1878   -1.5253
    12         H       -1.5322   -1.3444   -1.6346
    13         H        0.0768   -2.2485    0.7399
    14         H        0.1592   -2.8070   -1.0028
    15         H        0.0454    0.3470   -2.1483
    16         H       -0.0413    1.0225   -0.4292
    17         H        1.3452   -0.1513    1.4051
    18         H       -1.4178   -0.2807    1.3105
    19         H        2.6272   -1.2865    0.8918
    20         H       -2.5301   -1.5411    0.7049
    21         H        3.6771    0.5050   -0.6063
    22         H       -3.6431    0.1325   -0.8786
    23         H        3.5715    2.6748    0.4248
    24         H        2.1498    2.1304    1.5093
    25         H       -3.8490    2.2968    0.1489
    26         H       -2.4651    1.9024    1.3419

  H: (PM3): J. J. P. STEWART, J. COMP. CHEM. 10, 209 (1989).
  C: (PM3): J. J. P. STEWART, J. COMP. CHEM. 10, 209 (1989).

           Empirical Formula: C10 H16  =    26 atoms



      MOLECULAR POINT GROUP   :   C1  


      RHF CALCULATION, NO. OF DOUBLY OCCUPIED LEVELS =   28

      Geometry optimization using EF

          DIAGONAL MATRIX USED AS START HESSIAN

 CYCLE:     1 TIME:   0.015 TIME LEFT:  2.00D  GRAD.:    96.799 HEAT: 27.07102
 CYCLE:     2 TIME:   0.025 TIME LEFT:  2.00D  GRAD.:    44.825 HEAT: 24.82160
 CYCLE:     3 TIME:   0.016 TIME LEFT:  2.00D  GRAD.:    52.860 HEAT: 24.33776
 CYCLE:     4 TIME:   0.009 TIME LEFT:  2.00D  GRAD.:    24.545 HEAT: 23.61376
 CYCLE:     5 TIME:   0.009 TIME LEFT:  2.00D  GRAD.:    35.773 HEAT: 23.34791
 CYCLE:     6 TIME:   0.009 TIME LEFT:  2.00D  GRAD.:    29.771 HEAT: 22.97584
 CYCLE:     7 TIME:   0.016 TIME LEFT:  2.00D  GRAD.:    18.681 HEAT: 22.74286
 CYCLE:     8 TIME:   0.023 TIME LEFT:  2.00D  GRAD.:    12.933 HEAT: 22.68145
 CYCLE:     9 TIME:   0.009 TIME LEFT:  2.00D  GRAD.:    13.969 HEAT: 22.66071
 CYCLE:    10 TIME:   0.009 TIME LEFT:  2.00D  GRAD.:     8.233 HEAT: 22.60835
 CYCLE:    11 TIME:   0.016 TIME LEFT:  2.00D  GRAD.:     8.359 HEAT: 22.59081
 CYCLE:    12 TIME:   0.009 TIME LEFT:  2.00D  GRAD.:     6.349 HEAT: 22.56953
 CYCLE:    13 TIME:   0.009 TIME LEFT:  2.00D  GRAD.:    10.202 HEAT: 22.56700
 CYCLE:    14 TIME:   0.016 TIME LEFT:  2.00D  GRAD.:     5.673 HEAT: 22.54664
 CYCLE:    15 TIME:   0.016 TIME LEFT:  2.00D  GRAD.:     3.899 HEAT: 22.53927
 CYCLE:    16 TIME:   0.009 TIME LEFT:  2.00D  GRAD.:     2.143 HEAT: 22.53243
 CYCLE:    17 TIME:   0.016 TIME LEFT:  2.00D  GRAD.:     4.829 HEAT: 22.52912
 CYCLE:    18 TIME:   0.009 TIME LEFT:  2.00D  GRAD.:     3.627 HEAT: 22.52264
 CYCLE:    19 TIME:   0.023 TIME LEFT:  2.00D  GRAD.:     4.667 HEAT: 22.52286
 CYCLE:    20 TIME:   0.008 TIME LEFT:  2.00D  GRAD.:     4.196 HEAT: 22.52086
 CYCLE:    21 TIME:   0.015 TIME LEFT:  2.00D  GRAD.:     3.596 HEAT: 22.51752
 CYCLE:    22 TIME:   0.009 TIME LEFT:  2.00D  GRAD.:     3.391 HEAT: 22.51666
 CYCLE:    23 TIME:   0.008 TIME LEFT:  2.00D  GRAD.:     3.517 HEAT: 22.51425
 CYCLE:    24 TIME:   0.008 TIME LEFT:  2.00D  GRAD.:     1.663 HEAT: 22.51054
 CYCLE:    25 TIME:   0.008 TIME LEFT:  2.00D  GRAD.:     2.454 HEAT: 22.50969
 CYCLE:    26 TIME:   0.009 TIME LEFT:  2.00D  GRAD.:     2.205 HEAT: 22.50723
 CYCLE:    27 TIME:   0.008 TIME LEFT:  2.00D  GRAD.:     1.669 HEAT: 22.50448
 CYCLE:    28 TIME:   0.009 TIME LEFT:  2.00D  GRAD.:     2.137 HEAT: 22.50335
 CYCLE:    29 TIME:   0.009 TIME LEFT:  2.00D  GRAD.:     1.763 HEAT: 22.50205
 CYCLE:    30 TIME:   0.008 TIME LEFT:  2.00D  GRAD.:     2.380 HEAT: 22.50210
 CYCLE:    31 TIME:   0.008 TIME LEFT:  2.00D  GRAD.:     0.943 HEAT: 22.50020
 CYCLE:    32 TIME:   0.009 TIME LEFT:  2.00D  GRAD.:     1.361 HEAT: 22.49957
 CYCLE:    33 TIME:   0.009 TIME LEFT:  2.00D  GRAD.:     1.178 HEAT: 22.49822
 CYCLE:    34 TIME:   0.009 TIME LEFT:  2.00D  GRAD.:     1.769 HEAT: 22.49605
 CYCLE:    35 TIME:   0.009 TIME LEFT:  2.00D  GRAD.:     1.218 HEAT: 22.49396
 CYCLE:    36 TIME:   0.009 TIME LEFT:  2.00D  GRAD.:     1.547 HEAT: 22.49055
 CYCLE:    37 TIME:   0.009 TIME LEFT:  2.00D  GRAD.:     1.812 HEAT: 22.48711
 CYCLE:    38 TIME:   0.009 TIME LEFT:  2.00D  GRAD.:     1.330 HEAT: 22.48419
 CYCLE:    39 TIME:   0.009 TIME LEFT:  2.00D  GRAD.:     1.237 HEAT: 22.48216
 CYCLE:    40 TIME:   0.009 TIME LEFT:  2.00D  GRAD.:     1.768 HEAT: 22.48065
 CYCLE:    41 TIME:   0.009 TIME LEFT:  2.00D  GRAD.:     1.713 HEAT: 22.47786
 CYCLE:    42 TIME:   0.009 TIME LEFT:  2.00D  GRAD.:     1.545 HEAT: 22.47259
 CYCLE:    43 TIME:   0.009 TIME LEFT:  2.00D  GRAD.:     1.407 HEAT: 22.46791
 CYCLE:    44 TIME:   0.009 TIME LEFT:  2.00D  GRAD.:     1.332 HEAT: 22.46456
 CYCLE:    45 TIME:   0.009 TIME LEFT:  2.00D  GRAD.:     1.332 HEAT: 22.46074
 CYCLE:    46 TIME:   0.009 TIME LEFT:  2.00D  GRAD.:     1.360 HEAT: 22.45674
 CYCLE:    47 TIME:   0.009 TIME LEFT:  2.00D  GRAD.:     1.348 HEAT: 22.45258
 CYCLE:    48 TIME:   0.009 TIME LEFT:  2.00D  GRAD.:     1.132 HEAT: 22.44895
 CYCLE:    49 TIME:   0.009 TIME LEFT:  2.00D  GRAD.:     0.876 HEAT: 22.44686
 CYCLE:    50 TIME:   0.009 TIME LEFT:  2.00D  GRAD.:     0.752 HEAT: 22.44566
 CYCLE:    51 TIME:   0.009 TIME LEFT:  2.00D  GRAD.:     0.679 HEAT: 22.44461
 CYCLE:    52 TIME:   0.009 TIME LEFT:  2.00D  GRAD.:     0.675 HEAT: 22.44341
 CYCLE:    53 TIME:   0.009 TIME LEFT:  2.00D  GRAD.:     0.588 HEAT: 22.44253
 CYCLE:    54 TIME:   0.009 TIME LEFT:  2.00D  GRAD.:     0.513 HEAT: 22.44195
 CYCLE:    55 TIME:   0.009 TIME LEFT:  2.00D  GRAD.:     0.462 HEAT: 22.44148
 CYCLE:    56 TIME:   0.009 TIME LEFT:  2.00D  GRAD.:     0.454 HEAT: 22.44097
 CYCLE:    57 TIME:   0.009 TIME LEFT:  2.00D  GRAD.:     0.520 HEAT: 22.44043
 CYCLE:    58 TIME:   0.009 TIME LEFT:  2.00D  GRAD.:     0.546 HEAT: 22.43980
 CYCLE:    59 TIME:   0.009 TIME LEFT:  2.00D  GRAD.:     0.657 HEAT: 22.43896
 CYCLE:    60 TIME:   0.009 TIME LEFT:  2.00D  GRAD.:     0.752 HEAT: 22.43778
 CYCLE:    61 TIME:   0.009 TIME LEFT:  2.00D  GRAD.:     0.879 HEAT: 22.43594
 CYCLE:    62 TIME:   0.009 TIME LEFT:  2.00D  GRAD.:     1.063 HEAT: 22.43334
 CYCLE:    63 TIME:   0.009 TIME LEFT:  2.00D  GRAD.:     1.266 HEAT: 22.42996
 CYCLE:    64 TIME:   0.009 TIME LEFT:  2.00D  GRAD.:     1.669 HEAT: 22.42376
 CYCLE:    65 TIME:   0.009 TIME LEFT:  2.00D  GRAD.:     1.675 HEAT: 22.41831
 CYCLE:    66 TIME:   0.009 TIME LEFT:  2.00D  GRAD.:     2.287 HEAT: 22.40335
 CYCLE:    67 TIME:   0.009 TIME LEFT:  2.00D  GRAD.:     2.097 HEAT: 22.39808
 CYCLE:    68 TIME:   0.009 TIME LEFT:  2.00D  GRAD.:     1.955 HEAT: 22.38773
 CYCLE:    69 TIME:   0.009 TIME LEFT:  2.00D  GRAD.:     1.639 HEAT: 22.38207
 CYCLE:    70 TIME:   0.009 TIME LEFT:  2.00D  GRAD.:     2.294 HEAT: 22.37306
 CYCLE:    71 TIME:   0.009 TIME LEFT:  2.00D  GRAD.:     1.630 HEAT: 22.37043
 CYCLE:    72 TIME:   0.009 TIME LEFT:  2.00D  GRAD.:     0.801 HEAT: 22.36772
 CYCLE:    73 TIME:   0.009 TIME LEFT:  2.00D  GRAD.:     0.896 HEAT: 22.36631
 CYCLE:    74 TIME:   0.009 TIME LEFT:  2.00D  GRAD.:     0.980 HEAT: 22.36492
 CYCLE:    75 TIME:   0.009 TIME LEFT:  2.00D  GRAD.:     1.147 HEAT: 22.36265
 CYCLE:    76 TIME:   0.009 TIME LEFT:  2.00D  GRAD.:     0.741 HEAT: 22.36152
 CYCLE:    77 TIME:   0.009 TIME LEFT:  2.00D  GRAD.:     0.794 HEAT: 22.35986
 CYCLE:    78 TIME:   0.009 TIME LEFT:  2.00D  GRAD.:     0.754 HEAT: 22.35887
 CYCLE:    79 TIME:   0.009 TIME LEFT:  2.00D  GRAD.:     0.751 HEAT: 22.35769
 CYCLE:    80 TIME:   0.009 TIME LEFT:  2.00D  GRAD.:     0.607 HEAT: 22.35649
 CYCLE:    81 TIME:   0.009 TIME LEFT:  2.00D  GRAD.:     0.537 HEAT: 22.35591
 CYCLE:    82 TIME:   0.009 TIME LEFT:  2.00D  GRAD.:     0.584 HEAT: 22.35520
 CYCLE:    83 TIME:   0.009 TIME LEFT:  2.00D  GRAD.:     0.346 HEAT: 22.35488
 CYCLE:    84 TIME:   0.008 TIME LEFT:  2.00D  GRAD.:     0.314 HEAT: 22.35468
 CYCLE:    85 TIME:   0.009 TIME LEFT:  2.00D  GRAD.:     0.254 HEAT: 22.35449
 CYCLE:    86 TIME:   0.009 TIME LEFT:  2.00D  GRAD.:     0.207 HEAT: 22.35440
 CYCLE:    87 TIME:   0.009 TIME LEFT:  2.00D  GRAD.:     0.172 HEAT: 22.35434
 CYCLE:    88 TIME:   0.009 TIME LEFT:  2.00D  GRAD.:     0.131 HEAT: 22.35430
 CYCLE:    89 TIME:   0.008 TIME LEFT:  2.00D  GRAD.:     0.137 HEAT: 22.35423
 CYCLE:    90 TIME:   0.009 TIME LEFT:  2.00D  GRAD.:     0.142 HEAT: 22.35419
 CYCLE:    91 TIME:   0.009 TIME LEFT:  2.00D  GRAD.:     0.160 HEAT: 22.35409
 CYCLE:    92 TIME:   0.008 TIME LEFT:  2.00D  GRAD.:     0.164 HEAT: 22.35404
 CYCLE:    93 TIME:   0.009 TIME LEFT:  2.00D  GRAD.:     0.299 HEAT: 22.35389
 CYCLE:    94 TIME:   0.008 TIME LEFT:  2.00D  GRAD.:     0.253 HEAT: 22.35380
 CYCLE:    95 TIME:   0.009 TIME LEFT:  2.00D  GRAD.:     0.328 HEAT: 22.35350
 CYCLE:    96 TIME:   0.009 TIME LEFT:  2.00D  GRAD.:     0.257 HEAT: 22.35336
 CYCLE:    97 TIME:   0.009 TIME LEFT:  2.00D  GRAD.:     0.333 HEAT: 22.35290
 CYCLE:    98 TIME:   0.009 TIME LEFT:  2.00D  GRAD.:     0.316 HEAT: 22.35269
 CYCLE:    99 TIME:   0.009 TIME LEFT:  2.00D  GRAD.:     0.380 HEAT: 22.35195
 CYCLE:   100 TIME:   0.009 TIME LEFT:  2.00D  GRAD.:     0.298 HEAT: 22.35171
 CYCLE:   101 TIME:   0.009 TIME LEFT:  2.00D  GRAD.:     0.461 HEAT: 22.35135
 CYCLE:   102 TIME:   0.009 TIME LEFT:  2.00D  GRAD.:     0.263 HEAT: 22.35113
 CYCLE:   103 TIME:   0.009 TIME LEFT:  2.00D  GRAD.:     0.183 HEAT: 22.35103
 CYCLE:   104 TIME:   0.009 TIME LEFT:  2.00D  GRAD.:     0.165 HEAT: 22.35091
 CYCLE:   105 TIME:   0.009 TIME LEFT:  2.00D  GRAD.:     0.094 HEAT: 22.35087
 CYCLE:   106 TIME:   0.008 TIME LEFT:  2.00D  GRAD.:     0.062 HEAT: 22.35085
 CYCLE:   107 TIME:   0.009 TIME LEFT:  2.00D  GRAD.:     0.053 HEAT: 22.35084
 CYCLE:   108 TIME:   0.009 TIME LEFT:  2.00D  GRAD.:     0.052 HEAT: 22.35082
 CYCLE:   109 TIME:   0.008 TIME LEFT:  2.00D  GRAD.:     0.029 HEAT: 22.35082

     RMS GRADIENT =  0.02863  IS LESS THAN CUTOFF =  0.05000



 -------------------------------------------------------------------------------
pm3  precise nosym
 InChI=1S/C10H16/c1-3-5-9-7-10(8-9)6-4-2/h3-4,9-10H,1-2,5-8H2



     GEOMETRY OPTIMISED USING EIGENVECTOR FOLLOWING (EF).     
     SCF FIELD WAS ACHIEVED                                   


                              PM3 CALCULATION
                                                       MOPAC2012 (Version: 13.159M)
                                                       Mon Jun  2 11:08:12 2014
                                                       No. of days left =   6




          FINAL HEAT OF FORMATION =         22.35082 KCAL/MOL =      93.51582 KJ/MOL


          TOTAL ENERGY            =      -1430.75779 EV
          ELECTRONIC ENERGY       =      -8075.96984 EV  POINT GROUP:     C1  
          CORE-CORE REPULSION     =       6645.21204 EV
          COSMO AREA              =        205.80 SQUARE ANGSTROMS
          COSMO VOLUME            =        211.10 CUBIC ANGSTROMS

          GRADIENT NORM           =          0.02863
          IONIZATION POTENTIAL    =         10.080556 EV
          HOMO LUMO ENERGIES (EV) =        -10.081  1.160
          NO. OF FILLED LEVELS    =         28
          MOLECULAR WEIGHT        =        136.236

          MOLECULAR DIMENSIONS (Angstroms)

            Atom       Atom       Distance
            H    25    H    19     7.71156
            H    25    H    21     7.64302
            H    15    H    19     3.31254


          SCF CALCULATIONS        =        123
          COMPUTATION TIME        =          1.066 SECONDS




   ATOM   CHEMICAL          X               Y               Z
  NUMBER   SYMBOL      (ANGSTROMS)     (ANGSTROMS)     (ANGSTROMS)
 
     1       C          1.16534776  *  -0.82757111  *  -0.64368503  *
     2       C         -1.02601750  *  -0.93674779  *  -0.72290726  *
     3       C          0.10576561  *  -1.89695531  *  -0.28342547  *
     4       C          0.03268794  *   0.13868242  *  -1.06718982  *
     5       C          2.00579570  *  -0.36674998  *   0.53050988  *
     6       C         -1.99048012  *  -0.56579092  *   0.38601017  *
     7       C          3.01251164  *   0.65038521  *   0.12096760  *
     8       C         -3.06325403  *   0.34466268  *  -0.09978626  *
     9       C          3.18286027  *   1.80144747  *   0.76050758  *
    10       C         -3.39238986  *   1.47312286  *   0.51764116  *
    11       H          1.82076789  *  -1.12803991  *  -1.48814378  *
    12       H         -1.58583884  *  -1.29784106  *  -1.61127177  *
    13       H          0.08142933  *  -2.18149819  *   0.78073280  *
    14       H          0.17317039  *  -2.82582874  *  -0.86819748  *
    15       H          0.05610630  *   0.43741604  *  -2.12525947  *
    16       H         -0.03486772  *   1.06104094  *  -0.46862834  *
    17       H          1.35164119  *   0.01730888  *   1.34067615  *
    18       H         -1.43814991  *  -0.11893309  *   1.23866983  *
    19       H          2.54114719  *  -1.23705089  *   0.96168384  *
    20       H         -2.46442302  *  -1.48667539  *   0.78260846  *
    21       H          3.62557869  *   0.39321133  *  -0.75163065  *
    22       H         -3.58512306  *   0.02641954  *  -1.01071550  *
    23       H          3.92960575  *   2.53120163  *   0.46321168  *
    24       H          2.59253430  *   2.09701014  *   1.62370009  *
    25       H         -4.18621932  *   2.12374080  *   0.16394462  *
    26       H         -2.89613171  *   1.82723285  *   1.41724124  *

           Empirical Formula: C10 H16  =    26 atoms



      MOLECULAR POINT GROUP   :   C1  


                  EIGENVALUES  
 -41.61362 -35.91200 -33.32125 -28.38290 -25.96393 -25.38018 -21.15962 -20.11032
 -19.59561 -18.43334 -17.11026 -16.49034 -16.16575 -15.40547 -15.16281 -14.69775
 -14.69408 -13.40950 -13.12011 -12.92505 -12.42700 -12.20175 -12.00736 -11.58625
 -11.45087 -11.34540 -10.15206 -10.08056   1.15997   1.17391   3.18916   3.33107
   3.34478   3.57749   3.58540   3.75455   3.82040   3.92845   3.95049   4.01772
   4.02735   4.09896   4.16428   4.36273   4.46323   4.51533   4.58391   4.61138
   4.73675   4.81593   5.36348   5.52734   5.62277   5.65932   5.88319   5.91489


              NET ATOMIC CHARGES AND DIPOLE CONTRIBUTIONS

  ATOM NO.   TYPE          CHARGE      No. of ELECS.   s-Pop       p-Pop       
    1          C          -0.088665        4.0887     1.18961     2.89906
    2          C          -0.088644        4.0886     1.18961     2.89904
    3          C          -0.113639        4.1136     1.17872     2.93492
    4          C          -0.109802        4.1098     1.17761     2.93220
    5          C          -0.062030        4.0620     1.14935     2.91268
    6          C          -0.062047        4.0620     1.14935     2.91269
    7          C          -0.134547        4.1345     1.19518     2.93937
    8          C          -0.134570        4.1346     1.19518     2.93939
    9          C          -0.168179        4.1682     1.18267     2.98551
   10          C          -0.168125        4.1681     1.18267     2.98545
   11          H           0.071602        0.9284     0.92840
   12          H           0.071616        0.9284     0.92838
   13          H           0.061721        0.9383     0.93828
   14          H           0.055958        0.9440     0.94404
   15          H           0.056405        0.9436     0.94360
   16          H           0.067986        0.9320     0.93201
   17          H           0.058073        0.9419     0.94193
   18          H           0.058076        0.9419     0.94192
   19          H           0.056990        0.9430     0.94301
   20          H           0.056979        0.9430     0.94302
   21          H           0.096754        0.9032     0.90325
   22          H           0.096732        0.9033     0.90327
   23          H           0.079175        0.9208     0.92083
   24          H           0.081504        0.9185     0.91850
   25          H           0.079170        0.9208     0.92083
   26          H           0.081509        0.9185     0.91849
 DIPOLE           X         Y         Z       TOTAL
 POINT-CHG.     0.018    -0.344    -0.009     0.345
 HYBRID        -0.002     0.020     0.018     0.027
 SUM            0.016    -0.324     0.008     0.325


          ATOMIC ORBITAL ELECTRON POPULATIONS

    Atom      s        px        py        pz   
    1  C   1.18961   0.95178   0.96764   0.97964
    2  C   1.18961   0.94620   0.97006   0.98277
    3  C   1.17872   0.95969   0.96232   1.01291
    4  C   1.17761   0.95244   0.96687   1.01288
    5  C   1.14935   0.96484   0.97944   0.96841
    6  C   1.14935   0.95482   0.98781   0.97006
    7  C   1.19518   0.98312   0.96323   0.99302
    8  C   1.19518   0.97944   0.96695   0.99300
    9  C   1.18267   1.01404   0.96906   1.00241
   10  C   1.18267   1.01149   0.97105   1.00292
   11  H   0.92840
   12  H   0.92838
   13  H   0.93828
   14  H   0.94404
   15  H   0.94360
   16  H   0.93201
   17  H   0.94193
   18  H   0.94192
   19  H   0.94301
   20  H   0.94302
   21  H   0.90325
   22  H   0.90327
   23  H   0.92083
   24  H   0.91850
   25  H   0.92083
   26  H   0.91849
 *******************************************************************************
 ** Site#: 14399           For non-commercial use only        Version 13.159M **
 *******************************************************************************
 ** Cite this work as: MOPAC2012, James J. P. Stewart, Stewart Computational  **
 ** Chemistry, Version 13.159M web: HTTP://OpenMOPAC.net  Days remaining:   6 **
 *******************************************************************************
 **                                                                           **
 **                                MOPAC2012                                  **
 **                                                                           **
 *******************************************************************************

                            PM3 CALCULATION RESULTS


 *******************************************************************************
 *  CALCULATION DONE:                                Mon Jun  2 11:08:12 2014  *
 *  PM3      - The PM3 Hamiltonian to be used
 *  OLDGEO   - PREVIOUS GEOMETRY TO BE USED
 *  PRECISE  - CRITERIA TO BE INCREASED BY 100 TIMES
 *  NOSYM    - POINT-GROUP SYMMETRY SET TO C1
 *  T=       - A TIME OF 172800.0 SECONDS REQUESTED
 *  DUMP=N   - RESTART FILE WRITTEN EVERY  7200.000 SECONDS
 *  THERMO   - THERMODYNAMIC QUANTITIES TO BE CALCULATED
 *******************************************************************************
oldgeo thermo nosym precise  pm3

   ATOM   CHEMICAL          X               Y               Z
  NUMBER   SYMBOL      (ANGSTROMS)     (ANGSTROMS)     (ANGSTROMS)
 
     1       C          1.16534776  *  -0.82757111  *  -0.64368503  *
     2       C         -1.02601750  *  -0.93674779  *  -0.72290726  *
     3       C          0.10576561  *  -1.89695531  *  -0.28342547  *
     4       C          0.03268794  *   0.13868242  *  -1.06718982  *
     5       C          2.00579570  *  -0.36674998  *   0.53050988  *
     6       C         -1.99048012  *  -0.56579092  *   0.38601017  *
     7       C          3.01251164  *   0.65038521  *   0.12096760  *
     8       C         -3.06325403  *   0.34466268  *  -0.09978626  *
     9       C          3.18286027  *   1.80144747  *   0.76050758  *
    10       C         -3.39238986  *   1.47312286  *   0.51764116  *
    11       H          1.82076789  *  -1.12803991  *  -1.48814378  *
    12       H         -1.58583884  *  -1.29784106  *  -1.61127177  *
    13       H          0.08142933  *  -2.18149819  *   0.78073280  *
    14       H          0.17317039  *  -2.82582874  *  -0.86819748  *
    15       H          0.05610630  *   0.43741604  *  -2.12525947  *
    16       H         -0.03486772  *   1.06104094  *  -0.46862834  *
    17       H          1.35164119  *   0.01730888  *   1.34067615  *
    18       H         -1.43814991  *  -0.11893309  *   1.23866983  *
    19       H          2.54114719  *  -1.23705089  *   0.96168384  *
    20       H         -2.46442302  *  -1.48667539  *   0.78260846  *
    21       H          3.62557869  *   0.39321133  *  -0.75163065  *
    22       H         -3.58512306  *   0.02641954  *  -1.01071550  *
    23       H          3.92960575  *   2.53120163  *   0.46321168  *
    24       H          2.59253430  *   2.09701014  *   1.62370009  *
    25       H         -4.18621932  *   2.12374080  *   0.16394462  *
    26       H         -2.89613171  *   1.82723285  *   1.41724124  *
 


          CARTESIAN COORDINATES 

    NO.       ATOM         X         Y         Z

     1         C        1.1653   -0.8276   -0.6437
     2         C       -1.0260   -0.9367   -0.7229
     3         C        0.1058   -1.8970   -0.2834
     4         C        0.0327    0.1387   -1.0672
     5         C        2.0058   -0.3667    0.5305
     6         C       -1.9905   -0.5658    0.3860
     7         C        3.0125    0.6504    0.1210
     8         C       -3.0633    0.3447   -0.0998
     9         C        3.1829    1.8014    0.7605
    10         C       -3.3924    1.4731    0.5176
    11         H        1.8208   -1.1280   -1.4881
    12         H       -1.5858   -1.2978   -1.6113
    13         H        0.0814   -2.1815    0.7807
    14         H        0.1732   -2.8258   -0.8682
    15         H        0.0561    0.4374   -2.1253
    16         H       -0.0349    1.0610   -0.4686
    17         H        1.3516    0.0173    1.3407
    18         H       -1.4381   -0.1189    1.2387
    19         H        2.5411   -1.2371    0.9617
    20         H       -2.4644   -1.4867    0.7826
    21         H        3.6256    0.3932   -0.7516
    22         H       -3.5851    0.0264   -1.0107
    23         H        3.9296    2.5312    0.4632
    24         H        2.5925    2.0970    1.6237
    25         H       -4.1862    2.1237    0.1639
    26         H       -2.8961    1.8272    1.4172

  H: (PM3): J. J. P. STEWART, J. COMP. CHEM. 10, 209 (1989).
  C: (PM3): J. J. P. STEWART, J. COMP. CHEM. 10, 209 (1989).

           Empirical Formula: C10 H16  =    26 atoms



      MOLECULAR POINT GROUP   :   C1  


      RHF CALCULATION, NO. OF DOUBLY OCCUPIED LEVELS =   28



          HEAT OF FORMATION =      22.350818 KCALS/MOLE


          INTERNAL COORDINATE DERIVATIVES

   NUMBER  ATOM       BOND         ANGLE      DIHEDRAL

     1       C     -0.001622     0.001469    -0.000267
     2       C     -0.001412     0.000196    -0.000614
     3       C     -0.000928     0.002931    -0.004023
     4       C     -0.001346     0.000222     0.001827
     5       C     -0.001312     0.000850    -0.002548
     6       C     -0.001552     0.000025    -0.001291
     7       C      0.002177    -0.003781     0.004283
     8       C      0.002412    -0.003244     0.001170
     9       C      0.004206     0.006112    -0.003711
    10       C     -0.004362     0.002626    -0.000828
    11       H      0.005099    -0.002342     0.000439
    12       H      0.000646     0.000380     0.000579
    13       H      0.003834     0.001562    -0.000253
    14       H      0.001270     0.003819    -0.001229
    15       H     -0.005028     0.001724     0.001720
    16       H     -0.001260     0.002436    -0.000700
    17       H      0.000018     0.000064    -0.000417
    18       H     -0.000121    -0.000361     0.000981
    19       H      0.004856     0.001746     0.000430
    20       H      0.002036    -0.002354     0.003011
    21       H     -0.007630    -0.012052     0.004469
    22       H     -0.004746     0.004033     0.000579
    23       H      0.002115    -0.002472    -0.002028
    24       H     -0.005933     0.002519    -0.001833
    25       H      0.005268    -0.002785     0.002702
    26       H      0.003318    -0.003319    -0.002448


          GRADIENT NORM =   0.02735


          TIME FOR SCF CALCULATION =    0.01

          TIME FOR DERIVATIVES     =    0.01

          MOLECULAR WEIGHT =  136.24



          ROTATIONAL CONSTANTS IN CM(-1)

          A =    0.07000049   B =    0.02242282   C =    0.01871967



           PRINCIPAL MOMENTS OF INERTIA IN UNITS OF 10**(-40)*GRAM-CM**2

          A =      399.8940   B =     1248.4058   C =     1495.3670


          ORIENTATION OF MOLECULE IN FORCE CALCULATION

    NO.       ATOM         X         Y         Z

     1          C      -1.0982    0.5736   -0.9170
     2          C       1.0973    0.5736   -0.9170
     3          C      -0.0005    1.6649   -0.9170
     4          C      -0.0005   -0.5176   -0.8999
     5          C      -2.0024    0.6031    0.2992
     6          C       2.0015    0.6030    0.2992
     7          C      -3.0430   -0.4595    0.2371
     8          C       3.0445   -0.4571    0.2349
     9          C      -3.2933   -1.2898    1.2424
    10          C       3.2946   -1.2910    1.2374
    11          H      -1.7070    0.5652   -1.8456
    12          H       1.7061    0.5653   -1.8456
    13          H      -0.0004    2.3186   -0.0301
    14          H      -0.0004    2.3166   -1.8028
    15          H      -0.0005   -1.1823   -1.7760
    16          H      -0.0005   -1.1582   -0.0037
    17          H      -1.3978    0.5212    1.2263
    18          H       1.3972    0.5182    1.2262
    19          H      -2.5090    1.5880    0.3551
    20          H       2.5060    1.5890    0.3568
    21          H      -3.6106   -0.5198   -0.6997
    22          H       3.6141   -0.5122   -0.7010
    23          H      -4.0642   -2.0526    1.1934
    24          H      -2.7500   -1.2679    2.1833
    25          H       4.0673   -2.0519    1.1868
    26          H       2.7492   -1.2743    2.1772


    FIRST DERIVATIVES WILL BE USED IN THE CALCULATION OF SECOND DERIVATIVES

          ESTIMATED TIME TO COMPLETE CALCULATION =        3.85 SECONDS

    FOR POINT-GROUP C1   THERE ARE   1 UNIQUE SYMMETRY FUNCTIONS.

 STEP:   1 TIME =     0.04 SECS, INTEGRAL =      0.04 TIME LEFT: 172799.95
 STEP:   2 TIME =     0.04 SECS, INTEGRAL =      0.08 TIME LEFT: 172799.91
 STEP:   3 TIME =     0.04 SECS, INTEGRAL =      0.12 TIME LEFT: 172799.87
 STEP:   4 TIME =     0.04 SECS, INTEGRAL =      0.16 TIME LEFT: 172799.83
 STEP:   5 TIME =     0.04 SECS, INTEGRAL =      0.20 TIME LEFT: 172799.79
 STEP:   6 TIME =     0.04 SECS, INTEGRAL =      0.23 TIME LEFT: 172799.75
 STEP:   7 TIME =     0.04 SECS, INTEGRAL =      0.27 TIME LEFT: 172799.71
 STEP:   8 TIME =     0.04 SECS, INTEGRAL =      0.31 TIME LEFT: 172799.68
 STEP:   9 TIME =     0.04 SECS, INTEGRAL =      0.35 TIME LEFT: 172799.64
 STEP:  10 TIME =     0.04 SECS, INTEGRAL =      0.39 TIME LEFT: 172799.60
 STEP:  11 TIME =     0.04 SECS, INTEGRAL =      0.43 TIME LEFT: 172799.56
 STEP:  12 TIME =     0.04 SECS, INTEGRAL =      0.46 TIME LEFT: 172799.52
 STEP:  13 TIME =     0.04 SECS, INTEGRAL =      0.50 TIME LEFT: 172799.48
 STEP:  14 TIME =     0.04 SECS, INTEGRAL =      0.54 TIME LEFT: 172799.44
 STEP:  15 TIME =     0.04 SECS, INTEGRAL =      0.58 TIME LEFT: 172799.41
 STEP:  16 TIME =     0.04 SECS, INTEGRAL =      0.62 TIME LEFT: 172799.37
 STEP:  17 TIME =     0.04 SECS, INTEGRAL =      0.66 TIME LEFT: 172799.33
 STEP:  18 TIME =     0.04 SECS, INTEGRAL =      0.70 TIME LEFT: 172799.29
 STEP:  19 TIME =     0.04 SECS, INTEGRAL =      0.74 TIME LEFT: 172799.25
 STEP:  20 TIME =     0.04 SECS, INTEGRAL =      0.78 TIME LEFT: 172799.21
 STEP:  21 TIME =     0.04 SECS, INTEGRAL =      0.82 TIME LEFT: 172799.17
 STEP:  22 TIME =     0.04 SECS, INTEGRAL =      0.86 TIME LEFT: 172799.13
 STEP:  23 TIME =     0.04 SECS, INTEGRAL =      0.90 TIME LEFT: 172799.09
 STEP:  24 TIME =     0.04 SECS, INTEGRAL =      0.93 TIME LEFT: 172799.05
 STEP:  25 TIME =     0.04 SECS, INTEGRAL =      0.97 TIME LEFT: 172799.01
 STEP:  26 TIME =     0.04 SECS, INTEGRAL =      1.01 TIME LEFT: 172798.98
 STEP:  27 TIME =     0.04 SECS, INTEGRAL =      1.05 TIME LEFT: 172798.94
 STEP:  28 TIME =     0.04 SECS, INTEGRAL =      1.09 TIME LEFT: 172798.90
 STEP:  29 TIME =     0.04 SECS, INTEGRAL =      1.13 TIME LEFT: 172798.86
 STEP:  30 TIME =     0.04 SECS, INTEGRAL =      1.17 TIME LEFT: 172798.82
 STEP:  31 TIME =     0.04 SECS, INTEGRAL =      1.21 TIME LEFT: 172798.78
 STEP:  32 TIME =     0.04 SECS, INTEGRAL =      1.25 TIME LEFT: 172798.74
 STEP:  33 TIME =     0.04 SECS, INTEGRAL =      1.29 TIME LEFT: 172798.70
 STEP:  34 TIME =     0.04 SECS, INTEGRAL =      1.33 TIME LEFT: 172798.66
 STEP:  35 TIME =     0.04 SECS, INTEGRAL =      1.37 TIME LEFT: 172798.62
 STEP:  36 TIME =     0.04 SECS, INTEGRAL =      1.40 TIME LEFT: 172798.58
 STEP:  37 TIME =     0.04 SECS, INTEGRAL =      1.44 TIME LEFT: 172798.54
 STEP:  38 TIME =     0.04 SECS, INTEGRAL =      1.48 TIME LEFT: 172798.50
 STEP:  39 TIME =     0.04 SECS, INTEGRAL =      1.52 TIME LEFT: 172798.47
 STEP:  40 TIME =     0.04 SECS, INTEGRAL =      1.56 TIME LEFT: 172798.43
 STEP:  41 TIME =     0.04 SECS, INTEGRAL =      1.60 TIME LEFT: 172798.39
 STEP:  42 TIME =     0.04 SECS, INTEGRAL =      1.64 TIME LEFT: 172798.35
 STEP:  43 TIME =     0.04 SECS, INTEGRAL =      1.68 TIME LEFT: 172798.31
 STEP:  44 TIME =     0.04 SECS, INTEGRAL =      1.72 TIME LEFT: 172798.27
 STEP:  45 TIME =     0.04 SECS, INTEGRAL =      1.76 TIME LEFT: 172798.23
 STEP:  46 TIME =     0.04 SECS, INTEGRAL =      1.80 TIME LEFT: 172798.19
 STEP:  47 TIME =     0.04 SECS, INTEGRAL =      1.83 TIME LEFT: 172798.15
 STEP:  48 TIME =     0.04 SECS, INTEGRAL =      1.87 TIME LEFT: 172798.12
 STEP:  49 TIME =     0.04 SECS, INTEGRAL =      1.91 TIME LEFT: 172798.08
 STEP:  50 TIME =     0.04 SECS, INTEGRAL =      1.95 TIME LEFT: 172798.04
 STEP:  51 TIME =     0.04 SECS, INTEGRAL =      1.99 TIME LEFT: 172798.00
 STEP:  52 TIME =     0.04 SECS, INTEGRAL =      2.03 TIME LEFT: 172797.96
 STEP:  53 TIME =     0.04 SECS, INTEGRAL =      2.07 TIME LEFT: 172797.92
 STEP:  54 TIME =     0.04 SECS, INTEGRAL =      2.11 TIME LEFT: 172797.88
 STEP:  55 TIME =     0.05 SECS, INTEGRAL =      2.16 TIME LEFT: 172797.83
 STEP:  56 TIME =     0.04 SECS, INTEGRAL =      2.19 TIME LEFT: 172797.79
 STEP:  57 TIME =     0.04 SECS, INTEGRAL =      2.23 TIME LEFT: 172797.75
 STEP:  58 TIME =     0.04 SECS, INTEGRAL =      2.27 TIME LEFT: 172797.71
 STEP:  59 TIME =     0.04 SECS, INTEGRAL =      2.31 TIME LEFT: 172797.68
 STEP:  60 TIME =     0.04 SECS, INTEGRAL =      2.35 TIME LEFT: 172797.64
 STEP:  61 TIME =     0.04 SECS, INTEGRAL =      2.39 TIME LEFT: 172797.60
 STEP:  62 TIME =     0.04 SECS, INTEGRAL =      2.43 TIME LEFT: 172797.55
 STEP:  63 TIME =     0.04 SECS, INTEGRAL =      2.47 TIME LEFT: 172797.52
 STEP:  64 TIME =     0.04 SECS, INTEGRAL =      2.51 TIME LEFT: 172797.48
 STEP:  65 TIME =     0.04 SECS, INTEGRAL =      2.55 TIME LEFT: 172797.44
 STEP:  66 TIME =     0.04 SECS, INTEGRAL =      2.59 TIME LEFT: 172797.40
 STEP:  67 TIME =     0.04 SECS, INTEGRAL =      2.63 TIME LEFT: 172797.36
 STEP:  68 TIME =     0.04 SECS, INTEGRAL =      2.67 TIME LEFT: 172797.32
 STEP:  69 TIME =     0.04 SECS, INTEGRAL =      2.71 TIME LEFT: 172797.28
 STEP:  70 TIME =     0.04 SECS, INTEGRAL =      2.75 TIME LEFT: 172797.24
 STEP:  71 TIME =     0.04 SECS, INTEGRAL =      2.79 TIME LEFT: 172797.20
 STEP:  72 TIME =     0.04 SECS, INTEGRAL =      2.83 TIME LEFT: 172797.16
 STEP:  73 TIME =     0.04 SECS, INTEGRAL =      2.87 TIME LEFT: 172797.12
 STEP:  74 TIME =     0.04 SECS, INTEGRAL =      2.91 TIME LEFT: 172797.08
 STEP:  75 TIME =     0.04 SECS, INTEGRAL =      2.95 TIME LEFT: 172797.04
 STEP:  76 TIME =     0.04 SECS, INTEGRAL =      2.99 TIME LEFT: 172797.00
 STEP:  77 TIME =     0.04 SECS, INTEGRAL =      3.03 TIME LEFT: 172796.96
 STEP:  78 TIME =     0.04 SECS, INTEGRAL =      3.07 TIME LEFT: 172796.92

(To convert to Hartree/Bohr^2, multiply by (10^(-21) x N x a0^2)/(4.184 x 627.51) = 0.0642)


           FORCE MATRIX IN MILLIDYNES/ANGSTROM


                  C  1       C  2       C  3       C  4       C  5       C  6
 ------------------------------------------------------------------------------
     C    1  14.520555
     C    2   1.804904  14.520281
     C    3   3.470255   3.470277  14.340002
     C    4   3.468418   3.468511   1.829586  14.353695
     C    5   4.255758   0.040257   0.549732   0.539842  14.779303
     C    6   0.040209   4.255140   0.549518   0.539707   0.005793  14.778940
     C    7   0.695199   0.004842   0.050713   0.024519   4.951513   0.001070
     C    8   0.004771   0.695222   0.050715   0.024187   0.001012   4.951599
     C    9   0.042643   0.000755   0.007828   0.004192   0.834846   0.000721
     C   10   0.001070   0.042661   0.007834   0.004271   0.000811   0.834727
     H   11   4.426255   0.028396   0.427506   0.428241   0.432364   0.002112
     H   12   0.028392   4.426089   0.427479   0.428267   0.002138   0.432380
     H   13   0.451777   0.451728   4.644465   0.027895   0.031474   0.031484
     H   14   0.441529   0.441524   4.718035   0.031164   0.033260   0.033263
     H   15   0.441515   0.441601   0.031253   4.718981   0.033037   0.032985
     H   16   0.453285   0.453231   0.027808   4.657143   0.026162   0.026236
     H   17   0.446081   0.002670   0.020272   0.025167   4.403514   0.004169
     H   18   0.002645   0.446111   0.020224   0.025297   0.004159   4.403647
     H   19   0.440707   0.003400   0.019572   0.047097   4.414156   0.000908
     H   20   0.003382   0.440721   0.019730   0.047057   0.000900   4.414124
     H   21   0.028135   0.000338   0.002279   0.002715   0.432319   0.000395
     H   22   0.000375   0.028106   0.002233   0.002711   0.000356   0.432322
     H   23   0.017410   0.000365   0.002774   0.001080   0.135291   0.000276
     H   24   0.010538   0.000244   0.001977   0.000514   0.096286   0.000403
     H   25   0.000293   0.017484   0.002775   0.001044   0.000378   0.135172
     H   26   0.000311   0.010490   0.001954   0.000509   0.000391   0.096310


                  C  7       C  8       C  9       C 10       H 11       H 12
 ------------------------------------------------------------------------------
     C    7  18.183192
     C    8   0.001384  18.182948
     C    9  11.082751   0.000758  18.040987
     C   10   0.000868  11.082777   0.001301  18.040831
     H   11   0.039435   0.000665   0.002092   0.000174   4.929669
     H   12   0.000662   0.039720   0.000207   0.002066   0.002502   4.929482
     H   13   0.002460   0.002523   0.000885   0.000884   0.030561   0.030575
     H   14   0.006074   0.006119   0.001237   0.001295   0.026823   0.026882
     H   15   0.002554   0.002554   0.000811   0.000831   0.027229   0.027191
     H   16   0.004353   0.004411   0.002758   0.002708   0.030041   0.030098
     H   17   0.459156   0.000550   0.047327   0.000482   0.041702   0.000574
     H   18   0.000578   0.459243   0.000550   0.047265   0.000577   0.041677
     H   19   0.411700   0.000435   0.034265   0.000270   0.023566   0.000668
     H   20   0.000453   0.411753   0.000265   0.034305   0.000660   0.023434
     H   21   4.784290   0.000511   0.453983   0.000314   0.026934   0.000244
     H   22   0.000437   4.784287   0.000362   0.453973   0.000239   0.026974
     H   23   0.462628   0.000419   5.108838   0.000350   0.000541   0.000142
     H   24   0.490435   0.000362   5.071809   0.000561   0.000621   0.000249
     H   25   0.000378   0.462772   0.000333   5.108695   0.000158   0.000555
     H   26   0.000432   0.490383   0.000588   5.071761   0.000234   0.000624


                  H 13       H 14       H 15       H 16       H 17       H 18
 ------------------------------------------------------------------------------
     H   13   5.280003
     H   14   0.551194   5.335603
     H   15   0.000950   0.003401   5.337160
     H   16   0.002818   0.000987   0.551104   5.286181
     H   17   0.015550   0.001226   0.001624   0.024470   5.009772
     H   18   0.015334   0.001239   0.001639   0.024621   0.010124   5.009950
     H   19   0.012480   0.002109   0.005610   0.003362   0.558532   0.000257
     H   20   0.012635   0.002097   0.005645   0.003351   0.000269   0.558532
     H   21   0.000646   0.000557   0.000640   0.000986   0.038901   0.000221
     H   22   0.000640   0.000552   0.000636   0.000973   0.000193   0.038930
     H   23   0.000151   0.000515   0.000254   0.000513   0.003042   0.000176
     H   24   0.000284   0.000367   0.000274   0.000748   0.028920   0.000208
     H   25   0.000134   0.000516   0.000297   0.000512   0.000151   0.003038
     H   26   0.000252   0.000360   0.000265   0.000773   0.000228   0.028920


                  H 19       H 20       H 21       H 22       H 23       H 24
 ------------------------------------------------------------------------------
     H   19   5.004095
     H   20   0.000331   5.004130
     H   21   0.018361   0.000129   5.158383
     H   22   0.000110   0.018499   0.000188   5.158365
     H   23   0.017130   0.000106   0.077631   0.000142   5.498067
     H   24   0.011307   0.000145   0.115815   0.000169   0.422954   5.468612
     H   25   0.000080   0.017104   0.000150   0.077466   0.000140   0.000186
     H   26   0.000137   0.011276   0.000178   0.115794   0.000197   0.000313


                  H 25       H 26
 ------------------------------
     H   25   5.497929
     H   26   0.422911   5.468583


          HEAT OF FORMATION =      22.350818 KCALS/MOLE

          ZERO POINT ENERGY     145.055 KCAL/MOL


           NORMAL COORDINATE ANALYSIS (Total motion = 1 Angstrom)


   Root No.       1         2         3         4         5         6         7         8

                 1 A       2 A       3 A       4 A       5 A       6 A       7 A       8 A   

                  34.3      67.5      79.1     104.2     121.4     227.5     251.0     363.6
  
           1    0.0000   -0.0117    0.0005   -0.0035    0.0001    0.0051   -0.0023    0.0096
           2   -0.0135    0.0166   -0.0048    0.0048   -0.0109   -0.0249   -0.0058   -0.0192
           3    0.0127   -0.0112    0.0097    0.0137    0.0003   -0.0147   -0.0074    0.0039
           4    0.0000   -0.0117    0.0001   -0.0035   -0.0001    0.0052    0.0022   -0.0096
           5   -0.0135   -0.0168   -0.0040   -0.0048   -0.0109    0.0249   -0.0063   -0.0193
           6    0.0126    0.0117    0.0093   -0.0137    0.0004    0.0146   -0.0078    0.0041
           7    0.0000    0.0047   -0.0001    0.0007    0.0000   -0.0174    0.0002    0.0000
           8   -0.0136   -0.0001   -0.0043    0.0000   -0.0112    0.0000   -0.0071   -0.0194
           9    0.0144    0.0001    0.0004    0.0000   -0.0234    0.0004    0.0368    0.0426
          10    0.0000   -0.0284    0.0007   -0.0079    0.0000    0.0295   -0.0003   -0.0001
          11   -0.0134   -0.0001   -0.0038    0.0000   -0.0113    0.0000   -0.0058   -0.0297
          12    0.0273    0.0013    0.0514    0.0001   -0.0025   -0.0003   -0.0286    0.0054
          13   -0.0132   -0.0228   -0.0246    0.0087    0.0194   -0.0004   -0.0152    0.0217
          14   -0.0052    0.0301    0.0200    0.0029    0.0011   -0.0086   -0.0044    0.0056
          15    0.0026   -0.0199   -0.0101    0.0232    0.0151   -0.0196   -0.0169    0.0038
          16    0.0133   -0.0214    0.0256    0.0088   -0.0195    0.0000    0.0151   -0.0216
          17   -0.0052   -0.0291    0.0214   -0.0027    0.0010    0.0084   -0.0045    0.0057
          18    0.0024    0.0193   -0.0108   -0.0234    0.0153    0.0192   -0.0173    0.0039
          19   -0.0318    0.0012   -0.0090   -0.0114   -0.0102   -0.0248   -0.0296    0.0238
          20    0.0141    0.0056    0.0042    0.0233    0.0304    0.0154    0.0092    0.0127
          21   -0.0155   -0.0040   -0.0075    0.0051    0.0126    0.0055    0.0058   -0.0207
          22    0.0316    0.0016    0.0090   -0.0114    0.0101   -0.0242    0.0301   -0.0239
          23    0.0138   -0.0055    0.0046   -0.0234    0.0303   -0.0154    0.0096    0.0127
          24   -0.0156    0.0035   -0.0076   -0.0051    0.0127   -0.0055    0.0059   -0.0207
          25   -0.0645    0.0438    0.0223    0.0087    0.0089    0.0111    0.0085    0.0195
          26    0.0180   -0.0062   -0.0158   -0.0264   -0.0075    0.0062    0.0044    0.0242
          27   -0.0205   -0.0031   -0.0162   -0.0312   -0.0140    0.0073    0.0121   -0.0144
          28    0.0645    0.0427   -0.0243    0.0081   -0.0087    0.0109   -0.0087   -0.0195
          29    0.0183    0.0054   -0.0162    0.0262   -0.0074   -0.0061    0.0045    0.0242
          30   -0.0202    0.0024   -0.0167    0.0313   -0.0141   -0.0069    0.0121   -0.0144
          31    0.0094   -0.0033    0.0179   -0.0137   -0.0136    0.0131    0.0074    0.0172
          32   -0.0188    0.0244   -0.0268    0.0088   -0.0191   -0.0450    0.0161   -0.0089
          33    0.0064   -0.0167   -0.0017    0.0202    0.0096   -0.0192   -0.0136   -0.0009
          34   -0.0095   -0.0043   -0.0175   -0.0138    0.0137    0.0129   -0.0075   -0.0172
          35   -0.0188   -0.0256   -0.0256   -0.0088   -0.0191    0.0455    0.0151   -0.0091
          36    0.0062    0.0165   -0.0023   -0.0203    0.0097    0.0189   -0.0141   -0.0007
          37    0.0001    0.0054   -0.0002    0.0144    0.0000   -0.0438    0.0005    0.0000
          38   -0.0162    0.0000    0.0011    0.0000    0.0098   -0.0004   -0.0485   -0.0618
          39    0.0163    0.0000   -0.0036    0.0000   -0.0389    0.0007    0.0682    0.0762
          40    0.0000    0.0240   -0.0005   -0.0078    0.0000   -0.0196    0.0002    0.0002
          41   -0.0111   -0.0002   -0.0099    0.0001   -0.0322    0.0004    0.0358    0.0276
          42    0.0163    0.0000   -0.0037    0.0000   -0.0389    0.0007    0.0689    0.0781
          43   -0.0001   -0.0294    0.0008   -0.0219    0.0000    0.0574   -0.0006    0.0000
          44   -0.0258   -0.0010   -0.0397   -0.0001   -0.0070    0.0002    0.0132   -0.0314
          45    0.0367    0.0020    0.0787    0.0002   -0.0058   -0.0005   -0.0432    0.0069
          46    0.0000   -0.0491    0.0011    0.0010    0.0000    0.0332   -0.0003   -0.0002
          47   -0.0009    0.0009    0.0328    0.0002   -0.0161   -0.0002   -0.0233   -0.0280
          48    0.0362    0.0020    0.0778    0.0002   -0.0059   -0.0005   -0.0417    0.0067
          49   -0.0257   -0.0288   -0.0440    0.0143    0.0310   -0.0001   -0.0179    0.0202
          50   -0.0206    0.0642    0.0513   -0.0283   -0.0286   -0.0085   -0.0002   -0.0050
          51    0.0092   -0.0130    0.0051    0.0167    0.0051   -0.0193   -0.0143    0.0045
          52    0.0260   -0.0262    0.0450    0.0145   -0.0310    0.0003    0.0178   -0.0198
          53   -0.0203   -0.0614    0.0540    0.0288   -0.0287    0.0085   -0.0005   -0.0044
          54    0.0091    0.0131    0.0047   -0.0167    0.0051    0.0189   -0.0148    0.0048
          55    0.0031   -0.0424   -0.0369    0.0296    0.0487    0.0185   -0.0070    0.0360
          56    0.0033    0.0214    0.0156    0.0122    0.0149    0.0022    0.0009    0.0128
          57    0.0020   -0.0481   -0.0473    0.0472    0.0359   -0.0302   -0.0274    0.0054
          58   -0.0027   -0.0402    0.0385    0.0299   -0.0488    0.0188    0.0064   -0.0356
          59    0.0031   -0.0208    0.0168   -0.0120    0.0147   -0.0023    0.0011    0.0128
          60    0.0015    0.0454   -0.0490   -0.0476    0.0361    0.0296   -0.0279    0.0049
          61   -0.0176   -0.0155   -0.0224   -0.0416   -0.0466   -0.0706   -0.0691    0.0479
          62    0.0254   -0.0036    0.0081    0.0798    0.0833    0.0439    0.0272    0.0003
          63   -0.0249    0.0068    0.0003    0.0196    0.0311    0.0318    0.0291   -0.0341
          64    0.0169   -0.0147    0.0233   -0.0412    0.0459   -0.0691    0.0705   -0.0481
          65    0.0245    0.0037    0.0085   -0.0799    0.0830   -0.0437    0.0282    0.0002
          66   -0.0252   -0.0070    0.0009   -0.0198    0.0313   -0.0315    0.0300   -0.0343
          67   -0.0777    0.0623    0.0354   -0.0015   -0.0081   -0.0051   -0.0009    0.0336
          68    0.0322   -0.0256   -0.0291   -0.0151    0.0100    0.0208    0.0119    0.0107
          69   -0.0342    0.0091   -0.0157   -0.0491   -0.0197    0.0384    0.0454   -0.0150
          70   -0.0799    0.0630    0.0371    0.0372    0.0434    0.0613    0.0544    0.0036
          71    0.0070    0.0028   -0.0205   -0.0833   -0.0599   -0.0167   -0.0073    0.0510
          72   -0.0113   -0.0144   -0.0247   -0.0463   -0.0327   -0.0209   -0.0138   -0.0057
          73    0.0774    0.0603   -0.0382   -0.0021    0.0081   -0.0050    0.0009   -0.0337
          74    0.0323    0.0241   -0.0303    0.0146    0.0100   -0.0204    0.0121    0.0106
          75   -0.0339   -0.0098   -0.0157    0.0494   -0.0199   -0.0373    0.0461   -0.0152
          76    0.0804    0.0614   -0.0402    0.0361   -0.0426    0.0601   -0.0556   -0.0034
          77    0.0080   -0.0036   -0.0209    0.0830   -0.0596    0.0167   -0.0077    0.0512
          78   -0.0108    0.0134   -0.0258    0.0466   -0.0328    0.0209   -0.0145   -0.0054


   Root No.       9        10        11        12        13        14        15        16

                 9 A      10 A      11 A      12 A      13 A      14 A      15 A      16 A   

                 390.3     425.0     435.6     461.5     478.4     613.2     626.9     766.1
  
           1    0.0165    0.0021    0.0187    0.0066   -0.0031    0.0083    0.0039    0.0347
           2   -0.0149    0.0104    0.0210    0.0050   -0.0015   -0.0004    0.0013   -0.0002
           3    0.0321   -0.0081    0.0000    0.0286    0.0234    0.0144   -0.0092    0.0143
           4    0.0165   -0.0020    0.0187    0.0066    0.0031   -0.0085    0.0034   -0.0347
           5    0.0147    0.0104   -0.0210   -0.0050   -0.0015   -0.0003   -0.0013   -0.0002
           6   -0.0321   -0.0084    0.0000   -0.0287    0.0232    0.0139    0.0099    0.0143
           7    0.0023    0.0001    0.0500    0.0117    0.0000   -0.0003    0.0138    0.0000
           8   -0.0001    0.0160    0.0000    0.0000   -0.0054    0.0046    0.0002    0.0431
           9    0.0001   -0.0016   -0.0001    0.0000   -0.0126    0.0015    0.0001    0.0079
          10    0.0326    0.0001   -0.0020    0.0027    0.0000   -0.0002    0.0068    0.0000
          11   -0.0001    0.0129    0.0000    0.0000   -0.0007   -0.0055   -0.0002   -0.0221
          12   -0.0001    0.0318   -0.0001    0.0000   -0.0117   -0.0001    0.0000    0.0065
          13   -0.0202    0.0100   -0.0081   -0.0118   -0.0132    0.0033   -0.0021    0.0149
          14    0.0228   -0.0256   -0.0110   -0.0150   -0.0044   -0.0010   -0.0012   -0.0140
          15    0.0068   -0.0056   -0.0141    0.0113    0.0147   -0.0002   -0.0038   -0.0194
          16   -0.0203   -0.0101   -0.0080   -0.0119    0.0132   -0.0032   -0.0023   -0.0148
          17   -0.0226   -0.0257    0.0111    0.0152   -0.0043   -0.0011    0.0011   -0.0139
          18   -0.0067   -0.0057    0.0141   -0.0114    0.0147   -0.0004    0.0038   -0.0194
          19   -0.0024   -0.0094   -0.0166   -0.0221   -0.0162    0.0181   -0.0223   -0.0076
          20    0.0039   -0.0073   -0.0123   -0.0066   -0.0023   -0.0116    0.0120    0.0056
          21    0.0094   -0.0152    0.0146   -0.0286   -0.0212   -0.0103    0.0121    0.0061
          22   -0.0026    0.0093   -0.0167   -0.0223    0.0161   -0.0170   -0.0232    0.0077
          23   -0.0037   -0.0071    0.0122    0.0065   -0.0023   -0.0110   -0.0126    0.0056
          24   -0.0094   -0.0152   -0.0146    0.0288   -0.0211   -0.0097   -0.0127    0.0061
          25   -0.0068    0.0084   -0.0149    0.0158    0.0122   -0.0009   -0.0004   -0.0013
          26   -0.0079    0.0095   -0.0175    0.0162    0.0119    0.0059   -0.0076   -0.0022
          27   -0.0017    0.0038    0.0135   -0.0002   -0.0027   -0.0020    0.0037    0.0026
          28   -0.0068   -0.0084   -0.0149    0.0159   -0.0122    0.0009   -0.0003    0.0013
          29    0.0080    0.0095    0.0175   -0.0162    0.0118    0.0056    0.0079   -0.0022
          30    0.0016    0.0038   -0.0135    0.0002   -0.0027   -0.0018   -0.0037    0.0026
          31    0.0197    0.0112    0.0302    0.0040   -0.0168    0.0060    0.0120    0.0603
          32   -0.0345    0.0038    0.0468    0.0132   -0.0005   -0.0004    0.0058    0.0015
          33    0.0284   -0.0130   -0.0075    0.0291    0.0310    0.0149   -0.0135   -0.0034
          34    0.0197   -0.0111    0.0303    0.0039    0.0168   -0.0065    0.0116   -0.0603
          35    0.0344    0.0039   -0.0468   -0.0133   -0.0005   -0.0002   -0.0058    0.0014
          36   -0.0283   -0.0132    0.0076   -0.0292    0.0308    0.0143    0.0143   -0.0035
          37    0.0223    0.0002    0.0698    0.0433    0.0001   -0.0002    0.0084   -0.0001
          38   -0.0002    0.0076    0.0001   -0.0001    0.0427    0.0301    0.0009    0.1046
          39    0.0002    0.0044   -0.0001    0.0001   -0.0500   -0.0182   -0.0005   -0.0396
          40   -0.0379    0.0000    0.0677   -0.0147   -0.0001   -0.0007    0.0317   -0.0001
          41    0.0000    0.0234   -0.0001    0.0001   -0.0564   -0.0208   -0.0006   -0.0103
          42    0.0002    0.0041   -0.0001    0.0001   -0.0515   -0.0180   -0.0005   -0.0344
          43    0.0115   -0.0001   -0.0152   -0.0302   -0.0001   -0.0005    0.0215   -0.0001
          44    0.0000   -0.0380    0.0001   -0.0001    0.0484    0.0211    0.0006    0.0101
          45   -0.0002    0.0717   -0.0001    0.0001   -0.0501   -0.0212   -0.0006   -0.0205
          46    0.0732    0.0002   -0.0169    0.0298    0.0001    0.0000   -0.0015   -0.0001
          47   -0.0003    0.0591   -0.0001    0.0001   -0.0479   -0.0316   -0.0009   -0.0648
          48   -0.0002    0.0673   -0.0001    0.0000   -0.0472   -0.0198   -0.0005   -0.0245
          49   -0.0572    0.0253   -0.0143   -0.0265   -0.0258   -0.0189    0.0132   -0.0047
          50    0.0812   -0.0735    0.0009   -0.0506   -0.0272    0.0449   -0.0434    0.0048
          51    0.0342   -0.0180   -0.0092    0.0186    0.0209    0.0171   -0.0166   -0.0055
          52   -0.0570   -0.0256   -0.0142   -0.0266    0.0257    0.0182    0.0141    0.0047
          53   -0.0807   -0.0740   -0.0006    0.0512   -0.0271    0.0428    0.0457    0.0046
          54   -0.0342   -0.0183    0.0093   -0.0185    0.0208    0.0164    0.0175   -0.0056
          55   -0.0405    0.0265   -0.0225    0.0004   -0.0035   -0.0354    0.0387    0.0282
          56    0.0172   -0.0207   -0.0178   -0.0106   -0.0005   -0.0174    0.0170   -0.0041
          57   -0.0688    0.0489   -0.0212    0.0364    0.0271   -0.0408    0.0267   -0.0654
          58   -0.0406   -0.0269   -0.0223    0.0005    0.0035    0.0335    0.0404   -0.0282
          59   -0.0172   -0.0209    0.0177    0.0108   -0.0005   -0.0165   -0.0177   -0.0040
          60    0.0685    0.0493    0.0210   -0.0368    0.0271   -0.0395   -0.0289   -0.0653
          61    0.0115   -0.0303   -0.0525   -0.0228   -0.0038   -0.0144    0.0076   -0.0183
          62   -0.0082    0.0065    0.0100   -0.0131   -0.0172    0.0256   -0.0259    0.0065
          63    0.0012   -0.0024    0.0348   -0.0261   -0.0266    0.0068   -0.0032    0.0125
          64    0.0109    0.0302   -0.0526   -0.0230    0.0038    0.0140    0.0084    0.0183
          65    0.0083    0.0068   -0.0101    0.0131   -0.0171    0.0244    0.0273    0.0065
          66   -0.0013   -0.0022   -0.0350    0.0262   -0.0265    0.0068    0.0038    0.0126
          67    0.0099   -0.0088   -0.0480    0.0329    0.0418   -0.0926    0.0990    0.0385
          68   -0.0235    0.0244    0.0142   -0.0037   -0.0191    0.0957   -0.1051   -0.0410
          69   -0.0281    0.0510    0.0283    0.0600    0.0314    0.0473   -0.0482   -0.0271
          70   -0.0297    0.0481    0.0172    0.0494    0.0220    0.0638   -0.0680   -0.0311
          71   -0.0058    0.0150   -0.0566    0.0667    0.0634   -0.0574    0.0595    0.0158
          72    0.0112   -0.0185   -0.0041   -0.0195   -0.0086   -0.0378    0.0412    0.0192
          73    0.0097    0.0086   -0.0478    0.0332   -0.0415    0.0877    0.1035   -0.0385
          74    0.0234    0.0244   -0.0143    0.0039   -0.0192    0.0908    0.1100   -0.0411
          75    0.0276    0.0510   -0.0286   -0.0603    0.0311    0.0456    0.0514   -0.0274
          76   -0.0293   -0.0481    0.0173    0.0498   -0.0219   -0.0605   -0.0712    0.0311
          77    0.0058    0.0148    0.0566   -0.0671    0.0630   -0.0548   -0.0627    0.0159
          78   -0.0111   -0.0186    0.0045    0.0194   -0.0083   -0.0363   -0.0436    0.0194


   Root No.      17        18        19        20        21        22        23        24

                17 A      18 A      19 A      20 A      21 A      22 A      23 A      24 A   

                 872.1     875.3     897.6     910.8     923.7     938.1     950.5     968.2
  
           1   -0.0064   -0.0009    0.0033   -0.0061   -0.0105    0.0062   -0.0036   -0.0094
           2    0.0063   -0.0019   -0.0045    0.0003   -0.0013   -0.0085   -0.0068   -0.0024
           3   -0.0039   -0.0029   -0.0012   -0.0134    0.0031    0.0014    0.0025   -0.0021
           4   -0.0065    0.0007   -0.0033   -0.0061    0.0105    0.0063    0.0035    0.0095
           5   -0.0063   -0.0021   -0.0045   -0.0003   -0.0014    0.0085   -0.0069   -0.0023
           6    0.0040   -0.0028   -0.0012    0.0134    0.0031   -0.0014    0.0025   -0.0022
           7    0.0023    0.0000    0.0000    0.0095    0.0000    0.0018    0.0000    0.0000
           8    0.0000    0.0002    0.0172    0.0000   -0.0165   -0.0001    0.0000   -0.0193
           9    0.0000   -0.0006   -0.0308    0.0000    0.0070    0.0000   -0.0016    0.0227
          10    0.0269    0.0003    0.0000    0.0133    0.0001   -0.0185    0.0001   -0.0001
          11   -0.0001    0.0084    0.0091    0.0000    0.0239    0.0002    0.0256    0.0274
          12    0.0002   -0.0182    0.0201    0.0000    0.0148    0.0000    0.0016    0.0191
          13   -0.0205    0.0132    0.0056    0.0037   -0.0002    0.0095    0.0049    0.0120
          14    0.0228   -0.0140   -0.0003    0.0066   -0.0134   -0.0038   -0.0186    0.0013
          15    0.0000    0.0148    0.0066    0.0210   -0.0088   -0.0018   -0.0001   -0.0100
          16   -0.0202   -0.0136   -0.0056    0.0037    0.0001    0.0094   -0.0049   -0.0119
          17   -0.0225   -0.0145   -0.0004   -0.0066   -0.0134    0.0036   -0.0186    0.0011
          18   -0.0004    0.0147    0.0066   -0.0211   -0.0088    0.0017   -0.0001   -0.0099
          19   -0.0001   -0.0020   -0.0016   -0.0037    0.0123   -0.0147   -0.0093    0.0007
          20   -0.0018    0.0001   -0.0032   -0.0033   -0.0030    0.0112    0.0121    0.0019
          21    0.0006   -0.0017   -0.0014   -0.0001   -0.0047    0.0073    0.0028    0.0057
          22   -0.0001    0.0020    0.0016   -0.0037   -0.0122   -0.0148    0.0093   -0.0006
          23    0.0018    0.0002   -0.0032    0.0032   -0.0029   -0.0112    0.0122    0.0020
          24   -0.0006   -0.0017   -0.0014    0.0001   -0.0047   -0.0074    0.0029    0.0057
          25    0.0018   -0.0048   -0.0051   -0.0126    0.0125   -0.0085    0.0053   -0.0133
          26   -0.0020   -0.0005   -0.0041   -0.0095    0.0092   -0.0001    0.0138   -0.0080
          27    0.0032   -0.0047   -0.0023   -0.0062    0.0012    0.0014    0.0050   -0.0050
          28    0.0017    0.0048    0.0051   -0.0126   -0.0124   -0.0086   -0.0054    0.0132
          29    0.0020   -0.0004   -0.0041    0.0094    0.0091    0.0002    0.0138   -0.0077
          30   -0.0031   -0.0048   -0.0023    0.0062    0.0012   -0.0014    0.0050   -0.0050
          31    0.0114   -0.0279   -0.0033   -0.0175   -0.0126    0.0030   -0.0179    0.0072
          32   -0.0127    0.0198   -0.0837   -0.0039   -0.0147    0.0002   -0.0264   -0.0084
          33   -0.0140    0.0149    0.0041   -0.0037    0.0037    0.0023    0.0114   -0.0143
          34    0.0106    0.0281    0.0032   -0.0175    0.0126    0.0034    0.0177   -0.0069
          35    0.0124    0.0202   -0.0838    0.0039   -0.0147   -0.0004   -0.0265   -0.0081
          36    0.0136    0.0153    0.0041    0.0036    0.0037   -0.0021    0.0113   -0.0143
          37   -0.0018   -0.0001    0.0000   -0.0328    0.0001    0.0047   -0.0002    0.0001
          38    0.0002   -0.0034   -0.1011    0.0000   -0.0041   -0.0001   -0.0137    0.0373
          39   -0.0001    0.0018    0.0618    0.0000   -0.0035    0.0000    0.0082   -0.0220
          40    0.0323    0.0005    0.0000    0.0885   -0.0001   -0.0250    0.0002   -0.0004
          41   -0.0002    0.0020    0.1368   -0.0001   -0.0404   -0.0001    0.0047   -0.0870
          42   -0.0001    0.0010    0.0627    0.0000   -0.0101    0.0000    0.0035   -0.0282
          43    0.0545    0.0007    0.0002    0.0956    0.0000   -0.0376    0.0003   -0.0005
          44    0.0007   -0.0638    0.0905    0.0001    0.0724    0.0003    0.0323    0.0874
          45   -0.0005    0.0399   -0.0463    0.0000   -0.0229    0.0000   -0.0035   -0.0277
          46    0.0540    0.0006    0.0000   -0.0324    0.0002   -0.0380    0.0000    0.0001
          47   -0.0010    0.0849   -0.0766   -0.0001   -0.0166    0.0002    0.0249   -0.0226
          48   -0.0005    0.0398   -0.0446    0.0000   -0.0162    0.0000    0.0013   -0.0191
          49    0.0150   -0.0213   -0.0016    0.0043    0.0014   -0.0082   -0.0313    0.0493
          50   -0.0619    0.0702    0.0197    0.0503   -0.0041    0.0070    0.0040    0.0259
          51   -0.0285    0.0425    0.0125    0.0236   -0.0094    0.0105    0.0245   -0.0321
          52    0.0144    0.0215    0.0015    0.0043   -0.0013   -0.0078    0.0313   -0.0491
          53    0.0602    0.0715    0.0198   -0.0503   -0.0037   -0.0068    0.0038    0.0260
          54    0.0276    0.0433    0.0125   -0.0238   -0.0092   -0.0103    0.0244   -0.0317
          55    0.0107   -0.0283   -0.0054   -0.0249   -0.0278    0.0511    0.0097    0.0263
          56    0.0316   -0.0287   -0.0048   -0.0062   -0.0273    0.0205   -0.0124    0.0099
          57    0.0998   -0.0697   -0.0142    0.0008   -0.0111   -0.0494   -0.0566   -0.0275
          58    0.0100    0.0283    0.0055   -0.0248    0.0275    0.0512   -0.0101   -0.0255
          59   -0.0306   -0.0290   -0.0049    0.0060   -0.0271   -0.0207   -0.0122    0.0093
          60   -0.0983   -0.0721   -0.0144   -0.0007   -0.0117    0.0487   -0.0568   -0.0274
          61    0.0355   -0.0168   -0.0089    0.0183   -0.0801    0.1049    0.0583    0.0333
          62   -0.0598    0.0524    0.0195    0.0266    0.0679   -0.1026   -0.0746    0.0033
          63   -0.0170    0.0039    0.0017   -0.0149    0.0461   -0.0577   -0.0330   -0.0142
          64    0.0347    0.0172    0.0089    0.0188    0.0791    0.1050   -0.0586   -0.0336
          65    0.0583    0.0535    0.0196   -0.0262    0.0675    0.1028   -0.0751    0.0030
          66    0.0171    0.0044    0.0018    0.0151    0.0461    0.0585   -0.0336   -0.0144
          67   -0.0357    0.0267    0.0075    0.0069    0.0064    0.0070    0.0138    0.0113
          68    0.0348   -0.0328   -0.0185   -0.0331    0.0195   -0.0168    0.0091   -0.0358
          69    0.0063    0.0243    0.0316    0.0830   -0.0723    0.0220   -0.0647    0.0601
          70    0.0208    0.0026    0.0071    0.0401   -0.0736    0.0800    0.0299    0.0413
          71   -0.0482    0.0535    0.0320    0.0589    0.0097   -0.0552   -0.0825    0.0342
          72   -0.0069   -0.0094   -0.0094   -0.0361    0.0491   -0.0477   -0.0084   -0.0361
          73   -0.0349   -0.0273   -0.0076    0.0070   -0.0063    0.0069   -0.0137   -0.0116
          74   -0.0340   -0.0336   -0.0186    0.0335    0.0195    0.0171    0.0094   -0.0360
          75   -0.0069    0.0242    0.0315   -0.0831   -0.0716   -0.0226   -0.0646    0.0590
          76    0.0206   -0.0024   -0.0071    0.0404    0.0728    0.0801   -0.0300   -0.0415
          77    0.0469    0.0546    0.0321   -0.0588    0.0098    0.0550   -0.0828    0.0335
          78    0.0073   -0.0091   -0.0092    0.0362    0.0488    0.0484   -0.0089   -0.0360


   Root No.      25        26        27        28        29        30        31        32

                25 A      26 A      27 A      28 A      29 A      30 A      31 A      32 A   

                 969.1    1003.1    1007.1    1013.5    1045.4    1046.4    1049.3    1065.7
  
           1   -0.0059    0.0013   -0.0009   -0.0041   -0.0258   -0.0135   -0.0019    0.0042
           2   -0.0002   -0.0159    0.0091   -0.0090   -0.0251   -0.0004    0.0036    0.0186
           3   -0.0045   -0.0002   -0.0036   -0.0008   -0.0018   -0.0030   -0.0047    0.0046
           4   -0.0059    0.0013    0.0009   -0.0041   -0.0259   -0.0135    0.0018   -0.0041
           5    0.0002    0.0159    0.0094    0.0090    0.0249    0.0004    0.0037    0.0186
           6    0.0045    0.0003   -0.0036    0.0009    0.0019    0.0030   -0.0047    0.0046
           7    0.0083    0.0164    0.0002    0.0129    0.0372    0.0052    0.0001    0.0000
           8   -0.0001    0.0000   -0.0055    0.0000    0.0001    0.0000   -0.0012   -0.0323
           9    0.0001    0.0000   -0.0046    0.0000    0.0000    0.0000   -0.0022   -0.0229
          10    0.0078   -0.0159   -0.0002   -0.0100   -0.0149    0.0054   -0.0001   -0.0001
          11    0.0001    0.0001   -0.0200    0.0000    0.0001    0.0000   -0.0076   -0.0126
          12    0.0001   -0.0001    0.0098    0.0000   -0.0001    0.0000    0.0089    0.0228
          13   -0.0047   -0.0024   -0.0018    0.0005   -0.0026    0.0025    0.0007    0.0102
          14   -0.0165    0.0044   -0.0061   -0.0021    0.0008   -0.0121   -0.0126   -0.0018
          15    0.0122    0.0056    0.0015    0.0007   -0.0009   -0.0008    0.0029   -0.0062
          16   -0.0048   -0.0024    0.0018    0.0005   -0.0026    0.0024   -0.0007   -0.0102
          17    0.0166   -0.0043   -0.0062    0.0021   -0.0007    0.0120   -0.0127   -0.0018
          18   -0.0123   -0.0056    0.0014   -0.0007    0.0009    0.0008    0.0029   -0.0062
          19   -0.0042   -0.0035    0.0037    0.0014    0.0086   -0.0109   -0.0138   -0.0032
          20    0.0069   -0.0028    0.0021   -0.0001   -0.0075    0.0152    0.0180   -0.0017
          21   -0.0017   -0.0033    0.0014   -0.0003   -0.0046    0.0088    0.0103   -0.0016
          22   -0.0041   -0.0034   -0.0037    0.0014    0.0085   -0.0108    0.0138    0.0032
          23   -0.0069    0.0028    0.0021    0.0001    0.0073   -0.0151    0.0182   -0.0018
          24    0.0017    0.0033    0.0015    0.0003    0.0045   -0.0088    0.0104   -0.0016
          25    0.0096    0.0132   -0.0118   -0.0026   -0.0078    0.0154    0.0181   -0.0006
          26    0.0166   -0.0096    0.0150    0.0041    0.0098   -0.0112   -0.0124   -0.0026
          27    0.0052   -0.0025    0.0046    0.0009    0.0029   -0.0101   -0.0104    0.0019
          28    0.0098    0.0129    0.0119   -0.0026   -0.0077    0.0153   -0.0183    0.0006
          29   -0.0166    0.0095    0.0151   -0.0041   -0.0097    0.0111   -0.0125   -0.0026
          30   -0.0053    0.0025    0.0047   -0.0009   -0.0029    0.0101   -0.0106    0.0019
          31   -0.0206   -0.0159    0.0169   -0.0019   -0.0268   -0.0053    0.0171   -0.0268
          32    0.0152   -0.0368    0.0368   -0.0583   -0.0867    0.0238    0.0274    0.1616
          33    0.0064    0.0117   -0.0152   -0.0018   -0.0004   -0.0089   -0.0173    0.0234
          34   -0.0207   -0.0156   -0.0171   -0.0018   -0.0265   -0.0054   -0.0171    0.0274
          35   -0.0152    0.0366    0.0376    0.0584    0.0858   -0.0235    0.0281    0.1630
          36   -0.0066   -0.0115   -0.0153    0.0019    0.0006    0.0088   -0.0173    0.0238
          37   -0.0242   -0.0215    0.0002   -0.1218    0.2187    0.0772    0.0003    0.0004
          38    0.0002   -0.0001   -0.0087   -0.0001    0.0001    0.0000    0.0007   -0.0842
          39   -0.0001    0.0001   -0.0019    0.0000    0.0000    0.0000   -0.0038    0.0183
          40    0.0756    0.0673    0.0004    0.1920   -0.0118   -0.0125    0.0000   -0.0004
          41   -0.0004    0.0001    0.0035    0.0001    0.0000    0.0000    0.0006    0.0203
          42   -0.0001    0.0000    0.0009    0.0000    0.0000    0.0000   -0.0018    0.0156
          43    0.0881    0.0198    0.0000   -0.1881    0.0394   -0.0134    0.0000    0.0001
          44    0.0004   -0.0001    0.0046    0.0001   -0.0001    0.0001    0.0142    0.0393
          45   -0.0001    0.0001   -0.0094    0.0000    0.0001    0.0000   -0.0083   -0.0142
          46   -0.0402   -0.0669   -0.0003    0.1649    0.0305    0.0887   -0.0002   -0.0006
          47   -0.0002    0.0003   -0.0483   -0.0001    0.0003   -0.0001   -0.0318   -0.0459
          48   -0.0001    0.0001   -0.0120    0.0000    0.0001    0.0000   -0.0094   -0.0033
          49   -0.0383   -0.0436    0.0362    0.0098    0.0335    0.0316    0.0247   -0.0330
          50    0.0096   -0.0240    0.0251    0.0052    0.0096    0.0287    0.0267   -0.0060
          51    0.0353    0.0304   -0.0209   -0.0051   -0.0238   -0.0173   -0.0101    0.0212
          52   -0.0390   -0.0432   -0.0367    0.0099    0.0337    0.0315   -0.0247    0.0333
          53   -0.0094    0.0237    0.0254   -0.0053   -0.0098   -0.0284    0.0268   -0.0060
          54   -0.0358   -0.0301   -0.0212    0.0051    0.0238    0.0172   -0.0100    0.0214
          55   -0.0523    0.0718   -0.1020   -0.0186    0.0108   -0.0404   -0.0716    0.0569
          56   -0.0393    0.0442   -0.0603   -0.0122    0.0069   -0.0334   -0.0502    0.0259
          57   -0.0102   -0.0247    0.0440    0.0021    0.0002   -0.0145    0.0073   -0.0534
          58   -0.0524    0.0710    0.1033   -0.0189    0.0099   -0.0399    0.0717   -0.0577
          59    0.0392   -0.0435   -0.0609    0.0123   -0.0063    0.0328   -0.0501    0.0263
          60    0.0103    0.0241    0.0442   -0.0022   -0.0004    0.0146    0.0069   -0.0539
          61    0.0127   -0.0150    0.0106    0.0010   -0.0182    0.0504    0.0586   -0.0125
          62   -0.0215   -0.0189    0.0241    0.0040    0.0181   -0.0202   -0.0204   -0.0177
          63   -0.0105    0.0050   -0.0046   -0.0005    0.0097   -0.0265   -0.0315    0.0055
          64    0.0122   -0.0150   -0.0109    0.0011   -0.0177    0.0499   -0.0588    0.0126
          65    0.0215    0.0185    0.0244   -0.0040   -0.0181    0.0201   -0.0207   -0.0178
          66    0.0104   -0.0049   -0.0046    0.0006   -0.0096    0.0265   -0.0319    0.0055
          67    0.0149   -0.0502    0.0584    0.0139    0.0305   -0.0517   -0.0577   -0.0005
          68    0.0163    0.0525   -0.0525   -0.0116   -0.0271    0.0555    0.0631   -0.0038
          69   -0.0809    0.0142   -0.0364   -0.0103   -0.0228    0.0199    0.0206    0.0059
          70   -0.0011   -0.0523    0.0541    0.0132    0.0291   -0.0402   -0.0471   -0.0061
          71   -0.0628    0.0226   -0.0390   -0.0099   -0.0232    0.0492    0.0532   -0.0060
          72    0.0115    0.0344   -0.0325   -0.0081   -0.0180    0.0202    0.0252    0.0054
          73    0.0145   -0.0493   -0.0588    0.0138    0.0302   -0.0513    0.0583    0.0005
          74   -0.0172   -0.0518   -0.0530    0.0116    0.0268   -0.0553    0.0640   -0.0038
          75    0.0815   -0.0143   -0.0370    0.0104    0.0229   -0.0201    0.0213    0.0059
          76   -0.0017   -0.0513   -0.0544    0.0131    0.0288   -0.0398    0.0475    0.0061
          77    0.0632   -0.0220   -0.0391    0.0099    0.0229   -0.0488    0.0536   -0.0060
          78   -0.0117   -0.0341   -0.0330    0.0082    0.0181   -0.0204    0.0259    0.0054


   Root No.      33        34        35        36        37        38        39        40

                33 A      34 A      35 A      36 A      37 A      38 A      39 A      40 A   

                1078.5    1143.7    1151.0    1168.7    1185.9    1195.0    1197.1    1210.7
  
           1   -0.0177   -0.0017    0.0024    0.0059    0.0212    0.0022   -0.0176   -0.0029
           2    0.0081   -0.0268   -0.0027   -0.0284    0.0046   -0.0057   -0.0119    0.0058
           3   -0.0014   -0.0041   -0.0110    0.0137    0.0299   -0.0154   -0.0013    0.0171
           4   -0.0177   -0.0017   -0.0024    0.0060   -0.0211    0.0016    0.0177   -0.0024
           5   -0.0079    0.0269   -0.0026    0.0284    0.0046    0.0061   -0.0118   -0.0052
           6    0.0014    0.0041   -0.0111   -0.0136    0.0299    0.0154   -0.0006   -0.0190
           7   -0.0067    0.0109    0.0000    0.0200    0.0000    0.0037    0.0001   -0.0152
           8   -0.0001    0.0000   -0.0062    0.0000   -0.0221   -0.0005    0.0289    0.0003
           9   -0.0001    0.0000   -0.0034    0.0000   -0.0161    0.0000    0.0031    0.0007
          10    0.0180   -0.0166    0.0000   -0.0149    0.0000   -0.0049    0.0000    0.0021
          11   -0.0001    0.0000    0.0095   -0.0001    0.0180    0.0002   -0.0139   -0.0006
          12    0.0001    0.0000    0.0017    0.0000   -0.0201   -0.0002    0.0094    0.0006
          13    0.0067   -0.0186   -0.0135   -0.0004   -0.0039    0.0104   -0.0153   -0.0029
          14    0.0008   -0.0039   -0.0062    0.0068   -0.0030    0.0092   -0.0076   -0.0023
          15   -0.0028    0.0059    0.0099   -0.0097   -0.0271    0.0251   -0.0118    0.0008
          16    0.0066   -0.0186    0.0135   -0.0003    0.0038    0.0098    0.0157   -0.0034
          17   -0.0008    0.0039   -0.0061   -0.0068   -0.0029   -0.0089   -0.0078    0.0022
          18    0.0028   -0.0059    0.0098    0.0096   -0.0271   -0.0248   -0.0127   -0.0012
          19    0.0021    0.0106    0.0078    0.0004    0.0123   -0.0144    0.0077   -0.0115
          20   -0.0071   -0.0010   -0.0003    0.0012    0.0118   -0.0094    0.0006   -0.0100
          21   -0.0052    0.0044    0.0038    0.0006    0.0140   -0.0143    0.0065   -0.0076
          22    0.0021    0.0107   -0.0079    0.0004   -0.0123   -0.0142   -0.0083   -0.0131
          23    0.0071    0.0011   -0.0003   -0.0012    0.0118    0.0094    0.0009    0.0113
          24    0.0052   -0.0044    0.0039   -0.0006    0.0140    0.0141    0.0070    0.0087
          25   -0.0035   -0.0002    0.0007   -0.0017   -0.0043    0.0028    0.0005    0.0046
          26    0.0016    0.0014    0.0003    0.0003   -0.0039    0.0028   -0.0002    0.0004
          27    0.0027    0.0038    0.0053   -0.0044   -0.0051    0.0021    0.0029    0.0085
          28   -0.0035   -0.0002   -0.0007   -0.0017    0.0043    0.0028   -0.0004    0.0052
          29   -0.0017   -0.0014    0.0002   -0.0004   -0.0039   -0.0028   -0.0004   -0.0004
          30   -0.0028   -0.0038    0.0053    0.0044   -0.0051   -0.0022    0.0028   -0.0097
          31   -0.0694    0.0927    0.1108   -0.0602    0.0049    0.0751   -0.1139    0.0334
          32    0.1079    0.1137    0.0202    0.0924   -0.0253    0.0289    0.0339   -0.0059
          33    0.0319   -0.0683   -0.0839    0.0576    0.0410   -0.0637    0.0615   -0.0062
          34   -0.0692    0.0927   -0.1107   -0.0594   -0.0050    0.0717    0.1166    0.0386
          35   -0.1067   -0.1136    0.0200   -0.0921   -0.0251   -0.0302    0.0330    0.0037
          36   -0.0318    0.0683   -0.0839   -0.0571    0.0410    0.0619    0.0639    0.0073
          37    0.0192   -0.0189   -0.0001   -0.0925    0.0000   -0.0015    0.0001   -0.0024
          38   -0.0003   -0.0001   -0.0018    0.0000   -0.0799   -0.0007    0.0431    0.0018
          39    0.0000    0.0000   -0.0088    0.0000    0.0274    0.0001   -0.0067   -0.0005
          40    0.0312   -0.0200    0.0000   -0.0052    0.0000   -0.0611   -0.0013    0.0833
          41    0.0000    0.0000   -0.0125    0.0001    0.0014   -0.0006    0.0365   -0.0014
          42    0.0000    0.0000   -0.0098    0.0001    0.0043   -0.0001    0.0087   -0.0006
          43    0.0274    0.0093    0.0001    0.0517   -0.0001   -0.0315   -0.0008    0.0343
          44    0.0001    0.0000    0.0259    0.0000   -0.0208    0.0001   -0.0091    0.0007
          45    0.0000    0.0000   -0.0123    0.0000    0.0122   -0.0001    0.0056   -0.0004
          46    0.1273    0.0437    0.0000   -0.0190   -0.0001    0.0401    0.0008   -0.0448
          47   -0.0002    0.0001   -0.0032   -0.0001    0.0774    0.0005   -0.0340   -0.0021
          48    0.0000    0.0000   -0.0092    0.0000    0.0240    0.0001   -0.0031   -0.0006
          49   -0.0260   -0.0395   -0.0858    0.0746   -0.0158    0.0334   -0.0006    0.0921
          50    0.0011   -0.0349   -0.0455    0.0189   -0.0698    0.0750   -0.0316    0.0506
          51    0.0177    0.0170    0.0532   -0.0570   -0.0255    0.0177   -0.0255   -0.0565
          52   -0.0257   -0.0396    0.0863    0.0747    0.0160    0.0338    0.0015    0.1039
          53   -0.0011    0.0349   -0.0455   -0.0189   -0.0696   -0.0740   -0.0342   -0.0573
          54   -0.0175   -0.0169    0.0533    0.0569   -0.0256   -0.0169   -0.0265    0.0633
          55    0.0872    0.0157    0.0227   -0.0365   -0.0423    0.0068    0.0206    0.0436
          56    0.0475    0.0134    0.0134   -0.0149   -0.0270    0.0088    0.0116    0.0237
          57   -0.0677    0.0067   -0.0075    0.0377    0.0193    0.0150   -0.0218   -0.0290
          58    0.0869    0.0156   -0.0226   -0.0365    0.0423    0.0076   -0.0202    0.0478
          59   -0.0473   -0.0133    0.0133    0.0149   -0.0269   -0.0092    0.0112   -0.0262
          60    0.0672   -0.0069   -0.0076   -0.0378    0.0193   -0.0142   -0.0221    0.0303
          61   -0.0266    0.0597    0.0618   -0.0284    0.0358   -0.0701    0.0732    0.0307
          62   -0.0110    0.1011    0.0994   -0.0437    0.0248   -0.0752    0.0958    0.0528
          63    0.0127   -0.0320   -0.0353    0.0210   -0.0009    0.0244   -0.0407   -0.0387
          64   -0.0266    0.0599   -0.0621   -0.0285   -0.0358   -0.0678   -0.0757    0.0343
          65    0.0109   -0.1011    0.0995    0.0438    0.0246    0.0717    0.0982   -0.0598
          66   -0.0127    0.0317   -0.0351   -0.0209   -0.0008   -0.0228   -0.0411    0.0436
          67    0.0087    0.0045    0.0044   -0.0019    0.0019   -0.0020    0.0001   -0.0030
          68   -0.0111   -0.0019   -0.0025    0.0005   -0.0107    0.0069    0.0022    0.0096
          69   -0.0025    0.0016    0.0061   -0.0035    0.0229   -0.0153   -0.0041   -0.0219
          70    0.0046    0.0115    0.0061    0.0037    0.0126   -0.0161    0.0115   -0.0093
          71   -0.0151    0.0023   -0.0028    0.0099    0.0289   -0.0262    0.0090   -0.0211
          72   -0.0015   -0.0021    0.0035   -0.0087   -0.0148    0.0127   -0.0033    0.0165
          73    0.0088    0.0045   -0.0044   -0.0020   -0.0019   -0.0020   -0.0002   -0.0035
          74    0.0112    0.0019   -0.0026   -0.0006   -0.0108   -0.0070    0.0020   -0.0109
          75    0.0026   -0.0017    0.0062    0.0036    0.0228    0.0155   -0.0036    0.0247
          76    0.0047    0.0115   -0.0061    0.0037   -0.0126   -0.0157   -0.0121   -0.0109
          77    0.0152   -0.0023   -0.0028   -0.0098    0.0289    0.0260    0.0100    0.0245
          78    0.0016    0.0022    0.0034    0.0086   -0.0147   -0.0126   -0.0038   -0.0189


   Root No.      41        42        43        44        45        46        47        48

                41 A      42 A      43 A      44 A      45 A      46 A      47 A      48 A   

                1211.2    1233.4    1243.2    1246.9    1289.5    1293.0    1335.5    1340.6
  
           1    0.0041   -0.0051   -0.0003    0.0040   -0.0151   -0.0128   -0.0199   -0.0174
           2   -0.0052    0.0010    0.0209    0.0388    0.0237    0.0080    0.0010    0.0031
           3    0.0180    0.0185    0.0068   -0.0063    0.0073    0.0002    0.0100    0.0091
           4   -0.0044   -0.0051   -0.0003   -0.0040    0.0153   -0.0126   -0.0198    0.0175
           5   -0.0058   -0.0010   -0.0209    0.0388    0.0237   -0.0077   -0.0010    0.0032
           6    0.0159   -0.0185   -0.0068   -0.0064    0.0073   -0.0002   -0.0099    0.0091
[...]
 RED. MASS   0.2610        C  4 --  H 15          +10.0% ( 32.4%)     4.7%
 EFF. MASS   2.1712

 VIBRATION   52   52A       ATOM PAIR        ENERGY CONTRIBUTION    RADIAL
 FREQ.      1413.45        C  1 --  C  5           +9.6% ( 47.5%)    62.9%
 T-DIPOLE    0.0235        C  2 --  C  6           +9.5% ( 47.1%)    62.7%
 TRAVEL      0.0762        C  5 --  C  7           +8.1% ( 43.6%)    94.1%
 RED. MASS   1.0822        C  6 --  C  8           +8.0% ( 43.2%)    94.1%
 EFF. MASS   8.2079

 VIBRATION   53   53A       ATOM PAIR        ENERGY CONTRIBUTION    RADIAL
 FREQ.      1422.82        C  4 --  H 15          +14.4% ( 46.9%)     2.5%
 T-DIPOLE    0.0187        C  4 --  H 16          +12.7% ( 44.0%)     5.3%
 TRAVEL      0.1044        C  1 --  C  5           +6.3% ( 31.1%)    82.7%
 RED. MASS   0.3267        C  2 --  C  6           +6.2% ( 30.9%)    82.9%
 EFF. MASS   4.3444

 VIBRATION   54   54A       ATOM PAIR        ENERGY CONTRIBUTION    RADIAL
 FREQ.      1457.31        C  1 --  C  2          +10.3% ( 51.4%)   100.0%
 T-DIPOLE    0.0270        C  2 --  C  6           +8.5% ( 46.8%)    79.2%
 TRAVEL      0.0734        C  1 --  C  5           +8.5% ( 46.8%)    79.3%
 RED. MASS   1.1110        C  2 --  C  3           +7.3% ( 43.2%)    79.3%
 EFF. MASS   8.5997

 VIBRATION   55   55A       ATOM PAIR        ENERGY CONTRIBUTION    RADIAL
 FREQ.      1861.24        C  8 --  C 10          +24.1% ( 72.5%)    98.9%
 T-DIPOLE    0.0946        C  7 --  C  9          +21.2% ( 67.8%)    98.9%
 TRAVEL      0.0554        C  6 --  C  8           +8.9% ( 44.0%)    54.7%
 RED. MASS   2.6610        C  8 --  H 22           +8.2% ( 42.3%)     3.9%
 EFF. MASS  11.7916

 VIBRATION   56   56A       ATOM PAIR        ENERGY CONTRIBUTION    RADIAL
 FREQ.      1861.28        C  7 --  C  9          +24.1% ( 72.5%)    98.9%
 T-DIPOLE    0.3215        C  8 --  C 10          +21.2% ( 67.8%)    98.9%
 TRAVEL      0.0554        C  5 --  C  7           +8.9% ( 44.0%)    54.7%
 RED. MASS   2.6612        C  7 --  H 21           +8.2% ( 42.3%)     3.9%
 EFF. MASS  11.7914

 VIBRATION   57   57A       ATOM PAIR        ENERGY CONTRIBUTION    RADIAL
 FREQ.      2936.09        C  5 --  H 17          +25.0% ( 51.9%)    97.0%
 T-DIPOLE    0.0324        C  6 --  H 18          +24.2% ( 51.1%)    97.0%
 TRAVEL      0.1219        C  5 --  H 19          +21.4% ( 48.1%)    95.9%
 RED. MASS   0.2302        C  6 --  H 20          +20.8% ( 47.3%)    95.9%
 EFF. MASS   1.5455

 VIBRATION   58   58A       ATOM PAIR        ENERGY CONTRIBUTION    RADIAL
 FREQ.      2937.99        C  6 --  H 18          +23.4% ( 50.2%)    96.7%
 T-DIPOLE    0.0190        C  5 --  H 17          +22.6% ( 49.4%)    96.7%
 TRAVEL      0.1221        C  6 --  H 20          +22.0% ( 48.7%)    96.2%
 RED. MASS   0.2204        C  5 --  H 19          +21.4% ( 48.0%)    96.2%
 EFF. MASS   1.5405

 VIBRATION   59   59A       ATOM PAIR        ENERGY CONTRIBUTION    RADIAL
 FREQ.      2953.25        C  2 --  H 12          +46.9% ( 69.9%)   100.0%
 T-DIPOLE    0.0645        C  1 --  H 11          +40.8% ( 65.3%)   100.0%
 TRAVEL      0.1261        C  6 --  H 20           +2.4% ( 15.9%)    97.1%
 RED. MASS   0.3933        C  5 --  H 19           +2.1% ( 15.0%)    97.1%
 EFF. MASS   1.4367

 VIBRATION   60   60A       ATOM PAIR        ENERGY CONTRIBUTION    RADIAL
 FREQ.      2954.01        C  1 --  H 11          +46.9% ( 70.2%)   100.0%
 T-DIPOLE    0.0961        C  2 --  H 12          +40.9% ( 65.4%)   100.0%
 TRAVEL      0.1247        C  5 --  H 19           +1.8% ( 13.7%)    97.0%
 RED. MASS   0.3975        C  5 --  H 17           +1.6% ( 12.9%)    96.7%
 EFF. MASS   1.4673

 VIBRATION   61   61A       ATOM PAIR        ENERGY CONTRIBUTION    RADIAL
 FREQ.      3013.85        C  5 --  H 19          +26.8% ( 51.0%)    98.1%
 T-DIPOLE    0.0710        C  6 --  H 20          +26.2% ( 50.5%)    98.1%
 TRAVEL      0.1324        C  5 --  H 17          +22.9% ( 47.2%)    97.2%
 RED. MASS   0.2415        C  6 --  H 18          +22.5% ( 46.7%)    97.2%
 EFF. MASS   1.2755

 VIBRATION   62   62A       ATOM PAIR        ENERGY CONTRIBUTION    RADIAL
 FREQ.      3015.74        C  6 --  H 20          +25.5% ( 49.8%)    97.8%
 T-DIPOLE    0.0025        C  5 --  H 19          +25.0% ( 49.3%)    97.8%
 TRAVEL      0.1324        C  6 --  H 18          +24.2% ( 48.4%)    97.5%
 RED. MASS   0.2408        C  5 --  H 17          +23.7% ( 47.9%)    97.5%
 EFF. MASS   1.2752

 VIBRATION   63   63A       ATOM PAIR        ENERGY CONTRIBUTION    RADIAL
 FREQ.      3033.38        C  3 --  H 13          +45.8% ( 70.5%)    98.1%
 T-DIPOLE    0.0383        C  3 --  H 14          +26.5% ( 53.6%)    94.9%
 TRAVEL      0.1203        C  4 --  H 16          +14.9% ( 40.3%)    98.0%
 RED. MASS   0.3429        C  4 --  H 15           +9.3% ( 31.7%)    95.2%
 EFF. MASS   1.5357

 VIBRATION   64   64A       ATOM PAIR        ENERGY CONTRIBUTION    RADIAL
 FREQ.      3036.57        C  4 --  H 16          +44.5% ( 69.4%)    98.0%
 T-DIPOLE    0.1245        C  4 --  H 15          +27.2% ( 54.2%)    95.1%
 TRAVEL      0.1200        C  3 --  H 13          +15.0% ( 40.3%)    98.2%
 RED. MASS   0.3329        C  3 --  H 14           +8.5% ( 30.4%)    94.8%
 EFF. MASS   1.5414

 VIBRATION   65   65A       ATOM PAIR        ENERGY CONTRIBUTION    RADIAL
 FREQ.      3041.02        C  8 --  H 22          +67.6% ( 83.4%)   100.0%
 T-DIPOLE    0.1187        C  7 --  H 21          +28.3% ( 54.0%)   100.0%
 TRAVEL      0.1216        C  8 --  C 10           +1.0% ( 10.1%)    30.6%
 RED. MASS   0.5287        C  6 --  C  8           +0.9% (  9.8%)    14.2%
 EFF. MASS   1.5001

 VIBRATION   66   66A       ATOM PAIR        ENERGY CONTRIBUTION    RADIAL
 FREQ.      3041.04        C  7 --  H 21          +67.6% ( 83.4%)   100.0%
 T-DIPOLE    0.2981        C  8 --  H 22          +28.3% ( 54.0%)   100.0%
 TRAVEL      0.1216        C  7 --  C  9           +1.0% ( 10.1%)    30.6%
 RED. MASS   0.5285        C  5 --  C  7           +0.9% (  9.8%)    14.3%
 EFF. MASS   1.5004

 VIBRATION   67   67A       ATOM PAIR        ENERGY CONTRIBUTION    RADIAL
 FREQ.      3100.90        C  3 --  H 14          +45.7% ( 67.0%)    98.6%
 T-DIPOLE    0.1067        C  3 --  H 13          +25.2% ( 49.8%)    94.6%
 TRAVEL      0.1309        C  4 --  H 15          +17.1% ( 41.0%)    98.6%
 RED. MASS   0.3101        C  4 --  H 16          +10.1% ( 31.6%)    95.3%
 EFF. MASS   1.2681

 VIBRATION   68   68A       ATOM PAIR        ENERGY CONTRIBUTION    RADIAL
 FREQ.      3104.03        C  4 --  H 15          +44.4% ( 66.2%)    98.4%
 T-DIPOLE    0.0278        C  4 --  H 16          +26.1% ( 50.8%)    94.7%
 TRAVEL      0.1290        C  3 --  H 14          +17.5% ( 41.5%)    98.4%
 RED. MASS   0.3073        C  3 --  H 13           +9.6% ( 30.8%)    94.1%
 EFF. MASS   1.3059

 VIBRATION   69   69A       ATOM PAIR        ENERGY CONTRIBUTION    RADIAL
 FREQ.      3135.57        C 10 --  H 26          +55.0% ( 75.5%)    99.9%
 T-DIPOLE    0.0909        C  9 --  H 24          +36.2% ( 61.2%)    99.9%
 TRAVEL      0.1181        C 10 --  H 25           +4.5% ( 21.7%)    73.4%
 RED. MASS   0.4404        C  9 --  H 23           +2.9% ( 17.4%)    73.2%
 EFF. MASS   1.5406

 VIBRATION   70   70A       ATOM PAIR        ENERGY CONTRIBUTION    RADIAL
 FREQ.      3135.64        C  9 --  H 24          +55.0% ( 75.5%)    99.8%
 T-DIPOLE    0.2446        C 10 --  H 26          +36.1% ( 61.2%)    99.9%
 TRAVEL      0.1181        C  9 --  H 23           +4.5% ( 21.6%)    73.4%
 RED. MASS   0.4402        C 10 --  H 25           +3.0% ( 17.6%)    73.6%
 EFF. MASS   1.5407

 VIBRATION   71   71A       ATOM PAIR        ENERGY CONTRIBUTION    RADIAL
 FREQ.      3147.84        C 10 --  H 25          +82.6% ( 91.5%)    99.6%
 T-DIPOLE    0.2241        C  9 --  H 23           +8.5% ( 29.4%)    99.6%
 TRAVEL      0.1210        C 10 --  H 26           +5.8% ( 24.3%)    45.5%
 RED. MASS   0.6712        C  8 --  C 10           +1.4% ( 12.1%)    74.6%
 EFF. MASS   1.4628

 VIBRATION   72   72A       ATOM PAIR        ENERGY CONTRIBUTION    RADIAL
 FREQ.      3147.90        C  9 --  H 23          +82.7% ( 91.5%)    99.6%
 T-DIPOLE    0.2751        C 10 --  H 25           +8.5% ( 29.4%)    99.6%
 TRAVEL      0.1210        C  9 --  H 24           +5.8% ( 24.2%)    45.4%
 RED. MASS   0.6718        C  7 --  C  9           +1.4% ( 12.1%)    74.5%
 EFF. MASS   1.4629

 SYMMETRY NUMBER FOR POINT-GROUP C1  =  1


          SYSTEM IS A GROUND STATE


    NULL



          MOLECULE IS NOT LINEAR

          THERE ARE 72 GENUINE VIBRATIONS IN THIS SYSTEM
          THIS THERMODYNAMICS CALCULATION IS LIMITED TO
          MOLECULES WHICH HAVE NO INTERNAL ROTATIONS




                    CALCULATED THERMODYNAMIC PROPERTIES
                                          *
   TEMP. (K)   PARTITION FUNCTION   H.O.F.    ENTHALPY  HEAT CAPACITY ENTROPY
                                   KCAL/MOL   CAL/MOLE    CAL/K/MOL  CAL/K/MOL


 298.00  VIB.     0.2930D+04                  4986.1021    34.9225    32.5953
         ROT.     0.9747D+06                   888.2813     2.9808    30.3841
         INT.     0.2856D+10                  5874.3834    37.9034    62.9794
         TRA.     0.1537D+28                  1480.4688     4.9680    40.6375
         TOT.                       22.351    7354.8522    42.8714   103.6169

 200.00  VIB.     0.1873D+03                  2238.1604    21.6608    21.5890
         ROT.     0.5359D+06                   596.1620     2.9808    29.1955
         INT.     0.1004D+09                  2834.3224    24.6416    50.7845
         TRA.     0.8452D+27                   993.6033     4.9680    38.6564
         TOT.                       18.824    3827.9256    29.6097    89.4409

 210.00  VIB.     0.2481D+03                  2460.7116    22.8566    22.6746
         ROT.     0.5766D+06                   625.9700     2.9808    29.3409
         INT.     0.1430D+09                  3086.6817    25.8374    52.0155
         TRA.     0.9094D+27                  1043.2834     4.9680    38.8988
         TOT.                       19.126    4129.9651    30.8054    90.9143

 220.00  VIB.     0.3284D+03                  2695.4345    24.0951    23.7663
         ROT.     0.6183D+06                   655.7781     2.9808    29.4796
         INT.     0.2030D+09                  3351.2127    27.0759    53.2459
         TRA.     0.9752D+27                  1092.9636     4.9680    39.1299
         TOT.                       19.440    4444.1763    32.0439    92.3758

 230.00  VIB.     0.4346D+03                  2942.7511    25.3750    24.8655
         ROT.     0.6609D+06                   685.5862     2.9808    29.6121
         INT.     0.2872D+09                  3628.3373    28.3558    54.4775
         TRA.     0.1042D+28                  1142.6437     4.9680    39.3507
         TOT.                       19.767    4770.9811    33.3238    93.8283

 240.00  VIB.     0.5749D+03                  3203.0652    26.6941    25.9732
         ROT.     0.7045D+06                   715.3943     2.9808    29.7389
         INT.     0.4050D+09                  3918.4596    29.6749    55.7121
         TRA.     0.1111D+28                  1192.3239     4.9680    39.5621
         TOT.                       20.107    5110.7835    34.6429    95.2742

 250.00  VIB.     0.7606D+03                  3476.7532    28.0492    27.0902
         ROT.     0.7489D+06                   745.2024     2.9808    29.8606
         INT.     0.5696D+09                  4221.9557    31.0300    56.9508
         TRA.     0.1181D+28                  1242.0041     4.9680    39.7650
         TOT.                       20.460    5463.9597    35.9980    96.7158

 260.00  VIB.     0.1006D+04                  3764.1560    29.4364    28.2173
         ROT.     0.7943D+06                   775.0105     2.9808    29.9775
         INT.     0.7994D+09                  4539.1665    32.4172    58.1948
         TRA.     0.1253D+28                  1291.6842     4.9680    39.9598
         TOT.                       20.827    5830.8507    37.3852    98.1546

 270.00  VIB.     0.1332D+04                  4065.5736    30.8514    29.3547
         ROT.     0.8406D+06                   804.8186     2.9808    30.0900
         INT.     0.1120D+10                  4870.3922    33.8322    59.4447
         TRA.     0.1326D+28                  1341.3644     4.9680    40.1473
         TOT.                       21.208    6211.7566    38.8002    99.5920

 280.00  VIB.     0.1764D+04                  4381.2618    32.2897    30.5026
         ROT.     0.8877D+06                   834.6267     2.9808    30.1984
         INT.     0.1566D+10                  5215.8885    35.2705    60.7010
         TRA.     0.1400D+28                  1391.0445     4.9680    40.3280
         TOT.                       21.603    6606.9331    40.2386   101.0290

 290.00  VIB.     0.2338D+04                  4711.4303    33.7467    31.6610
         ROT.     0.9357D+06                   864.4348     2.9808    30.3030
         INT.     0.2188D+10                  5575.8651    36.7275    61.9641
         TRA.     0.1476D+28                  1440.7247     4.9680    40.5023
         TOT.                       22.013    7016.5899    41.6955   102.4664

 300.00  VIB.     0.3100D+04                  5056.2422    35.2176    32.8299
         ROT.     0.9845D+06                   894.2429     2.9808    30.4041
         INT.     0.3052D+10                  5950.4851    38.1985    63.2339
         TRA.     0.1553D+28                  1490.4049     4.9680    40.6707
         TOT.                       22.437    7440.8900    43.1665   103.9047

 310.00  VIB.     0.4115D+04                  5415.8148    36.6981    34.0088
         ROT.     0.1034D+07                   924.0510     2.9808    30.5018
         INT.     0.4256D+10                  6339.8659    39.6789    64.5106
         TRA.     0.1631D+28                  1540.0850     4.9680    40.8336
         TOT.                       22.876    7879.9509    44.6469   105.3442

 320.00  VIB.     0.5467D+04                  5790.2216    38.1838    35.1973
         ROT.     0.1085D+07                   953.8591     2.9808    30.5964
         INT.     0.5930D+10                  6744.0808    41.1646    65.7938
         TRA.     0.1711D+28                  1589.7652     4.9680    40.9914
         TOT.                       23.330    8333.8460    46.1326   106.7851

 330.00  VIB.     0.7270D+04                  6179.4945    39.6707    36.3951
         ROT.     0.1136D+07                   983.6672     2.9808    30.6882
         INT.     0.8258D+10                  7163.1617    42.6515    67.0832
         TRA.     0.1791D+28                  1639.4454     4.9680    41.1442
         TOT.                       23.799    8802.6071    47.6195   108.2275

 340.00  VIB.     0.9678D+04                  6583.6266    41.1550    37.6014
         ROT.     0.1188D+07                  1013.4753     2.9808    30.7772
         INT.     0.1150D+11                  7597.1019    44.1359    68.3786
         TRA.     0.1874D+28                  1689.1255     4.9680    41.2926
         TOT.                       24.282    9286.2275    49.1039   109.6711

 350.00  VIB.     0.1290D+05                  7002.5758    42.6335    38.8157
         ROT.     0.1241D+07                  1043.2834     2.9808    30.8636
         INT.     0.1600D+11                  8045.8592    45.6144    69.6793
         TRA.     0.1957D+28                  1738.8057     4.9680    41.4366
         TOT.                       24.781    9784.6649    50.5824   111.1159

 360.00  VIB.     0.1720D+05                  7436.2678    44.1031    40.0374
         ROT.     0.1294D+07                  1073.0915     2.9808    30.9475
         INT.     0.2227D+11                  8509.3593    47.0839    70.9849
         TRA.     0.2041D+28                  1788.4859     4.9680    41.5765
         TOT.                       25.294   10297.8451    52.0520   112.5614

 370.00  VIB.     0.2298D+05                  7884.5998    45.5611    41.2657
         ROT.     0.1348D+07                  1102.8996     2.9808    31.0292
         INT.     0.3098D+11                  8987.4994    48.5419    72.2949
         TRA.     0.2127D+28                  1838.1660     4.9680    41.7126
         TOT.                       25.822   10825.6654    53.5100   114.0075

 380.00  VIB.     0.3072D+05                  8347.4438    47.0052    42.4999
         ROT.     0.1404D+07                  1132.7077     2.9808    31.1087
         INT.     0.4311D+11                  9480.1515    49.9860    73.6086
         TRA.     0.2214D+28                  1887.8462     4.9680    41.8451
         TOT.                       26.364   11367.9976    54.9540   115.4538

 390.00  VIB.     0.4111D+05                  8824.6498    48.4332    43.7394
         ROT.     0.1459D+07                  1162.5158     2.9808    31.1861
         INT.     0.5999D+11                  9987.1656    51.4140    74.9255
         TRA.     0.2302D+28                  1937.5263     4.9680    41.9742
         TOT.                       26.921   11924.6920    56.3821   116.8997

 400.00  VIB.     0.5508D+05                  9316.0493    49.8436    44.9835
         ROT.     0.1516D+07                  1192.3239     2.9808    31.2616
         INT.     0.8348D+11                 10508.3732    52.8244    76.2450
         TRA.     0.2391D+28                  1987.2065     4.9680    42.1000
         TOT.                       27.492   12495.5797    57.7924   118.3450

   *: NOTE: HEATS OF FORMATION ARE RELATIVE TO THE
            ELEMENTS IN THEIR STANDARD STATE AT 298K
              (=  Standard Enthalpy of Formation).

            Hvib:  Zero-point energy is not included.
                   frequencies of less than zero cm-1 are not included.
            Hrot = (3/2)RT
            Htra = (3/2)RT + pV = (5/2)RT

            Heat capacity is Cp, not Cv

           For more information, see: HTTP://OpenMOPAC.net/Manual/thermochemistry.html


           FORCE CONSTANT IN CARTESIAN COORDINATES (Millidynes/A)

    ATOM   CHEMICAL       X               Y               Z
   NUMBER   SYMBOL  FORCE CONSTANT  FORCE CONSTANT  FORCE CONSTANT

      1       C        9.829495        6.300399        8.631651
      2       C        9.830106        6.299813        8.630920
      3       C        5.993482        9.740865        8.649911
      4       C        5.973951        9.759272        8.665712
      5       C        8.682919        8.526151        8.353774
      6       C        8.685013        8.524462        8.352708
      7       C        6.443960        8.804172       11.910278
      8       C        6.462394        8.826214       11.869755
      9       C        6.183106        8.692793       11.641625
     10       C        6.203436        8.714640       11.599277
     11       H        2.017067        0.668100        3.588281
     12       H        2.017130        0.667744        3.588282
     13       H        0.690210        2.271256        3.656574
     14       H        0.667325        2.261034        3.711844
     15       H        0.668427        2.324967        3.649162
     16       H        0.673261        2.215604        3.725897
     17       H        2.007207        0.755965        3.604488
     18       H        2.005878        0.758048        3.603924
     19       H        1.599248        3.968409        0.679282
     20       H        1.591991        3.975606        0.679710
     21       H        1.770884        0.611609        3.847196
     22       H        1.780240        0.609377        3.840269
     23       H        2.945191        2.879902        0.660929
     24       H        1.734830        0.558193        4.176729
     25       H        2.958075        2.867951        0.660588
     26       H        1.744672        0.557290        4.167753



 TOTAL CPU TIME:             4.17 SECONDS

 == MOPAC DONE ==
