 *******************************************************************************
 ** Site#: 14399           For non-commercial use only        Version 13.159M **
 *******************************************************************************
 ** Cite this work as: MOPAC2012, James J. P. Stewart, Stewart Computational  **
 ** Chemistry, Version 13.159M web: HTTP://OpenMOPAC.net  Days remaining:   6 **
 *******************************************************************************
 **                                                                           **
 **                                MOPAC2012                                  **
 **                                                                           **
 *******************************************************************************

                            PM3 CALCULATION RESULTS


 *******************************************************************************
 *  CALCULATION DONE:                                Mon Jun  2 11:08:43 2014  *
 *  PM3      - The PM3 Hamiltonian to be used
 *  PRECISE  - CRITERIA TO BE INCREASED BY 100 TIMES
 *  NOSYM    - POINT-GROUP SYMMETRY SET TO C1
 *  T=       - A TIME OF 172800.0 SECONDS REQUESTED
 *  DUMP=N   - RESTART FILE WRITTEN EVERY  7200.000 SECONDS
 *******************************************************************************
pm3  precise nosym
 InChI=1S/C5H8/c1-4-3-5(4)2/h5H,1,3H2,2H3

   ATOM   CHEMICAL          X               Y               Z
  NUMBER   SYMBOL      (ANGSTROMS)     (ANGSTROMS)     (ANGSTROMS)
 
     1       C         -0.39030000  *  -0.17180000  *  -0.43150000  *
     2       C          0.31560000  *   1.07980000  *  -0.28490000  *
     3       C         -1.77430000  *  -0.27700000  *   0.19890000  *
     4       C          0.79000000  *   0.04650000  *   0.62510000  *
     5       C          1.96180000  *  -0.55890000  *   0.41510000  *
     6       H         -0.15210000  *  -0.77360000  *  -1.33940000  *
     7       H          0.97640000  *   1.33970000  *  -1.14530000  *
     8       H         -0.22020000  *   1.90540000  *   0.23700000  *
     9       H         -2.53410000  *   0.09640000  *  -0.52360000  *
    10       H         -1.87980000  *   0.29420000  *   1.15050000  *
    11       H         -1.99230000  *  -1.34680000  *   0.41460000  *
    12       H          2.55050000  *  -0.88470000  *   1.26940000  *
    13       H          2.34890000  *  -0.74910000  *  -0.58590000  *
 


          CARTESIAN COORDINATES 

    NO.       ATOM         X         Y         Z

     1         C       -0.3903   -0.1718   -0.4315
     2         C        0.3156    1.0798   -0.2849
     3         C       -1.7743   -0.2770    0.1989
     4         C        0.7900    0.0465    0.6251
     5         C        1.9618   -0.5589    0.4151
     6         H       -0.1521   -0.7736   -1.3394
     7         H        0.9764    1.3397   -1.1453
     8         H       -0.2202    1.9054    0.2370
     9         H       -2.5341    0.0964   -0.5236
    10         H       -1.8798    0.2942    1.1505
    11         H       -1.9923   -1.3468    0.4146
    12         H        2.5505   -0.8847    1.2694
    13         H        2.3489   -0.7491   -0.5859

  H: (PM3): J. J. P. STEWART, J. COMP. CHEM. 10, 209 (1989).
  C: (PM3): J. J. P. STEWART, J. COMP. CHEM. 10, 209 (1989).

           Empirical Formula: C5 H8  =    13 atoms



      MOLECULAR POINT GROUP   :   C1  


      RHF CALCULATION, NO. OF DOUBLY OCCUPIED LEVELS =   14

      Geometry optimization using EF

          DIAGONAL MATRIX USED AS START HESSIAN

 CYCLE:     1 TIME:   0.004 TIME LEFT:  2.00D  GRAD.:   121.361 HEAT: 122.4368
 CYCLE:     2 TIME:   0.003 TIME LEFT:  2.00D  GRAD.:   234.863 HEAT: 120.1234
 CYCLE:     3 TIME:   0.002 TIME LEFT:  2.00D  GRAD.:   161.696 HEAT: 107.3210
 CYCLE:     4 TIME:   0.004 TIME LEFT:  2.00D  GRAD.:   128.194 HEAT: 100.5914
 CYCLE:     5 TIME:   0.002 TIME LEFT:  2.00D  GRAD.:    87.347 HEAT: 92.58327
 CYCLE:     6 TIME:   0.002 TIME LEFT:  2.00D  GRAD.:   151.872 HEAT: 85.67740
 CYCLE:     7 TIME:   0.002 TIME LEFT:  2.00D  GRAD.:   190.771 HEAT: 79.89481
 CYCLE:     8 TIME:   0.002 TIME LEFT:  2.00D  GRAD.:   186.576 HEAT: 68.04514
 CYCLE:     9 TIME:   0.004 TIME LEFT:  2.00D  GRAD.:   219.547 HEAT: 64.80047
 CYCLE:    10 TIME:   0.002 TIME LEFT:  2.00D  GRAD.:   138.612 HEAT: 57.66158
 CYCLE:    11 TIME:   0.002 TIME LEFT:  2.00D  GRAD.:   124.071 HEAT: 53.74639
 CYCLE:    12 TIME:   0.002 TIME LEFT:  2.00D  GRAD.:    83.705 HEAT: 48.73365
 CYCLE:    13 TIME:   0.002 TIME LEFT:  2.00D  GRAD.:    92.300 HEAT: 45.42527
 CYCLE:    14 TIME:   0.002 TIME LEFT:  2.00D  GRAD.:   100.824 HEAT: 44.58798
 CYCLE:    15 TIME:   0.002 TIME LEFT:  2.00D  GRAD.:    64.437 HEAT: 42.00018
 CYCLE:    16 TIME:   0.004 TIME LEFT:  2.00D  GRAD.:    67.845 HEAT: 41.40228
 CYCLE:    17 TIME:   0.002 TIME LEFT:  2.00D  GRAD.:    50.670 HEAT: 40.41619
 CYCLE:    18 TIME:   0.002 TIME LEFT:  2.00D  GRAD.:    33.764 HEAT: 39.71067
 CYCLE:    19 TIME:   0.002 TIME LEFT:  2.00D  GRAD.:    35.822 HEAT: 39.51191
 CYCLE:    20 TIME:   0.002 TIME LEFT:  2.00D  GRAD.:    18.137 HEAT: 39.01588
 CYCLE:    21 TIME:   0.002 TIME LEFT:  2.00D  GRAD.:    16.848 HEAT: 38.74949
 CYCLE:    22 TIME:   0.002 TIME LEFT:  2.00D  GRAD.:    16.562 HEAT: 38.36235
 CYCLE:    23 TIME:   0.002 TIME LEFT:  2.00D  GRAD.:     9.217 HEAT: 38.01460
 CYCLE:    24 TIME:   0.002 TIME LEFT:  2.00D  GRAD.:     8.009 HEAT: 37.88432
 CYCLE:    25 TIME:   0.002 TIME LEFT:  2.00D  GRAD.:     9.811 HEAT: 37.77714
 CYCLE:    26 TIME:   0.002 TIME LEFT:  2.00D  GRAD.:     7.695 HEAT: 37.69288
 CYCLE:    27 TIME:   0.002 TIME LEFT:  2.00D  GRAD.:     5.782 HEAT: 37.62628
 CYCLE:    28 TIME:   0.002 TIME LEFT:  2.00D  GRAD.:     6.231 HEAT: 37.57207
 CYCLE:    29 TIME:   0.002 TIME LEFT:  2.00D  GRAD.:     6.513 HEAT: 37.52315
 CYCLE:    30 TIME:   0.002 TIME LEFT:  2.00D  GRAD.:     6.008 HEAT: 37.46134
 CYCLE:    31 TIME:   0.002 TIME LEFT:  2.00D  GRAD.:     4.941 HEAT: 37.41050
 CYCLE:    32 TIME:   0.002 TIME LEFT:  2.00D  GRAD.:     4.759 HEAT: 37.36021
 CYCLE:    33 TIME:   0.002 TIME LEFT:  2.00D  GRAD.:     4.367 HEAT: 37.30921
 CYCLE:    34 TIME:   0.002 TIME LEFT:  2.00D  GRAD.:     3.298 HEAT: 37.27345
 CYCLE:    35 TIME:   0.002 TIME LEFT:  2.00D  GRAD.:     2.283 HEAT: 37.25554
 CYCLE:    36 TIME:   0.002 TIME LEFT:  2.00D  GRAD.:     1.694 HEAT: 37.24738
 CYCLE:    37 TIME:   0.002 TIME LEFT:  2.00D  GRAD.:     1.701 HEAT: 37.24210
 CYCLE:    38 TIME:   0.002 TIME LEFT:  2.00D  GRAD.:     1.474 HEAT: 37.23682
 CYCLE:    39 TIME:   0.002 TIME LEFT:  2.00D  GRAD.:     1.195 HEAT: 37.23186
 CYCLE:    40 TIME:   0.002 TIME LEFT:  2.00D  GRAD.:     0.997 HEAT: 37.22862
 CYCLE:    41 TIME:   0.002 TIME LEFT:  2.00D  GRAD.:     0.783 HEAT: 37.22700
 CYCLE:    42 TIME:   0.002 TIME LEFT:  2.00D  GRAD.:     0.662 HEAT: 37.22602
 CYCLE:    43 TIME:   0.002 TIME LEFT:  2.00D  GRAD.:     0.585 HEAT: 37.22507
 CYCLE:    44 TIME:   0.002 TIME LEFT:  2.00D  GRAD.:     0.479 HEAT: 37.22433
 CYCLE:    45 TIME:   0.002 TIME LEFT:  2.00D  GRAD.:     0.338 HEAT: 37.22396
 CYCLE:    46 TIME:   0.002 TIME LEFT:  2.00D  GRAD.:     0.252 HEAT: 37.22381
 CYCLE:    47 TIME:   0.002 TIME LEFT:  2.00D  GRAD.:     0.250 HEAT: 37.22369
 CYCLE:    48 TIME:   0.002 TIME LEFT:  2.00D  GRAD.:     0.338 HEAT: 37.22350
 CYCLE:    49 TIME:   0.002 TIME LEFT:  2.00D  GRAD.:     0.438 HEAT: 37.22324
 CYCLE:    50 TIME:   0.002 TIME LEFT:  2.00D  GRAD.:     0.520 HEAT: 37.22281
 CYCLE:    51 TIME:   0.002 TIME LEFT:  2.00D  GRAD.:     0.464 HEAT: 37.22255
 CYCLE:    52 TIME:   0.002 TIME LEFT:  2.00D  GRAD.:     0.975 HEAT: 37.22187
 CYCLE:    53 TIME:   0.002 TIME LEFT:  2.00D  GRAD.:     0.660 HEAT: 37.22133
 CYCLE:    54 TIME:   0.002 TIME LEFT:  2.00D  GRAD.:     0.245 HEAT: 37.22019
 CYCLE:    55 TIME:   0.002 TIME LEFT:  2.00D  GRAD.:     0.312 HEAT: 37.21952
 CYCLE:    56 TIME:   0.002 TIME LEFT:  2.00D  GRAD.:     0.357 HEAT: 37.21884
 CYCLE:    57 TIME:   0.002 TIME LEFT:  2.00D  GRAD.:     0.276 HEAT: 37.21867
 CYCLE:    58 TIME:   0.002 TIME LEFT:  2.00D  GRAD.:     0.311 HEAT: 37.21841
 CYCLE:    59 TIME:   0.002 TIME LEFT:  2.00D  GRAD.:     0.234 HEAT: 37.21830
 CYCLE:    60 TIME:   0.002 TIME LEFT:  2.00D  GRAD.:     0.190 HEAT: 37.21819
 CYCLE:    61 TIME:   0.002 TIME LEFT:  2.00D  GRAD.:     0.201 HEAT: 37.21809
 CYCLE:    62 TIME:   0.002 TIME LEFT:  2.00D  GRAD.:     0.189 HEAT: 37.21803
 CYCLE:    63 TIME:   0.002 TIME LEFT:  2.00D  GRAD.:     0.199 HEAT: 37.21793
 CYCLE:    64 TIME:   0.002 TIME LEFT:  2.00D  GRAD.:     0.142 HEAT: 37.21789
 CYCLE:    65 TIME:   0.002 TIME LEFT:  2.00D  GRAD.:     0.076 HEAT: 37.21786
 CYCLE:    66 TIME:   0.002 TIME LEFT:  2.00D  GRAD.:     0.036 HEAT: 37.21785

     RMS GRADIENT =  0.03592  IS LESS THAN CUTOFF =  0.05000



 -------------------------------------------------------------------------------
pm3  precise nosym
 InChI=1S/C5H8/c1-4-3-5(4)2/h5H,1,3H2,2H3



     GEOMETRY OPTIMISED USING EIGENVECTOR FOLLOWING (EF).     
     SCF FIELD WAS ACHIEVED                                   


                              PM3 CALCULATION
                                                       MOPAC2012 (Version: 13.159M)
                                                       Mon Jun  2 11:08:43 2014
                                                       No. of days left =   6




          FINAL HEAT OF FORMATION =         37.21785 KCAL/MOL =     155.71950 KJ/MOL


          TOTAL ENERGY            =       -714.24959 EV
          ELECTRONIC ENERGY       =      -2765.85018 EV  POINT GROUP:     C1  
          CORE-CORE REPULSION     =       2051.60059 EV
          COSMO AREA              =        121.53 SQUARE ANGSTROMS
          COSMO VOLUME            =        107.38 CUBIC ANGSTROMS

          GRADIENT NORM           =          0.03592
          IONIZATION POTENTIAL    =         10.223218 EV
          HOMO LUMO ENERGIES (EV) =        -10.223  1.118
          NO. OF FILLED LEVELS    =         14
          MOLECULAR WEIGHT        =         68.118

          MOLECULAR DIMENSIONS (Angstroms)

            Atom       Atom       Distance
            H    12    H     9     5.46290
            H    11    H     7     3.91911
            H     8    H     6     2.86677


          SCF CALCULATIONS        =         70
          COMPUTATION TIME        =          0.159 SECONDS




   ATOM   CHEMICAL          X               Y               Z
  NUMBER   SYMBOL      (ANGSTROMS)     (ANGSTROMS)     (ANGSTROMS)
 
     1       C         -0.43096141  *  -0.03633108  *  -0.55768990  *
     2       C          0.29764229  *   1.26382116  *  -0.26184014  *
     3       C         -1.65294107  *  -0.39817934  *   0.22733321  *
     4       C          0.88529064  *  -0.02613471  *   0.09434468  *
     5       C          1.87621788  *  -0.69796261  *   0.62452915  *
     6       H         -0.48678835  *  -0.37260770  *  -1.61028794  *
     7       H          0.71783471  *   1.85348937  *  -1.08444470  *
     8       H         -0.07280563  *   1.93007642  *   0.52688178  *
     9       H         -2.55159421  *   0.02930814  *  -0.23562858  *
    10       H         -1.60815597  *  -0.03264897  *   1.26163759  *
    11       H         -1.78218261  *  -1.48729120  *   0.26660314  *
    12       H          2.75677917  *  -0.21081475  *   1.03197585  *
    13       H          1.87411546  *  -1.78179975  *   0.68766595  *

           Empirical Formula: C5 H8  =    13 atoms



      MOLECULAR POINT GROUP   :   C1  


                  EIGENVALUES  
 -39.22873 -30.02727 -27.31328 -21.05010 -18.44819 -16.77837 -15.83664 -15.13679
 -14.21019 -13.31718 -12.55879 -11.52381 -10.93052 -10.22322   1.11768   2.81405
   2.98050   3.19870   3.84063   4.05655   4.16753   4.39167   4.48784   4.60432
   4.90628   5.04908   5.38112   6.02590


              NET ATOMIC CHARGES AND DIPOLE CONTRIBUTIONS

  ATOM NO.   TYPE          CHARGE      No. of ELECS.   s-Pop       p-Pop       
    1          C          -0.087198        4.0872     1.16607     2.92112
    2          C          -0.108113        4.1081     1.15470     2.95341
    3          C          -0.079667        4.0797     1.12938     2.95029
    4          C          -0.189438        4.1894     1.18917     3.00026
    5          C          -0.083652        4.0837     1.15703     2.92662
    6          H           0.094168        0.9058     0.90583
    7          H           0.080065        0.9199     0.91993
    8          H           0.082895        0.9171     0.91711
    9          H           0.040378        0.9596     0.95962
   10          H           0.042149        0.9579     0.95785
   11          H           0.041786        0.9582     0.95821
   12          H           0.083195        0.9168     0.91680
   13          H           0.083433        0.9166     0.91657
 DIPOLE           X         Y         Z       TOTAL
 POINT-CHG.    -0.200     0.031    -0.039     0.206
 HYBRID         0.032     0.019     0.021     0.043
 SUM           -0.167     0.049    -0.018     0.175


          ATOMIC ORBITAL ELECTRON POPULATIONS

    Atom      s        px        py        pz   
    1  C   1.16607   0.92262   1.00543   0.99308
    2  C   1.15470   1.02470   0.90453   1.02419
    3  C   1.12938   0.95570   1.00475   0.98984
    4  C   1.18917   0.97477   1.01649   1.00900
    5  C   1.15703   0.95616   0.98417   0.98629
    6  H   0.90583
    7  H   0.91993
    8  H   0.91711
    9  H   0.95962
   10  H   0.95785
   11  H   0.95821
   12  H   0.91680
   13  H   0.91657
 *******************************************************************************
 ** Site#: 14399           For non-commercial use only        Version 13.159M **
 *******************************************************************************
 ** Cite this work as: MOPAC2012, James J. P. Stewart, Stewart Computational  **
 ** Chemistry, Version 13.159M web: HTTP://OpenMOPAC.net  Days remaining:   6 **
 *******************************************************************************
 **                                                                           **
 **                                MOPAC2012                                  **
 **                                                                           **
 *******************************************************************************

                            PM3 CALCULATION RESULTS


 *******************************************************************************
 *  CALCULATION DONE:                                Mon Jun  2 11:08:43 2014  *
 *  PM3      - The PM3 Hamiltonian to be used
 *  OLDGEO   - PREVIOUS GEOMETRY TO BE USED
 *  PRECISE  - CRITERIA TO BE INCREASED BY 100 TIMES
 *  NOSYM    - POINT-GROUP SYMMETRY SET TO C1
 *  T=       - A TIME OF 172800.0 SECONDS REQUESTED
 *  DUMP=N   - RESTART FILE WRITTEN EVERY  7200.000 SECONDS
 *  THERMO   - THERMODYNAMIC QUANTITIES TO BE CALCULATED
 *******************************************************************************
oldgeo thermo nosym precise  pm3

   ATOM   CHEMICAL          X               Y               Z
  NUMBER   SYMBOL      (ANGSTROMS)     (ANGSTROMS)     (ANGSTROMS)
 
     1       C         -0.43096141  *  -0.03633108  *  -0.55768990  *
     2       C          0.29764229  *   1.26382116  *  -0.26184014  *
     3       C         -1.65294107  *  -0.39817934  *   0.22733321  *
     4       C          0.88529064  *  -0.02613471  *   0.09434468  *
     5       C          1.87621788  *  -0.69796261  *   0.62452915  *
     6       H         -0.48678835  *  -0.37260770  *  -1.61028794  *
     7       H          0.71783471  *   1.85348937  *  -1.08444470  *
     8       H         -0.07280563  *   1.93007642  *   0.52688178  *
     9       H         -2.55159421  *   0.02930814  *  -0.23562858  *
    10       H         -1.60815597  *  -0.03264897  *   1.26163759  *
    11       H         -1.78218261  *  -1.48729120  *   0.26660314  *
    12       H          2.75677917  *  -0.21081475  *   1.03197585  *
    13       H          1.87411546  *  -1.78179975  *   0.68766595  *
 


          CARTESIAN COORDINATES 

    NO.       ATOM         X         Y         Z

     1         C       -0.4310   -0.0363   -0.5577
     2         C        0.2976    1.2638   -0.2618
     3         C       -1.6529   -0.3982    0.2273
     4         C        0.8853   -0.0261    0.0943
     5         C        1.8762   -0.6980    0.6245
     6         H       -0.4868   -0.3726   -1.6103
     7         H        0.7178    1.8535   -1.0844
     8         H       -0.0728    1.9301    0.5269
     9         H       -2.5516    0.0293   -0.2356
    10         H       -1.6082   -0.0326    1.2616
    11         H       -1.7822   -1.4873    0.2666
    12         H        2.7568   -0.2108    1.0320
    13         H        1.8741   -1.7818    0.6877

  H: (PM3): J. J. P. STEWART, J. COMP. CHEM. 10, 209 (1989).
  C: (PM3): J. J. P. STEWART, J. COMP. CHEM. 10, 209 (1989).

           Empirical Formula: C5 H8  =    13 atoms



      MOLECULAR POINT GROUP   :   C1  


      RHF CALCULATION, NO. OF DOUBLY OCCUPIED LEVELS =   14



          HEAT OF FORMATION =      37.217854 KCALS/MOLE


          INTERNAL COORDINATE DERIVATIVES

   NUMBER  ATOM       BOND         ANGLE      DIHEDRAL

     1       C      0.002061     0.005193    -0.003987
     2       C     -0.002728     0.000152     0.000115
     3       C      0.003185     0.008924    -0.003599
     4       C     -0.005008     0.009658    -0.006225
     5       C     -0.007325    -0.004913     0.000158
     6       H      0.006061    -0.004073     0.000656
     7       H     -0.009638     0.002638    -0.003483
     8       H      0.001457     0.002971    -0.005812
     9       H      0.000547    -0.006134     0.011044
    10       H     -0.008164    -0.005890    -0.002233
    11       H      0.015102    -0.002439    -0.004211
    12       H      0.000945    -0.006880     0.010261
    13       H      0.003504     0.000793     0.007315


          GRADIENT NORM =   0.03661


          TIME FOR SCF CALCULATION =    0.00

          TIME FOR DERIVATIVES     =    0.00

          MOLECULAR WEIGHT =   68.12



          ROTATIONAL CONSTANTS IN CM(-1)

          A =    0.30947488   B =    0.13660939   C =    0.10724401



           PRINCIPAL MOMENTS OF INERTIA IN UNITS OF 10**(-40)*GRAM-CM**2

          A =       90.4525   B =      204.9111   C =      261.0195


          ORIENTATION OF MOLECULE IN FORCE CALCULATION

    NO.       ATOM         X         Y         Z

     1          C      -0.4423   -0.0449   -0.7068
     2          C       1.0771   -0.0449   -0.7068
     3          C      -1.1851    1.2547   -0.7068
     4          C       0.3245   -0.4532    0.4777
     5          C       0.3280   -0.8757    1.7170
     6          H      -0.9618   -0.8315   -1.2861
     7          H       1.6230   -0.7891   -1.2976
     8          H       1.6232    0.9065   -0.7040
     9          H      -1.3403    1.6123   -1.7328
    10          H      -0.6494    2.0417   -0.1599
    11          H      -2.1713    1.1395   -0.2394
    12          H       1.2464   -1.0683    2.2630
    13          H      -0.5881   -1.0574    2.2706


    FIRST DERIVATIVES WILL BE USED IN THE CALCULATION OF SECOND DERIVATIVES

          ESTIMATED TIME TO COMPLETE CALCULATION =        0.47 SECONDS

    FOR POINT-GROUP C1   THERE ARE   1 UNIQUE SYMMETRY FUNCTIONS.

 STEP:   1 TIME =     0.01 SECS, INTEGRAL =      0.01 TIME LEFT: 172799.99
 STEP:   2 TIME =     0.01 SECS, INTEGRAL =      0.02 TIME LEFT: 172799.98
 STEP:   3 TIME =     0.01 SECS, INTEGRAL =      0.03 TIME LEFT: 172799.97
 STEP:   4 TIME =     0.01 SECS, INTEGRAL =      0.04 TIME LEFT: 172799.96
 STEP:   5 TIME =     0.01 SECS, INTEGRAL =      0.05 TIME LEFT: 172799.95
 STEP:   6 TIME =     0.01 SECS, INTEGRAL =      0.06 TIME LEFT: 172799.94
 STEP:   7 TIME =     0.01 SECS, INTEGRAL =      0.07 TIME LEFT: 172799.93
 STEP:   8 TIME =     0.01 SECS, INTEGRAL =      0.08 TIME LEFT: 172799.92
 STEP:   9 TIME =     0.01 SECS, INTEGRAL =      0.08 TIME LEFT: 172799.91
 STEP:  10 TIME =     0.01 SECS, INTEGRAL =      0.09 TIME LEFT: 172799.90
 STEP:  11 TIME =     0.01 SECS, INTEGRAL =      0.10 TIME LEFT: 172799.89
 STEP:  12 TIME =     0.01 SECS, INTEGRAL =      0.11 TIME LEFT: 172799.88
 STEP:  13 TIME =     0.01 SECS, INTEGRAL =      0.12 TIME LEFT: 172799.87
 STEP:  14 TIME =     0.01 SECS, INTEGRAL =      0.13 TIME LEFT: 172799.87
 STEP:  15 TIME =     0.01 SECS, INTEGRAL =      0.14 TIME LEFT: 172799.86
 STEP:  16 TIME =     0.01 SECS, INTEGRAL =      0.15 TIME LEFT: 172799.85
 STEP:  17 TIME =     0.01 SECS, INTEGRAL =      0.16 TIME LEFT: 172799.84
 STEP:  18 TIME =     0.01 SECS, INTEGRAL =      0.17 TIME LEFT: 172799.83
 STEP:  19 TIME =     0.01 SECS, INTEGRAL =      0.18 TIME LEFT: 172799.82
 STEP:  20 TIME =     0.01 SECS, INTEGRAL =      0.19 TIME LEFT: 172799.81
 STEP:  21 TIME =     0.01 SECS, INTEGRAL =      0.20 TIME LEFT: 172799.80
 STEP:  22 TIME =     0.01 SECS, INTEGRAL =      0.21 TIME LEFT: 172799.79
 STEP:  23 TIME =     0.01 SECS, INTEGRAL =      0.22 TIME LEFT: 172799.78
 STEP:  24 TIME =     0.01 SECS, INTEGRAL =      0.23 TIME LEFT: 172799.77
 STEP:  25 TIME =     0.01 SECS, INTEGRAL =      0.24 TIME LEFT: 172799.76
 STEP:  26 TIME =     0.01 SECS, INTEGRAL =      0.25 TIME LEFT: 172799.75
 STEP:  27 TIME =     0.01 SECS, INTEGRAL =      0.25 TIME LEFT: 172799.74
 STEP:  28 TIME =     0.01 SECS, INTEGRAL =      0.26 TIME LEFT: 172799.73
 STEP:  29 TIME =     0.01 SECS, INTEGRAL =      0.27 TIME LEFT: 172799.72
 STEP:  30 TIME =     0.01 SECS, INTEGRAL =      0.28 TIME LEFT: 172799.71
 STEP:  31 TIME =     0.01 SECS, INTEGRAL =      0.29 TIME LEFT: 172799.71
 STEP:  32 TIME =     0.01 SECS, INTEGRAL =      0.30 TIME LEFT: 172799.70
 STEP:  33 TIME =     0.01 SECS, INTEGRAL =      0.31 TIME LEFT: 172799.69
 STEP:  34 TIME =     0.01 SECS, INTEGRAL =      0.32 TIME LEFT: 172799.68
 STEP:  35 TIME =     0.01 SECS, INTEGRAL =      0.33 TIME LEFT: 172799.67
 STEP:  36 TIME =     0.02 SECS, INTEGRAL =      0.35 TIME LEFT: 172799.64
 STEP:  37 TIME =     0.02 SECS, INTEGRAL =      0.37 TIME LEFT: 172799.62
 STEP:  38 TIME =     0.02 SECS, INTEGRAL =      0.39 TIME LEFT: 172799.61
 STEP:  39 TIME =     0.02 SECS, INTEGRAL =      0.41 TIME LEFT: 172799.58

(To convert to Hartree/Bohr^2, multiply by (10^(-21) x N x a0^2)/(4.184 x 627.51) = 0.0642)


           FORCE MATRIX IN MILLIDYNES/ANGSTROM


                  C  1       C  2       C  3       C  4       C  5       H  6
 ------------------------------------------------------------------------------
     C    1  15.640703
     C    2   4.372270  15.441811
     C    3   4.816504   0.540061  14.584455
     C    4   5.746166   6.052328   0.593840  22.063576
     C    5   0.482291   0.496105   0.023513  11.605426  18.260163
     H    6   4.526090   0.439876   0.421699   0.440409   0.017406   5.049633
     H    7   0.451970   4.807399   0.045366   0.468285   0.020016   0.019770
     H    8   0.462815   4.774801   0.024661   0.469099   0.018427   0.039257
     H    9   0.450721   0.015472   4.744289   0.051177   0.004464   0.028070
     H   10   0.471565   0.021414   4.737183   0.015976   0.002370   0.042247
     H   11   0.449989   0.050639   4.747078   0.016710   0.002565   0.025739
     H   12   0.154092   0.122769   0.023912   0.484723   5.087817   0.019592
     H   13   0.121245   0.156930   0.018128   0.483609   5.088898   0.015233


                  H  7       H  8       H  9       H 10       H 11       H 12
 ------------------------------------------------------------------------------
     H    7   5.407251
     H    8   0.485352   5.378608
     H    9   0.002427   0.002056   5.462159
     H   10   0.001760   0.014638   0.568050   5.466446
     H   11   0.008115   0.004195   0.566827   0.568142   5.466150
     H   12   0.016665   0.017218   0.003816   0.000685   0.001291   5.452448
     H   13   0.021962   0.022498   0.003196   0.000737   0.000941   0.400502


                  H 13
 ------------------
     H   13   5.452696


          HEAT OF FORMATION =      37.217854 KCALS/MOLE

          ZERO POINT ENERGY      71.213 KCAL/MOL


           NORMAL COORDINATE ANALYSIS (Total motion = 1 Angstrom)


   Root No.       1         2         3         4         5         6         7         8

                 1 A       2 A       3 A       4 A       5 A       6 A       7 A       8 A   

                 162.0     207.6     349.5     394.6     487.3     630.7     827.6     862.7
  
           1   -0.0093    0.0199    0.0118    0.0251    0.0028    0.0019    0.0321   -0.0124
           2   -0.0045   -0.0107    0.0155    0.0498   -0.0153    0.0168    0.0150   -0.0091
           3    0.0045   -0.0303    0.0380   -0.0124   -0.0363    0.0133   -0.0286   -0.0294
           4   -0.0097    0.0210    0.0127    0.0284    0.0049    0.0030   -0.0410   -0.0067
           5   -0.0072   -0.0123   -0.0125   -0.0421   -0.0177   -0.0103    0.0165   -0.0146
           6   -0.0074   -0.0218   -0.0356    0.0186    0.0088   -0.0038   -0.0316    0.0135
           7    0.0023   -0.0001   -0.0230   -0.0494    0.0109   -0.0147    0.0199   -0.0211
           8    0.0020   -0.0218   -0.0069    0.0086   -0.0119    0.0190   -0.0048    0.0289
           9    0.0002    0.0686   -0.0015   -0.0069    0.0188   -0.0051   -0.0136   -0.0159
          10   -0.0009    0.0114    0.0595   -0.0187   -0.0334    0.0148   -0.0026    0.0209
          11   -0.0014   -0.0201    0.0472   -0.0066    0.0836   -0.0273   -0.0055   -0.0121
          12    0.0002   -0.0303    0.0159   -0.0018    0.0178   -0.0033    0.0342    0.0047
          13    0.0152   -0.0440   -0.0343    0.0163    0.0028    0.0029   -0.0020    0.0353
          14    0.0094    0.0571   -0.0218    0.0009   -0.0109   -0.0016   -0.0167   -0.0068
          15    0.0039   -0.0043   -0.0073    0.0009   -0.0161    0.0074    0.0513    0.0135
          16   -0.0148    0.0250   -0.0149    0.0419    0.0024   -0.0033    0.0769   -0.0193
          17   -0.0022    0.0111   -0.0205    0.0580   -0.0248    0.0444    0.0513    0.0106
          18    0.0064   -0.0629    0.1079   -0.0440   -0.0193   -0.0204   -0.1213   -0.0455
          19   -0.0157    0.0174   -0.0385   -0.0245    0.0178   -0.0508   -0.1102    0.1083
          20   -0.0102   -0.0093   -0.0556   -0.0783   -0.1179   -0.0462    0.0164   -0.0235
          21   -0.0091   -0.0291   -0.0304    0.0132    0.1437   -0.0126   -0.1006    0.1330
          22   -0.0090    0.0281    0.0347    0.1113    0.0165    0.0501   -0.0307   -0.0934
          23   -0.0078   -0.0167   -0.0260   -0.0915   -0.0264   -0.0400    0.0105    0.0375
          24   -0.0158   -0.0072   -0.1144    0.0533   -0.1159   -0.0319   -0.1065   -0.0408
          25    0.2519   -0.0361   -0.0073   -0.0810   -0.0203   -0.0050   -0.0466   -0.0686
          26    0.1357    0.0482   -0.0313    0.0086    0.0510   -0.0163    0.0434    0.1213
          27    0.0089    0.0990   -0.0125   -0.0022    0.0469   -0.0201    0.0141    0.0237
          28   -0.1205   -0.0002   -0.0667   -0.1124    0.0294   -0.0385   -0.0192    0.0051
          29   -0.0747   -0.0507    0.0203    0.0423   -0.0471    0.0471   -0.0003   -0.0136
          30    0.2307    0.1107    0.0004    0.0033    0.0531   -0.0244    0.0174    0.0222
          31   -0.1095    0.0154   -0.0331   -0.0422    0.0266   -0.0227    0.0472   -0.0052
          32   -0.0485   -0.0747   -0.0347   -0.0771   -0.0395    0.0193   -0.1149    0.0206
          33   -0.2494    0.0892   -0.0285   -0.0099    0.0463   -0.0218    0.0186    0.0188
          34    0.0231   -0.0732   -0.0966    0.0425    0.0364   -0.0106   -0.0076   -0.0618
          35    0.0159    0.0872   -0.1285   -0.0524    0.0423    0.2842   -0.0384   -0.0599
          36   -0.0070    0.0545    0.0577   -0.0606   -0.0529    0.1304    0.0582    0.1557
          37    0.0233   -0.0739   -0.0964    0.0437    0.0342   -0.0130    0.0145   -0.0547
          38    0.0123    0.0975    0.0189    0.0630   -0.1689   -0.2516   -0.0222    0.0700
          39    0.0181   -0.0399   -0.0946    0.0653   -0.0176   -0.1002    0.0817   -0.1047


   Root No.       9        10        11        12        13        14        15        16

                 9 A      10 A      11 A      12 A      13 A      14 A      15 A      16 A   

                 902.0     929.6     972.1     995.3    1038.9    1104.8    1130.9    1156.4
  
           1    0.0152    0.0032    0.0029   -0.0026    0.0072    0.0348   -0.0171    0.0126
           2    0.0056    0.0014   -0.0080    0.0059   -0.0008    0.0230   -0.0209    0.0631
           3    0.0074   -0.0098   -0.0038    0.0048   -0.0129   -0.0493   -0.0166    0.0375
           4    0.0084   -0.0012    0.0239   -0.0060    0.0002   -0.0028   -0.0339   -0.0217
           5   -0.0095   -0.0259    0.0034    0.0229   -0.0323    0.0228    0.0206   -0.0096
           6   -0.0144   -0.0075   -0.0104    0.0125   -0.0166   -0.0254   -0.0355   -0.0240
           7    0.0084    0.0069   -0.0386    0.0137   -0.0094   -0.0131    0.0062   -0.0025
           8    0.0164    0.0072    0.0091   -0.0054   -0.0005   -0.0122    0.0111   -0.0540
           9    0.0037   -0.0194   -0.0159   -0.0159    0.0207    0.0223    0.0046   -0.0208
          10   -0.0019    0.0004    0.0219   -0.0047   -0.0056   -0.0336    0.0510   -0.0030
          11   -0.0182    0.0157   -0.0067    0.0001    0.0376   -0.0154    0.0063   -0.0029
          12   -0.0040    0.0070    0.0058   -0.0031    0.0156    0.0004    0.0038   -0.0002
          13   -0.0219    0.0001   -0.0279    0.0037    0.0039    0.0147   -0.0192    0.0003
          14   -0.0055    0.0066   -0.0122   -0.0392   -0.0369   -0.0027   -0.0065    0.0031
          15    0.0023    0.0054    0.0163   -0.0218   -0.0043    0.0249    0.0114   -0.0048
          16   -0.0685   -0.0736    0.0470   -0.0369    0.0403   -0.1131   -0.0431   -0.0774
          17    0.0111   -0.0593   -0.0555   -0.0443    0.0255   -0.0740    0.0301    0.1837
          18    0.0764    0.1418    0.0237    0.1025   -0.0779    0.2126   -0.0625   -0.0417
          19    0.1388    0.0401    0.0179   -0.0757    0.0755    0.0215    0.0664    0.1051
          20    0.0124    0.1031    0.0099   -0.0487    0.0791   -0.0216   -0.0771   -0.0164
          21    0.0833   -0.1231   -0.0272    0.0342   -0.0804    0.0492    0.1783    0.1089
          22   -0.1373   -0.0298    0.0209    0.0710   -0.0758    0.0695    0.1376   -0.0600
          23    0.0782   -0.0043    0.0056   -0.0248    0.0165   -0.0185   -0.0799    0.0157
          24   -0.1106    0.1843   -0.0545   -0.0192    0.0850    0.0009    0.2163    0.0630
          25   -0.0241   -0.0790   -0.0282   -0.0453    0.0582    0.0760   -0.0059    0.0316
          26   -0.0249    0.1072    0.1350    0.0610   -0.0813   -0.0891   -0.0191    0.0100
          27   -0.0061    0.0310    0.0268    0.0184   -0.0196   -0.0191   -0.0058   -0.0002
          28   -0.0903   -0.0102    0.1070    0.0066   -0.0053    0.0287   -0.0500    0.1534
          29    0.0870   -0.0224   -0.1102   -0.0315    0.0308   -0.0100    0.0590   -0.1919
          30   -0.0055    0.0409    0.0221    0.0286   -0.0284   -0.0215   -0.0122    0.0257
          31    0.0121    0.0411   -0.0373    0.0413   -0.0388   -0.0442    0.0010    0.0211
          32   -0.0830   -0.0977    0.1553   -0.0904    0.0832    0.1039   -0.0248   -0.0114
          33   -0.0088    0.0324    0.0208    0.0241   -0.0239   -0.0199   -0.0133    0.0321
          34    0.0342   -0.0006    0.0338   -0.0007   -0.0090   -0.0431    0.0084    0.0081
          35    0.0566    0.0025    0.0491    0.1742    0.1280   -0.0530    0.0048    0.0227
          36   -0.0671    0.0056   -0.0593    0.0591    0.0764    0.1091   -0.0243   -0.0132
          37    0.0368    0.0009    0.0508   -0.0086    0.0000    0.0053    0.0413   -0.0110
          38   -0.0025   -0.0880   -0.0187    0.1909    0.1105   -0.0226   -0.0200   -0.0087
          39    0.0983   -0.0241    0.1436    0.0329    0.0396    0.0112    0.1086   -0.0289


   Root No.      17        18        19        20        21        22        23        24

                17 A      18 A      19 A      20 A      21 A      22 A      23 A      24 A   

                1179.0    1219.1    1304.8    1360.2    1397.3    1403.6    1411.0    1490.5
  
           1    0.0209    0.0288   -0.0268    0.0284    0.0069   -0.0006   -0.0016    0.0950
           2    0.0172    0.0248    0.0259   -0.0111   -0.0121   -0.0024    0.0171   -0.0640
           3    0.0349   -0.0469   -0.0068    0.0172    0.0027   -0.0014   -0.0010    0.0320
           4   -0.0362   -0.0528    0.0014    0.0040    0.0131    0.0071   -0.0380   -0.0555
           5   -0.0048   -0.0185   -0.0114    0.0036    0.0043    0.0022   -0.0105   -0.0013
           6   -0.0398    0.0503    0.0204   -0.0085   -0.0093   -0.0048    0.0248    0.0177
           7    0.0006   -0.0062    0.0016    0.0140   -0.0343    0.0138    0.0152   -0.0380
           8    0.0156   -0.0055    0.0023   -0.0249   -0.0017    0.0168   -0.0378    0.0552
           9    0.0010    0.0109    0.0016   -0.0017   -0.0181   -0.0325   -0.0077   -0.0046
          10   -0.0276    0.0598    0.0190   -0.0107   -0.0051   -0.0012    0.0107   -0.0109
          11   -0.0125   -0.0063    0.0046    0.0029    0.0003   -0.0002   -0.0005    0.0018
          12   -0.0012    0.0076   -0.0225   -0.0058    0.0009    0.0008   -0.0030    0.0064
          13    0.0062   -0.0130   -0.0032    0.0016    0.0006    0.0002   -0.0014    0.0009
          14    0.0062    0.0048    0.0088    0.0063   -0.0013   -0.0017    0.0060    0.0182
          15   -0.0091   -0.0116   -0.0243   -0.0191    0.0033    0.0047   -0.0168   -0.0556
          16    0.3798    0.0062    0.0705   -0.0160   -0.0168   -0.0018    0.0202   -0.0684
          17   -0.2439   -0.0472   -0.0563    0.0348    0.0103    0.0027   -0.0066    0.0818
          18    0.0574    0.0715    0.0148   -0.0018   -0.0069   -0.0073    0.0110   -0.0107
          19    0.0792   -0.1345   -0.0350   -0.1092   -0.0568   -0.0224    0.1281    0.0206
          20   -0.0404   -0.0478   -0.0221   -0.1000   -0.0569   -0.0244    0.1363    0.0692
          21    0.1135    0.0166    0.0044    0.0275    0.0079    0.0034   -0.0190   -0.0075
          22   -0.0259   -0.1464   -0.0669   -0.1039   -0.0458   -0.0182    0.1146    0.0598
          23   -0.0121    0.0331    0.0263    0.0590    0.0343    0.0149   -0.0900   -0.0648
          24    0.0693    0.0339    0.0052    0.0860    0.0459    0.0188   -0.1072   -0.0332
          25    0.0001    0.0398    0.0459   -0.0890    0.2986   -0.0865    0.0189    0.0124
          26    0.0201   -0.0432   -0.0680    0.1102    0.0907   -0.2168    0.0853   -0.0459
          27    0.0057   -0.0100   -0.0243    0.0506   -0.0231   -0.0739    0.0312   -0.0382
          28    0.0078    0.0180    0.0465   -0.0882   -0.0765   -0.1633   -0.1305    0.0889
          29    0.0060   -0.0055   -0.0421    0.0683    0.0708   -0.1123    0.0757   -0.0707
          30    0.0116   -0.0119    0.0142   -0.0189   -0.0417    0.3234    0.0003    0.0334
          31    0.0114   -0.0200    0.0236   -0.0333    0.1232    0.0620    0.0246   -0.0093
          32   -0.0059    0.0493   -0.0776    0.1397   -0.0278    0.1536    0.1243   -0.0551
          33    0.0132   -0.0089    0.0175   -0.0365    0.2746    0.1488    0.0703    0.0093
          34    0.0120    0.0771   -0.1188   -0.0487    0.0054    0.0083   -0.0276   -0.0726
          35    0.0144    0.0528   -0.0504   -0.0203   -0.0001    0.0024   -0.0054   -0.0234
          36   -0.0220   -0.1530    0.1635    0.0587   -0.0047   -0.0079    0.0243    0.0499
          37   -0.0335   -0.0376    0.1292    0.0440   -0.0075   -0.0089    0.0319    0.0690
          38    0.0023    0.0167   -0.0682   -0.0156    0.0046    0.0037   -0.0139   -0.0086
          39   -0.0788   -0.0610    0.1820    0.0475   -0.0082   -0.0087    0.0320    0.0459


   Root No.      25        26        27        28        29        30        31        32

                25 A      26 A      27 A      28 A      29 A      30 A      31 A      32 A   

                2091.7    2994.6    3079.2    3080.8    3082.4    3120.1    3132.1    3138.7
  
           1   -0.0519   -0.0312   -0.0010   -0.0016   -0.0005    0.0004   -0.0004    0.0000
           2    0.0237   -0.0441   -0.0021   -0.0021   -0.0006   -0.0001    0.0001   -0.0001
           3   -0.0463   -0.0342   -0.0013   -0.0017   -0.0003    0.0009   -0.0002    0.0003
           4    0.0474    0.0004   -0.0034   -0.0007   -0.0004   -0.0369   -0.0001    0.0003
           5    0.0164    0.0042   -0.0490   -0.0053   -0.0056   -0.0009    0.0000    0.0001
           6   -0.0483    0.0005   -0.0151   -0.0013   -0.0015    0.0225    0.0001   -0.0005
           7    0.0033    0.0032    0.0068   -0.0270   -0.0305    0.0011   -0.0001    0.0000
           8   -0.0040    0.0016    0.0041   -0.0165   -0.0178    0.0004   -0.0001    0.0001
           9    0.0011    0.0026    0.0005   -0.0347    0.0331    0.0004   -0.0002    0.0000
          10   -0.0006   -0.0003    0.0000    0.0002   -0.0001   -0.0002    0.0000   -0.0004
          11   -0.0894   -0.0008   -0.0004   -0.0003    0.0001    0.0006   -0.0026    0.0000
          12    0.2607    0.0013   -0.0002    0.0002    0.0000   -0.0017    0.0076    0.0000
          13   -0.0004    0.0000    0.0000   -0.0001    0.0000   -0.0005   -0.0007   -0.0645
          14    0.0527    0.0000   -0.0001    0.0000    0.0000   -0.0002    0.0152    0.0003
          15   -0.1546   -0.0001    0.0000    0.0000    0.0000    0.0007   -0.0447    0.0006
          16   -0.0211    0.3701    0.0168    0.0152    0.0041   -0.0009   -0.0003   -0.0003
          17   -0.0270    0.5448    0.0190    0.0277    0.0072   -0.0021   -0.0002   -0.0004
          18   -0.0227    0.4071    0.0137    0.0181    0.0060   -0.0012   -0.0006   -0.0001
          19    0.0256    0.0141   -0.1802   -0.0155   -0.0178    0.2430    0.0036   -0.0024
          20   -0.0274   -0.0212    0.2256    0.0187    0.0222   -0.3539   -0.0046    0.0034
          21   -0.0243   -0.0188    0.1878    0.0159    0.0187   -0.2706   -0.0039    0.0025
          22    0.0228   -0.0144    0.2215    0.0269    0.0258    0.1923    0.0033   -0.0020
          23    0.0371   -0.0315    0.3688    0.0439    0.0428    0.3603    0.0058   -0.0038
          24   -0.0015    0.0012   -0.0042   -0.0005   -0.0004    0.0105   -0.0001   -0.0003
          25    0.0050   -0.0006    0.0034    0.0267   -0.0584   -0.0003    0.0001    0.0000
          26   -0.0085    0.0052    0.0025   -0.1045    0.0921    0.0018   -0.0002    0.0000
          27   -0.0032   -0.0236   -0.0015    0.2809   -0.2981   -0.0045    0.0005    0.0000
          28   -0.0070   -0.0216   -0.0305    0.2052    0.0427   -0.0042    0.0008   -0.0003
          29    0.0045   -0.0245   -0.0434    0.2952    0.0717   -0.0055    0.0012   -0.0004
          30   -0.0028   -0.0198   -0.0327    0.2006    0.0746   -0.0038    0.0008   -0.0003
          31    0.0015   -0.0168   -0.0580    0.0896    0.3801   -0.0068   -0.0001    0.0000
          32   -0.0043   -0.0052   -0.0067    0.0066    0.0490   -0.0011   -0.0001    0.0000
          33    0.0002    0.0101    0.0298   -0.0673   -0.1736    0.0038   -0.0001    0.0001
          34   -0.1195    0.0005   -0.0001   -0.0006    0.0001   -0.0018    0.4020    0.3844
          35    0.0178   -0.0012    0.0006    0.0002   -0.0001    0.0002   -0.0792   -0.0827
          36   -0.0479    0.0000    0.0002   -0.0003    0.0001   -0.0006    0.2243    0.2349
          37    0.1191    0.0002    0.0003    0.0013    0.0001    0.0091   -0.3951    0.3898
          38    0.0156    0.0010   -0.0008    0.0001    0.0000    0.0018   -0.0734    0.0795
          39   -0.0489    0.0000   -0.0005   -0.0008   -0.0002   -0.0054    0.2237   -0.2417


   Root No.      33

                33 A   

                3177.3
  
           1   -0.0003
           2    0.0002
           3   -0.0002
           4   -0.0001
           5   -0.0003
           6    0.0000
           7   -0.0128
           8    0.0211
           9   -0.0002
          10    0.0001
          11    0.0000
          12    0.0001
          13    0.0000
          14    0.0000
          15   -0.0001
          16    0.0008
          17    0.0024
          18    0.0013
          19    0.0001
          20   -0.0002
          21    0.0000
          22    0.0015
          23    0.0034
          24    0.0001
          25    0.0359
          26   -0.0892
          27    0.3061
          28   -0.1699
          29   -0.2186
          30   -0.1637
          31    0.2877
          32    0.0521
          33   -0.1410
          34    0.0001
          35    0.0000
          36    0.0001
          37   -0.0004
          38   -0.0001
          39    0.0002


           MASS-WEIGHTED COORDINATE ANALYSIS (NORMAL COORDINATES)


   Root No.       1         2         3         4         5         6         7         8

                 1 A       2 A       3 A       4 A       5 A       6 A       7 A       8 A   

                 162.0     207.6     349.5     394.6     487.3     630.7     827.6     862.7
  
           1   -0.0653    0.1367    0.0854    0.1953    0.0197    0.0141    0.2433   -0.1017
           2   -0.0318   -0.0735    0.1121    0.3872   -0.1086    0.1243    0.1136   -0.0747
           3    0.0315   -0.2079    0.2738   -0.0963   -0.2573    0.0987   -0.2171   -0.2407
           4   -0.0679    0.1440    0.0916    0.2207    0.0348    0.0220   -0.3108   -0.0549
           5   -0.0505   -0.0846   -0.0901   -0.3273   -0.1252   -0.0762    0.1250   -0.1195
           6   -0.0520   -0.1494   -0.2565    0.1449    0.0623   -0.0281   -0.2397    0.1102
           7    0.0158   -0.0007   -0.1661   -0.3841    0.0774   -0.1090    0.1507   -0.1729
           8    0.0140   -0.1497   -0.0496    0.0668   -0.0841    0.1410   -0.0361    0.2369
           9    0.0016    0.4713   -0.0107   -0.0534    0.1328   -0.0377   -0.1034   -0.1304
          10   -0.0063    0.0786    0.4291   -0.1453   -0.2365    0.1099   -0.0195    0.1708
          11   -0.0095   -0.1380    0.3401   -0.0510    0.5920   -0.2024   -0.0414   -0.0994
          12    0.0017   -0.2078    0.1150   -0.0139    0.1264   -0.0246    0.2594    0.0383
          13    0.1068   -0.3025   -0.2472    0.1270    0.0196    0.0213   -0.0155    0.2890
          14    0.0657    0.3925   -0.1568    0.0074   -0.0772   -0.0122   -0.1266   -0.0553
          15    0.0272   -0.0297   -0.0524    0.0067   -0.1143    0.0545    0.3888    0.1109
          16   -0.0300    0.0497   -0.0311    0.0944    0.0049   -0.0070    0.1687   -0.0457
          17   -0.0044    0.0222   -0.0428    0.1307   -0.0510    0.0953    0.1126    0.0252
          18    0.0131   -0.1252    0.2254   -0.0992   -0.0397   -0.0439   -0.2664   -0.1079
          19   -0.0319    0.0346   -0.0805   -0.0552    0.0366   -0.1091   -0.2420    0.2570
          20   -0.0207   -0.0185   -0.1162   -0.1764   -0.2419   -0.0993    0.0361   -0.0558
          21   -0.0186   -0.0580   -0.0635    0.0297    0.2949   -0.0271   -0.2208    0.3155
          22   -0.0182    0.0559    0.0725    0.2509    0.0338    0.1077   -0.0673   -0.2216
          23   -0.0158   -0.0332   -0.0542   -0.2063   -0.0542   -0.0859    0.0231    0.0889
          24   -0.0322   -0.0144   -0.2390    0.1201   -0.2379   -0.0685   -0.2337   -0.0968
          25    0.5111   -0.0717   -0.0153   -0.1825   -0.0417   -0.0108   -0.1023   -0.1627
          26    0.2754    0.0958   -0.0654    0.0194    0.1046   -0.0351    0.0953    0.2876
          27    0.0181    0.1969   -0.0261   -0.0049    0.0963   -0.0431    0.0310    0.0563
          28   -0.2445   -0.0003   -0.1392   -0.2533    0.0603   -0.0827   -0.0423    0.0121
          29   -0.1517   -0.1009    0.0425    0.0953   -0.0967    0.1012   -0.0007   -0.0321
          30    0.4682    0.2203    0.0009    0.0075    0.1089   -0.0523    0.0382    0.0527
          31   -0.2223    0.0307   -0.0691   -0.0952    0.0546   -0.0488    0.1036   -0.0123
          32   -0.0983   -0.1487   -0.0725   -0.1737   -0.0811    0.0415   -0.2523    0.0488
          33   -0.5062    0.1776   -0.0594   -0.0223    0.0949   -0.0467    0.0409    0.0445
          34    0.0469   -0.1456   -0.2017    0.0957    0.0747   -0.0227   -0.0167   -0.1467
          35    0.0323    0.1734   -0.2684   -0.1181    0.0869    0.6104   -0.0843   -0.1422
          36   -0.0141    0.1085    0.1204   -0.1367   -0.1086    0.2801    0.1279    0.3693
          37    0.0473   -0.1471   -0.2014    0.0985    0.0702   -0.0280    0.0318   -0.1296
          38    0.0250    0.1941    0.0394    0.1420   -0.3467   -0.5403   -0.0488    0.1659
          39    0.0367   -0.0794   -0.1975    0.1472   -0.0361   -0.2151    0.1794   -0.2482


   Root No.       9        10        11        12        13        14        15        16

                 9 A      10 A      11 A      12 A      13 A      14 A      15 A      16 A   

                 902.0     929.6     972.1     995.3    1038.9    1104.8    1130.9    1156.4
  
           1    0.1400    0.0280    0.0246   -0.0223    0.0625    0.2574   -0.1236    0.0855
           2    0.0514    0.0121   -0.0680    0.0512   -0.0073    0.1703   -0.1505    0.4287
           3    0.0682   -0.0863   -0.0328    0.0417   -0.1118   -0.3650   -0.1195    0.2548
           4    0.0775   -0.0108    0.2046   -0.0518    0.0019   -0.0204   -0.2447   -0.1477
           5   -0.0875   -0.2284    0.0288    0.1987   -0.2799    0.1684    0.1484   -0.0653
           6   -0.1323   -0.0660   -0.0890    0.1080   -0.1444   -0.1877   -0.2565   -0.1632
           7    0.0775    0.0609   -0.3306    0.1186   -0.0817   -0.0973    0.0449   -0.0171
           8    0.1506    0.0638    0.0782   -0.0464   -0.0043   -0.0899    0.0804   -0.3667
           9    0.0338   -0.1709   -0.1361   -0.1381    0.1795    0.1650    0.0328   -0.1411
          10   -0.0175    0.0032    0.1875   -0.0412   -0.0489   -0.2486    0.3678   -0.0203
          11   -0.1675    0.1383   -0.0570    0.0012    0.3257   -0.1141    0.0452   -0.0197
          12   -0.0368    0.0618    0.0494   -0.0266    0.1352    0.0030    0.0276   -0.0011
          13   -0.2016    0.0010   -0.2384    0.0318    0.0335    0.1085   -0.1386    0.0020
          14   -0.0510    0.0579   -0.1043   -0.3404   -0.3198   -0.0198   -0.0466    0.0208
          15    0.0209    0.0474    0.1395   -0.1891   -0.0372    0.1843    0.0824   -0.0325
          16   -0.1826   -0.1882    0.1165   -0.0926    0.1013   -0.2425   -0.0902   -0.1522
          17    0.0294   -0.1517   -0.1375   -0.1113    0.0642   -0.1587    0.0628    0.3615
          18    0.2034    0.3626    0.0587    0.2574   -0.1958    0.4559   -0.1307   -0.0820
          19    0.3697    0.1026    0.0444   -0.1901    0.1897    0.0460    0.1388    0.2069
          20    0.0331    0.2636    0.0245   -0.1224    0.1987   -0.0464   -0.1612   -0.0323
          21    0.2219   -0.3149   -0.0674    0.0859   -0.2021    0.1054    0.3727    0.2143
          22   -0.3658   -0.0762    0.0518    0.1783   -0.1905    0.1491    0.2876   -0.1180
          23    0.2082   -0.0111    0.0139   -0.0624    0.0415   -0.0396   -0.1669    0.0309
          24   -0.2946    0.4713   -0.1351   -0.0483    0.2135    0.0019    0.4522    0.1240
          25   -0.0641   -0.2021   -0.0699   -0.1138    0.1461    0.1631   -0.0122    0.0622
          26   -0.0663    0.2742    0.3345    0.1534   -0.2043   -0.1910   -0.0400    0.0197
          27   -0.0163    0.0793    0.0664    0.0462   -0.0493   -0.0410   -0.0121   -0.0004
          28   -0.2404   -0.0260    0.2653    0.0167   -0.0134    0.0615   -0.1044    0.3019
          29    0.2317   -0.0573   -0.2732   -0.0791    0.0773   -0.0214    0.1234   -0.3776
          30   -0.0146    0.1047    0.0549    0.0717   -0.0714   -0.0460   -0.0255    0.0506
          31    0.0321    0.1051   -0.0924    0.1039   -0.0974   -0.0948    0.0022    0.0415
          32   -0.2211   -0.2498    0.3850   -0.2270    0.2090    0.2227   -0.0519   -0.0224
          33   -0.0233    0.0829    0.0516    0.0605   -0.0599   -0.0427   -0.0278    0.0631
          34    0.0911   -0.0015    0.0837   -0.0018   -0.0225   -0.0925    0.0175    0.0160
          35    0.1506    0.0063    0.1217    0.4377    0.3216   -0.1136    0.0101    0.0448
          36   -0.1788    0.0144   -0.1471    0.1484    0.1920    0.2339   -0.0508   -0.0259
          37    0.0981    0.0022    0.1260   -0.0216    0.0000    0.0115    0.0863   -0.0216
          38   -0.0068   -0.2251   -0.0463    0.4797    0.2776   -0.0485   -0.0417   -0.0171
          39    0.2619   -0.0616    0.3560    0.0825    0.0994    0.0241    0.2270   -0.0568


   Root No.      17        18        19        20        21        22        23        24

                17 A      18 A      19 A      20 A      21 A      22 A      23 A      24 A   

                1179.0    1219.1    1304.8    1360.2    1397.3    1403.6    1411.0    1490.5
  
           1    0.1282    0.1958   -0.2216    0.2567    0.0484   -0.0037   -0.0134    0.5411
           2    0.1055    0.1687    0.2143   -0.1005   -0.0856   -0.0155    0.1393   -0.3647
           3    0.2141   -0.3192   -0.0564    0.1554    0.0192   -0.0094   -0.0078    0.1823
           4   -0.2222   -0.3598    0.0113    0.0362    0.0927    0.0466   -0.3091   -0.3159
           5   -0.0294   -0.1259   -0.0948    0.0329    0.0304    0.0143   -0.0852   -0.0073
           6   -0.2445    0.3428    0.1686   -0.0770   -0.0658   -0.0317    0.2020    0.1010
           7    0.0036   -0.0421    0.0130    0.1261   -0.2423    0.0910    0.1240   -0.2163
           8    0.0956   -0.0376    0.0187   -0.2251   -0.0123    0.1106   -0.3076    0.3144
           9    0.0061    0.0742    0.0132   -0.0154   -0.1276   -0.2138   -0.0625   -0.0265
          10   -0.1694    0.4073    0.1576   -0.0968   -0.0360   -0.0077    0.0868   -0.0621
          11   -0.0764   -0.0429    0.0378    0.0261    0.0023   -0.0012   -0.0043    0.0102
          12   -0.0074    0.0516   -0.1865   -0.0522    0.0062    0.0053   -0.0241    0.0362
          13    0.0378   -0.0883   -0.0265    0.0143    0.0044    0.0012   -0.0115    0.0052
          14    0.0383    0.0329    0.0731    0.0573   -0.0095   -0.0109    0.0489    0.1035
          15   -0.0558   -0.0791   -0.2009   -0.1721    0.0235    0.0306   -0.1369   -0.3165
          16    0.6752    0.0122    0.1692   -0.0419   -0.0343   -0.0035    0.0477   -0.1128
          17   -0.4336   -0.0930   -0.1349    0.0911    0.0212    0.0051   -0.0156    0.1349
          18    0.1020    0.1410    0.0354   -0.0048   -0.0141   -0.0138    0.0260   -0.0177
          19    0.1408   -0.2652   -0.0840   -0.2856   -0.1164   -0.0427    0.3021    0.0340
          20   -0.0719   -0.0943   -0.0531   -0.2614   -0.1166   -0.0465    0.3215    0.1142
          21    0.2017    0.0327    0.0104    0.0718    0.0162    0.0064   -0.0449   -0.0124
          22   -0.0461   -0.2888   -0.1603   -0.2717   -0.0937   -0.0347    0.2704    0.0987
          23   -0.0216    0.0653    0.0630    0.1543    0.0703    0.0284   -0.2124   -0.1069
          24    0.1231    0.0669    0.0125    0.2248    0.0941    0.0357   -0.2530   -0.0547
          25    0.0003    0.0785    0.1100   -0.2326    0.6114   -0.1649    0.0446    0.0205
          26    0.0358   -0.0851   -0.1631    0.2883    0.1857   -0.4132    0.2012   -0.0758
          27    0.0102   -0.0197   -0.0583    0.1323   -0.0473   -0.1408    0.0735   -0.0631
          28    0.0139    0.0354    0.1115   -0.2308   -0.1566   -0.3111   -0.3078    0.1467
          29    0.0107   -0.0108   -0.1010    0.1787    0.1449   -0.2141    0.1786   -0.1167
          30    0.0207   -0.0235    0.0341   -0.0495   -0.0854    0.6163    0.0008    0.0551
          31    0.0203   -0.0394    0.0567   -0.0870    0.2523    0.1181    0.0581   -0.0153
          32   -0.0106    0.0972   -0.1862    0.3654   -0.0569    0.2928    0.2931   -0.0909
          33    0.0234   -0.0175    0.0421   -0.0953    0.5622    0.2836    0.1658    0.0154
          34    0.0213    0.1521   -0.2848   -0.1272    0.0110    0.0159   -0.0651   -0.1199
          35    0.0256    0.1041   -0.1210   -0.0530   -0.0003    0.0045   -0.0128   -0.0386
          36   -0.0391   -0.3017    0.3921    0.1535   -0.0096   -0.0151    0.0574    0.0823
          37   -0.0596   -0.0742    0.3099    0.1152   -0.0154   -0.0169    0.0753    0.1139
          38    0.0042    0.0330   -0.1637   -0.0408    0.0093    0.0071   -0.0327   -0.0142
          39   -0.1401   -0.1203    0.4363    0.1243   -0.0167   -0.0166    0.0754    0.0758


   Root No.      25        26        27        28        29        30        31        32

                25 A      26 A      27 A      28 A      29 A      30 A      31 A      32 A   

                2091.7    2994.6    3079.2    3080.8    3082.4    3120.1    3132.1    3138.7
  
           1   -0.1522   -0.1334   -0.0061   -0.0101   -0.0031    0.0021   -0.0020    0.0000
           2    0.0696   -0.1885   -0.0123   -0.0128   -0.0039   -0.0003    0.0005   -0.0004
           3   -0.1357   -0.1459   -0.0076   -0.0107   -0.0021    0.0048   -0.0010    0.0015
           4    0.1391    0.0018   -0.0202   -0.0046   -0.0027   -0.1904   -0.0003    0.0017
           5    0.0480    0.0180   -0.2878   -0.0330   -0.0338   -0.0045    0.0002    0.0005
           6   -0.1416    0.0022   -0.0887   -0.0082   -0.0089    0.1161    0.0007   -0.0026
           7    0.0096    0.0139    0.0399   -0.1692   -0.1855    0.0055   -0.0004    0.0001
           8   -0.0118    0.0068    0.0241   -0.1033   -0.1080    0.0019   -0.0003    0.0003
           9    0.0032    0.0110    0.0026   -0.2170    0.2015    0.0020   -0.0008    0.0003
          10   -0.0019   -0.0011   -0.0003    0.0010   -0.0008   -0.0009    0.0000   -0.0021
          11   -0.2624   -0.0036   -0.0023   -0.0019    0.0005    0.0033   -0.0133    0.0001
          12    0.7647    0.0056   -0.0013    0.0011   -0.0002   -0.0086    0.0390   -0.0001
          13   -0.0011    0.0001    0.0000   -0.0003   -0.0002   -0.0027   -0.0033   -0.3226
          14    0.1547   -0.0002   -0.0006   -0.0002   -0.0002   -0.0011    0.0777    0.0014
          15   -0.4534   -0.0006    0.0000    0.0003   -0.0001    0.0035   -0.2284    0.0031
          16   -0.0179    0.4579    0.0286    0.0276    0.0073   -0.0013   -0.0005   -0.0004
          17   -0.0229    0.6740    0.0323    0.0502    0.0128   -0.0031   -0.0004   -0.0006
          18   -0.0193    0.5036    0.0234    0.0327    0.0106   -0.0017   -0.0009   -0.0002
          19    0.0218    0.0174   -0.3068   -0.0282   -0.0313    0.3634    0.0054   -0.0035
          20   -0.0233   -0.0262    0.3840    0.0339    0.0392   -0.5294   -0.0069    0.0050
          21   -0.0206   -0.0233    0.3198    0.0288    0.0330   -0.4047   -0.0058    0.0036
          22    0.0193   -0.0178    0.3771    0.0488    0.0455    0.2876    0.0049   -0.0029
          23    0.0315   -0.0390    0.6279    0.0795    0.0754    0.5389    0.0085   -0.0055
          24   -0.0013    0.0015   -0.0072   -0.0009   -0.0008    0.0157   -0.0001   -0.0005
          25    0.0043   -0.0007    0.0058    0.0484   -0.1028   -0.0005    0.0002    0.0000
          26   -0.0072    0.0065    0.0042   -0.1895    0.1621    0.0027   -0.0004    0.0000
          27   -0.0027   -0.0292   -0.0025    0.5093   -0.5250   -0.0068    0.0008    0.0000
          28   -0.0059   -0.0267   -0.0520    0.3721    0.0751   -0.0063    0.0011   -0.0004
          29    0.0038   -0.0303   -0.0739    0.5352    0.1263   -0.0083    0.0017   -0.0006
          30   -0.0024   -0.0245   -0.0556    0.3637    0.1314   -0.0057    0.0012   -0.0005
          31    0.0013   -0.0208   -0.0987    0.1624    0.6694   -0.0102   -0.0002   -0.0001
          32   -0.0036   -0.0064   -0.0115    0.0120    0.0862   -0.0016   -0.0002    0.0000
          33    0.0002    0.0125    0.0507   -0.1221   -0.3058    0.0057   -0.0001    0.0002
          34   -0.1016    0.0007   -0.0002   -0.0011    0.0002   -0.0027    0.5946    0.5571
          35    0.0152   -0.0015    0.0011    0.0004   -0.0001    0.0003   -0.1172   -0.1198
          36   -0.0407    0.0000    0.0003   -0.0006    0.0001   -0.0009    0.3317    0.3404
          37    0.1012    0.0002    0.0005    0.0023    0.0002    0.0135   -0.5843    0.5650
          38    0.0133    0.0012   -0.0014    0.0003    0.0000    0.0027   -0.1085    0.1152
          39   -0.0416    0.0000   -0.0008   -0.0014   -0.0003   -0.0080    0.3308   -0.3503


   Root No.      33

                33 A   

                3177.3
  
           1   -0.0021
           2    0.0011
           3   -0.0010
           4   -0.0004
           5   -0.0017
           6    0.0001
           7   -0.0780
           8    0.1290
           9   -0.0010
          10    0.0004
          11   -0.0003
          12    0.0006
          13    0.0001
          14    0.0002
          15   -0.0003
          16    0.0014
          17    0.0042
          18    0.0022
          19    0.0001
          20   -0.0004
          21    0.0000
          22    0.0027
          23    0.0060
          24    0.0002
          25    0.0636
          26   -0.1579
          27    0.5420
          28   -0.3008
          29   -0.3869
          30   -0.2899
          31    0.5093
          32    0.0922
          33   -0.2496
          34    0.0002
          35    0.0000
          36    0.0002
          37   -0.0007
          38   -0.0001
          39    0.0004


          DESCRIPTION OF VIBRATIONS


 VIBRATION    1    1A       ATOM PAIR        ENERGY CONTRIBUTION    RADIAL
 FREQ.       161.96        C  3 --  H  9          +31.8% (373.7%)     0.0%
 T-DIPOLE    0.0130        C  3 --  H 11          +30.9% (368.0%)     0.0%
 TRAVEL      0.2410        C  3 --  H 10          +29.6% (360.3%)     0.1%
 RED. MASS   0.3118        C  4 --  C  5           +1.4% ( 78.1%)     0.0%
 EFF. MASS   7.1664

 VIBRATION    2    2A       ATOM PAIR        ENERGY CONTRIBUTION    RADIAL
 FREQ.       207.63        C  1 --  C  3          +16.7% (286.7%)     0.0%
 T-DIPOLE    0.0971        C  3 --  H 10          +12.8% (250.7%)    12.4%
 TRAVEL      0.0630        C  3 --  H 11          +12.3% (246.4%)    27.0%
 RED. MASS   1.6067        C  4 --  C  5          +11.5% (238.2%)     0.0%
 EFF. MASS  81.8433

 VIBRATION    3    3A       ATOM PAIR        ENERGY CONTRIBUTION    RADIAL
 FREQ.       349.47        C  4 --  C  5          +17.3% (160.0%)     0.0%
 T-DIPOLE    0.1582        C  1 --  C  2          +12.7% (137.5%)     0.0%
 TRAVEL      0.0859        C  2 --  C  4          +12.4% (135.4%)     0.0%
 RED. MASS   1.5028        C  1 --  C  4          +11.5% (130.4%)     0.1%
 EFF. MASS  26.1359

 VIBRATION    4    4A       ATOM PAIR        ENERGY CONTRIBUTION    RADIAL
 FREQ.       394.60        C  1 --  C  3          +15.8% (148.0%)     0.0%
 T-DIPOLE    0.0152        C  1 --  C  2          +15.6% (147.2%)     0.1%
 TRAVEL      0.0829        C  1 --  C  4          +10.0% (117.9%)     0.0%
 RED. MASS   1.1708        C  3 --  H 10           +9.2% (113.2%)    60.7%
 EFF. MASS  24.8646

 VIBRATION    5    5A       ATOM PAIR        ENERGY CONTRIBUTION    RADIAL
 FREQ.       487.32        C  1 --  C  4          +17.8% (102.1%)     0.1%
 T-DIPOLE    0.2427        C  2 --  C  4          +15.1% ( 94.3%)     0.0%
 TRAVEL      0.1045        C  4 --  C  5          +14.3% ( 91.5%)     0.0%
 RED. MASS   2.2812        C  2 --  H  7           +8.9% ( 72.2%)     3.0%
 EFF. MASS  12.6602

 VIBRATION    6    6A       ATOM PAIR        ENERGY CONTRIBUTION    RADIAL
 FREQ.       630.68        C  5 --  H 12          +29.2% ( 80.6%)     0.3%
 T-DIPOLE    0.0618        C  5 --  H 13          +22.8% ( 71.2%)     0.0%
 TRAVEL      0.1900        C  1 --  C  4           +6.6% ( 38.5%)     1.3%
 RED. MASS   0.3793        C  1 --  C  3           +5.7% ( 35.5%)    16.8%
 EFF. MASS   2.9621

 VIBRATION    7    7A       ATOM PAIR        ENERGY CONTRIBUTION    RADIAL
 FREQ.       827.63        C  2 --  C  4          +13.5% ( 71.2%)    25.0%
 T-DIPOLE    0.1446        C  5 --  H 12          +13.4% ( 70.9%)    27.9%
 TRAVEL      0.0942        C  5 --  H 13          +13.4% ( 70.8%)    48.2%
 RED. MASS   0.9619        C  1 --  C  4          +12.3% ( 67.9%)    26.3%
 EFF. MASS   9.1865        C  1 --  C  2          +10.9% ( 63.9%)    99.8%

 VIBRATION    8    8A       ATOM PAIR        ENERGY CONTRIBUTION    RADIAL
 FREQ.       862.70        C  5 --  H 12          +13.5% ( 61.8%)    18.9%
 T-DIPOLE    0.0847        C  5 --  H 13          +13.3% ( 61.4%)     5.3%
 TRAVEL      0.1109        C  1 --  C  3          +10.6% ( 54.8%)    81.8%
 RED. MASS   0.4299        C  1 --  C  4           +8.8% ( 50.0%)    91.6%
 EFF. MASS   6.3600

 VIBRATION    9    9A       ATOM PAIR        ENERGY CONTRIBUTION    RADIAL
 FREQ.       901.98        C  2 --  H  8          +19.3% ( 59.9%)     0.4%
 T-DIPOLE    0.1373        C  2 --  H  7          +14.9% ( 52.6%)     7.2%
 TRAVEL      0.1569        C  3 --  H 10          +10.0% ( 43.1%)    13.3%
 RED. MASS   0.2012        C  5 --  H 13           +8.4% ( 39.6%)    13.1%
 EFF. MASS   3.0359

 VIBRATION   10   10A       ATOM PAIR        ENERGY CONTRIBUTION    RADIAL
 FREQ.       929.61        C  2 --  H  8          +20.9% ( 58.6%)     7.3%
 T-DIPOLE    0.1432        C  2 --  H  7          +18.6% ( 55.3%)     6.5%
 TRAVEL      0.1699        C  1 --  H  6          +13.9% ( 47.7%)     0.1%
 RED. MASS   0.2084        C  3 --  H  9          +12.4% ( 45.1%)     9.3%
 EFF. MASS   2.5133

 VIBRATION   11   11A       ATOM PAIR        ENERGY CONTRIBUTION    RADIAL
 FREQ.       972.10        C  3 --  H 10          +18.4% ( 65.2%)     3.5%
 T-DIPOLE    0.1165        C  3 --  H 11          +13.3% ( 55.4%)    14.9%
 TRAVEL      0.1146        C  3 --  H  9          +12.0% ( 52.6%)    11.7%
 RED. MASS   0.4455        C  5 --  H 13          +10.7% ( 49.8%)    24.0%
 EFF. MASS   5.2843

 VIBRATION   12   12A       ATOM PAIR        ENERGY CONTRIBUTION    RADIAL
 FREQ.       995.28        C  5 --  H 13          +21.1% ( 54.5%)     0.3%
 T-DIPOLE    0.4238        C  5 --  H 12          +20.0% ( 53.0%)     0.0%
 TRAVEL      0.1437        C  2 --  H  7           +8.7% ( 35.0%)    21.2%
 RED. MASS   0.4512        C  2 --  H  8           +8.5% ( 34.7%)     8.7%
 EFF. MASS   3.2818

 VIBRATION   13   13A       ATOM PAIR        ENERGY CONTRIBUTION    RADIAL
 FREQ.      1038.93        C  2 --  H  7          +14.2% ( 46.9%)    15.0%
 T-DIPOLE    0.2371        C  2 --  H  8          +13.1% ( 45.0%)    12.6%
 TRAVEL      0.1159        C  2 --  C  4          +11.5% ( 42.2%)     1.6%
 RED. MASS   0.5233        C  5 --  H 12          +11.2% ( 41.5%)     0.5%
 EFF. MASS   4.8327

 VIBRATION   14   14A       ATOM PAIR        ENERGY CONTRIBUTION    RADIAL
 FREQ.      1104.77        C  1 --  H  6          +26.0% ( 68.7%)     0.1%
 T-DIPOLE    0.0346        C  1 --  C  3          +11.0% ( 44.6%)     0.5%
 TRAVEL      0.1044        C  1 --  C  2           +9.3% ( 41.2%)    71.1%
 RED. MASS   0.8934        C  1 --  C  4           +9.0% ( 40.5%)     2.6%
 EFF. MASS   5.5951

 VIBRATION   15   15A       ATOM PAIR        ENERGY CONTRIBUTION    RADIAL
 FREQ.      1130.86        C  2 --  H  8          +26.2% ( 62.9%)     0.0%
 T-DIPOLE    0.1234        C  2 --  H  7          +18.3% ( 52.5%)     0.6%
 TRAVEL      0.1147        C  1 --  C  4          +11.0% ( 40.7%)    34.1%
 RED. MASS   0.6739        C  2 --  C  4           +9.5% ( 37.9%)     0.7%
 EFF. MASS   4.5297

 VIBRATION   16   16A       ATOM PAIR        ENERGY CONTRIBUTION    RADIAL
 FREQ.      1156.36        C  1 --  C  3          +24.4% ( 70.9%)    51.1%
 T-DIPOLE    0.0884        C  1 --  C  2          +14.3% ( 54.3%)    11.5%
 TRAVEL      0.0930        C  3 --  H 10          +12.5% ( 50.9%)    42.7%
 RED. MASS   1.1997        C  1 --  H  6          +12.1% ( 49.9%)    64.6%
 EFF. MASS   6.7417        C  1 --  C  4          +11.7% ( 49.2%)     6.8%

 VIBRATION   17   17A       ATOM PAIR        ENERGY CONTRIBUTION    RADIAL
 FREQ.      1179.04        C  1 --  H  6          +47.7% ( 81.3%)     5.7%
 T-DIPOLE    0.0514        C  1 --  C  2          +11.9% ( 40.7%)    35.0%
 TRAVEL      0.1284        C  2 --  H  7           +9.7% ( 36.7%)     0.3%
 RED. MASS   0.6626        C  1 --  C  4           +8.0% ( 33.2%)    47.0%
 EFF. MASS   3.4665

 VIBRATION   18   18A       ATOM PAIR        ENERGY CONTRIBUTION    RADIAL
 FREQ.      1219.14        C  2 --  C  4          +20.8% ( 67.9%)    62.9%
 T-DIPOLE    0.1435        C  1 --  C  2          +19.7% ( 66.1%)    37.0%
 TRAVEL      0.0817        C  2 --  H  8          +13.7% ( 55.2%)    34.1%
 RED. MASS   1.5564        C  2 --  H  7          +13.4% ( 54.5%)    35.0%
 EFF. MASS   8.2916

 VIBRATION   19   19A       ATOM PAIR        ENERGY CONTRIBUTION    RADIAL
 FREQ.      1304.76        C  5 --  H 13          +21.6% ( 54.2%)     1.0%
 T-DIPOLE    0.0415        C  5 --  H 12          +17.6% ( 48.9%)     2.9%
 TRAVEL      0.1243        C  1 --  H  6          +11.0% ( 38.6%)     0.1%
 RED. MASS   0.3723        C  1 --  C  4          +10.7% ( 38.1%)    10.5%
 EFF. MASS   3.3424

 VIBRATION   20   20A       ATOM PAIR        ENERGY CONTRIBUTION    RADIAL
 FREQ.      1360.24        C  3 --  H  9          +13.4% ( 41.5%)     1.5%
 T-DIPOLE    0.0911        C  3 --  H 11          +13.0% ( 40.8%)     2.3%
 TRAVEL      0.1276        C  1 --  C  4           +9.8% ( 35.5%)    81.4%
 RED. MASS   0.2939        C  3 --  H 10           +9.6% ( 35.0%)     3.3%
 EFF. MASS   3.0463

 VIBRATION   21   21A       ATOM PAIR        ENERGY CONTRIBUTION    RADIAL
 FREQ.      1397.26        C  3 --  H  9          +37.4% ( 56.4%)     2.2%
 T-DIPOLE    0.0354        C  3 --  H 11          +35.3% ( 54.8%)     3.0%
 TRAVEL      0.1571        C  1 --  C  3           +7.1% ( 24.6%)    38.8%
 RED. MASS   0.3932        C  3 --  H 10           +6.8% ( 24.1%)    91.1%
 EFF. MASS   1.9547

 VIBRATION   22   22A       ATOM PAIR        ENERGY CONTRIBUTION    RADIAL
 FREQ.      1403.64        C  3 --  H 10          +51.3% ( 62.7%)     0.0%
 T-DIPOLE    0.0593        C  3 --  H  9          +21.9% ( 40.9%)    11.9%
 TRAVEL      0.1719        C  3 --  H 11          +18.7% ( 37.8%)    10.1%
 RED. MASS   0.4084        C  1 --  C  3           +5.2% ( 19.9%)     5.9%
 EFF. MASS   1.6266

 VIBRATION   23   23A       ATOM PAIR        ENERGY CONTRIBUTION    RADIAL
 FREQ.      1410.96        C  2 --  H  7          +18.1% ( 51.6%)     4.3%
 T-DIPOLE    0.1050        C  2 --  H  8          +17.1% ( 50.1%)     5.6%
 TRAVEL      0.1068        C  3 --  H 10          +11.5% ( 41.1%)     6.7%
 RED. MASS   0.5192        C  3 --  H 11          +11.2% ( 40.4%)     2.1%
 EFF. MASS   4.1921

 VIBRATION   24   24A       ATOM PAIR        ENERGY CONTRIBUTION    RADIAL
 FREQ.      1490.46        C  1 --  C  3          +20.2% ( 73.8%)    86.4%
 T-DIPOLE    0.0532        C  1 --  C  2          +19.1% ( 71.7%)    84.5%
 TRAVEL      0.0665        C  1 --  H  6          +14.1% ( 61.7%)     0.4%
 RED. MASS   3.0861        C  1 --  C  4          +12.6% ( 58.3%)    54.8%
 EFF. MASS  10.2405

 VIBRATION   25   25A       ATOM PAIR        ENERGY CONTRIBUTION    RADIAL
 FREQ.      2091.70        C  4 --  C  5          +38.4% ( 92.5%)   100.0%
 T-DIPOLE    0.3345        C  1 --  C  4          +23.5% ( 72.3%)    85.2%
 TRAVEL      0.0521        C  2 --  C  4          +23.4% ( 72.2%)    85.2%
 RED. MASS   5.8109        C  5 --  H 12           +5.0% ( 33.5%)    10.9%
 EFF. MASS  11.8865

 VIBRATION   26   26A       ATOM PAIR        ENERGY CONTRIBUTION    RADIAL
 FREQ.      2994.62        C  1 --  H  6          +95.8% ( 99.6%)   100.0%
 T-DIPOLE    0.1984        C  1 --  C  3           +1.1% ( 10.8%)    11.0%
 TRAVEL      0.1245        C  1 --  C  2           +1.1% ( 10.7%)    22.1%
 RED. MASS   0.9154        C  1 --  C  4           +1.1% ( 10.7%)    26.2%
 EFF. MASS   1.4524

 VIBRATION   27   27A       ATOM PAIR        ENERGY CONTRIBUTION    RADIAL
 FREQ.      3079.21        C  2 --  H  8          +57.1% ( 78.0%)    98.1%
 T-DIPOLE    0.1732        C  2 --  H  7          +37.9% ( 63.5%)    95.8%
 TRAVEL      0.1193        C  3 --  H 11           +1.3% ( 11.9%)    97.1%
 RED. MASS   0.5092        C  3 --  H 10           +1.2% ( 11.4%)    96.9%
 EFF. MASS   1.5399

 VIBRATION   28   28A       ATOM PAIR        ENERGY CONTRIBUTION    RADIAL
 FREQ.      3080.79        C  3 --  H 10          +59.8% ( 79.8%)    98.5%
 T-DIPOLE    0.0525        C  3 --  H  9          +32.3% ( 58.7%)    93.5%
 TRAVEL      0.1205        C  3 --  H 11           +5.2% ( 23.4%)    55.0%
 RED. MASS   0.4936        C  1 --  C  3           +1.0% ( 10.3%)     0.0%
 EFF. MASS   1.5079

 VIBRATION   29   29A       ATOM PAIR        ENERGY CONTRIBUTION    RADIAL
 FREQ.      3082.40        C  3 --  H 11          +59.0% ( 79.3%)    98.4%
 T-DIPOLE    0.0365        C  3 --  H  9          +33.8% ( 60.0%)    93.9%
 TRAVEL      0.1204        C  3 --  H 10           +4.9% ( 22.7%)    53.0%
 RED. MASS   0.4941        C  1 --  C  3           +1.0% ( 10.3%)     0.0%
 EFF. MASS   1.5081

 VIBRATION   30   30A       ATOM PAIR        ENERGY CONTRIBUTION    RADIAL
 FREQ.      3120.10        C  2 --  H  7          +60.0% ( 77.1%)    97.7%
 T-DIPOLE    0.2227        C  2 --  H  8          +38.2% ( 61.5%)    94.2%
 TRAVEL      0.1285        C  2 --  C  4           +0.9% (  9.5%)    78.3%
 RED. MASS   0.5047        C  1 --  C  2           +0.9% (  9.3%)    74.9%
 EFF. MASS   1.3094

 VIBRATION   31   31A       ATOM PAIR        ENERGY CONTRIBUTION    RADIAL
 FREQ.      3132.11        C  5 --  H 12          +49.9% ( 70.7%)    95.3%
 T-DIPOLE    0.2561        C  5 --  H 13          +48.3% ( 69.6%)    94.7%
 TRAVEL      0.1237        C  4 --  C  5           +1.7% ( 13.1%)   100.0%
 RED. MASS   0.4860
 EFF. MASS   1.4077

 VIBRATION   32   32A       ATOM PAIR        ENERGY CONTRIBUTION    RADIAL
 FREQ.      3138.68        C  5 --  H 13          +50.1% ( 72.5%)    97.4%
 T-DIPOLE    0.1869        C  5 --  H 12          +48.6% ( 71.4%)    96.9%
 TRAVEL      0.1158        C  4 --  C  5           +1.3% ( 11.5%)     0.0%
 RED. MASS   0.5346
 EFF. MASS   1.6025

 VIBRATION   33   33A       ATOM PAIR        ENERGY CONTRIBUTION    RADIAL
 FREQ.      3177.26        C  3 --  H 11          +33.7% ( 55.9%)    97.2%
 T-DIPOLE    0.0340        C  3 --  H 10          +33.1% ( 55.3%)    97.0%
 TRAVEL      0.1366        C  3 --  H  9          +32.9% ( 55.2%)    97.1%
 RED. MASS   0.3271        C  1 --  C  3           +0.3% (  5.2%)   100.0%
 EFF. MASS   1.1368

 SYMMETRY NUMBER FOR POINT-GROUP C1  =  1


          SYSTEM IS A GROUND STATE


    NULL



          MOLECULE IS NOT LINEAR

          THERE ARE 33 GENUINE VIBRATIONS IN THIS SYSTEM
          THIS THERMODYNAMICS CALCULATION IS LIMITED TO
          MOLECULES WHICH HAVE NO INTERNAL ROTATIONS




                    CALCULATED THERMODYNAMIC PROPERTIES
                                          *
   TEMP. (K)   PARTITION FUNCTION   H.O.F.    ENTHALPY  HEAT CAPACITY ENTROPY
                                   KCAL/MOL   CAL/MOLE    CAL/K/MOL  CAL/K/MOL


 298.00  VIB.     0.5431D+01                  1703.5226    14.1011     9.0793
         ROT.     0.7846D+05                   888.2813     2.9808    25.3774
         INT.     0.4262D+06                  2591.8039    17.0819    34.4567
         TRA.     0.5435D+27                  1480.4688     4.9680    38.5714
         TOT.                       37.218    4072.2727    22.0499    73.0280

 200.00  VIB.     0.2282D+01                   632.5955     7.9543     4.8028
         ROT.     0.4314D+05                   596.1620     2.9808    24.1887
         INT.     0.9846D+05                  1228.7575    10.9351    28.9916
         TRA.     0.2988D+27                   993.6033     4.9680    36.5902
         TOT.                       35.368    2222.3607    15.9032    65.5818

 210.00  VIB.     0.2474D+01                   714.9463     8.5187     5.2045
         ROT.     0.4642D+05                   625.9700     2.9808    24.3342
         INT.     0.1148D+06                  1340.9164    11.4995    29.5387
         TRA.     0.3215D+27                  1043.2834     4.9680    36.8326
         TOT.                       35.530    2384.1998    16.4675    66.3713

 220.00  VIB.     0.2687D+01                   803.0264     9.1002     5.6142
         ROT.     0.4977D+05                   655.7781     2.9808    24.4728
         INT.     0.1337D+06                  1458.8045    12.0810    30.0870
         TRA.     0.3448D+27                  1092.9636     4.9680    37.0637
         TOT.                       35.697    2551.7681    17.0490    67.1507

 230.00  VIB.     0.2923D+01                   897.0050     9.6983     6.0318
         ROT.     0.5320D+05                   685.5862     2.9808    24.6053
         INT.     0.1555D+06                  1582.5912    12.6791    30.6372
         TRA.     0.3685D+27                  1142.6437     4.9680    37.2846
         TOT.                       35.871    2725.2350    17.6471    67.9217

 240.00  VIB.     0.3187D+01                   997.0443    10.3121     6.4575
         ROT.     0.5671D+05                   715.3943     2.9808    24.7322
         INT.     0.1807D+06                  1712.4386    13.2929    31.1897
         TRA.     0.3928D+27                  1192.3239     4.9680    37.4960
         TOT.                       36.050    2904.7625    18.2609    68.6857

 250.00  VIB.     0.3480D+01                  1103.2949    10.9403     6.8911
         ROT.     0.6029D+05                   745.2024     2.9808    24.8539
         INT.     0.2098D+06                  1848.4974    13.9211    31.7450
         TRA.     0.4176D+27                  1242.0041     4.9680    37.6988
         TOT.                       36.236    3090.5014    18.8891    69.4438

 260.00  VIB.     0.3806D+01                  1215.8931    11.5813     7.3327
         ROT.     0.6394D+05                   775.0105     2.9808    24.9708
         INT.     0.2434D+06                  1990.9036    14.5621    32.3035
         TRA.     0.4430D+27                  1291.6842     4.9680    37.8937
         TOT.                       36.428    3282.5879    19.5301    70.1971

 270.00  VIB.     0.4170D+01                  1334.9578    12.2333     7.7820
         ROT.     0.6767D+05                   804.8186     2.9808    25.0833
         INT.     0.2822D+06                  2139.7764    15.2141    32.8652
         TRA.     0.4687D+27                  1341.3644     4.9680    38.0812
         TOT.                       36.627    3481.1408    20.1821    70.9464

 280.00  VIB.     0.4576D+01                  1460.5896    12.8944     8.2388
         ROT.     0.7146D+05                   834.6267     2.9808    25.1917
         INT.     0.3270D+06                  2295.2163    15.8752    33.4305
         TRA.     0.4950D+27                  1391.0445     4.9680    38.2618
         TOT.                       36.832    3686.2608    20.8432    71.6923

 290.00  VIB.     0.5030D+01                  1592.8696    13.5626     8.7029
         ROT.     0.7533D+05                   864.4348     2.9808    25.2963
         INT.     0.3789D+06                  2457.3044    16.5435    33.9992
         TRA.     0.5218D+27                  1440.7247     4.9680    38.4362
         TOT.                       37.044    3898.0292    21.5115    72.4353

 300.00  VIB.     0.5537D+01                  1731.8598    14.2361     9.1740
         ROT.     0.7926D+05                   894.2429     2.9808    25.3973
         INT.     0.4389D+06                  2626.1027    17.2169    34.5714
         TRA.     0.5490D+27                  1490.4049     4.9680    38.6046
         TOT.                       37.262    4116.5076    22.1849    73.1760

 310.00  VIB.     0.6105D+01                  1877.6027    14.9129     9.6519
         ROT.     0.8325D+05                   924.0510     2.9808    25.4951
         INT.     0.5082D+06                  2801.6537    17.8937    35.1469
         TRA.     0.5767D+27                  1540.0850     4.9680    38.7675
         TOT.                       37.487    4341.7388    22.8617    73.9144

 320.00  VIB.     0.6741D+01                  2030.1228    15.5912    10.1360
         ROT.     0.8731D+05                   953.8591     2.9808    25.5897
         INT.     0.5885D+06                  2983.9819    18.5720    35.7258
         TRA.     0.6048D+27                  1589.7652     4.9680    38.9252
         TOT.                       37.719    4573.7471    23.5401    74.6510

 330.00  VIB.     0.7453D+01                  2189.4269    16.2694    10.6262
         ROT.     0.9144D+05                   983.6672     2.9808    25.6814
         INT.     0.6815D+06                  3173.0941    19.2503    36.3076
         TRA.     0.6334D+27                  1639.4454     4.9680    39.0781
         TOT.                       37.958    4812.5395    24.2183    75.3857

 340.00  VIB.     0.8252D+01                  2355.5060    16.9460    11.1219
         ROT.     0.9562D+05                  1013.4753     2.9808    25.7704
         INT.     0.7891D+06                  3368.9813    19.9268    36.8924
         TRA.     0.6624D+27                  1689.1255     4.9680    39.2264
         TOT.                       38.204    5058.1068    24.8948    76.1188

 350.00  VIB.     0.9149D+01                  2528.3360    17.6194    11.6229
         ROT.     0.9987D+05                  1043.2834     2.9808    25.8568
         INT.     0.9138D+06                  3571.6194    20.6002    37.4797
         TRA.     0.6918D+27                  1738.8057     4.9680    39.3704
         TOT.                       38.456    5310.4251    25.5682    76.8501

 360.00  VIB.     0.1016D+02                  2707.8796    18.2885    12.1286
         ROT.     0.1042D+06                  1073.0915     2.9808    25.9408
         INT.     0.1058D+07                  3780.9711    21.2693    38.0694
         TRA.     0.7217D+27                  1788.4859     4.9680    39.5104
         TOT.                       38.715    5569.4570    26.2373    77.5798

 370.00  VIB.     0.1129D+02                  2894.0876    18.9521    12.6388
         ROT.     0.1086D+06                  1102.8996     2.9808    26.0225
         INT.     0.1226D+07                  3996.9872    21.9329    38.6612
         TRA.     0.7520D+27                  1838.1660     4.9680    39.6465
         TOT.                       38.981    5835.1532    26.9009    78.3077

 380.00  VIB.     0.1257D+02                  3086.9002    19.6093    13.1529
         ROT.     0.1130D+06                  1132.7077     2.9808    26.1020
         INT.     0.1420D+07                  4219.6079    22.5901    39.2549
         TRA.     0.7827D+27                  1887.8462     4.9680    39.7790
         TOT.                       39.253    6107.4541    27.5581    79.0339

 390.00  VIB.     0.1400D+02                  3286.2485    20.2591    13.6707
         ROT.     0.1175D+06                  1162.5158     2.9808    26.1794
         INT.     0.1645D+07                  4448.7643    23.2399    39.8501
         TRA.     0.8138D+27                  1937.5263     4.9680    39.9080
         TOT.                       39.532    6386.2906    28.2079    79.7581

 400.00  VIB.     0.1562D+02                  3492.0559    20.9010    14.1917
         ROT.     0.1220D+06                  1192.3239     2.9808    26.2549
         INT.     0.1906D+07                  4684.3798    23.8818    40.4466
         TRA.     0.8452D+27                  1987.2065     4.9680    40.0338
         TOT.                       39.817    6671.5863    28.8498    80.4804

   *: NOTE: HEATS OF FORMATION ARE RELATIVE TO THE
            ELEMENTS IN THEIR STANDARD STATE AT 298K
              (=  Standard Enthalpy of Formation).

            Hvib:  Zero-point energy is not included.
                   frequencies of less than zero cm-1 are not included.
            Hrot = (3/2)RT
            Htra = (3/2)RT + pV = (5/2)RT

            Heat capacity is Cp, not Cv

           For more information, see: HTTP://OpenMOPAC.net/Manual/thermochemistry.html


           FORCE CONSTANT IN CARTESIAN COORDINATES (Millidynes/A)

    ATOM   CHEMICAL       X               Y               Z
   NUMBER   SYMBOL  FORCE CONSTANT  FORCE CONSTANT  FORCE CONSTANT

      1       C        9.847761        8.588961        7.183218
      2       C        9.697782        8.271216        7.153866
      3       C        8.437873        8.560447        8.255588
      4       C        5.130760        4.365694       19.317483
      5       C        8.821729        3.408874       14.422429
      6       H        1.689034        2.823943        1.752387
      7       H        1.833030        2.827798        1.915522
      8       H        1.834015        4.144974        0.570247
      9       H        0.735401        1.137524        4.858665
     10       H        1.890985        3.025131        1.855873
     11       H        4.436457        0.769055        1.529960
     12       H        4.077043        0.512445        1.796059
     13       H        4.060052        0.495582        1.829329



 TOTAL CPU TIME:             0.59 SECONDS

 == MOPAC DONE ==
