 *******************************************************************************
 ** Site#: 14399           For non-commercial use only        Version 13.159M **
 *******************************************************************************
 ** Cite this work as: MOPAC2012, James J. P. Stewart, Stewart Computational  **
 ** Chemistry, Version 13.159M web: HTTP://OpenMOPAC.net  Days remaining:   6 **
 *******************************************************************************
 **                                                                           **
 **                                MOPAC2012                                  **
 **                                                                           **
 *******************************************************************************

                            PM3 CALCULATION RESULTS


 *******************************************************************************
 *  CALCULATION DONE:                                Mon Jun  2 11:03:37 2014  *
 *  PM3      - The PM3 Hamiltonian to be used
 *  PRECISE  - CRITERIA TO BE INCREASED BY 100 TIMES
 *  NOSYM    - POINT-GROUP SYMMETRY SET TO C1
 *  T=       - A TIME OF 172800.0 SECONDS REQUESTED
 *  DUMP=N   - RESTART FILE WRITTEN EVERY  7200.000 SECONDS
 *******************************************************************************
pm3  precise nosym
 InChI=1S/C12H20/c1-4-7-8-11-9-10(5-2)12(11)6-3/h6-8,10-12H,3-5,9H2,1-2H3

   ATOM   CHEMICAL          X               Y               Z
  NUMBER   SYMBOL      (ANGSTROMS)     (ANGSTROMS)     (ANGSTROMS)
 
     1       C          1.79540000  *  -0.27120000  *  -0.79440000  *
     2       C          1.20890000  *   0.46390000  *   0.41610000  *
     3       C          0.18650000  *  -0.61860000  *   0.58840000  *
     4       C          0.52030000  *  -1.17370000  *  -0.79450000  *
     5       C          1.98750000  *   0.56160000  *  -2.06720000  *
     6       C         -3.68520000  *  -0.59480000  *   0.93500000  *
     7       C          3.17420000  *   1.51230000  *  -1.95900000  *
     8       C         -4.51870000  *  -0.96630000  *  -0.28460000  *
     9       C         -1.23660000  *  -0.15340000  *   0.75650000  *
    10       C         -2.25560000  *  -1.02290000  *   0.76330000  *
    11       C          2.15760000  *   0.63860000  *   1.57280000  *
    12       C          1.75170000  *   1.15100000  *   2.73670000  *
    13       H          2.69600000  *  -0.89130000  *  -0.56260000  *
    14       H          0.45940000  *  -1.35490000  *   1.38430000  *
    15       H          0.77170000  *   1.45120000  *   0.12610000  *
    16       H         -0.22080000  *  -0.89820000  *  -1.58320000  *
    17       H          0.75100000  *  -2.26420000  *  -0.79080000  *
    18       H          1.07090000  *   1.14970000  *  -2.30710000  *
    19       H          2.16510000  *  -0.13150000  *  -2.92160000  *
    20       H         -4.09930000  *  -1.10700000  *   1.83330000  *
    21       H         -3.78160000  *   0.50220000  *   1.11140000  *
    22       H         -4.13600000  *  -0.45110000  *  -1.19530000  *
    23       H         -5.57620000  *  -0.65430000  *  -0.12840000  *
    24       H         -4.50680000  *  -2.06700000  *  -0.45720000  *
    25       H          3.29580000  *   2.07460000  *  -2.91240000  *
    26       H          3.01870000  *   2.25120000  *  -1.14020000  *
    27       H          4.11640000  *   0.95060000  *  -1.76490000  *
    28       H         -2.05590000  *  -2.08750000  *   0.63860000  *
    29       H         -1.43500000  *   0.90980000  *   0.89110000  *
    30       H          3.20600000  *   0.36410000  *   1.46240000  *
    31       H          0.71620000  *   1.45010000  *   2.89250000  *
    32       H          2.45820000  *   1.27700000  *   3.55480000  *
 


          CARTESIAN COORDINATES 

    NO.       ATOM         X         Y         Z

     1         C        1.7954   -0.2712   -0.7944
     2         C        1.2089    0.4639    0.4161
     3         C        0.1865   -0.6186    0.5884
     4         C        0.5203   -1.1737   -0.7945
     5         C        1.9875    0.5616   -2.0672
     6         C       -3.6852   -0.5948    0.9350
     7         C        3.1742    1.5123   -1.9590
     8         C       -4.5187   -0.9663   -0.2846
     9         C       -1.2366   -0.1534    0.7565
    10         C       -2.2556   -1.0229    0.7633
    11         C        2.1576    0.6386    1.5728
    12         C        1.7517    1.1510    2.7367
    13         H        2.6960   -0.8913   -0.5626
    14         H        0.4594   -1.3549    1.3843
    15         H        0.7717    1.4512    0.1261
    16         H       -0.2208   -0.8982   -1.5832
    17         H        0.7510   -2.2642   -0.7908
    18         H        1.0709    1.1497   -2.3071
    19         H        2.1651   -0.1315   -2.9216
    20         H       -4.0993   -1.1070    1.8333
    21         H       -3.7816    0.5022    1.1114
    22         H       -4.1360   -0.4511   -1.1953
    23         H       -5.5762   -0.6543   -0.1284
    24         H       -4.5068   -2.0670   -0.4572
    25         H        3.2958    2.0746   -2.9124
    26         H        3.0187    2.2512   -1.1402
    27         H        4.1164    0.9506   -1.7649
    28         H       -2.0559   -2.0875    0.6386
    29         H       -1.4350    0.9098    0.8911
    30         H        3.2060    0.3641    1.4624
    31         H        0.7162    1.4501    2.8925
    32         H        2.4582    1.2770    3.5548

  H: (PM3): J. J. P. STEWART, J. COMP. CHEM. 10, 209 (1989).
  C: (PM3): J. J. P. STEWART, J. COMP. CHEM. 10, 209 (1989).

           Empirical Formula: C12 H20  =    32 atoms



      MOLECULAR POINT GROUP   :   C1  


      RHF CALCULATION, NO. OF DOUBLY OCCUPIED LEVELS =   34

      Geometry optimization using EF

          DIAGONAL MATRIX USED AS START HESSIAN

 CYCLE:     1 TIME:   0.026 TIME LEFT:  2.00D  GRAD.:   114.691 HEAT: 14.03714
 CYCLE:     2 TIME:   0.029 TIME LEFT:  2.00D  GRAD.:   107.842 HEAT: 12.33301
 CYCLE:     3 TIME:   0.025 TIME LEFT:  2.00D  GRAD.:    61.486 HEAT: 10.10735
 CYCLE:     4 TIME:   0.025 TIME LEFT:  2.00D  GRAD.:    48.162 HEAT: 9.617595
 CYCLE:     5 TIME:   0.014 TIME LEFT:  2.00D  GRAD.:    40.538 HEAT: 9.234597
 CYCLE:     6 TIME:   0.014 TIME LEFT:  2.00D  GRAD.:    41.139 HEAT: 8.980027
 CYCLE:     7 TIME:   0.014 TIME LEFT:  2.00D  GRAD.:    33.334 HEAT: 8.827944
 CYCLE:     8 TIME:   0.014 TIME LEFT:  2.00D  GRAD.:    33.385 HEAT: 8.645771
 CYCLE:     9 TIME:   0.025 TIME LEFT:  2.00D  GRAD.:    17.559 HEAT: 8.449579
 CYCLE:    10 TIME:   0.025 TIME LEFT:  2.00D  GRAD.:    11.682 HEAT: 8.383939
 CYCLE:    11 TIME:   0.014 TIME LEFT:  2.00D  GRAD.:     7.741 HEAT: 8.324736
 CYCLE:    12 TIME:   0.016 TIME LEFT:  2.00D  GRAD.:    15.537 HEAT: 8.293823
 CYCLE:    13 TIME:   0.016 TIME LEFT:  2.00D  GRAD.:    17.682 HEAT: 8.292856
 CYCLE:    14 TIME:   0.027 TIME LEFT:  2.00D  GRAD.:    10.200 HEAT: 8.222587
 CYCLE:    15 TIME:   0.025 TIME LEFT:  2.00D  GRAD.:     5.838 HEAT: 8.201139
 CYCLE:    16 TIME:   0.024 TIME LEFT:  2.00D  GRAD.:     4.589 HEAT: 8.190462
 CYCLE:    17 TIME:   0.014 TIME LEFT:  2.00D  GRAD.:     4.176 HEAT: 8.178297
 CYCLE:    18 TIME:   0.013 TIME LEFT:  2.00D  GRAD.:     7.072 HEAT: 8.163974
 CYCLE:    19 TIME:   0.014 TIME LEFT:  2.00D  GRAD.:    10.054 HEAT: 8.154058
 CYCLE:    20 TIME:   0.014 TIME LEFT:  2.00D  GRAD.:    10.642 HEAT: 8.145019
 CYCLE:    21 TIME:   0.013 TIME LEFT:  2.00D  GRAD.:     9.573 HEAT: 8.126652
 CYCLE:    22 TIME:   0.013 TIME LEFT:  2.00D  GRAD.:     8.351 HEAT: 8.113198
 CYCLE:    23 TIME:   0.013 TIME LEFT:  2.00D  GRAD.:     9.964 HEAT: 8.109818
 CYCLE:    24 TIME:   0.013 TIME LEFT:  2.00D  GRAD.:     5.806 HEAT: 8.081292
 CYCLE:    25 TIME:   0.023 TIME LEFT:  2.00D  GRAD.:     5.172 HEAT: 8.070808
 CYCLE:    26 TIME:   0.013 TIME LEFT:  2.00D  GRAD.:     3.255 HEAT: 8.057451
 CYCLE:    27 TIME:   0.013 TIME LEFT:  2.00D  GRAD.:     4.883 HEAT: 8.042940
 CYCLE:    28 TIME:   0.014 TIME LEFT:  2.00D  GRAD.:     5.118 HEAT: 8.022184
 CYCLE:    29 TIME:   0.014 TIME LEFT:  2.00D  GRAD.:     5.719 HEAT: 7.991290
 CYCLE:    30 TIME:   0.014 TIME LEFT:  2.00D  GRAD.:     6.944 HEAT: 7.959044
 CYCLE:    31 TIME:   0.014 TIME LEFT:  2.00D  GRAD.:     4.737 HEAT: 7.925916
 CYCLE:    32 TIME:   0.015 TIME LEFT:  2.00D  GRAD.:     5.135 HEAT: 7.909197
 CYCLE:    33 TIME:   0.017 TIME LEFT:  2.00D  GRAD.:     4.784 HEAT: 7.878463
 CYCLE:    34 TIME:   0.014 TIME LEFT:  2.00D  GRAD.:     5.874 HEAT: 7.832704
 CYCLE:    35 TIME:   0.014 TIME LEFT:  2.00D  GRAD.:     6.063 HEAT: 7.814410
 CYCLE:    36 TIME:   0.015 TIME LEFT:  2.00D  GRAD.:     5.861 HEAT: 7.802164
 CYCLE:    37 TIME:   0.015 TIME LEFT:  2.00D  GRAD.:     3.558 HEAT: 7.785605
 CYCLE:    38 TIME:   0.015 TIME LEFT:  2.00D  GRAD.:     3.350 HEAT: 7.770608
 CYCLE:    39 TIME:   0.014 TIME LEFT:  2.00D  GRAD.:     4.740 HEAT: 7.750160
 CYCLE:    40 TIME:   0.014 TIME LEFT:  2.00D  GRAD.:     5.488 HEAT: 7.726459
 CYCLE:    41 TIME:   0.014 TIME LEFT:  2.00D  GRAD.:     3.985 HEAT: 7.706291
 CYCLE:    42 TIME:   0.014 TIME LEFT:  2.00D  GRAD.:     3.518 HEAT: 7.685510
 CYCLE:    43 TIME:   0.014 TIME LEFT:  2.00D  GRAD.:     4.091 HEAT: 7.664373
 CYCLE:    44 TIME:   0.014 TIME LEFT:  2.00D  GRAD.:     3.263 HEAT: 7.647021
 CYCLE:    45 TIME:   0.014 TIME LEFT:  2.00D  GRAD.:     2.410 HEAT: 7.632935
 CYCLE:    46 TIME:   0.014 TIME LEFT:  2.00D  GRAD.:     2.219 HEAT: 7.620667
 CYCLE:    47 TIME:   0.014 TIME LEFT:  2.00D  GRAD.:     2.246 HEAT: 7.614022
 CYCLE:    48 TIME:   0.014 TIME LEFT:  2.00D  GRAD.:     2.539 HEAT: 7.604132
 CYCLE:    49 TIME:   0.014 TIME LEFT:  2.00D  GRAD.:     2.598 HEAT: 7.592591
 CYCLE:    50 TIME:   0.014 TIME LEFT:  2.00D  GRAD.:     2.618 HEAT: 7.580418
 CYCLE:    51 TIME:   0.014 TIME LEFT:  2.00D  GRAD.:     2.936 HEAT: 7.563581
 CYCLE:    52 TIME:   0.014 TIME LEFT:  2.00D  GRAD.:     3.239 HEAT: 7.548461
 CYCLE:    53 TIME:   0.013 TIME LEFT:  2.00D  GRAD.:     3.227 HEAT: 7.530328
 CYCLE:    54 TIME:   0.014 TIME LEFT:  2.00D  GRAD.:     3.317 HEAT: 7.507932
 CYCLE:    55 TIME:   0.013 TIME LEFT:  2.00D  GRAD.:     3.135 HEAT: 7.487472
 CYCLE:    56 TIME:   0.014 TIME LEFT:  2.00D  GRAD.:     2.829 HEAT: 7.468282
 CYCLE:    57 TIME:   0.014 TIME LEFT:  2.00D  GRAD.:     2.678 HEAT: 7.455367
 CYCLE:    58 TIME:   0.016 TIME LEFT:  2.00D  GRAD.:     2.251 HEAT: 7.445477
 CYCLE:    59 TIME:   0.015 TIME LEFT:  2.00D  GRAD.:     1.831 HEAT: 7.437843
 CYCLE:    60 TIME:   0.014 TIME LEFT:  2.00D  GRAD.:     1.713 HEAT: 7.431669
 CYCLE:    61 TIME:   0.014 TIME LEFT:  2.00D  GRAD.:     1.497 HEAT: 7.427042
 CYCLE:    62 TIME:   0.014 TIME LEFT:  2.00D  GRAD.:     1.508 HEAT: 7.420026
 CYCLE:    63 TIME:   0.014 TIME LEFT:  2.00D  GRAD.:     1.615 HEAT: 7.413857
 CYCLE:    64 TIME:   0.014 TIME LEFT:  2.00D  GRAD.:     1.515 HEAT: 7.407923
 CYCLE:    65 TIME:   0.014 TIME LEFT:  2.00D  GRAD.:     1.578 HEAT: 7.402362
 CYCLE:    66 TIME:   0.014 TIME LEFT:  2.00D  GRAD.:     1.730 HEAT: 7.396348
 CYCLE:    67 TIME:   0.014 TIME LEFT:  2.00D  GRAD.:     1.885 HEAT: 7.389180
 CYCLE:    68 TIME:   0.013 TIME LEFT:  2.00D  GRAD.:     1.702 HEAT: 7.381706
 CYCLE:    69 TIME:   0.013 TIME LEFT:  2.00D  GRAD.:     1.442 HEAT: 7.375281
 CYCLE:    70 TIME:   0.014 TIME LEFT:  2.00D  GRAD.:     1.477 HEAT: 7.370092
 CYCLE:    71 TIME:   0.014 TIME LEFT:  2.00D  GRAD.:     1.748 HEAT: 7.364626
 CYCLE:    72 TIME:   0.014 TIME LEFT:  2.00D  GRAD.:     1.718 HEAT: 7.357651
 CYCLE:    73 TIME:   0.014 TIME LEFT:  2.00D  GRAD.:     1.763 HEAT: 7.350225
 CYCLE:    74 TIME:   0.014 TIME LEFT:  2.00D  GRAD.:     1.493 HEAT: 7.344656
 CYCLE:    75 TIME:   0.014 TIME LEFT:  2.00D  GRAD.:     1.514 HEAT: 7.339967
 CYCLE:    76 TIME:   0.013 TIME LEFT:  2.00D  GRAD.:     1.654 HEAT: 7.334472
 CYCLE:    77 TIME:   0.014 TIME LEFT:  2.00D  GRAD.:     1.663 HEAT: 7.326660
 CYCLE:    78 TIME:   0.014 TIME LEFT:  2.00D  GRAD.:     1.506 HEAT: 7.320327
 CYCLE:    79 TIME:   0.014 TIME LEFT:  2.00D  GRAD.:     1.150 HEAT: 7.316156
 CYCLE:    80 TIME:   0.014 TIME LEFT:  2.00D  GRAD.:     0.985 HEAT: 7.313531
 CYCLE:    81 TIME:   0.014 TIME LEFT:  2.00D  GRAD.:     0.888 HEAT: 7.311446
 CYCLE:    82 TIME:   0.014 TIME LEFT:  2.00D  GRAD.:     0.762 HEAT: 7.309755
 CYCLE:    83 TIME:   0.015 TIME LEFT:  2.00D  GRAD.:     0.697 HEAT: 7.308556
 CYCLE:    84 TIME:   0.014 TIME LEFT:  2.00D  GRAD.:     0.615 HEAT: 7.307627
 CYCLE:    85 TIME:   0.014 TIME LEFT:  2.00D  GRAD.:     0.606 HEAT: 7.306725
 CYCLE:    86 TIME:   0.014 TIME LEFT:  2.00D  GRAD.:     0.677 HEAT: 7.305652
 CYCLE:    87 TIME:   0.014 TIME LEFT:  2.00D  GRAD.:     0.649 HEAT: 7.304496
 CYCLE:    88 TIME:   0.014 TIME LEFT:  2.00D  GRAD.:     0.626 HEAT: 7.303453
 CYCLE:    89 TIME:   0.014 TIME LEFT:  2.00D  GRAD.:     0.606 HEAT: 7.302515
 CYCLE:    90 TIME:   0.014 TIME LEFT:  2.00D  GRAD.:     0.620 HEAT: 7.301515
 CYCLE:    91 TIME:   0.014 TIME LEFT:  2.00D  GRAD.:     0.694 HEAT: 7.300418
 CYCLE:    92 TIME:   0.014 TIME LEFT:  2.00D  GRAD.:     0.719 HEAT: 7.299160
 CYCLE:    93 TIME:   0.014 TIME LEFT:  2.00D  GRAD.:     0.756 HEAT: 7.297715
 CYCLE:    94 TIME:   0.013 TIME LEFT:  2.00D  GRAD.:     0.773 HEAT: 7.296202
 CYCLE:    95 TIME:   0.014 TIME LEFT:  2.00D  GRAD.:     0.817 HEAT: 7.294492
 CYCLE:    96 TIME:   0.014 TIME LEFT:  2.00D  GRAD.:     0.880 HEAT: 7.292565
 CYCLE:    97 TIME:   0.017 TIME LEFT:  2.00D  GRAD.:     0.859 HEAT: 7.290564
 CYCLE:    98 TIME:   0.016 TIME LEFT:  2.00D  GRAD.:     0.847 HEAT: 7.288572
 CYCLE:    99 TIME:   0.015 TIME LEFT:  2.00D  GRAD.:     0.847 HEAT: 7.286940
 CYCLE:   100 TIME:   0.014 TIME LEFT:  2.00D  GRAD.:     0.791 HEAT: 7.285341
 CYCLE:   101 TIME:   0.014 TIME LEFT:  2.00D  GRAD.:     0.797 HEAT: 7.283808
 CYCLE:   102 TIME:   0.014 TIME LEFT:  2.00D  GRAD.:     0.663 HEAT: 7.282386
 CYCLE:   103 TIME:   0.015 TIME LEFT:  2.00D  GRAD.:     0.562 HEAT: 7.281266
 CYCLE:   104 TIME:   0.014 TIME LEFT:  2.00D  GRAD.:     0.572 HEAT: 7.280401
 CYCLE:   105 TIME:   0.015 TIME LEFT:  2.00D  GRAD.:     0.623 HEAT: 7.279550
 CYCLE:   106 TIME:   0.014 TIME LEFT:  2.00D  GRAD.:     0.627 HEAT: 7.278613
 CYCLE:   107 TIME:   0.014 TIME LEFT:  2.00D  GRAD.:     0.658 HEAT: 7.277239
 CYCLE:   108 TIME:   0.014 TIME LEFT:  2.00D  GRAD.:     0.857 HEAT: 7.275342
 CYCLE:   109 TIME:   0.014 TIME LEFT:  2.00D  GRAD.:     0.943 HEAT: 7.273472
 CYCLE:   110 TIME:   0.014 TIME LEFT:  2.00D  GRAD.:     1.223 HEAT: 7.269844
 CYCLE:   111 TIME:   0.014 TIME LEFT:  2.00D  GRAD.:     1.063 HEAT: 7.267963
 CYCLE:   112 TIME:   0.014 TIME LEFT:  2.00D  GRAD.:     1.296 HEAT: 7.264496
 CYCLE:   113 TIME:   0.014 TIME LEFT:  2.00D  GRAD.:     1.072 HEAT: 7.262726
 CYCLE:   114 TIME:   0.015 TIME LEFT:  2.00D  GRAD.:     1.354 HEAT: 7.258264
 CYCLE:   115 TIME:   0.015 TIME LEFT:  2.00D  GRAD.:     1.644 HEAT: 7.252297
 CYCLE:   116 TIME:   0.015 TIME LEFT:  2.00D  GRAD.:     1.984 HEAT: 7.244505
 CYCLE:   117 TIME:   0.018 TIME LEFT:  2.00D  GRAD.:     2.038 HEAT: 7.236195
 CYCLE:   118 TIME:   0.017 TIME LEFT:  2.00D  GRAD.:     1.503 HEAT: 7.227323
 CYCLE:   119 TIME:   0.016 TIME LEFT:  2.00D  GRAD.:     2.393 HEAT: 7.223946
 CYCLE:   120 TIME:   0.014 TIME LEFT:  2.00D  GRAD.:     1.654 HEAT: 7.221462
 CYCLE:   121 TIME:   0.014 TIME LEFT:  2.00D  GRAD.:     1.023 HEAT: 7.218224
 CYCLE:   122 TIME:   0.015 TIME LEFT:  2.00D  GRAD.:     0.790 HEAT: 7.215925
 CYCLE:   123 TIME:   0.015 TIME LEFT:  2.00D  GRAD.:     0.986 HEAT: 7.213351
 CYCLE:   124 TIME:   0.017 TIME LEFT:  2.00D  GRAD.:     0.928 HEAT: 7.211688
 CYCLE:   125 TIME:   0.014 TIME LEFT:  2.00D  GRAD.:     0.899 HEAT: 7.209520
 CYCLE:   126 TIME:   0.015 TIME LEFT:  2.00D  GRAD.:     1.043 HEAT: 7.206138
 CYCLE:   127 TIME:   0.017 TIME LEFT:  2.00D  GRAD.:     1.241 HEAT: 7.200979
 CYCLE:   128 TIME:   0.016 TIME LEFT:  2.00D  GRAD.:     1.376 HEAT: 7.196427
 CYCLE:   129 TIME:   0.014 TIME LEFT:  2.00D  GRAD.:     1.419 HEAT: 7.191878
 CYCLE:   130 TIME:   0.015 TIME LEFT:  2.00D  GRAD.:     1.820 HEAT: 7.187402
 CYCLE:   131 TIME:   0.014 TIME LEFT:  2.00D  GRAD.:     1.905 HEAT: 7.182176
 CYCLE:   132 TIME:   0.014 TIME LEFT:  2.00D  GRAD.:     1.648 HEAT: 7.175944
 CYCLE:   133 TIME:   0.015 TIME LEFT:  2.00D  GRAD.:     1.864 HEAT: 7.165650
 CYCLE:   134 TIME:   0.014 TIME LEFT:  2.00D  GRAD.:     1.772 HEAT: 7.161069
 CYCLE:   135 TIME:   0.015 TIME LEFT:  2.00D  GRAD.:     1.676 HEAT: 7.155954
 CYCLE:   136 TIME:   0.015 TIME LEFT:  2.00D  GRAD.:     1.419 HEAT: 7.151414
 CYCLE:   137 TIME:   0.014 TIME LEFT:  2.00D  GRAD.:     1.883 HEAT: 7.149460
 CYCLE:   138 TIME:   0.014 TIME LEFT:  2.00D  GRAD.:     1.178 HEAT: 7.145649
 CYCLE:   139 TIME:   0.014 TIME LEFT:  2.00D  GRAD.:     1.138 HEAT: 7.142602
 CYCLE:   140 TIME:   0.014 TIME LEFT:  2.00D  GRAD.:     1.359 HEAT: 7.139500
 CYCLE:   141 TIME:   0.014 TIME LEFT:  2.00D  GRAD.:     1.453 HEAT: 7.135374
 CYCLE:   142 TIME:   0.015 TIME LEFT:  2.00D  GRAD.:     1.658 HEAT: 7.129160
 CYCLE:   143 TIME:   0.014 TIME LEFT:  2.00D  GRAD.:     1.987 HEAT: 7.120687
 CYCLE:   144 TIME:   0.014 TIME LEFT:  2.00D  GRAD.:     2.209 HEAT: 7.109866
 CYCLE:   145 TIME:   0.015 TIME LEFT:  2.00D  GRAD.:     3.407 HEAT: 7.098867
 CYCLE:   146 TIME:   0.014 TIME LEFT:  2.00D  GRAD.:     4.731 HEAT: 7.091067
 CYCLE:   147 TIME:   0.014 TIME LEFT:  2.00D  GRAD.:     2.824 HEAT: 7.073065
 CYCLE:   148 TIME:   0.015 TIME LEFT:  2.00D  GRAD.:     3.095 HEAT: 7.053496
 CYCLE:   149 TIME:   0.014 TIME LEFT:  2.00D  GRAD.:     3.662 HEAT: 7.033055
 CYCLE:   150 TIME:   0.014 TIME LEFT:  2.00D  GRAD.:     4.130 HEAT: 7.016059
 CYCLE:   151 TIME:   0.013 TIME LEFT:  2.00D  GRAD.:     2.627 HEAT: 7.002666
 CYCLE:   152 TIME:   0.014 TIME LEFT:  2.00D  GRAD.:     3.807 HEAT: 6.997927
 CYCLE:   153 TIME:   0.013 TIME LEFT:  2.00D  GRAD.:     2.328 HEAT: 6.990062
 CYCLE:   154 TIME:   0.014 TIME LEFT:  2.00D  GRAD.:     1.676 HEAT: 6.986162
 CYCLE:   155 TIME:   0.014 TIME LEFT:  2.00D  GRAD.:     1.408 HEAT: 6.982289
 CYCLE:   156 TIME:   0.014 TIME LEFT:  2.00D  GRAD.:     1.711 HEAT: 6.978799
 CYCLE:   157 TIME:   0.014 TIME LEFT:  2.00D  GRAD.:     1.452 HEAT: 6.976448
 CYCLE:   158 TIME:   0.014 TIME LEFT:  2.00D  GRAD.:     1.137 HEAT: 6.973646
 CYCLE:   159 TIME:   0.014 TIME LEFT:  2.00D  GRAD.:     1.193 HEAT: 6.970414
 CYCLE:   160 TIME:   0.014 TIME LEFT:  2.00D  GRAD.:     1.306 HEAT: 6.967438
 CYCLE:   161 TIME:   0.015 TIME LEFT:  2.00D  GRAD.:     1.557 HEAT: 6.963927
 CYCLE:   162 TIME:   0.014 TIME LEFT:  2.00D  GRAD.:     1.074 HEAT: 6.960142
 CYCLE:   163 TIME:   0.014 TIME LEFT:  2.00D  GRAD.:     1.143 HEAT: 6.954983
 CYCLE:   164 TIME:   0.014 TIME LEFT:  2.00D  GRAD.:     1.363 HEAT: 6.951373
 CYCLE:   165 TIME:   0.014 TIME LEFT:  2.00D  GRAD.:     1.472 HEAT: 6.947134
 CYCLE:   166 TIME:   0.014 TIME LEFT:  2.00D  GRAD.:     2.259 HEAT: 6.944496
 CYCLE:   167 TIME:   0.015 TIME LEFT:  2.00D  GRAD.:     1.391 HEAT: 6.941167
 CYCLE:   168 TIME:   0.022 TIME LEFT:  2.00D  GRAD.:     1.330 HEAT: 6.938631
 CYCLE:   169 TIME:   0.017 TIME LEFT:  2.00D  GRAD.:     1.071 HEAT: 6.935566
 CYCLE:   170 TIME:   0.019 TIME LEFT:  2.00D  GRAD.:     1.070 HEAT: 6.931818
 CYCLE:   171 TIME:   0.015 TIME LEFT:  2.00D  GRAD.:     1.282 HEAT: 6.929795
 CYCLE:   172 TIME:   0.016 TIME LEFT:  2.00D  GRAD.:     1.191 HEAT: 6.927242
 CYCLE:   173 TIME:   0.017 TIME LEFT:  2.00D  GRAD.:     1.371 HEAT: 6.924366
 CYCLE:   174 TIME:   0.015 TIME LEFT:  2.00D  GRAD.:     1.284 HEAT: 6.921478
 CYCLE:   175 TIME:   0.014 TIME LEFT:  2.00D  GRAD.:     1.249 HEAT: 6.918886
 CYCLE:   176 TIME:   0.014 TIME LEFT:  2.00D  GRAD.:     0.883 HEAT: 6.917178
 CYCLE:   177 TIME:   0.014 TIME LEFT:  2.00D  GRAD.:     0.692 HEAT: 6.916333
 CYCLE:   178 TIME:   0.013 TIME LEFT:  2.00D  GRAD.:     0.389 HEAT: 6.915919
 CYCLE:   179 TIME:   0.013 TIME LEFT:  2.00D  GRAD.:     0.481 HEAT: 6.915640
 CYCLE:   180 TIME:   0.014 TIME LEFT:  2.00D  GRAD.:     0.550 HEAT: 6.915258
 CYCLE:   181 TIME:   0.014 TIME LEFT:  2.00D  GRAD.:     0.667 HEAT: 6.914630
 CYCLE:   182 TIME:   0.014 TIME LEFT:  2.00D  GRAD.:     0.861 HEAT: 6.913500
 CYCLE:   183 TIME:   0.015 TIME LEFT:  2.00D  GRAD.:     1.194 HEAT: 6.911101
 CYCLE:   184 TIME:   0.014 TIME LEFT:  2.00D  GRAD.:     1.088 HEAT: 6.908953
 CYCLE:   185 TIME:   0.015 TIME LEFT:  2.00D  GRAD.:     0.890 HEAT: 6.905983
 CYCLE:   186 TIME:   0.014 TIME LEFT:  2.00D  GRAD.:     0.541 HEAT: 6.905271
 CYCLE:   187 TIME:   0.014 TIME LEFT:  2.00D  GRAD.:     0.489 HEAT: 6.904819
 CYCLE:   188 TIME:   0.014 TIME LEFT:  2.00D  GRAD.:     0.329 HEAT: 6.904429
 CYCLE:   189 TIME:   0.014 TIME LEFT:  2.00D  GRAD.:     0.381 HEAT: 6.904193
 CYCLE:   190 TIME:   0.015 TIME LEFT:  2.00D  GRAD.:     0.268 HEAT: 6.904014
 CYCLE:   191 TIME:   0.014 TIME LEFT:  2.00D  GRAD.:     0.161 HEAT: 6.903930
 CYCLE:   192 TIME:   0.014 TIME LEFT:  2.00D  GRAD.:     0.140 HEAT: 6.903890
 CYCLE:   193 TIME:   0.013 TIME LEFT:  2.00D  GRAD.:     0.098 HEAT: 6.903867
 CYCLE:   194 TIME:   0.013 TIME LEFT:  2.00D  GRAD.:     0.134 HEAT: 6.903843
 CYCLE:   195 TIME:   0.013 TIME LEFT:  2.00D  GRAD.:     0.077 HEAT: 6.903830
 CYCLE:   196 TIME:   0.013 TIME LEFT:  2.00D  GRAD.:     0.075 HEAT: 6.903817
 CYCLE:   197 TIME:   0.013 TIME LEFT:  2.00D  GRAD.:     0.072 HEAT: 6.903804
 CYCLE:   198 TIME:   0.013 TIME LEFT:  2.00D  GRAD.:     0.068 HEAT: 6.903792
 CYCLE:   199 TIME:   0.013 TIME LEFT:  2.00D  GRAD.:     0.057 HEAT: 6.903781
 CYCLE:   200 TIME:   0.013 TIME LEFT:  2.00D  GRAD.:     0.049 HEAT: 6.903772

     RMS GRADIENT =  0.04857  IS LESS THAN CUTOFF =  0.05000



 -------------------------------------------------------------------------------
pm3  precise nosym
 InChI=1S/C12H20/c1-4-7-8-11-9-10(5-2)12(11)6-3/h6-8,10-12H,3-5,9H2,1-2H3



     GEOMETRY OPTIMISED USING EIGENVECTOR FOLLOWING (EF).     
     SCF FIELD WAS ACHIEVED                                   


                              PM3 CALCULATION
                                                       MOPAC2012 (Version: 13.159M)
                                                       Mon Jun  2 11:03:40 2014
                                                       No. of days left =   6




          FINAL HEAT OF FORMATION =          6.90377 KCAL/MOL =      28.88538 KJ/MOL


          TOTAL ENERGY            =      -1730.03919 EV
          ELECTRONIC ENERGY       =     -10880.39609 EV  POINT GROUP:     C1  
          CORE-CORE REPULSION     =       9150.35690 EV
          COSMO AREA              =        237.79 SQUARE ANGSTROMS
          COSMO VOLUME            =        252.91 CUBIC ANGSTROMS

          GRADIENT NORM           =          0.04857
          IONIZATION POTENTIAL    =          9.690637 EV
          HOMO LUMO ENERGIES (EV) =         -9.691  1.097
          NO. OF FILLED LEVELS    =         34
          MOLECULAR WEIGHT        =        164.290

          MOLECULAR DIMENSIONS (Angstroms)

            Atom       Atom       Distance
            H    23    H    25     8.80472
            H    32    H    22     6.93925
            H    17    H    21     4.19135


          SCF CALCULATIONS        =        210
          COMPUTATION TIME        =          2.985 SECONDS




   ATOM   CHEMICAL          X               Y               Z
  NUMBER   SYMBOL      (ANGSTROMS)     (ANGSTROMS)     (ANGSTROMS)
 
     1       C          1.76317065  *  -0.26614610  *  -0.67940801  *
     2       C          1.25036578  *   0.54211900  *   0.54825811  *
     3       C          0.23211612  *  -0.59323124  *   0.86112695  *
     4       C          0.69244831  *  -1.34672877  *  -0.40875208  *
     5       C          1.63674074  *   0.43072363  *  -2.01785421  *
     6       C         -3.62547451  *  -0.51255775  *   0.65371791  *
     7       C          2.69636013  *   1.49459554  *  -2.19825128  *
     8       C         -4.38139785  *  -0.79354565  *  -0.62723024  *
     9       C         -1.18523422  *  -0.16114992  *   0.91657910  *
    10       C         -2.20397748  *  -0.93891194  *   0.54795505  *
    11       C          2.27875977  *   0.83434999  *   1.57588634  *
    12       C          2.04066191  *   0.85374590  *   2.88194480  *
    13       H          2.80143420  *  -0.64002170  *  -0.54486162  *
    14       H          0.46810003  *  -1.13878282  *   1.80167337  *
    15       H          0.76167662  *   1.50078581  *   0.26230763  *
    16       H         -0.07625992  *  -1.43590223  *  -1.19368629  *
    17       H          1.09120782  *  -2.35513156  *  -0.22517195  *
    18       H          0.62759729  *   0.87777359  *  -2.12288785  *
    19       H          1.71317961  *  -0.32435967  *  -2.82520435  *
    20       H         -4.09032138  *  -1.05829883  *   1.49960276  *
    21       H         -3.70338516  *   0.56265481  *   0.91200066  *
    22       H         -3.95888641  *  -0.23897696  *  -1.47504739  *
    23       H         -5.43598764  *  -0.50351248  *  -0.53719014  *
    24       H         -4.35470214  *  -1.85957432  *  -0.88958679  *
    25       H          2.58421824  *   2.01017555  *  -3.16030531  *
    26       H          2.63959156  *   2.25446926  *  -1.40674680  *
    27       H          3.70844553  *   1.06930694  *  -2.16873183  *
    28       H         -2.03195637  *  -1.94723581  *   0.14967106  *
    29       H         -1.35648093  *   0.84918775  *   1.31111206  *
    30       H          3.27607106  *   1.06549961  *   1.17971169  *
    31       H          1.06761612  *   0.63514240  *   3.31411120  *
    32       H          2.80795540  *   1.09243454  *   3.61183537  *

           Empirical Formula: C12 H20  =    32 atoms



      MOLECULAR POINT GROUP   :   C1  


                  EIGENVALUES  
 -41.96454 -36.87911 -34.02868 -32.23584 -29.34001 -25.26470 -24.82894 -22.73975
 -21.20170 -19.77611 -19.10952 -18.51414 -17.06662 -16.66034 -16.01910 -15.57051
 -15.30294 -15.12758 -14.49092 -14.22579 -13.97288 -13.55273 -13.30653 -12.77969
 -12.66001 -12.48005 -12.25457 -11.98014 -11.90492 -11.63581 -11.55405 -11.33171
 -10.06025  -9.69064   1.09666   1.17494   3.15492   3.26039   3.29132   3.52482
   3.67430   3.69807   3.72891   3.82947   3.91935   3.93941   3.97599   4.02023
   4.08218   4.17243   4.21675   4.24712   4.34396   4.39221   4.46964   4.54062
   4.63369   4.78104   4.83072   4.87073   4.90124   4.96972   5.26211   5.41254
   5.72108   5.79311   5.89732   6.00484


              NET ATOMIC CHARGES AND DIPOLE CONTRIBUTIONS

  ATOM NO.   TYPE          CHARGE      No. of ELECS.   s-Pop       p-Pop       
    1          C          -0.090527        4.0905     1.19331     2.89721
    2          C          -0.064063        4.0641     1.18455     2.87952
    3          C          -0.054906        4.0549     1.17823     2.87668
    4          C          -0.107099        4.1071     1.17609     2.93101
    5          C          -0.090517        4.0905     1.15737     2.93315
    6          C          -0.059661        4.0597     1.14542     2.91424
    7          C          -0.111029        4.1110     1.13832     2.97270
    8          C          -0.106108        4.1061     1.13775     2.96836
    9          C          -0.140754        4.1408     1.19459     2.94617
   10          C          -0.154516        4.1545     1.19591     2.95860
   11          C          -0.126108        4.1261     1.19333     2.93278
   12          C          -0.171752        4.1718     1.18130     2.99045
   13          H           0.076180        0.9238     0.92382
   14          H           0.083887        0.9161     0.91611
   15          H           0.087085        0.9129     0.91291
   16          H           0.066151        0.9338     0.93385
   17          H           0.055783        0.9442     0.94422
   18          H           0.053819        0.9462     0.94618
   19          H           0.050072        0.9499     0.94993
   20          H           0.052679        0.9473     0.94732
   21          H           0.050860        0.9491     0.94914
   22          H           0.039738        0.9603     0.96026
   23          H           0.036702        0.9633     0.96330
   24          H           0.037717        0.9623     0.96228
   25          H           0.037746        0.9623     0.96225
   26          H           0.040067        0.9599     0.95993
   27          H           0.037541        0.9625     0.96246
   28          H           0.103838        0.8962     0.89616
   29          H           0.103622        0.8964     0.89638
   30          H           0.098728        0.9013     0.90127
   31          H           0.084647        0.9154     0.91535
   32          H           0.080177        0.9198     0.91982
 DIPOLE           X         Y         Z       TOTAL
 POINT-CHG.    -0.115    -0.017    -0.243     0.270
 HYBRID         0.023     0.017     0.032     0.043
 SUM           -0.092     0.000    -0.211     0.231


          ATOMIC ORBITAL ELECTRON POPULATIONS

    Atom      s        px        py        pz   
    1  C   1.19331   0.98895   0.96387   0.94439
    2  C   1.18455   0.95583   0.97391   0.94977
    3  C   1.17823   0.92669   0.96704   0.98294
    4  C   1.17609   0.98610   0.96905   0.97585
    5  C   1.15737   0.99038   0.97994   0.96282
    6  C   1.14542   0.93685   1.00498   0.97240
    7  C   1.13832   0.98189   0.98313   1.00769
    8  C   1.13775   0.99013   1.00783   0.97040
    9  C   1.19459   0.94556   0.99130   1.00930
   10  C   1.19591   0.95096   0.99558   1.01206
   11  C   1.19333   0.98354   0.99404   0.95520
   12  C   1.18130   1.01337   1.01963   0.95745
   13  H   0.92382
   14  H   0.91611
   15  H   0.91291
   16  H   0.93385
   17  H   0.94422
   18  H   0.94618
   19  H   0.94993
   20  H   0.94732
   21  H   0.94914
   22  H   0.96026
   23  H   0.96330
   24  H   0.96228
   25  H   0.96225
   26  H   0.95993
   27  H   0.96246
   28  H   0.89616
   29  H   0.89638
   30  H   0.90127
   31  H   0.91535
   32  H   0.91982
 *******************************************************************************
 ** Site#: 14399           For non-commercial use only        Version 13.159M **
 *******************************************************************************
 ** Cite this work as: MOPAC2012, James J. P. Stewart, Stewart Computational  **
 ** Chemistry, Version 13.159M web: HTTP://OpenMOPAC.net  Days remaining:   6 **
 *******************************************************************************
 **                                                                           **
 **                                MOPAC2012                                  **
 **                                                                           **
 *******************************************************************************

                            PM3 CALCULATION RESULTS


 *******************************************************************************
 *  CALCULATION DONE:                                Mon Jun  2 11:03:40 2014  *
 *  PM3      - The PM3 Hamiltonian to be used
 *  OLDGEO   - PREVIOUS GEOMETRY TO BE USED
 *  PRECISE  - CRITERIA TO BE INCREASED BY 100 TIMES
 *  NOSYM    - POINT-GROUP SYMMETRY SET TO C1
 *  T=       - A TIME OF 172800.0 SECONDS REQUESTED
 *  DUMP=N   - RESTART FILE WRITTEN EVERY  7200.000 SECONDS
 *  THERMO   - THERMODYNAMIC QUANTITIES TO BE CALCULATED
 *******************************************************************************
oldgeo thermo nosym precise  pm3

   ATOM   CHEMICAL          X               Y               Z
  NUMBER   SYMBOL      (ANGSTROMS)     (ANGSTROMS)     (ANGSTROMS)
 
     1       C          1.76317065  *  -0.26614610  *  -0.67940801  *
     2       C          1.25036578  *   0.54211900  *   0.54825811  *
     3       C          0.23211612  *  -0.59323124  *   0.86112695  *
     4       C          0.69244831  *  -1.34672877  *  -0.40875208  *
     5       C          1.63674074  *   0.43072363  *  -2.01785421  *
     6       C         -3.62547451  *  -0.51255775  *   0.65371791  *
     7       C          2.69636013  *   1.49459554  *  -2.19825128  *
     8       C         -4.38139785  *  -0.79354565  *  -0.62723024  *
     9       C         -1.18523422  *  -0.16114992  *   0.91657910  *
    10       C         -2.20397748  *  -0.93891194  *   0.54795505  *
    11       C          2.27875977  *   0.83434999  *   1.57588634  *
    12       C          2.04066191  *   0.85374590  *   2.88194480  *
    13       H          2.80143420  *  -0.64002170  *  -0.54486162  *
    14       H          0.46810003  *  -1.13878282  *   1.80167337  *
    15       H          0.76167662  *   1.50078581  *   0.26230763  *
    16       H         -0.07625992  *  -1.43590223  *  -1.19368629  *
    17       H          1.09120782  *  -2.35513156  *  -0.22517195  *
    18       H          0.62759729  *   0.87777359  *  -2.12288785  *
    19       H          1.71317961  *  -0.32435967  *  -2.82520435  *
    20       H         -4.09032138  *  -1.05829883  *   1.49960276  *
    21       H         -3.70338516  *   0.56265481  *   0.91200066  *
    22       H         -3.95888641  *  -0.23897696  *  -1.47504739  *
    23       H         -5.43598764  *  -0.50351248  *  -0.53719014  *
    24       H         -4.35470214  *  -1.85957432  *  -0.88958679  *
    25       H          2.58421824  *   2.01017555  *  -3.16030531  *
    26       H          2.63959156  *   2.25446926  *  -1.40674680  *
    27       H          3.70844553  *   1.06930694  *  -2.16873183  *
    28       H         -2.03195637  *  -1.94723581  *   0.14967106  *
    29       H         -1.35648093  *   0.84918775  *   1.31111206  *
    30       H          3.27607106  *   1.06549961  *   1.17971169  *
    31       H          1.06761612  *   0.63514240  *   3.31411120  *
    32       H          2.80795540  *   1.09243454  *   3.61183537  *
 


          CARTESIAN COORDINATES 

    NO.       ATOM         X         Y         Z

     1         C        1.7632   -0.2661   -0.6794
     2         C        1.2504    0.5421    0.5483
     3         C        0.2321   -0.5932    0.8611
     4         C        0.6924   -1.3467   -0.4088
     5         C        1.6367    0.4307   -2.0179
     6         C       -3.6255   -0.5126    0.6537
     7         C        2.6964    1.4946   -2.1983
     8         C       -4.3814   -0.7935   -0.6272
     9         C       -1.1852   -0.1611    0.9166
    10         C       -2.2040   -0.9389    0.5480
    11         C        2.2788    0.8343    1.5759
    12         C        2.0407    0.8537    2.8819
    13         H        2.8014   -0.6400   -0.5449
    14         H        0.4681   -1.1388    1.8017
    15         H        0.7617    1.5008    0.2623
    16         H       -0.0763   -1.4359   -1.1937
    17         H        1.0912   -2.3551   -0.2252
    18         H        0.6276    0.8778   -2.1229
    19         H        1.7132   -0.3244   -2.8252
    20         H       -4.0903   -1.0583    1.4996
    21         H       -3.7034    0.5627    0.9120
    22         H       -3.9589   -0.2390   -1.4750
    23         H       -5.4360   -0.5035   -0.5372
    24         H       -4.3547   -1.8596   -0.8896
    25         H        2.5842    2.0102   -3.1603
    26         H        2.6396    2.2545   -1.4067
    27         H        3.7084    1.0693   -2.1687
    28         H       -2.0320   -1.9472    0.1497
    29         H       -1.3565    0.8492    1.3111
    30         H        3.2761    1.0655    1.1797
    31         H        1.0676    0.6351    3.3141
    32         H        2.8080    1.0924    3.6118

  H: (PM3): J. J. P. STEWART, J. COMP. CHEM. 10, 209 (1989).
  C: (PM3): J. J. P. STEWART, J. COMP. CHEM. 10, 209 (1989).

           Empirical Formula: C12 H20  =    32 atoms



      MOLECULAR POINT GROUP   :   C1  


      RHF CALCULATION, NO. OF DOUBLY OCCUPIED LEVELS =   34



          HEAT OF FORMATION =       6.903772 KCALS/MOLE


          INTERNAL COORDINATE DERIVATIVES

   NUMBER  ATOM       BOND         ANGLE      DIHEDRAL

     1       C     -0.003141    -0.005321     0.001303
     2       C     -0.002768     0.001648    -0.002173
     3       C     -0.000666    -0.001027     0.002701
     4       C      0.000349    -0.002903     0.001979
     5       C     -0.001488     0.001481     0.001500
     6       C      0.002528    -0.003062     0.001427
     7       C     -0.010263     0.001382     0.000070
     8       C      0.010054     0.006929    -0.001926
     9       C     -0.002015    -0.004680     0.002371
    10       C      0.000836    -0.002952    -0.001048
    11       C      0.020678     0.001646    -0.007252
    12       C     -0.015288     0.011600     0.002516
    13       H      0.002322    -0.006202     0.000746
    14       H      0.001224    -0.001776    -0.001089
    15       H     -0.001274    -0.002187    -0.001454
    16       H     -0.001510     0.001380    -0.004349
    17       H     -0.001515     0.006321     0.000831
    18       H      0.002264     0.000303     0.000760
    19       H     -0.001039    -0.000653     0.002394
    20       H      0.008752     0.000057    -0.001653
    21       H      0.005200    -0.002990    -0.003683
    22       H     -0.008923     0.001811    -0.010874
    23       H      0.004114     0.008783    -0.003512
    24       H     -0.007451     0.008482     0.005529
    25       H      0.000081    -0.002006     0.006184
    26       H      0.007802     0.002410    -0.000759
    27       H     -0.001878    -0.005501     0.001166
    28       H     -0.005451    -0.005230     0.004159
    29       H      0.004506    -0.002580    -0.001909
    30       H     -0.002277    -0.012962     0.004240
    31       H     -0.002305     0.010062     0.002983
    32       H     -0.001455    -0.002264    -0.001181


          GRADIENT NORM =   0.05057


          TIME FOR SCF CALCULATION =    0.01

          TIME FOR DERIVATIVES     =    0.01

          MOLECULAR WEIGHT =  164.29



          ROTATIONAL CONSTANTS IN CM(-1)

          A =    0.04009958   B =    0.01597997   C =    0.01276081



           PRINCIPAL MOMENTS OF INERTIA IN UNITS OF 10**(-40)*GRAM-CM**2

          A =      698.0815   B =     1751.7412   C =     2193.6527


          ORIENTATION OF MOLECULE IN FORCE CALCULATION

    NO.       ATOM         X         Y         Z

     1          C      -1.3192   -1.1002    0.7785
     2          C       0.2375   -1.1002    0.7785
     3          C       0.2302    0.4566    0.7785
     4          C      -1.3141    0.4426    0.6937
     5          C      -1.9713   -1.7978   -0.3968
     6          C       1.3792    2.8846   -1.9991
     7          C      -1.9102   -3.3026   -0.2598
     8          C       0.4722    3.3222   -3.1292
     9          C       0.9651    1.0832   -0.3467
    10          C       0.6062    2.2409   -0.9029
    11          C       0.8609   -1.7765    1.9417
    12          C       1.9793   -1.3672    2.5285
    13          H      -1.7493   -1.4816    1.7300
    14          H       0.6109    0.8910    1.7294
    15          H       0.6707   -1.5351   -0.1504
    16          H      -1.7262    0.8507   -0.2436
    17          H      -1.8243    0.9517    1.5245
    18          H      -1.4896   -1.4826   -1.3444
    19          H      -3.0252   -1.4643   -0.4735
    20          H       1.9161    3.7592   -1.5792
    21          H       2.1668    2.2071   -2.3857
    22          H      -0.0477    2.4686   -3.5830
    23          H       1.0411    3.8213   -3.9239
    24          H      -0.2970    4.0259   -2.7839
    25          H      -2.3643   -3.8008   -1.1256
    26          H      -0.8728   -3.6557   -0.1810
    27          H      -2.4412   -3.6510    0.6362
    28          H      -0.2881    2.7795   -0.5636
    29          H       1.8572    0.5418   -0.6885
    30          H       0.3399   -2.6794    2.2857
    31          H       2.5272   -0.4819    2.2162
    32          H       2.4261   -1.8943    3.3657


    FIRST DERIVATIVES WILL BE USED IN THE CALCULATION OF SECOND DERIVATIVES

          ESTIMATED TIME TO COMPLETE CALCULATION =        7.49 SECONDS

    FOR POINT-GROUP C1   THERE ARE   1 UNIQUE SYMMETRY FUNCTIONS.

 STEP:   1 TIME =     0.06 SECS, INTEGRAL =      0.06 TIME LEFT: 172799.92
 STEP:   2 TIME =     0.06 SECS, INTEGRAL =      0.12 TIME LEFT: 172799.86
 STEP:   3 TIME =     0.06 SECS, INTEGRAL =      0.18 TIME LEFT: 172799.80
 STEP:   4 TIME =     0.06 SECS, INTEGRAL =      0.24 TIME LEFT: 172799.74
 STEP:   5 TIME =     0.06 SECS, INTEGRAL =      0.30 TIME LEFT: 172799.68
 STEP:   6 TIME =     0.06 SECS, INTEGRAL =      0.37 TIME LEFT: 172799.62
 STEP:   7 TIME =     0.06 SECS, INTEGRAL =      0.43 TIME LEFT: 172799.56
 STEP:   8 TIME =     0.06 SECS, INTEGRAL =      0.49 TIME LEFT: 172799.49
 STEP:   9 TIME =     0.07 SECS, INTEGRAL =      0.56 TIME LEFT: 172799.43
 STEP:  10 TIME =     0.06 SECS, INTEGRAL =      0.62 TIME LEFT: 172799.36
 STEP:  11 TIME =     0.06 SECS, INTEGRAL =      0.68 TIME LEFT: 172799.30
 STEP:  12 TIME =     0.06 SECS, INTEGRAL =      0.74 TIME LEFT: 172799.24
 STEP:  13 TIME =     0.06 SECS, INTEGRAL =      0.80 TIME LEFT: 172799.18
 STEP:  14 TIME =     0.07 SECS, INTEGRAL =      0.86 TIME LEFT: 172799.12
 STEP:  15 TIME =     0.06 SECS, INTEGRAL =      0.92 TIME LEFT: 172799.06
 STEP:  16 TIME =     0.06 SECS, INTEGRAL =      0.98 TIME LEFT: 172799.00
 STEP:  17 TIME =     0.06 SECS, INTEGRAL =      1.04 TIME LEFT: 172798.94
 STEP:  18 TIME =     0.06 SECS, INTEGRAL =      1.10 TIME LEFT: 172798.88
 STEP:  19 TIME =     0.06 SECS, INTEGRAL =      1.16 TIME LEFT: 172798.82
 STEP:  20 TIME =     0.06 SECS, INTEGRAL =      1.22 TIME LEFT: 172798.76
 STEP:  21 TIME =     0.06 SECS, INTEGRAL =      1.28 TIME LEFT: 172798.70
 STEP:  22 TIME =     0.06 SECS, INTEGRAL =      1.34 TIME LEFT: 172798.64
 STEP:  23 TIME =     0.06 SECS, INTEGRAL =      1.40 TIME LEFT: 172798.58
 STEP:  24 TIME =     0.06 SECS, INTEGRAL =      1.46 TIME LEFT: 172798.52
 STEP:  25 TIME =     0.06 SECS, INTEGRAL =      1.52 TIME LEFT: 172798.46
 STEP:  26 TIME =     0.06 SECS, INTEGRAL =      1.58 TIME LEFT: 172798.40
 STEP:  27 TIME =     0.06 SECS, INTEGRAL =      1.64 TIME LEFT: 172798.34
 STEP:  28 TIME =     0.06 SECS, INTEGRAL =      1.71 TIME LEFT: 172798.28
 STEP:  29 TIME =     0.07 SECS, INTEGRAL =      1.77 TIME LEFT: 172798.21
 STEP:  30 TIME =     0.07 SECS, INTEGRAL =      1.84 TIME LEFT: 172798.14
 STEP:  31 TIME =     0.07 SECS, INTEGRAL =      1.91 TIME LEFT: 172798.08
 STEP:  32 TIME =     0.06 SECS, INTEGRAL =      1.97 TIME LEFT: 172798.01
 STEP:  33 TIME =     0.07 SECS, INTEGRAL =      2.03 TIME LEFT: 172797.95
 STEP:  34 TIME =     0.07 SECS, INTEGRAL =      2.10 TIME LEFT: 172797.88
 STEP:  35 TIME =     0.06 SECS, INTEGRAL =      2.16 TIME LEFT: 172797.82
 STEP:  36 TIME =     0.06 SECS, INTEGRAL =      2.22 TIME LEFT: 172797.76
 STEP:  37 TIME =     0.06 SECS, INTEGRAL =      2.28 TIME LEFT: 172797.70
 STEP:  38 TIME =     0.06 SECS, INTEGRAL =      2.34 TIME LEFT: 172797.64
 STEP:  39 TIME =     0.06 SECS, INTEGRAL =      2.40 TIME LEFT: 172797.58
 STEP:  40 TIME =     0.06 SECS, INTEGRAL =      2.47 TIME LEFT: 172797.51
 STEP:  41 TIME =     0.06 SECS, INTEGRAL =      2.53 TIME LEFT: 172797.45
 STEP:  42 TIME =     0.06 SECS, INTEGRAL =      2.59 TIME LEFT: 172797.39
 STEP:  43 TIME =     0.06 SECS, INTEGRAL =      2.65 TIME LEFT: 172797.33
 STEP:  44 TIME =     0.06 SECS, INTEGRAL =      2.71 TIME LEFT: 172797.27
 STEP:  45 TIME =     0.06 SECS, INTEGRAL =      2.77 TIME LEFT: 172797.21
 STEP:  46 TIME =     0.06 SECS, INTEGRAL =      2.84 TIME LEFT: 172797.14
 STEP:  47 TIME =     0.06 SECS, INTEGRAL =      2.90 TIME LEFT: 172797.08
 STEP:  48 TIME =     0.06 SECS, INTEGRAL =      2.96 TIME LEFT: 172797.02
 STEP:  49 TIME =     0.06 SECS, INTEGRAL =      3.02 TIME LEFT: 172796.96
 STEP:  50 TIME =     0.06 SECS, INTEGRAL =      3.08 TIME LEFT: 172796.90
 STEP:  51 TIME =     0.06 SECS, INTEGRAL =      3.14 TIME LEFT: 172796.84
 STEP:  52 TIME =     0.06 SECS, INTEGRAL =      3.20 TIME LEFT: 172796.78
 STEP:  53 TIME =     0.06 SECS, INTEGRAL =      3.27 TIME LEFT: 172796.71
 STEP:  54 TIME =     0.06 SECS, INTEGRAL =      3.33 TIME LEFT: 172796.65
 STEP:  55 TIME =     0.06 SECS, INTEGRAL =      3.39 TIME LEFT: 172796.59
 STEP:  56 TIME =     0.06 SECS, INTEGRAL =      3.45 TIME LEFT: 172796.53
 STEP:  57 TIME =     0.06 SECS, INTEGRAL =      3.51 TIME LEFT: 172796.47
 STEP:  58 TIME =     0.06 SECS, INTEGRAL =      3.57 TIME LEFT: 172796.41
 STEP:  59 TIME =     0.06 SECS, INTEGRAL =      3.63 TIME LEFT: 172796.35
 STEP:  60 TIME =     0.06 SECS, INTEGRAL =      3.70 TIME LEFT: 172796.28
 STEP:  61 TIME =     0.06 SECS, INTEGRAL =      3.76 TIME LEFT: 172796.22
 STEP:  62 TIME =     0.06 SECS, INTEGRAL =      3.82 TIME LEFT: 172796.16
 STEP:  63 TIME =     0.06 SECS, INTEGRAL =      3.88 TIME LEFT: 172796.10
 STEP:  64 TIME =     0.06 SECS, INTEGRAL =      3.94 TIME LEFT: 172796.04
 STEP:  65 TIME =     0.06 SECS, INTEGRAL =      4.00 TIME LEFT: 172795.98
 STEP:  66 TIME =     0.07 SECS, INTEGRAL =      4.07 TIME LEFT: 172795.91
 STEP:  67 TIME =     0.06 SECS, INTEGRAL =      4.13 TIME LEFT: 172795.85
 STEP:  68 TIME =     0.06 SECS, INTEGRAL =      4.19 TIME LEFT: 172795.79
 STEP:  69 TIME =     0.06 SECS, INTEGRAL =      4.25 TIME LEFT: 172795.73
 STEP:  70 TIME =     0.06 SECS, INTEGRAL =      4.31 TIME LEFT: 172795.67
 STEP:  71 TIME =     0.06 SECS, INTEGRAL =      4.37 TIME LEFT: 172795.61
 STEP:  72 TIME =     0.06 SECS, INTEGRAL =      4.43 TIME LEFT: 172795.55
 STEP:  73 TIME =     0.06 SECS, INTEGRAL =      4.50 TIME LEFT: 172795.48
 STEP:  74 TIME =     0.06 SECS, INTEGRAL =      4.56 TIME LEFT: 172795.42
 STEP:  75 TIME =     0.06 SECS, INTEGRAL =      4.62 TIME LEFT: 172795.36
 STEP:  76 TIME =     0.06 SECS, INTEGRAL =      4.67 TIME LEFT: 172795.31
 STEP:  77 TIME =     0.06 SECS, INTEGRAL =      4.74 TIME LEFT: 172795.24
 STEP:  78 TIME =     0.06 SECS, INTEGRAL =      4.80 TIME LEFT: 172795.18
 STEP:  79 TIME =     0.06 SECS, INTEGRAL =      4.86 TIME LEFT: 172795.12
 STEP:  80 TIME =     0.06 SECS, INTEGRAL =      4.92 TIME LEFT: 172795.06
 STEP:  81 TIME =     0.06 SECS, INTEGRAL =      4.98 TIME LEFT: 172795.00
 STEP:  82 TIME =     0.07 SECS, INTEGRAL =      5.05 TIME LEFT: 172794.93
 STEP:  83 TIME =     0.06 SECS, INTEGRAL =      5.12 TIME LEFT: 172794.86
 STEP:  84 TIME =     0.06 SECS, INTEGRAL =      5.18 TIME LEFT: 172794.80
 STEP:  85 TIME =     0.06 SECS, INTEGRAL =      5.24 TIME LEFT: 172794.74
 STEP:  86 TIME =     0.06 SECS, INTEGRAL =      5.31 TIME LEFT: 172794.68
 STEP:  87 TIME =     0.07 SECS, INTEGRAL =      5.37 TIME LEFT: 172794.61
 STEP:  88 TIME =     0.06 SECS, INTEGRAL =      5.43 TIME LEFT: 172794.55
 STEP:  89 TIME =     0.06 SECS, INTEGRAL =      5.49 TIME LEFT: 172794.49
 STEP:  90 TIME =     0.07 SECS, INTEGRAL =      5.56 TIME LEFT: 172794.42
 STEP:  91 TIME =     0.06 SECS, INTEGRAL =      5.63 TIME LEFT: 172794.35
 STEP:  92 TIME =     0.06 SECS, INTEGRAL =      5.69 TIME LEFT: 172794.29
 STEP:  93 TIME =     0.06 SECS, INTEGRAL =      5.75 TIME LEFT: 172794.23
 STEP:  94 TIME =     0.06 SECS, INTEGRAL =      5.81 TIME LEFT: 172794.17
 STEP:  95 TIME =     0.06 SECS, INTEGRAL =      5.88 TIME LEFT: 172794.10
 STEP:  96 TIME =     0.06 SECS, INTEGRAL =      5.94 TIME LEFT: 172794.04

(To convert to Hartree/Bohr^2, multiply by (10^(-21) x N x a0^2)/(4.184 x 627.51) = 0.0642)


           FORCE MATRIX IN MILLIDYNES/ANGSTROM


                  C  1       C  2       C  3       C  4       C  5       C  6
 ------------------------------------------------------------------------------
     C    1  14.480013
     C    2   3.176875  14.667982
     C    3   1.791156   3.162534  14.784973
     C    4   3.543070   1.805279   3.474278  14.364663
     C    5   4.312929   0.530086   0.041230   0.545058  14.495342
     C    6   0.002018   0.011675   0.138807   0.007565   0.000473  14.698556
     C    7   0.663575   0.030616   0.004791   0.050867   4.461995   0.000573
     C    8   0.000811   0.002331   0.017714   0.000969   0.000572   4.410206
     C    9   0.040495   0.566790   5.074476   0.547858   0.004793   0.826223
     C   10   0.007146   0.046300   0.815975   0.053022   0.001153   4.967741
     C   11   0.568213   5.072402   0.533276   0.041631   0.034939   0.001732
     C   12   0.046090   0.818071   0.051986   0.007309   0.006740   0.000941
     H   13   4.387571   0.438347   0.026736   0.428119   0.429481   0.000304
     H   14   0.026177   0.440208   4.341763   0.432757   0.001488   0.017030
     H   15   0.441534   4.322592   0.441221   0.024318   0.031556   0.000878
     H   16   0.452710   0.027657   0.451790   4.631833   0.030559   0.001509
     H   17   0.441170   0.032916   0.439208   4.713170   0.032127   0.000961
     H   18   0.449450   0.024747   0.002017   0.019621   4.439330   0.000199
     H   19   0.431946   0.045948   0.003971   0.019409   4.457925   0.000162
     H   20   0.000402   0.001303   0.018785   0.001145   0.000204   4.419820
     H   21   0.000213   0.000481   0.003333   0.000426   0.000297   4.440215
     H   22   0.000307   0.000209   0.000773   0.000325   0.000109   0.460857
     H   23   0.000116   0.000438   0.002971   0.000248   0.000141   0.448916
     H   24   0.000282   0.000220   0.000538   0.000242   0.000166   0.464160
     H   25   0.052023   0.002041   0.000543   0.008352   0.450503   0.000163
     H   26   0.021567   0.006669   0.000532   0.002021   0.462881   0.000283
     H   27   0.023486   0.002013   0.000389   0.001484   0.463763   0.000277
     H   28   0.001669   0.003470   0.082434   0.017601   0.000901   0.430010
     H   29   0.002325   0.030317   0.432090   0.035686   0.001134   0.083682
     H   30   0.030169   0.432833   0.036229   0.002235   0.002715   0.000325
     H   31   0.005274   0.097828   0.018718   0.001795   0.000981   0.000482
     H   32   0.010838   0.134433   0.006707   0.001556   0.001344   0.000189


                  C  7       C  8       C  9       C 10       C 11       C 12
 ------------------------------------------------------------------------------
     C    7  14.367587
     C    8   0.000596  14.349808
     C    9   0.001251   0.040432  18.292686
     C   10   0.001030   0.716189  10.685772  18.189051
     C   11   0.005141   0.000918   0.035938   0.006441  18.290631
     C   12   0.001186   0.000605   0.004822   0.001399  11.069285  18.018477
     H   13   0.033044   0.000256   0.001745   0.000851   0.034374   0.002994
     H   14   0.000475   0.001772   0.389573   0.023839   0.022604   0.017831
     H   15   0.007973   0.000547   0.032571   0.002714   0.389149   0.026001
     H   16   0.002833   0.000376   0.016434   0.016647   0.001628   0.000978
     H   17   0.006094   0.000326   0.032645   0.003172   0.003470   0.001012
     H   18   0.437155   0.000166   0.001566   0.000596   0.001664   0.000974
     H   19   0.439660   0.000193   0.001153   0.000548   0.006077   0.001578
     H   20   0.000167   0.445424   0.031576   0.407793   0.000202   0.000415
     H   21   0.000156   0.434666   0.050464   0.458696   0.000307   0.000329
     H   22   0.000203   4.745496   0.002438   0.016157   0.000331   0.000315
     H   23   0.000202   4.750156   0.006842   0.052383   0.000393   0.000197
     H   24   0.000222   4.724836   0.001848   0.027451   0.000321   0.000224
     H   25   4.757157   0.000227   0.000332   0.000343   0.000593   0.000563
     H   26   4.711282   0.000263   0.000416   0.000471   0.003016   0.000756
     H   27   4.722485   0.000336   0.000370   0.000289   0.001063   0.000659
     H   28   0.000472   0.026924   0.470468   4.762754   0.001481   0.000659
     H   29   0.000607   0.008384   4.750311   0.469858   0.002718   0.002472
     H   30   0.002092   0.000351   0.005001   0.001095   4.762087   0.454574
     H   31   0.000361   0.000420   0.003583   0.001226   0.493216   5.066135
     H   32   0.000410   0.000285   0.001411   0.000651   0.462841   5.109545


                  H 13       H 14       H 15       H 16       H 17       H 18
 ------------------------------------------------------------------------------
     H   13   4.895079
     H   14   0.002274   4.828520
     H   15   0.030307   0.030634   4.817752
     H   16   0.030950   0.031389   0.002408   5.263621
     H   17   0.027351   0.026939   0.000869   0.546854   5.329688
     H   18   0.042619   0.000531   0.027262   0.016148   0.001235   5.055929
     H   19   0.024743   0.000526   0.003091   0.010876   0.001862   0.569723
     H   20   0.000103   0.002850   0.000187   0.000295   0.000158   0.000114
     H   21   0.000107   0.000714   0.000244   0.000362   0.000201   0.000072
     H   22   0.000104   0.000203   0.000134   0.000281   0.000122   0.000093
     H   23   0.000087   0.000259   0.000184   0.000167   0.000071   0.000060
     H   24   0.000091   0.000149   0.000102   0.000125   0.000144   0.000073
     H   25   0.001970   0.000106   0.000561   0.000728   0.001110   0.031082
     H   26   0.002165   0.000254   0.009833   0.000401   0.000414   0.023628
     H   27   0.021885   0.000102   0.000523   0.000488   0.000277   0.047605
     H   28   0.000481   0.009739   0.000811   0.025869   0.001473   0.000312
     H   29   0.000561   0.013926   0.028944   0.003338   0.004167   0.000508
     H   30   0.027664   0.002949   0.014292   0.000502   0.000851   0.000772
     H   31   0.000757   0.026677   0.011884   0.000450   0.000535   0.000184
     H   32   0.000653   0.001222   0.015555   0.000157   0.000239   0.000199


                  H 19       H 20       H 21       H 22       H 23       H 24
 ------------------------------------------------------------------------------
     H   19   5.067333
     H   20   0.000106   5.017625
     H   21   0.000088   0.565774   5.051515
     H   22   0.000123   0.048649   0.024591   5.484473
     H   23   0.000085   0.028637   0.030197   0.573052   5.488079
     H   24   0.000119   0.024044   0.047366   0.577800   0.572468   5.470334
     H   25   0.028030   0.000048   0.000073   0.000074   0.000116   0.000075
     H   26   0.048399   0.000100   0.000090   0.000052   0.000086   0.000063
     H   27   0.025385   0.000074   0.000047   0.000093   0.000067   0.000074
     H   28   0.000323   0.017066   0.038587   0.002637   0.002056   0.020397
     H   29   0.000232   0.009834   0.030047   0.000458   0.001581   0.000593
     H   30   0.000581   0.000168   0.000075   0.000118   0.000109   0.000130
     H   31   0.000246   0.000182   0.000157   0.000102   0.000103   0.000155
     H   32   0.000371   0.000151   0.000172   0.000060   0.000094   0.000098


                  H 25       H 26       H 27       H 28       H 29       H 30
 ------------------------------------------------------------------------------
     H   25   5.492200
     H   26   0.568155   5.446514
     H   27   0.571329   0.575815   5.466354
     H   28   0.000143   0.000179   0.000158   5.144214
     H   29   0.000194   0.000195   0.000161   0.104228   5.123823
     H   30   0.000503   0.005936   0.001472   0.000305   0.000616   5.125323
     H   31   0.000258   0.000186   0.000120   0.000466   0.002648   0.117305
     H   32   0.000106   0.000214   0.000097   0.000203   0.000954   0.079178


                  H 31       H 32
 ------------------------------
     H   31   5.459240
     H   32   0.419727   5.498053


          HEAT OF FORMATION =       6.903772 KCALS/MOLE

          ZERO POINT ENERGY     180.022 KCAL/MOL


           NORMAL COORDINATE ANALYSIS (Total motion = 1 Angstrom)


   Root No.       1         2         3         4         5         6         7         8

                 1 A       2 A       3 A       4 A       5 A       6 A       7 A       8 A   

                  36.6      52.2      79.2     101.6     117.5     122.3     154.0     173.5
  
           1   -0.0037    0.0046   -0.0125   -0.0052    0.0096   -0.0012   -0.0007   -0.0012
           2   -0.0065    0.0016    0.0010    0.0113   -0.0068   -0.0116    0.0037   -0.0017
           3   -0.0021    0.0017    0.0133    0.0030    0.0083    0.0085    0.0036    0.0063
           4   -0.0037    0.0047   -0.0129   -0.0051    0.0101   -0.0007   -0.0006   -0.0014
           5   -0.0033   -0.0045    0.0031   -0.0009   -0.0031   -0.0133   -0.0058    0.0023
           6   -0.0055    0.0096    0.0068   -0.0094   -0.0109    0.0001    0.0123    0.0004
           7   -0.0072    0.0113   -0.0146    0.0071    0.0056    0.0015    0.0086   -0.0053
           8   -0.0035   -0.0045    0.0030   -0.0012   -0.0028   -0.0138   -0.0056    0.0024
           9   -0.0157   -0.0001    0.0077   -0.0115    0.0002   -0.0162   -0.0105   -0.0040
          10   -0.0067    0.0107   -0.0148    0.0064    0.0049    0.0009    0.0080   -0.0068
          11   -0.0077    0.0019    0.0016    0.0101   -0.0062   -0.0110    0.0028   -0.0010
          12   -0.0241    0.0083    0.0139   -0.0114    0.0221    0.0085   -0.0008    0.0228
          13   -0.0060    0.0091   -0.0142   -0.0185   -0.0064   -0.0142    0.0061    0.0118
          14   -0.0271    0.0119    0.0023   -0.0025    0.0032    0.0023    0.0033    0.0010
          15    0.0115   -0.0071    0.0135    0.0193    0.0115    0.0070    0.0002   -0.0025
          16    0.0140   -0.0069    0.0072    0.0028   -0.0065    0.0083   -0.0110    0.0045
          17    0.0035   -0.0254   -0.0185    0.0129    0.0067    0.0113    0.0235    0.0014
          18    0.0001   -0.0260   -0.0031   -0.0003    0.0012    0.0112    0.0064   -0.0027
          19   -0.0104    0.0089    0.0349    0.0377   -0.0100   -0.0122    0.0056    0.0107
          20   -0.0246    0.0107    0.0015   -0.0012    0.0021    0.0002    0.0036    0.0013
          21    0.0418   -0.0216   -0.0171    0.0110   -0.0005   -0.0230    0.0034    0.0062
          22    0.0179   -0.0256    0.0245   -0.0110    0.0230    0.0052    0.0056    0.0102
          23    0.0540    0.0330    0.0110   -0.0061    0.0140   -0.0065    0.0133   -0.0005
          24    0.0166    0.0115   -0.0053    0.0031   -0.0191    0.0070   -0.0107   -0.0076
          25   -0.0021    0.0042   -0.0121    0.0066   -0.0042   -0.0113   -0.0017   -0.0273
          26   -0.0056   -0.0153   -0.0016   -0.0026    0.0069   -0.0208   -0.0102   -0.0037
          27   -0.0135   -0.0112    0.0071   -0.0130   -0.0007   -0.0282   -0.0211   -0.0222
          28    0.0060    0.0036   -0.0106    0.0153   -0.0246    0.0126   -0.0130    0.0003
          29   -0.0002   -0.0166   -0.0095    0.0094   -0.0084    0.0051   -0.0101    0.0182
          30   -0.0077   -0.0136   -0.0101    0.0062   -0.0198    0.0104   -0.0150    0.0054
          31    0.0006   -0.0068   -0.0011   -0.0109    0.0150    0.0090   -0.0178   -0.0003
          32    0.0050   -0.0005    0.0057   -0.0136   -0.0161    0.0128    0.0046   -0.0051
          33   -0.0031    0.0183    0.0018   -0.0139   -0.0210    0.0107    0.0284   -0.0048
          34   -0.0003   -0.0146    0.0153   -0.0250   -0.0178    0.0033    0.0080   -0.0020
          35    0.0125    0.0018   -0.0003   -0.0140    0.0067    0.0404   -0.0280   -0.0115
          36   -0.0066    0.0314   -0.0248    0.0127    0.0252    0.0030    0.0018    0.0024
          37    0.0000   -0.0028   -0.0086    0.0009    0.0235    0.0034   -0.0105   -0.0005
          38    0.0076   -0.0023   -0.0015    0.0253   -0.0163   -0.0149    0.0084   -0.0139
          39    0.0053   -0.0033    0.0139    0.0116    0.0108    0.0090    0.0011    0.0015
          40   -0.0143    0.0195   -0.0119    0.0102    0.0158    0.0151    0.0197    0.0126
          41    0.0023    0.0012    0.0031   -0.0035   -0.0076   -0.0052    0.0022    0.0074
          42   -0.0154   -0.0061    0.0066   -0.0118   -0.0015   -0.0252   -0.0185   -0.0137
          43   -0.0051    0.0086   -0.0178   -0.0149    0.0021   -0.0057    0.0042   -0.0030
          44   -0.0080   -0.0129    0.0044   -0.0039    0.0054   -0.0280   -0.0220    0.0020
          45   -0.0040    0.0154    0.0037   -0.0126   -0.0184    0.0049    0.0224   -0.0006
          46   -0.0013    0.0063   -0.0193    0.0105   -0.0106   -0.0129    0.0031   -0.0242
          47   -0.0220    0.0081    0.0018    0.0044    0.0008   -0.0080    0.0023    0.0108
          48   -0.0327    0.0129    0.0160   -0.0157    0.0319    0.0159    0.0011    0.0358
          49   -0.0129    0.0180   -0.0117    0.0099    0.0158    0.0158    0.0167    0.0075
          50    0.0034   -0.0001    0.0004    0.0223   -0.0151   -0.0107    0.0079   -0.0131
          51   -0.0347    0.0140    0.0165   -0.0167    0.0342    0.0176    0.0015    0.0392
          52   -0.0050    0.0125   -0.0419   -0.0570   -0.0169   -0.0278    0.0126    0.0277
          53   -0.0473    0.0210    0.0345    0.0179    0.0086    0.0191    0.0019   -0.0018
          54    0.0053   -0.0024    0.0101    0.0066    0.0080    0.0056    0.0030    0.0046
          55   -0.0050    0.0093   -0.0257   -0.0317   -0.0063   -0.0158    0.0067    0.0136
          56   -0.0254    0.0124   -0.0283   -0.0370    0.0072    0.0024    0.0035    0.0017
          57    0.0049   -0.0078    0.0401    0.0527    0.0269    0.0274   -0.0074   -0.0212
          58    0.0404    0.0404    0.0243   -0.0059   -0.0229   -0.0055   -0.0478    0.0142
          59   -0.0204   -0.0545   -0.0336    0.0222    0.0061    0.0203    0.0344   -0.0002
          60    0.0161   -0.0258    0.0065   -0.0087    0.0240    0.0100    0.0314   -0.0118
          61   -0.0070   -0.0456   -0.0055    0.0091    0.0082    0.0193    0.0189   -0.0025
          62   -0.0089   -0.0486   -0.0329    0.0206    0.0161    0.0211    0.0525   -0.0101
          63   -0.0208   -0.0642   -0.0040   -0.0010    0.0144    0.0163    0.0169    0.0027
          64   -0.0069   -0.0709    0.0092   -0.0028    0.0454    0.0239    0.0763   -0.0134
          65    0.0782    0.0621    0.0263   -0.0159    0.0157   -0.0169   -0.0002    0.0027
          66   -0.0005    0.0086   -0.0166    0.0122   -0.0478    0.0050   -0.0661    0.0134
          67    0.0256   -0.0315    0.0410   -0.0233    0.0423   -0.0009    0.0061    0.0192
          68    0.0584    0.0295    0.0056   -0.0034    0.0315    0.0043    0.0808   -0.0322
          69    0.0249    0.0051    0.0031   -0.0041    0.0055    0.0094    0.0319   -0.0212
          70    0.0382    0.0108    0.0374   -0.0179    0.0055   -0.0100   -0.0515    0.0296
          71    0.0655    0.0538    0.0247   -0.0143    0.0013   -0.0215   -0.0481    0.0263
          72    0.0383    0.0503   -0.0045    0.0042   -0.0322    0.0035   -0.0126   -0.0191
          73   -0.0055    0.0076    0.0267    0.0276   -0.0212   -0.0434    0.0119    0.1044
          74   -0.0406    0.0191    0.0048   -0.0132    0.0102    0.0178    0.0018   -0.0052
          75    0.0484   -0.0259   -0.0147    0.0232    0.0007   -0.0169    0.0011   -0.0390
          76   -0.0117    0.0088    0.0474    0.0523   -0.0103   -0.0103    0.0051    0.0060
          77   -0.0252    0.0094    0.0306    0.0338   -0.0019   -0.0037    0.0039    0.0108
          78    0.0560   -0.0263   -0.0518   -0.0230   -0.0144   -0.0664    0.0115    0.1145
          79   -0.0174    0.0098    0.0693    0.0781   -0.0014    0.0183   -0.0008   -0.0785
          80   -0.0058    0.0023   -0.0316   -0.0231   -0.0030   -0.0159    0.0053   -0.0007
          81    0.0449   -0.0243   -0.0096    0.0264    0.0027   -0.0113    0.0003   -0.0475
          82    0.0085    0.0106   -0.0173    0.0274   -0.0467    0.0370   -0.0216    0.0294
          83    0.0027   -0.0102   -0.0090    0.0167   -0.0284    0.0235   -0.0250    0.0478
          84   -0.0057   -0.0048   -0.0287    0.0268   -0.0465    0.0456   -0.0130    0.0339
          85   -0.0056   -0.0025   -0.0048   -0.0065    0.0164   -0.0392    0.0007   -0.0568
          86   -0.0101   -0.0219    0.0004   -0.0127    0.0282   -0.0431   -0.0041   -0.0285
          87   -0.0153   -0.0181    0.0223   -0.0309    0.0188   -0.0656   -0.0235   -0.0612
          88    0.0047   -0.0092   -0.0045   -0.0065    0.0419    0.0219   -0.0524    0.0008
          89    0.0044   -0.0009    0.0151   -0.0263   -0.0491    0.0121    0.0377   -0.0104
          90    0.0015    0.0138    0.0208   -0.0398   -0.0662    0.0277    0.0634   -0.0163
          91   -0.0045   -0.0115    0.0177   -0.0280   -0.0410   -0.0085    0.0418   -0.0019
          92    0.0133    0.0020   -0.0091   -0.0026    0.0379    0.0421   -0.0609   -0.0074
          93   -0.0115    0.0375   -0.0454    0.0400    0.0730   -0.0132   -0.0319    0.0149
          94    0.0031   -0.0242    0.0270   -0.0344   -0.0228    0.0113   -0.0037   -0.0040
          95    0.0182    0.0031    0.0035   -0.0263   -0.0056    0.0623   -0.0236   -0.0217
          96   -0.0048    0.0374   -0.0288    0.0101    0.0203    0.0125    0.0108   -0.0028


   Root No.       9        10        11        12        13        14        15        16

                 9 A      10 A      11 A      12 A      13 A      14 A      15 A      16 A   

                 190.2     210.4     254.6     300.0     335.5     375.8     424.6     442.0
  
           1   -0.0073    0.0014   -0.0092    0.0080   -0.0089    0.0131    0.0102    0.0047
           2    0.0049   -0.0010    0.0102   -0.0102   -0.0050   -0.0006    0.0161   -0.0110
           3    0.0015   -0.0018   -0.0080   -0.0154    0.0156   -0.0216    0.0154    0.0258
           4   -0.0071    0.0007   -0.0112    0.0065   -0.0108    0.0167    0.0034    0.0026
           5   -0.0036    0.0090   -0.0054   -0.0080    0.0125    0.0182    0.0195   -0.0169
           6   -0.0037    0.0009   -0.0066   -0.0255    0.0070   -0.0192   -0.0098   -0.0082
           7    0.0014   -0.0088    0.0031    0.0124   -0.0164   -0.0096    0.0130   -0.0066
           8   -0.0048    0.0093   -0.0082   -0.0056    0.0122    0.0113    0.0145   -0.0126
           9    0.0018    0.0069   -0.0001    0.0002   -0.0051   -0.0067   -0.0004   -0.0243
          10    0.0014   -0.0091    0.0017    0.0104   -0.0210   -0.0099    0.0129   -0.0049
          11    0.0047   -0.0002    0.0106   -0.0072   -0.0015   -0.0010    0.0218   -0.0181
          12   -0.0032    0.0080    0.0192    0.0334    0.0234    0.0013   -0.0008   -0.0111
          13   -0.0090    0.0111    0.0213   -0.0126    0.0119   -0.0167    0.0260    0.0161
          14    0.0055   -0.0030    0.0094   -0.0111   -0.0103    0.0050   -0.0175    0.0179
          15    0.0020   -0.0061   -0.0237   -0.0034    0.0054   -0.0073    0.0281    0.0102
          16    0.0011    0.0070   -0.0036    0.0047    0.0249    0.0120   -0.0022    0.0216
          17   -0.0083   -0.0154   -0.0023    0.0003    0.0268   -0.0109   -0.0142   -0.0029
          18    0.0017   -0.0117    0.0138   -0.0097   -0.0119    0.0152    0.0140    0.0000
          19    0.0059   -0.0006    0.0170    0.0009   -0.0041    0.0005   -0.0076    0.0060
          20    0.0060   -0.0028    0.0129   -0.0119   -0.0132    0.0075   -0.0259    0.0220
          21   -0.0003    0.0039    0.0252    0.0061   -0.0083    0.0076   -0.0175    0.0054
          22   -0.0080    0.0000    0.0019   -0.0019   -0.0136   -0.0011    0.0038   -0.0023
          23   -0.0030   -0.0008   -0.0039    0.0016    0.0013   -0.0140   -0.0091   -0.0105
          24    0.0109   -0.0004    0.0098   -0.0048    0.0059    0.0285    0.0161    0.0187
          25    0.0146   -0.0140   -0.0014    0.0108    0.0150   -0.0103   -0.0016   -0.0105
          26   -0.0088    0.0037   -0.0199    0.0200   -0.0043   -0.0122   -0.0042    0.0231
          27    0.0090    0.0001   -0.0075    0.0130   -0.0012   -0.0128   -0.0130   -0.0030
          28    0.0062    0.0088   -0.0078    0.0074    0.0323   -0.0131   -0.0197   -0.0143
          29   -0.0167    0.0142   -0.0199    0.0143   -0.0127   -0.0164   -0.0057    0.0169
          30   -0.0009    0.0078   -0.0016    0.0027   -0.0283   -0.0116    0.0004   -0.0122
          31    0.0048    0.0029   -0.0072   -0.0268   -0.0022    0.0107   -0.0188   -0.0056
          32   -0.0014   -0.0019   -0.0056    0.0123    0.0030    0.0303    0.0067   -0.0093
          33   -0.0096   -0.0073   -0.0108    0.0045   -0.0048   -0.0085   -0.0132    0.0008
          34   -0.0032   -0.0004   -0.0122   -0.0182   -0.0014    0.0123   -0.0185   -0.0075
          35    0.0220   -0.0065    0.0179    0.0084   -0.0064   -0.0107    0.0027   -0.0006
          36   -0.0102    0.0018   -0.0175   -0.0103   -0.0008    0.0177   -0.0150   -0.0034
          37   -0.0070    0.0018   -0.0204    0.0202   -0.0070    0.0301    0.0180    0.0102
          38    0.0078   -0.0080    0.0008   -0.0274   -0.0164   -0.0143    0.0321   -0.0098
          39    0.0024   -0.0043   -0.0167   -0.0153    0.0115   -0.0184    0.0250    0.0280
          40   -0.0023   -0.0087    0.0197    0.0275   -0.0144   -0.0058    0.0241   -0.0096
          41   -0.0088    0.0113   -0.0111   -0.0276    0.0207    0.0184    0.0179   -0.0178
          42    0.0054    0.0055   -0.0052    0.0050   -0.0093   -0.0116   -0.0067   -0.0199
          43   -0.0142    0.0035   -0.0141    0.0158   -0.0142    0.0275   -0.0026   -0.0074
          44   -0.0030    0.0170   -0.0075   -0.0068    0.0141    0.0256    0.0232   -0.0277
          45   -0.0075   -0.0020   -0.0075   -0.0198    0.0040   -0.0172   -0.0147   -0.0072
          46    0.0064   -0.0118   -0.0105   -0.0145   -0.0481   -0.0241    0.0164   -0.0120
          47    0.0031    0.0048    0.0327    0.0273    0.0040    0.0104    0.0107   -0.0495
          48   -0.0061    0.0115    0.0347    0.0603    0.0387    0.0128   -0.0072   -0.0227
          49    0.0019   -0.0117    0.0207    0.0332   -0.0041   -0.0096    0.0147   -0.0032
          50    0.0109   -0.0100   -0.0020   -0.0394   -0.0151   -0.0234    0.0345    0.0078
          51   -0.0068    0.0125    0.0389    0.0677    0.0427    0.0156   -0.0080   -0.0264
          52   -0.0133    0.0229    0.0556   -0.0341    0.0330   -0.0493    0.0396    0.0409
          53    0.0121   -0.0117   -0.0135   -0.0116   -0.0105    0.0061   -0.0186    0.0233
          54    0.0019   -0.0030   -0.0138   -0.0138    0.0158   -0.0227    0.0337    0.0237
          55   -0.0116    0.0140    0.0262   -0.0163    0.0151   -0.0215    0.0291    0.0221
          56   -0.0027    0.0032    0.0131   -0.0184   -0.0052   -0.0014   -0.0102    0.0320
          57    0.0047   -0.0191   -0.0676    0.0181   -0.0167    0.0278    0.0150   -0.0096
          58   -0.0015    0.0356   -0.0193    0.0193   -0.0129    0.0059    0.0053    0.0419
          59   -0.0092   -0.0256    0.0002   -0.0023    0.0451   -0.0142   -0.0226   -0.0111
          60    0.0070   -0.0269    0.0287   -0.0232   -0.0019    0.0294    0.0216   -0.0107
          61    0.0024   -0.0160    0.0092   -0.0071    0.0517    0.0169   -0.0069    0.0057
          62   -0.0018   -0.0373    0.0108   -0.0114    0.0645   -0.0054   -0.0226   -0.0214
          63   -0.0067   -0.0202    0.0169   -0.0136   -0.0203    0.0158    0.0181   -0.0002
          64    0.0530    0.0743   -0.0095    0.0032   -0.0171   -0.0027    0.0033    0.0003
          65   -0.0107   -0.0063   -0.0027    0.0011   -0.0134   -0.0183   -0.0072   -0.0195
          66   -0.0445   -0.0752    0.0205   -0.0096    0.0374    0.0380    0.0129    0.0318
          67   -0.0267   -0.0191    0.0078   -0.0080   -0.0485   -0.0189    0.0057   -0.0331
          68    0.0765    0.0999   -0.0206    0.0115   -0.0025   -0.0089   -0.0069    0.0016
          69    0.0474    0.0490    0.0036   -0.0029   -0.0209    0.0198    0.0191    0.0052
          70   -0.0580   -0.0607    0.0113   -0.0063   -0.0127   -0.0012    0.0042   -0.0066
          71   -0.0702   -0.0832    0.0100   -0.0065   -0.0046   -0.0206   -0.0097   -0.0254
          72    0.0367    0.0328    0.0025    0.0021    0.0209    0.0430    0.0185    0.0410
          73    0.1024   -0.0501   -0.0290    0.0128   -0.0148    0.0117   -0.0196   -0.0001
          74    0.0010   -0.0044   -0.0169   -0.0227    0.0032   -0.0108    0.0267    0.0271
          75   -0.0479    0.0307    0.0669    0.0061   -0.0124    0.0125   -0.0428    0.0060
          76    0.0052   -0.0013    0.0186    0.0040   -0.0087    0.0056   -0.0200    0.0042
          77    0.0260   -0.0153    0.0089   -0.0005   -0.0284    0.0246   -0.0631    0.0153
          78    0.1023   -0.0447   -0.0123    0.0164   -0.0177    0.0174   -0.0300    0.0020
          79   -0.0769    0.0395    0.0593   -0.0022   -0.0049    0.0020   -0.0238    0.0064
          80   -0.0081    0.0112    0.0498   -0.0119   -0.0171    0.0114   -0.0490    0.0255
          81   -0.0550    0.0333    0.0650    0.0043   -0.0104    0.0102   -0.0368    0.0071
          82   -0.0038    0.0318   -0.0122    0.0020    0.0095   -0.0233   -0.0190   -0.0365
          83   -0.0279    0.0411   -0.0278    0.0122   -0.0326   -0.0242   -0.0073    0.0070
          84   -0.0086    0.0253   -0.0003   -0.0089   -0.0532   -0.0258    0.0040   -0.0561
          85    0.0241   -0.0337   -0.0015    0.0230    0.0310   -0.0056   -0.0058    0.0181
          86   -0.0028   -0.0166   -0.0191    0.0326   -0.0053   -0.0105   -0.0022    0.0539
          87    0.0251   -0.0201   -0.0083    0.0234    0.0431   -0.0035   -0.0269    0.0217
          88    0.0229    0.0069    0.0060   -0.0628    0.0041   -0.0151   -0.0353   -0.0153
          89   -0.0135   -0.0101   -0.0131    0.0508   -0.0069    0.0456    0.0167    0.0026
          90   -0.0148   -0.0222   -0.0117    0.0508   -0.0204   -0.0046   -0.0122    0.0176
          91   -0.0229   -0.0038   -0.0307    0.0164   -0.0063    0.0593   -0.0094   -0.0018
          92    0.0349    0.0013    0.0270   -0.0312    0.0030   -0.0329   -0.0076   -0.0133
          93   -0.0090    0.0179   -0.0248   -0.0625    0.0178    0.0394   -0.0285   -0.0294
          94    0.0106   -0.0004    0.0033   -0.0439    0.0034   -0.0359   -0.0273   -0.0156
          95    0.0301   -0.0183    0.0308    0.0451   -0.0249   -0.0349    0.0110    0.0242
          96   -0.0125   -0.0056   -0.0178    0.0262   -0.0150    0.0289   -0.0056    0.0162


   Root No.      17        18        19        20        21        22        23        24

                17 A      18 A      19 A      20 A      21 A      22 A      23 A      24 A   

                 486.1     493.6     587.6     662.3     724.5     818.4     827.3     894.7
  
           1    0.0232   -0.0208   -0.0119   -0.0046    0.0206    0.0026    0.0007   -0.0005
           2   -0.0134    0.0016    0.0083   -0.0179    0.0222    0.0000   -0.0048    0.0013
           3    0.0102    0.0200    0.0031    0.0121   -0.0194   -0.0016    0.0026    0.0135
           4    0.0158   -0.0149   -0.0046   -0.0095    0.0101   -0.0049   -0.0176    0.0125
           5    0.0095   -0.0055   -0.0141    0.0011   -0.0255   -0.0010    0.0002    0.0035
           6   -0.0125   -0.0220   -0.0113   -0.0136   -0.0225    0.0025    0.0120   -0.0136
           7   -0.0127   -0.0059    0.0019    0.0183   -0.0215   -0.0007    0.0042   -0.0066
           8    0.0090   -0.0156   -0.0091   -0.0105   -0.0250   -0.0032    0.0011   -0.0009
           9    0.0125   -0.0252    0.0334    0.0241   -0.0070    0.0086   -0.0013   -0.0057
          10   -0.0141   -0.0107    0.0098    0.0233   -0.0153    0.0000    0.0017   -0.0050
          11   -0.0192    0.0023    0.0106   -0.0207    0.0263    0.0016   -0.0044    0.0168
          12   -0.0062    0.0022   -0.0001    0.0033   -0.0067    0.0034   -0.0004    0.0223
          13    0.0105    0.0098    0.0007   -0.0018    0.0204    0.0093    0.0259   -0.0044
          14    0.0137    0.0004   -0.0027    0.0021    0.0019    0.0003    0.0007   -0.0006
          15    0.0116    0.0039    0.0000   -0.0014    0.0173   -0.0028   -0.0113   -0.0153
          16   -0.0135   -0.0191    0.0131    0.0072    0.0027    0.0008    0.0003   -0.0012
          17    0.0026   -0.0073    0.0093    0.0028    0.0010    0.0290   -0.0085   -0.0027
          18   -0.0011    0.0033   -0.0087   -0.0048   -0.0037    0.0101   -0.0034    0.0007
          19    0.0029    0.0023    0.0003    0.0014    0.0024    0.0022    0.0069   -0.0012
          20    0.0179   -0.0002   -0.0046    0.0044    0.0004    0.0003    0.0014   -0.0093
          21    0.0049   -0.0019   -0.0020    0.0011    0.0023   -0.0001   -0.0017   -0.0086
          22   -0.0002    0.0022   -0.0029   -0.0005   -0.0025   -0.0013    0.0008   -0.0020
          23    0.0076    0.0034    0.0034    0.0013    0.0028    0.0081   -0.0027   -0.0028
          24   -0.0128   -0.0104   -0.0021   -0.0008   -0.0049   -0.0021    0.0006   -0.0006
          25    0.0044    0.0240   -0.0304   -0.0139   -0.0215   -0.0047    0.0041   -0.0089
          26   -0.0202   -0.0017   -0.0029    0.0004   -0.0051   -0.0139    0.0057   -0.0080
          27    0.0063    0.0071    0.0123    0.0076    0.0180   -0.0062    0.0003   -0.0095
          28    0.0172    0.0062    0.0035   -0.0012    0.0081    0.0031   -0.0027    0.0074
          29   -0.0158    0.0006   -0.0046   -0.0028   -0.0041   -0.0024    0.0025    0.0036
          30    0.0084    0.0230   -0.0153   -0.0082    0.0018    0.0039   -0.0012    0.0070
          31   -0.0127    0.0135    0.0190   -0.0230   -0.0052   -0.0004    0.0004    0.0016
          32   -0.0013    0.0325   -0.0038    0.0456    0.0040    0.0027    0.0034   -0.0037
          33   -0.0097   -0.0183   -0.0171   -0.0009    0.0139   -0.0029   -0.0063    0.0050
          34   -0.0155    0.0104    0.0046   -0.0055    0.0033   -0.0009   -0.0014    0.0020
          35    0.0013   -0.0045    0.0031    0.0037   -0.0001    0.0017    0.0024   -0.0062
          36   -0.0104    0.0147    0.0086   -0.0096    0.0030   -0.0021   -0.0041    0.0091
          37    0.0456   -0.0186   -0.0175    0.0005    0.0360   -0.0034   -0.0289    0.0308
          38   -0.0256    0.0044    0.0224   -0.0263    0.0405   -0.0040   -0.0124   -0.0260
          39    0.0161    0.0206    0.0053    0.0107   -0.0040   -0.0057   -0.0132    0.0150
          40   -0.0360   -0.0024    0.0125    0.0329   -0.0253    0.0112    0.0082    0.0335
          41    0.0165   -0.0362   -0.0402   -0.0359   -0.0671   -0.0027    0.0020   -0.0060
          42    0.0175   -0.0156    0.0426    0.0298    0.0148    0.0034   -0.0034   -0.0195
          43    0.0257   -0.0456   -0.0277   -0.0084    0.0280   -0.0080   -0.0434    0.0119
          44    0.0317   -0.0256    0.0027   -0.0112   -0.0534    0.0006   -0.0127    0.0129
          45   -0.0183   -0.0268   -0.0295   -0.0072   -0.0003    0.0000    0.0054   -0.0177
          46   -0.0051   -0.0303    0.0621    0.0782   -0.0319    0.0203    0.0000    0.0442
          47   -0.0469   -0.0050    0.0043   -0.0511    0.0652   -0.0053   -0.0095   -0.0606
          48   -0.0231    0.0081   -0.0274   -0.0359    0.0183   -0.0092   -0.0016   -0.0368
          49   -0.0449    0.0177   -0.0218   -0.0131    0.0004   -0.0193    0.0027   -0.0332
          50   -0.0168    0.0194    0.0329    0.0105    0.0024    0.0057   -0.0047    0.1061
          51   -0.0275    0.0094   -0.0344   -0.0412    0.0196   -0.0119    0.0000   -0.0532
          52    0.0045    0.0494    0.0188    0.0179   -0.0164   -0.0335   -0.1006   -0.0186
          53    0.0214   -0.0014   -0.0075    0.0040    0.0053    0.0213    0.0739    0.0221
          54    0.0109    0.0224    0.0070    0.0086    0.0001   -0.0163   -0.0473   -0.0138
          55    0.0131    0.0147    0.0021    0.0024    0.0148   -0.0012   -0.0076   -0.0132
          56    0.0264    0.0039   -0.0049    0.0097   -0.0034   -0.0191   -0.0640   -0.0270
          57    0.0279   -0.0413   -0.0243   -0.0194    0.0604    0.0428    0.1216   -0.0087
          58   -0.0332   -0.0033   -0.0142   -0.0103   -0.0157    0.1383   -0.0401   -0.0115
          59    0.0112   -0.0113    0.0204    0.0092    0.0117   -0.0398    0.0126    0.0135
[...]
 RED. MASS   5.3661        C  9 --  H 29          +13.3% ( 53.9%)     3.4%
 EFF. MASS  11.8200        C 10 --  H 28          +13.1% ( 53.4%)     3.6%

 VIBRATION   71   71A       ATOM PAIR        ENERGY CONTRIBUTION    RADIAL
 FREQ.      2917.80        C  2 --  H 15          +76.1% ( 89.2%)   100.0%
 T-DIPOLE    0.0799        C  3 --  H 14          +18.0% ( 43.4%)   100.0%
 TRAVEL      0.1265        C  1 --  H 13           +1.5% ( 12.6%)    99.9%
 RED. MASS   0.6213        C  2 --  C  3           +1.1% ( 10.7%)    17.0%
 EFF. MASS   1.4453

 VIBRATION   72   72A       ATOM PAIR        ENERGY CONTRIBUTION    RADIAL
 FREQ.      2926.50        C  3 --  H 14          +77.0% ( 89.5%)   100.0%
 T-DIPOLE    0.1641        C  2 --  H 15          +16.4% ( 41.2%)    99.9%
 TRAVEL      0.1268        C  1 --  H 13           +2.4% ( 15.7%)   100.0%
 RED. MASS   0.6258        C  2 --  C  3           +0.9% (  9.6%)     7.7%
 EFF. MASS   1.4337

 VIBRATION   73   73A       ATOM PAIR        ENERGY CONTRIBUTION    RADIAL
 FREQ.      2940.01        C  1 --  H 13          +79.5% ( 91.4%)   100.0%
 T-DIPOLE    0.1084        C  5 --  H 18           +6.8% ( 26.6%)    96.7%
 TRAVEL      0.1253        C  5 --  H 19           +5.6% ( 24.1%)    95.6%
 RED. MASS   0.6565        C  2 --  H 15           +3.0% ( 17.9%)    99.8%
 EFF. MASS   1.4615

 VIBRATION   74   74A       ATOM PAIR        ENERGY CONTRIBUTION    RADIAL
 FREQ.      2944.58        C  6 --  H 20          +52.3% ( 75.2%)    96.8%
 T-DIPOLE    0.0168        C  6 --  H 21          +44.9% ( 69.6%)    96.1%
 TRAVEL      0.1218        C  6 --  C  8           +1.2% ( 11.2%)     0.0%
 RED. MASS   0.5167        C  6 --  C 10           +1.1% ( 11.1%)     0.2%
 EFF. MASS   1.5435

 VIBRATION   75   75A       ATOM PAIR        ENERGY CONTRIBUTION    RADIAL
 FREQ.      2953.16        C  5 --  H 18          +45.3% ( 69.7%)    96.9%
 T-DIPOLE    0.0480        C  5 --  H 19          +40.5% ( 65.9%)    96.1%
 TRAVEL      0.1223        C  1 --  H 13          +11.2% ( 34.7%)   100.0%
 RED. MASS   0.4110        C  1 --  C  5           +1.1% ( 10.7%)     1.2%
 EFF. MASS   1.5276

 VIBRATION   76   76A       ATOM PAIR        ENERGY CONTRIBUTION    RADIAL
 FREQ.      3023.91        C  6 --  H 21          +50.7% ( 70.3%)    98.1%
 T-DIPOLE    0.0373        C  6 --  H 20          +44.1% ( 65.6%)    97.3%
 TRAVEL      0.1315        C  9 --  H 29           +1.7% ( 12.8%)    99.8%
 RED. MASS   0.4520        C 10 --  H 28           +1.5% ( 12.1%)    99.7%
 EFF. MASS   1.2889

 VIBRATION   77   77A       ATOM PAIR        ENERGY CONTRIBUTION    RADIAL
 FREQ.      3030.46        C  4 --  H 16          +49.1% ( 72.5%)    98.2%
 T-DIPOLE    0.1151        C  4 --  H 17          +25.9% ( 52.7%)    94.5%
 TRAVEL      0.1206        C  9 --  H 29          +19.9% ( 46.2%)   100.0%
 RED. MASS   0.3744        C  2 --  C  4           +0.9% (  9.7%)     0.7%
 EFF. MASS   1.5297

 VIBRATION   78   78A       ATOM PAIR        ENERGY CONTRIBUTION    RADIAL
 FREQ.      3031.23        C  9 --  H 29          +71.8% ( 86.2%)   100.0%
 T-DIPOLE    0.2821        C  4 --  H 16          +13.0% ( 36.7%)    98.2%
 TRAVEL      0.1219        C  4 --  H 17           +6.8% ( 26.6%)    94.4%
 RED. MASS   0.5385        C 10 --  H 28           +3.5% ( 19.2%)    99.7%
 EFF. MASS   1.4969

 VIBRATION   79   79A       ATOM PAIR        ENERGY CONTRIBUTION    RADIAL
 FREQ.      3031.75        C  5 --  H 19          +51.2% ( 70.6%)    98.1%
 T-DIPOLE    0.0475        C  5 --  H 18          +44.8% ( 66.0%)    97.3%
 TRAVEL      0.1318        C 11 --  H 30           +2.0% ( 13.8%)   100.0%
 RED. MASS   0.4617        C  5 --  C  7           +0.6% (  7.8%)    26.1%
 EFF. MASS   1.2799

 VIBRATION   80   80A       ATOM PAIR        ENERGY CONTRIBUTION    RADIAL
 FREQ.      3031.99        C 11 --  H 30          +93.2% ( 97.9%)   100.0%
 T-DIPOLE    0.2375        C 11 --  C 12           +1.4% ( 12.0%)    31.2%
 TRAVEL      0.1217        C  2 --  C 11           +1.3% ( 11.6%)    13.3%
 RED. MASS   0.8536        C  9 --  H 29           +1.0% ( 10.1%)   100.0%
 EFF. MASS   1.5015

 VIBRATION   81   81A       ATOM PAIR        ENERGY CONTRIBUTION    RADIAL
 FREQ.      3037.51        C 10 --  H 28          +91.2% ( 96.9%)   100.0%
 T-DIPOLE    0.2151        C  9 --  C 10           +1.6% ( 12.9%)    39.5%
 TRAVEL      0.1206        C  4 --  H 16           +1.5% ( 12.4%)    97.7%
 RED. MASS   0.8231        C  9 --  H 29           +1.4% ( 12.2%)    98.7%
 EFF. MASS   1.5261

 VIBRATION   82   82A       ATOM PAIR        ENERGY CONTRIBUTION    RADIAL
 FREQ.      3075.40        C  7 --  H 26          +57.2% ( 78.0%)    98.0%
 T-DIPOLE    0.0126        C  7 --  H 27          +39.9% ( 65.2%)    95.6%
 TRAVEL      0.1208        C  7 --  H 25           +1.6% ( 13.0%)    15.9%
 RED. MASS   0.5147        C  5 --  C  7           +1.0% ( 10.2%)     0.0%
 EFF. MASS   1.5014

 VIBRATION   83   83A       ATOM PAIR        ENERGY CONTRIBUTION    RADIAL
 FREQ.      3081.06        C  8 --  H 24          +63.9% ( 82.5%)    98.7%
 T-DIPOLE    0.0094        C  8 --  H 22          +28.7% ( 55.2%)    92.3%
 TRAVEL      0.1207        C  8 --  H 23           +6.2% ( 25.7%)    61.3%
 RED. MASS   0.5218        C  6 --  C  8           +1.0% ( 10.2%)     0.0%
 EFF. MASS   1.5011

 VIBRATION   84   84A       ATOM PAIR        ENERGY CONTRIBUTION    RADIAL
 FREQ.      3084.89        C  7 --  H 25          +59.8% ( 79.8%)    98.6%
 T-DIPOLE    0.0021        C  7 --  H 27          +26.4% ( 53.0%)    90.9%
 TRAVEL      0.1206        C  7 --  H 26          +12.2% ( 36.1%)    78.0%
 RED. MASS   0.4713        C  5 --  C  7           +1.0% ( 10.3%)     0.0%
 EFF. MASS   1.5036

 VIBRATION   85   85A       ATOM PAIR        ENERGY CONTRIBUTION    RADIAL
 FREQ.      3085.92        C  8 --  H 23          +58.4% ( 78.8%)    98.3%
 T-DIPOLE    0.0106        C  8 --  H 22          +36.2% ( 62.1%)    94.5%
 TRAVEL      0.1205        C  8 --  H 24           +4.0% ( 20.6%)    46.4%
 RED. MASS   0.5023        C  6 --  C  8           +1.0% ( 10.3%)     0.1%
 EFF. MASS   1.5041

 VIBRATION   86   86A       ATOM PAIR        ENERGY CONTRIBUTION    RADIAL
 FREQ.      3098.74        C  4 --  H 17          +65.1% ( 80.1%)    98.7%
 T-DIPOLE    0.0769        C  4 --  H 16          +32.8% ( 56.9%)    93.9%
 TRAVEL      0.1299        C  2 --  C  4           +0.7% (  8.4%)    96.5%
 RED. MASS   0.5291        C  1 --  C  4           +0.7% (  8.3%)    47.1%
 EFF. MASS   1.2898

 VIBRATION   87   87A       ATOM PAIR        ENERGY CONTRIBUTION    RADIAL
 FREQ.      3133.61        C 12 --  H 31          +94.2% ( 98.6%)    99.9%
 T-DIPOLE    0.2106        C 12 --  H 32           +4.5% ( 21.5%)    61.4%
 TRAVEL      0.1187        C 11 --  C 12           +1.3% ( 11.8%)    27.0%
 RED. MASS   0.8871
 EFF. MASS   1.5280

 VIBRATION   88   88A       ATOM PAIR        ENERGY CONTRIBUTION    RADIAL
 FREQ.      3147.57        C 12 --  H 32          +94.1% ( 97.8%)    99.8%
 T-DIPOLE    0.2576        C 12 --  H 31           +3.7% ( 19.3%)    22.0%
 TRAVEL      0.1205        C 11 --  C 12           +1.6% ( 12.6%)    66.7%
 RED. MASS   0.8589        C 11 --  H 30           +0.7% (  8.2%)    94.3%
 EFF. MASS   1.4743

 VIBRATION   89   89A       ATOM PAIR        ENERGY CONTRIBUTION    RADIAL
 FREQ.      3178.89        C  7 --  H 25          +38.1% ( 59.4%)    97.8%
 T-DIPOLE    0.0131        C  7 --  H 27          +32.7% ( 55.0%)    97.0%
 TRAVEL      0.1366        C  7 --  H 26          +28.9% ( 51.8%)    96.3%
 RED. MASS   0.3304        C  5 --  C  7           +0.3% (  5.1%)    99.0%
 EFF. MASS   1.1371

 VIBRATION   90   90A       ATOM PAIR        ENERGY CONTRIBUTION    RADIAL
 FREQ.      3183.00        C  8 --  H 23          +34.5% ( 56.5%)    97.3%
 T-DIPOLE    0.0191        C  8 --  H 22          +34.4% ( 56.4%)    97.3%
 TRAVEL      0.1366        C  8 --  H 24          +30.9% ( 53.5%)    96.7%
 RED. MASS   0.3277        C  6 --  C  8           +0.3% (  5.1%)    99.8%
 EFF. MASS   1.1360

 SYMMETRY NUMBER FOR POINT-GROUP C1  =  1


          SYSTEM IS A GROUND STATE


    NULL



          MOLECULE IS NOT LINEAR

          THERE ARE 90 GENUINE VIBRATIONS IN THIS SYSTEM
          THIS THERMODYNAMICS CALCULATION IS LIMITED TO
          MOLECULES WHICH HAVE NO INTERNAL ROTATIONS




                    CALCULATED THERMODYNAMIC PROPERTIES
                                          *
   TEMP. (K)   PARTITION FUNCTION   H.O.F.    ENTHALPY  HEAT CAPACITY ENTROPY
                                   KCAL/MOL   CAL/MOLE    CAL/K/MOL  CAL/K/MOL


 298.00  VIB.     0.6495D+05                  6976.4829    46.0416    45.4320
         ROT.     0.1848D+07                   888.2813     2.9808    31.6550
         INT.     0.1200D+12                  7864.7642    49.0225    77.0870
         TRA.     0.2036D+28                  1480.4688     4.9680    41.1956
         TOT.                        6.904    9345.2330    53.9905   118.2827

 200.00  VIB.     0.1283D+04                  3251.2694    30.5765    30.4780
         ROT.     0.1016D+07                   596.1620     2.9808    30.4663
         INT.     0.1303D+10                  3847.4314    33.5573    60.9444
         TRA.     0.1119D+28                   993.6033     4.9680    39.2145
         TOT.                        2.400    4841.0346    38.5253   100.1589

 210.00  VIB.     0.1928D+04                  3563.9976    31.9764    32.0035
         ROT.     0.1093D+07                   625.9700     2.9808    30.6118
         INT.     0.2108D+10                  4189.9676    34.9572    62.6153
         TRA.     0.1204D+28                  1043.2834     4.9680    39.4569
         TOT.                        2.792    5233.2510    39.9252   102.0722

 220.00  VIB.     0.2893D+04                  3890.9453    33.4207    33.5242
         ROT.     0.1172D+07                   655.7781     2.9808    30.7504
         INT.     0.3391D+10                  4546.7235    36.4015    64.2747
         TRA.     0.1291D+28                  1092.9636     4.9680    39.6880
         TOT.                        3.198    5639.6870    41.3695   103.9627

 230.00  VIB.     0.4331D+04                  4232.5622    34.9102    35.0426
         ROT.     0.1253D+07                   685.5862     2.9808    30.8830
         INT.     0.5426D+10                  4918.1485    37.8910    65.9255
         TRA.     0.1380D+28                  1142.6437     4.9680    39.9088
         TOT.                        3.619    6060.7922    42.8590   105.8343

 240.00  VIB.     0.6473D+04                  4589.2963    36.4439    36.5606
         ROT.     0.1335D+07                   715.3943     2.9808    31.0098
         INT.     0.8644D+10                  5304.6907    39.4247    67.5704
         TRA.     0.1471D+28                  1192.3239     4.9680    40.1203
         TOT.                        4.056    6497.0146    44.3927   107.6907

 250.00  VIB.     0.9658D+04                  4961.5791    38.0194    38.0801
         ROT.     0.1420D+07                   745.2024     2.9808    31.1315
         INT.     0.1371D+11                  5706.7816    41.0003    69.2116
         TRA.     0.1564D+28                  1242.0041     4.9680    40.3231
         TOT.                        4.507    6948.7856    45.9683   109.5347

 260.00  VIB.     0.1439D+05                  5349.8140    39.6336    39.6026
         ROT.     0.1506D+07                   775.0105     2.9808    31.2484
         INT.     0.2167D+11                  6124.8245    42.6144    70.8510
         TRA.     0.1659D+28                  1291.6842     4.9680    40.5179
         TOT.                        4.975    7416.5087    47.5825   111.3689

 270.00  VIB.     0.2142D+05                  5754.3667    41.2823    41.1292
         ROT.     0.1593D+07                   804.8186     2.9808    31.3609
         INT.     0.3413D+11                  6559.1854    44.2631    72.4901
         TRA.     0.1756D+28                  1341.3644     4.9680    40.7054
         TOT.                        5.459    7900.5497    49.2311   113.1955

 280.00  VIB.     0.3185D+05                  6175.5596    42.9608    42.6608
         ROT.     0.1683D+07                   834.6267     2.9808    31.4693
         INT.     0.5360D+11                  7010.1863    45.9416    74.1301
         TRA.     0.1854D+28                  1391.0445     4.9680    40.8861
         TOT.                        5.960    8401.2308    50.9097   115.0162

 290.00  VIB.     0.4733D+05                  6613.6666    44.6643    44.1980
         ROT.     0.1774D+07                   864.4348     2.9808    31.5739
         INT.     0.8396D+11                  7478.1015    47.6451    75.7719
         TRA.     0.1954D+28                  1440.7247     4.9680    41.0604
         TOT.                        6.477    8918.8262    52.6131   116.8323

 300.00  VIB.     0.7029D+05                  7068.9121    46.3877    45.7411
         ROT.     0.1866D+07                   894.2429     2.9808    31.6750
         INT.     0.1312D+12                  7963.1550    49.3685    77.4161
         TRA.     0.2056D+28                  1490.4049     4.9680    41.2289
         TOT.                        7.012    9453.5599    54.3365   118.6450

 310.00  VIB.     0.1043D+06                  7541.4693    48.1258    47.2905
         ROT.     0.1960D+07                   924.0510     2.9808    31.7727
         INT.     0.2046D+12                  8465.5203    51.1066    79.0632
         TRA.     0.2160D+28                  1540.0850     4.9680    41.3918
         TOT.                        7.564   10005.6053    56.0747   120.4550

 320.00  VIB.     0.1549D+06                  8031.4619    49.8739    48.8460
         ROT.     0.2056D+07                   953.8591     2.9808    31.8673
         INT.     0.3184D+12                  8985.3210    52.8547    80.7133
         TRA.     0.2265D+28                  1589.7652     4.9680    41.5495
         TOT.                        8.134   10575.0862    57.8228   122.2628

 330.00  VIB.     0.2298D+06                  8538.9655    51.6273    50.4075
         ROT.     0.2153D+07                   983.6672     2.9808    31.9591
         INT.     0.4948D+12                  9522.6327    54.6081    82.3666
         TRA.     0.2372D+28                  1639.4454     4.9680    41.7024
         TOT.                        8.721   11162.0781    59.5761   124.0690

 340.00  VIB.     0.3409D+06                  9064.0103    53.3815    51.9748
         ROT.     0.2252D+07                  1013.4753     2.9808    32.0480
         INT.     0.7677D+12                 10077.4856    56.3623    84.0229
         TRA.     0.2481D+28                  1689.1255     4.9680    41.8507
         TOT.                        9.325   11766.6112    61.3303   125.8736

 350.00  VIB.     0.5059D+06                  9606.5843    55.1325    53.5475
         ROT.     0.2352D+07                  1043.2834     2.9808    32.1345
         INT.     0.1190D+13                 10649.8677    58.1133    85.6819
         TRA.     0.2591D+28                  1738.8057     4.9680    41.9947
         TOT.                        9.947   12388.6734    63.0813   127.6766

 360.00  VIB.     0.7507D+06                 10166.6364    56.8765    55.1251
         ROT.     0.2453D+07                  1073.0915     2.9808    32.2184
         INT.     0.1842D+13                 11239.7279    59.8573    87.3435
         TRA.     0.2703D+28                  1788.4859     4.9680    42.1347
         TOT.                       10.587   13028.2137    64.8253   129.4782

 370.00  VIB.     0.1114D+07                 10744.0805    58.6103    56.7071
         ROT.     0.2556D+07                  1102.8996     2.9808    32.3001
         INT.     0.2848D+13                 11846.9801    61.5911    89.0072
         TRA.     0.2817D+28                  1838.1660     4.9680    42.2708
         TOT.                       11.244   13685.1461    66.5592   131.2780

 380.00  VIB.     0.1654D+07                 11338.7991    60.3310    58.2930
         ROT.     0.2661D+07                  1132.7077     2.9808    32.3796
         INT.     0.4400D+13                 12471.5068    63.3118    90.6726
         TRA.     0.2932D+28                  1887.8462     4.9680    42.4033
         TOT.                       11.918   14359.3530    68.2798   133.0759

 390.00  VIB.     0.2456D+07                 11950.6468    62.0358    59.8822
         ROT.     0.2766D+07                  1162.5158     2.9808    32.4570
         INT.     0.6793D+13                 13113.1626    65.0166    92.3393
         TRA.     0.3048D+28                  1937.5263     4.9680    42.5323
         TOT.                       12.609   15050.6890    69.9846   134.8716

 400.00  VIB.     0.3647D+07                 12579.4542    63.7225    61.4742
         ROT.     0.2873D+07                  1192.3239     2.9808    32.5325
         INT.     0.1048D+14                 13771.7781    66.7033    94.0066
         TRA.     0.3166D+28                  1987.2065     4.9680    42.6581
         TOT.                       13.318   15758.9846    71.6714   136.6647

   *: NOTE: HEATS OF FORMATION ARE RELATIVE TO THE
            ELEMENTS IN THEIR STANDARD STATE AT 298K
              (=  Standard Enthalpy of Formation).

            Hvib:  Zero-point energy is not included.
                   frequencies of less than zero cm-1 are not included.
            Hrot = (3/2)RT
            Htra = (3/2)RT + pV = (5/2)RT

            Heat capacity is Cp, not Cv

           For more information, see: HTTP://OpenMOPAC.net/Manual/thermochemistry.html


           FORCE CONSTANT IN CARTESIAN COORDINATES (Millidynes/A)

    ATOM   CHEMICAL       X               Y               Z
   NUMBER   SYMBOL  FORCE CONSTANT  FORCE CONSTANT  FORCE CONSTANT

      1       C        7.742842        8.281727        8.676747
      2       C        8.018749        7.998988        8.948130
      3       C        8.267882        8.015791        8.882519
      4       C        7.876740        7.933636        8.626753
      5       C        8.314999        8.483977        8.305871
      6       C        8.520831        8.306881        8.602082
      7       C        8.229164        8.326101        8.326823
      8       C        8.233896        8.243320        8.374966
      9       C        7.572256       12.289462        7.516067
     10       C        7.554164       12.131073        7.525742
     11       C       11.837792        7.686254        7.791277
     12       C       11.554544        7.398267        7.539372
     13       H        1.360713        1.207906        3.685120
     14       H        1.164093        1.338520        3.590694
     15       H        1.341090        1.332682        3.436382
     16       H        1.308332        1.310396        3.977707
     17       H        1.640974        1.636435        3.356491
     18       H        1.588654        1.046052        3.765604
     19       H        4.597920        1.079449        0.701125
     20       H        1.586908        3.380886        1.310065
     21       H        2.735137        2.380500        1.282977
     22       H        1.697176        3.645126        1.442023
     23       H        2.069414        1.635394        3.089486
     24       H        2.933942        2.604407        1.247922
     25       H        1.494752        1.611590        3.691109
     26       H        4.911439        1.146648        0.687430
     27       H        1.800884        1.143942        3.834651
     28       H        3.501324        1.704348        1.010329
     29       H        3.476460        1.717504        0.998497
     30       H        1.605380        3.554370        1.020611
     31       H        1.792503        3.716177        0.945269
     32       H        1.379400        1.727345        3.376675



 TOTAL CPU TIME:             8.98 SECONDS

 == MOPAC DONE ==
