 *******************************************************************************
 ** Site#: 14399           For non-commercial use only        Version 13.159M **
 *******************************************************************************
 ** Cite this work as: MOPAC2012, James J. P. Stewart, Stewart Computational  **
 ** Chemistry, Version 13.159M web: HTTP://OpenMOPAC.net  Days remaining:   6 **
 *******************************************************************************
 **                                                                           **
 **                                MOPAC2012                                  **
 **                                                                           **
 *******************************************************************************

                            PM3 CALCULATION RESULTS


 *******************************************************************************
 *  CALCULATION DONE:                                Mon Jun  2 11:09:09 2014  *
 *  PM3      - The PM3 Hamiltonian to be used
 *  PRECISE  - CRITERIA TO BE INCREASED BY 100 TIMES
 *  NOSYM    - POINT-GROUP SYMMETRY SET TO C1
 *  T=       - A TIME OF 172800.0 SECONDS REQUESTED
 *  DUMP=N   - RESTART FILE WRITTEN EVERY  7200.000 SECONDS
 *******************************************************************************
pm3  precise nosym
 InChI=1S/C10H16/c1-5-9-7(3)10(6-2)8(9)4/h5-10H,1-2H2,3-4H3

   ATOM   CHEMICAL          X               Y               Z
  NUMBER   SYMBOL      (ANGSTROMS)     (ANGSTROMS)     (ANGSTROMS)
 
     1       C         -0.30060000  *   1.27620000  *  -0.11340000  *
     2       C          0.18040000  *  -0.80700000  *   0.08080000  *
     3       C          1.00520000  *   0.42900000  *  -0.29480000  *
     4       C         -1.09460000  *  -0.03440000  *  -0.08330000  *
     5       C         -0.62460000  *   2.21010000  *  -1.27820000  *
     6       C          0.34890000  *  -1.99700000  *  -0.86460000  *
     7       C          2.12140000  *   0.76530000  *   0.65760000  *
     8       C         -2.07190000  *  -0.16170000  *   1.05680000  *
     9       C          3.23030000  *   0.02550000  *   0.72090000  *
    10       C         -2.75000000  *  -1.29070000  *   1.27460000  *
    11       H         -0.32470000  *   1.83170000  *   0.85590000  *
    12       H          0.35800000  *  -1.12960000  *   1.13710000  *
    13       H         -1.61120000  *  -0.23460000  *  -1.05440000  *
    14       H          1.36640000  *   0.42290000  *  -1.35240000  *
    15       H         -1.64120000  *   2.64260000  *  -1.14010000  *
    16       H          0.11220000  *   3.04440000  *  -1.30430000  *
    17       H         -0.59490000  *   1.68480000  *  -2.26040000  *
    18       H          0.18940000  *  -1.71470000  *  -1.93080000  *
    19       H         -0.37870000  *  -2.79710000  *  -0.60040000  *
    20       H          1.37520000  *  -2.41640000  *  -0.76400000  *
    21       H          2.04160000  *   1.64060000  *   1.30090000  *
    22       H         -2.25470000  *   0.68710000  *   1.71480000  *
    23       H          3.36210000  *  -0.85280000  *   0.09100000  *
    24       H          4.02760000  *   0.29360000  *   1.41150000  *
    25       H         -2.61440000  *  -2.16470000  *   0.63960000  *
    26       H         -3.45720000  *  -1.35330000  *   2.09940000  *
 


          CARTESIAN COORDINATES 

    NO.       ATOM         X         Y         Z

     1         C       -0.3006    1.2762   -0.1134
     2         C        0.1804   -0.8070    0.0808
     3         C        1.0052    0.4290   -0.2948
     4         C       -1.0946   -0.0344   -0.0833
     5         C       -0.6246    2.2101   -1.2782
     6         C        0.3489   -1.9970   -0.8646
     7         C        2.1214    0.7653    0.6576
     8         C       -2.0719   -0.1617    1.0568
     9         C        3.2303    0.0255    0.7209
    10         C       -2.7500   -1.2907    1.2746
    11         H       -0.3247    1.8317    0.8559
    12         H        0.3580   -1.1296    1.1371
    13         H       -1.6112   -0.2346   -1.0544
    14         H        1.3664    0.4229   -1.3524
    15         H       -1.6412    2.6426   -1.1401
    16         H        0.1122    3.0444   -1.3043
    17         H       -0.5949    1.6848   -2.2604
    18         H        0.1894   -1.7147   -1.9308
    19         H       -0.3787   -2.7971   -0.6004
    20         H        1.3752   -2.4164   -0.7640
    21         H        2.0416    1.6406    1.3009
    22         H       -2.2547    0.6871    1.7148
    23         H        3.3621   -0.8528    0.0910
    24         H        4.0276    0.2936    1.4115
    25         H       -2.6144   -2.1647    0.6396
    26         H       -3.4572   -1.3533    2.0994

  H: (PM3): J. J. P. STEWART, J. COMP. CHEM. 10, 209 (1989).
  C: (PM3): J. J. P. STEWART, J. COMP. CHEM. 10, 209 (1989).

           Empirical Formula: C10 H16  =    26 atoms



      MOLECULAR POINT GROUP   :   C1  


      RHF CALCULATION, NO. OF DOUBLY OCCUPIED LEVELS =   28

      Geometry optimization using EF

          DIAGONAL MATRIX USED AS START HESSIAN

 CYCLE:     1 TIME:   0.017 TIME LEFT:  2.00D  GRAD.:   112.453 HEAT: 25.86827
 CYCLE:     2 TIME:   0.017 TIME LEFT:  2.00D  GRAD.:   105.965 HEAT: 24.36792
 CYCLE:     3 TIME:   0.017 TIME LEFT:  2.00D  GRAD.:    45.460 HEAT: 22.28886
 CYCLE:     4 TIME:   0.016 TIME LEFT:  2.00D  GRAD.:    40.503 HEAT: 21.96633
 CYCLE:     5 TIME:   0.009 TIME LEFT:  2.00D  GRAD.:    40.521 HEAT: 21.81263
 CYCLE:     6 TIME:   0.009 TIME LEFT:  2.00D  GRAD.:    40.877 HEAT: 21.70776
 CYCLE:     7 TIME:   0.009 TIME LEFT:  2.00D  GRAD.:    30.676 HEAT: 21.57332
 CYCLE:     8 TIME:   0.016 TIME LEFT:  2.00D  GRAD.:    17.255 HEAT: 21.30722
 CYCLE:     9 TIME:   0.016 TIME LEFT:  2.00D  GRAD.:    13.944 HEAT: 21.24851
 CYCLE:    10 TIME:   0.009 TIME LEFT:  2.00D  GRAD.:     9.265 HEAT: 21.20049
 CYCLE:    11 TIME:   0.009 TIME LEFT:  2.00D  GRAD.:    12.189 HEAT: 21.18020
 CYCLE:    12 TIME:   0.009 TIME LEFT:  2.00D  GRAD.:    13.899 HEAT: 21.17475
 CYCLE:    13 TIME:   0.016 TIME LEFT:  2.00D  GRAD.:     7.014 HEAT: 21.13040
 CYCLE:    14 TIME:   0.016 TIME LEFT:  2.00D  GRAD.:     4.616 HEAT: 21.11929
 CYCLE:    15 TIME:   0.009 TIME LEFT:  2.00D  GRAD.:     4.078 HEAT: 21.11135
 CYCLE:    16 TIME:   0.009 TIME LEFT:  2.00D  GRAD.:     5.353 HEAT: 21.10544
 CYCLE:    17 TIME:   0.009 TIME LEFT:  2.00D  GRAD.:     6.219 HEAT: 21.10090
 CYCLE:    18 TIME:   0.009 TIME LEFT:  2.00D  GRAD.:     6.547 HEAT: 21.09442
 CYCLE:    19 TIME:   0.009 TIME LEFT:  2.00D  GRAD.:     7.370 HEAT: 21.09248
 CYCLE:    20 TIME:   0.009 TIME LEFT:  2.00D  GRAD.:     4.162 HEAT: 21.07509
 CYCLE:    21 TIME:   0.022 TIME LEFT:  2.00D  GRAD.:     2.436 HEAT: 21.07010
 CYCLE:    22 TIME:   0.009 TIME LEFT:  2.00D  GRAD.:     6.007 HEAT: 21.06388
 CYCLE:    23 TIME:   0.009 TIME LEFT:  2.00D  GRAD.:     7.390 HEAT: 21.04441
 CYCLE:    24 TIME:   0.016 TIME LEFT:  2.00D  GRAD.:     7.117 HEAT: 21.03534
 CYCLE:    25 TIME:   0.009 TIME LEFT:  2.00D  GRAD.:     5.122 HEAT: 21.01644
 CYCLE:    26 TIME:   0.009 TIME LEFT:  2.00D  GRAD.:     7.103 HEAT: 21.00791
 CYCLE:    27 TIME:   0.009 TIME LEFT:  2.00D  GRAD.:     4.140 HEAT: 20.98425
 CYCLE:    28 TIME:   0.009 TIME LEFT:  2.00D  GRAD.:     7.177 HEAT: 20.97235
 CYCLE:    29 TIME:   0.009 TIME LEFT:  2.00D  GRAD.:    10.572 HEAT: 20.96808
 CYCLE:    30 TIME:   0.009 TIME LEFT:  2.00D  GRAD.:     6.757 HEAT: 20.92932
 CYCLE:    31 TIME:   0.009 TIME LEFT:  2.00D  GRAD.:     9.700 HEAT: 20.92875
 CYCLE:    32 TIME:   0.009 TIME LEFT:  2.00D  GRAD.:     3.143 HEAT: 20.88051
 CYCLE:    33 TIME:   0.009 TIME LEFT:  2.00D  GRAD.:     2.886 HEAT: 20.85463
 CYCLE:    34 TIME:   0.009 TIME LEFT:  2.00D  GRAD.:     3.235 HEAT: 20.82505
 CYCLE:    35 TIME:   0.009 TIME LEFT:  2.00D  GRAD.:     3.416 HEAT: 20.79980
 CYCLE:    36 TIME:   0.009 TIME LEFT:  2.00D  GRAD.:     3.498 HEAT: 20.78959
 CYCLE:    37 TIME:   0.009 TIME LEFT:  2.00D  GRAD.:     2.838 HEAT: 20.77534
 CYCLE:    38 TIME:   0.009 TIME LEFT:  2.00D  GRAD.:     3.051 HEAT: 20.75476
 CYCLE:    39 TIME:   0.009 TIME LEFT:  2.00D  GRAD.:     2.994 HEAT: 20.74000
 CYCLE:    40 TIME:   0.009 TIME LEFT:  2.00D  GRAD.:     3.125 HEAT: 20.71571
 CYCLE:    41 TIME:   0.009 TIME LEFT:  2.00D  GRAD.:     3.079 HEAT: 20.69180
 CYCLE:    42 TIME:   0.009 TIME LEFT:  2.00D  GRAD.:     3.101 HEAT: 20.67561
 CYCLE:    43 TIME:   0.009 TIME LEFT:  2.00D  GRAD.:     2.745 HEAT: 20.66025
 CYCLE:    44 TIME:   0.009 TIME LEFT:  2.00D  GRAD.:     2.627 HEAT: 20.64292
 CYCLE:    45 TIME:   0.009 TIME LEFT:  2.00D  GRAD.:     2.760 HEAT: 20.62513
 CYCLE:    46 TIME:   0.009 TIME LEFT:  2.00D  GRAD.:     2.775 HEAT: 20.60868
 CYCLE:    47 TIME:   0.009 TIME LEFT:  2.00D  GRAD.:     2.492 HEAT: 20.59223
 CYCLE:    48 TIME:   0.009 TIME LEFT:  2.00D  GRAD.:     2.276 HEAT: 20.57818
 CYCLE:    49 TIME:   0.009 TIME LEFT:  2.00D  GRAD.:     1.767 HEAT: 20.56835
 CYCLE:    50 TIME:   0.009 TIME LEFT:  2.00D  GRAD.:     1.534 HEAT: 20.56299
 CYCLE:    51 TIME:   0.009 TIME LEFT:  2.00D  GRAD.:     1.092 HEAT: 20.55983
 CYCLE:    52 TIME:   0.009 TIME LEFT:  2.00D  GRAD.:     0.775 HEAT: 20.55776
 CYCLE:    53 TIME:   0.009 TIME LEFT:  2.00D  GRAD.:     0.574 HEAT: 20.55650
 CYCLE:    54 TIME:   0.009 TIME LEFT:  2.00D  GRAD.:     0.462 HEAT: 20.55579
 CYCLE:    55 TIME:   0.009 TIME LEFT:  2.00D  GRAD.:     0.413 HEAT: 20.55528
 CYCLE:    56 TIME:   0.009 TIME LEFT:  2.00D  GRAD.:     0.383 HEAT: 20.55488
 CYCLE:    57 TIME:   0.009 TIME LEFT:  2.00D  GRAD.:     0.366 HEAT: 20.55455
 CYCLE:    58 TIME:   0.009 TIME LEFT:  2.00D  GRAD.:     0.370 HEAT: 20.55422
 CYCLE:    59 TIME:   0.009 TIME LEFT:  2.00D  GRAD.:     0.390 HEAT: 20.55383
 CYCLE:    60 TIME:   0.009 TIME LEFT:  2.00D  GRAD.:     0.389 HEAT: 20.55346
 CYCLE:    61 TIME:   0.009 TIME LEFT:  2.00D  GRAD.:     0.359 HEAT: 20.55315
 CYCLE:    62 TIME:   0.009 TIME LEFT:  2.00D  GRAD.:     0.345 HEAT: 20.55290
 CYCLE:    63 TIME:   0.009 TIME LEFT:  2.00D  GRAD.:     0.357 HEAT: 20.55263
 CYCLE:    64 TIME:   0.009 TIME LEFT:  2.00D  GRAD.:     0.357 HEAT: 20.55234
 CYCLE:    65 TIME:   0.009 TIME LEFT:  2.00D  GRAD.:     0.343 HEAT: 20.55204
 CYCLE:    66 TIME:   0.009 TIME LEFT:  2.00D  GRAD.:     0.300 HEAT: 20.55180
 CYCLE:    67 TIME:   0.009 TIME LEFT:  2.00D  GRAD.:     0.260 HEAT: 20.55162
 CYCLE:    68 TIME:   0.009 TIME LEFT:  2.00D  GRAD.:     0.250 HEAT: 20.55145
 CYCLE:    69 TIME:   0.009 TIME LEFT:  2.00D  GRAD.:     0.259 HEAT: 20.55127
 CYCLE:    70 TIME:   0.009 TIME LEFT:  2.00D  GRAD.:     0.249 HEAT: 20.55111
 CYCLE:    71 TIME:   0.009 TIME LEFT:  2.00D  GRAD.:     0.215 HEAT: 20.55098
 CYCLE:    72 TIME:   0.009 TIME LEFT:  2.00D  GRAD.:     0.190 HEAT: 20.55087
 CYCLE:    73 TIME:   0.009 TIME LEFT:  2.00D  GRAD.:     0.186 HEAT: 20.55077
 CYCLE:    74 TIME:   0.009 TIME LEFT:  2.00D  GRAD.:     0.206 HEAT: 20.55067
 CYCLE:    75 TIME:   0.009 TIME LEFT:  2.00D  GRAD.:     0.218 HEAT: 20.55057
 CYCLE:    76 TIME:   0.009 TIME LEFT:  2.00D  GRAD.:     0.248 HEAT: 20.55040
 CYCLE:    77 TIME:   0.008 TIME LEFT:  2.00D  GRAD.:     0.245 HEAT: 20.55027
 CYCLE:    78 TIME:   0.009 TIME LEFT:  2.00D  GRAD.:     0.446 HEAT: 20.54980
 CYCLE:    79 TIME:   0.009 TIME LEFT:  2.00D  GRAD.:     0.382 HEAT: 20.54957
 CYCLE:    80 TIME:   0.009 TIME LEFT:  2.00D  GRAD.:     0.414 HEAT: 20.54879
 CYCLE:    81 TIME:   0.009 TIME LEFT:  2.00D  GRAD.:     0.342 HEAT: 20.54854
 CYCLE:    82 TIME:   0.009 TIME LEFT:  2.00D  GRAD.:     0.343 HEAT: 20.54796
 CYCLE:    83 TIME:   0.010 TIME LEFT:  2.00D  GRAD.:     0.532 HEAT: 20.54725
 CYCLE:    84 TIME:   0.009 TIME LEFT:  2.00D  GRAD.:     0.579 HEAT: 20.54632
 CYCLE:    85 TIME:   0.009 TIME LEFT:  2.00D  GRAD.:     1.062 HEAT: 20.54458
 CYCLE:    86 TIME:   0.009 TIME LEFT:  2.00D  GRAD.:     0.764 HEAT: 20.54361
 CYCLE:    87 TIME:   0.009 TIME LEFT:  2.00D  GRAD.:     0.757 HEAT: 20.54218
 CYCLE:    88 TIME:   0.009 TIME LEFT:  2.00D  GRAD.:     1.688 HEAT: 20.53734
 CYCLE:    89 TIME:   0.009 TIME LEFT:  2.00D  GRAD.:     1.010 HEAT: 20.53547
 CYCLE:    90 TIME:   0.010 TIME LEFT:  2.00D  GRAD.:     1.472 HEAT: 20.53101
 CYCLE:    91 TIME:   0.009 TIME LEFT:  2.00D  GRAD.:     1.435 HEAT: 20.52801
 CYCLE:    92 TIME:   0.009 TIME LEFT:  2.00D  GRAD.:     2.505 HEAT: 20.52514
 CYCLE:    93 TIME:   0.009 TIME LEFT:  2.00D  GRAD.:     1.325 HEAT: 20.51960
 CYCLE:    94 TIME:   0.010 TIME LEFT:  2.00D  GRAD.:     3.364 HEAT: 20.51160
 CYCLE:    95 TIME:   0.009 TIME LEFT:  2.00D  GRAD.:     1.535 HEAT: 20.50517
 CYCLE:    96 TIME:   0.010 TIME LEFT:  2.00D  GRAD.:     2.705 HEAT: 20.49544
 CYCLE:    97 TIME:   0.009 TIME LEFT:  2.00D  GRAD.:     4.690 HEAT: 20.48473
 CYCLE:    98 TIME:   0.009 TIME LEFT:  2.00D  GRAD.:     5.295 HEAT: 20.48175
 CYCLE:    99 TIME:   0.009 TIME LEFT:  2.00D  GRAD.:     2.689 HEAT: 20.46471
 CYCLE:   100 TIME:   0.009 TIME LEFT:  2.00D  GRAD.:     2.896 HEAT: 20.45624
 CYCLE:   101 TIME:   0.009 TIME LEFT:  2.00D  GRAD.:     3.576 HEAT: 20.44194
 CYCLE:   102 TIME:   0.009 TIME LEFT:  2.00D  GRAD.:     2.925 HEAT: 20.42453
 CYCLE:   103 TIME:   0.011 TIME LEFT:  2.00D  GRAD.:     3.059 HEAT: 20.41306
 CYCLE:   104 TIME:   0.009 TIME LEFT:  2.00D  GRAD.:     1.522 HEAT: 20.40725
 CYCLE:   105 TIME:   0.009 TIME LEFT:  2.00D  GRAD.:     1.480 HEAT: 20.40263
 CYCLE:   106 TIME:   0.009 TIME LEFT:  2.00D  GRAD.:     1.513 HEAT: 20.39453
 CYCLE:   107 TIME:   0.010 TIME LEFT:  2.00D  GRAD.:     2.211 HEAT: 20.38686
 CYCLE:   108 TIME:   0.009 TIME LEFT:  2.00D  GRAD.:     2.361 HEAT: 20.37781
 CYCLE:   109 TIME:   0.009 TIME LEFT:  2.00D  GRAD.:     2.293 HEAT: 20.36494
 CYCLE:   110 TIME:   0.009 TIME LEFT:  2.00D  GRAD.:     2.946 HEAT: 20.34960
 CYCLE:   111 TIME:   0.009 TIME LEFT:  2.00D  GRAD.:     3.573 HEAT: 20.33376
 CYCLE:   112 TIME:   0.009 TIME LEFT:  2.00D  GRAD.:     2.266 HEAT: 20.32127
 CYCLE:   113 TIME:   0.010 TIME LEFT:  2.00D  GRAD.:     3.057 HEAT: 20.31499
 CYCLE:   114 TIME:   0.009 TIME LEFT:  2.00D  GRAD.:     3.086 HEAT: 20.31112
 CYCLE:   115 TIME:   0.009 TIME LEFT:  2.00D  GRAD.:     1.727 HEAT: 20.30535
 CYCLE:   116 TIME:   0.009 TIME LEFT:  2.00D  GRAD.:     1.299 HEAT: 20.30045
 CYCLE:   117 TIME:   0.009 TIME LEFT:  2.00D  GRAD.:     1.295 HEAT: 20.29578
 CYCLE:   118 TIME:   0.009 TIME LEFT:  2.00D  GRAD.:     1.364 HEAT: 20.29297
 CYCLE:   119 TIME:   0.009 TIME LEFT:  2.00D  GRAD.:     1.375 HEAT: 20.29019
 CYCLE:   120 TIME:   0.009 TIME LEFT:  2.00D  GRAD.:     1.351 HEAT: 20.28751
 CYCLE:   121 TIME:   0.009 TIME LEFT:  2.00D  GRAD.:     0.952 HEAT: 20.28450
 CYCLE:   122 TIME:   0.009 TIME LEFT:  2.00D  GRAD.:     0.716 HEAT: 20.28338
 CYCLE:   123 TIME:   0.009 TIME LEFT:  2.00D  GRAD.:     0.829 HEAT: 20.28171
 CYCLE:   124 TIME:   0.009 TIME LEFT:  2.00D  GRAD.:     0.761 HEAT: 20.28068
 CYCLE:   125 TIME:   0.009 TIME LEFT:  2.00D  GRAD.:     0.761 HEAT: 20.27881
 CYCLE:   126 TIME:   0.009 TIME LEFT:  2.00D  GRAD.:     0.738 HEAT: 20.27698
 CYCLE:   127 TIME:   0.009 TIME LEFT:  2.00D  GRAD.:     0.714 HEAT: 20.27562
 CYCLE:   128 TIME:   0.009 TIME LEFT:  2.00D  GRAD.:     0.656 HEAT: 20.27421
 CYCLE:   129 TIME:   0.009 TIME LEFT:  2.00D  GRAD.:     0.453 HEAT: 20.27324
 CYCLE:   130 TIME:   0.009 TIME LEFT:  2.00D  GRAD.:     0.352 HEAT: 20.27279
 CYCLE:   131 TIME:   0.009 TIME LEFT:  2.00D  GRAD.:     0.339 HEAT: 20.27256
 CYCLE:   132 TIME:   0.009 TIME LEFT:  2.00D  GRAD.:     0.376 HEAT: 20.27228
 CYCLE:   133 TIME:   0.009 TIME LEFT:  2.00D  GRAD.:     0.478 HEAT: 20.27185
 CYCLE:   134 TIME:   0.009 TIME LEFT:  2.00D  GRAD.:     0.637 HEAT: 20.27118
 CYCLE:   135 TIME:   0.009 TIME LEFT:  2.00D  GRAD.:     0.837 HEAT: 20.27012
 CYCLE:   136 TIME:   0.009 TIME LEFT:  2.00D  GRAD.:     1.091 HEAT: 20.26857
 CYCLE:   137 TIME:   0.009 TIME LEFT:  2.00D  GRAD.:     1.400 HEAT: 20.26557
 CYCLE:   138 TIME:   0.009 TIME LEFT:  2.00D  GRAD.:     1.203 HEAT: 20.26300
 CYCLE:   139 TIME:   0.009 TIME LEFT:  2.00D  GRAD.:     1.204 HEAT: 20.25858
 CYCLE:   140 TIME:   0.009 TIME LEFT:  2.00D  GRAD.:     1.423 HEAT: 20.25658
 CYCLE:   141 TIME:   0.009 TIME LEFT:  2.00D  GRAD.:     1.021 HEAT: 20.25496
 CYCLE:   142 TIME:   0.009 TIME LEFT:  2.00D  GRAD.:     0.829 HEAT: 20.25416
 CYCLE:   143 TIME:   0.009 TIME LEFT:  2.00D  GRAD.:     0.601 HEAT: 20.25350
 CYCLE:   144 TIME:   0.009 TIME LEFT:  2.00D  GRAD.:     0.488 HEAT: 20.25301
 CYCLE:   145 TIME:   0.009 TIME LEFT:  2.00D  GRAD.:     0.338 HEAT: 20.25272
 CYCLE:   146 TIME:   0.009 TIME LEFT:  2.00D  GRAD.:     0.347 HEAT: 20.25253
 CYCLE:   147 TIME:   0.009 TIME LEFT:  2.00D  GRAD.:     0.333 HEAT: 20.25242
 CYCLE:   148 TIME:   0.009 TIME LEFT:  2.00D  GRAD.:     0.311 HEAT: 20.25231
 CYCLE:   149 TIME:   0.009 TIME LEFT:  2.00D  GRAD.:     0.356 HEAT: 20.25219
 CYCLE:   150 TIME:   0.009 TIME LEFT:  2.00D  GRAD.:     0.306 HEAT: 20.25207
 CYCLE:   151 TIME:   0.009 TIME LEFT:  2.00D  GRAD.:     0.338 HEAT: 20.25184
 CYCLE:   152 TIME:   0.009 TIME LEFT:  2.00D  GRAD.:     0.312 HEAT: 20.25173
 CYCLE:   153 TIME:   0.009 TIME LEFT:  2.00D  GRAD.:     0.451 HEAT: 20.25079
 CYCLE:   154 TIME:   0.009 TIME LEFT:  2.00D  GRAD.:     0.438 HEAT: 20.25039
 CYCLE:   155 TIME:   0.009 TIME LEFT:  2.00D  GRAD.:     0.249 HEAT: 20.25010
 CYCLE:   156 TIME:   0.009 TIME LEFT:  2.00D  GRAD.:     0.158 HEAT: 20.25001
 CYCLE:   157 TIME:   0.009 TIME LEFT:  2.00D  GRAD.:     0.148 HEAT: 20.24996
 CYCLE:   158 TIME:   0.009 TIME LEFT:  2.00D  GRAD.:     0.083 HEAT: 20.24994
 CYCLE:   159 TIME:   0.009 TIME LEFT:  2.00D  GRAD.:     0.080 HEAT: 20.24992
 CYCLE:   160 TIME:   0.008 TIME LEFT:  2.00D  GRAD.:     0.093 HEAT: 20.24991
 CYCLE:   161 TIME:   0.008 TIME LEFT:  2.00D  GRAD.:     0.096 HEAT: 20.24990
 CYCLE:   162 TIME:   0.009 TIME LEFT:  2.00D  GRAD.:     0.155 HEAT: 20.24990
 CYCLE:   163 TIME:   0.009 TIME LEFT:  2.00D  GRAD.:     0.086 HEAT: 20.24989
 CYCLE:   164 TIME:   0.008 TIME LEFT:  2.00D  GRAD.:     0.066 HEAT: 20.24988
 CYCLE:   165 TIME:   0.009 TIME LEFT:  2.00D  GRAD.:     0.159 HEAT: 20.24983
 CYCLE:   166 TIME:   0.009 TIME LEFT:  2.00D  GRAD.:     0.140 HEAT: 20.24979
 CYCLE:   167 TIME:   0.009 TIME LEFT:  2.00D  GRAD.:     0.132 HEAT: 20.24969
 CYCLE:   168 TIME:   0.009 TIME LEFT:  2.00D  GRAD.:     0.096 HEAT: 20.24965
 CYCLE:   169 TIME:   0.009 TIME LEFT:  2.00D  GRAD.:     0.061 HEAT: 20.24964
 CYCLE:   170 TIME:   0.008 TIME LEFT:  2.00D  GRAD.:     0.056 HEAT: 20.24963
 CYCLE:   171 TIME:   0.008 TIME LEFT:  2.00D  GRAD.:     0.050 HEAT: 20.24962

     RMS GRADIENT =  0.04951  IS LESS THAN CUTOFF =  0.05000



 -------------------------------------------------------------------------------
pm3  precise nosym
 InChI=1S/C10H16/c1-5-9-7(3)10(6-2)8(9)4/h5-10H,1-2H2,3-4H3



     GEOMETRY OPTIMISED USING EIGENVECTOR FOLLOWING (EF).     
     SCF FIELD WAS ACHIEVED                                   


                              PM3 CALCULATION
                                                       MOPAC2012 (Version: 13.159M)
                                                       Mon Jun  2 11:09:10 2014
                                                       No. of days left =   6




          FINAL HEAT OF FORMATION =         20.24962 KCAL/MOL =      84.72440 KJ/MOL


          TOTAL ENERGY            =      -1430.84891 EV
          ELECTRONIC ENERGY       =      -8352.80187 EV  POINT GROUP:     C1  
          CORE-CORE REPULSION     =       6921.95296 EV
          COSMO AREA              =        198.39 SQUARE ANGSTROMS
          COSMO VOLUME            =        211.92 CUBIC ANGSTROMS

          GRADIENT NORM           =          0.04951
          IONIZATION POTENTIAL    =          9.900121 EV
          HOMO LUMO ENERGIES (EV) =         -9.900  1.182
          NO. OF FILLED LEVELS    =         28
          MOLECULAR WEIGHT        =        136.236

          MOLECULAR DIMENSIONS (Angstroms)

            Atom       Atom       Distance
            H    24    H    15     6.66266
            H    26    H    16     6.55427
            H    11    H    19     4.51507


          SCF CALCULATIONS        =        182
          COMPUTATION TIME        =          1.619 SECONDS




   ATOM   CHEMICAL          X               Y               Z
  NUMBER   SYMBOL      (ANGSTROMS)     (ANGSTROMS)     (ANGSTROMS)
 
     1       C         -0.30564622  *   1.29645722  *  -0.21432640  *
     2       C          0.17642964  *  -0.84413768  *  -0.11888534  *
     3       C          0.99943688  *   0.45858949  *  -0.31971491  *
     4       C         -1.13688257  *  -0.01354034  *  -0.11736861  *
     5       C         -0.60870935  *   2.15349155  *  -1.41444901  *
     6       C          0.29387679  *  -1.85173542  *  -1.23097093  *
     7       C          2.02889329  *   0.76106368  *   0.70415219  *
     8       C         -1.99702932  *  -0.12829142  *   1.08533456  *
     9       C          2.87699133  *  -0.14393980  *   1.17879098  *
    10       C         -2.28786246  *  -1.28470221  *   1.66985356  *
    11       H         -0.35286386  *   1.90764344  *   0.71353169  *
    12       H          0.37707330  *  -1.33169866  *   0.86089970  *
    13       H         -1.76520741  *  -0.19356451  *  -1.01838730  *
    14       H          1.47291242  *   0.52195807  *  -1.32511422  *
    15       H         -1.61043173  *   2.59582698  *  -1.33992938  *
    16       H          0.11380804  *   2.97477107  *  -1.50472399  *
    17       H         -0.57186125  *   1.57877277  *  -2.35039818  *
    18       H          0.10145854  *  -1.40455849  *  -2.21594830  *
    19       H         -0.42453304  *  -2.67058457  *  -1.09438602  *
    20       H          1.30067118  *  -2.28868438  *  -1.25803137  *
    21       H          2.06651352  *   1.80397795  *   1.04271228  *
    22       H         -2.40715852  *   0.81600800  *   1.46441962  *
    23       H          2.86883384  *  -1.18510968  *   0.86615368  *
    24       H          3.63838454  *   0.09568378  *   1.91433040  *
    25       H         -1.90002651  *  -2.23876680  *   1.32185661  *
    26       H         -2.93480577  *  -1.35559487  *   2.53852198  *

           Empirical Formula: C10 H16  =    26 atoms



      MOLECULAR POINT GROUP   :   C1  


                  EIGENVALUES  
 -42.13365 -33.90616 -32.23131 -31.34954 -26.74247 -24.68777 -21.50378 -20.21933
 -19.09065 -18.73597 -16.85585 -16.40819 -15.67821 -15.37920 -14.88773 -14.55928
 -14.39880 -13.68408 -13.26084 -12.89503 -12.82610 -12.42646 -11.87330 -11.73908
 -11.57878 -11.13013 -10.24449  -9.90012   1.18179   1.18660   3.17975   3.22690
   3.27036   3.64306   3.67345   3.69995   3.72392   3.87319   4.00500   4.09085
   4.15166   4.22874   4.27769   4.28749   4.34503   4.46446   4.69311   4.74133
   4.80354   4.88441   5.13967   5.53372   5.62780   5.76664   5.88660   5.95077


              NET ATOMIC CHARGES AND DIPOLE CONTRIBUTIONS

  ATOM NO.   TYPE          CHARGE      No. of ELECS.   s-Pop       p-Pop       
    1          C          -0.086491        4.0865     1.19316     2.89333
    2          C          -0.085695        4.0857     1.19178     2.89392
    3          C          -0.066478        4.0665     1.18319     2.88329
    4          C          -0.066451        4.0665     1.18318     2.88327
    5          C          -0.103979        4.1040     1.13776     2.96622
    6          C          -0.103808        4.1038     1.13798     2.96583
    7          C          -0.123293        4.1233     1.19279     2.93050
    8          C          -0.123301        4.1233     1.19277     2.93053
    9          C          -0.171388        4.1714     1.18147     2.98991
   10          C          -0.171359        4.1714     1.18145     2.98991
   11          H           0.078268        0.9217     0.92173
   12          H           0.084678        0.9153     0.91532
   13          H           0.084847        0.9152     0.91515
   14          H           0.084849        0.9152     0.91515
   15          H           0.040740        0.9593     0.95926
   16          H           0.040761        0.9592     0.95924
   17          H           0.041053        0.9589     0.95895
   18          H           0.040740        0.9593     0.95926
   19          H           0.040977        0.9590     0.95902
   20          H           0.040972        0.9590     0.95903
   21          H           0.098246        0.9018     0.90175
   22          H           0.098213        0.9018     0.90179
   23          H           0.083656        0.9163     0.91634
   24          H           0.080295        0.9197     0.91971
   25          H           0.083664        0.9163     0.91634
   26          H           0.080284        0.9197     0.91972
 DIPOLE           X         Y         Z       TOTAL
 POINT-CHG.    -0.060     0.150    -0.281     0.324
 HYBRID        -0.001    -0.003    -0.015     0.016
 SUM           -0.061     0.147    -0.297     0.336


          ATOMIC ORBITAL ELECTRON POPULATIONS

    Atom      s        px        py        pz   
    1  C   1.19316   0.95494   0.94777   0.99063
    2  C   1.19178   0.95163   0.94239   0.99990
    3  C   1.18319   0.93315   0.96210   0.98804
    4  C   1.18318   0.94266   0.96340   0.97721
    5  C   1.13776   1.00629   0.98986   0.97007
    6  C   1.13798   1.00843   0.98180   0.97560
    7  C   1.19279   0.96734   0.98830   0.97486
    8  C   1.19277   0.98279   0.98057   0.96717
    9  C   1.18147   0.99013   0.99091   1.00887
   10  C   1.18145   1.01315   0.97355   1.00320
   11  H   0.92173
   12  H   0.91532
   13  H   0.91515
   14  H   0.91515
   15  H   0.95926
   16  H   0.95924
   17  H   0.95895
   18  H   0.95926
   19  H   0.95902
   20  H   0.95903
   21  H   0.90175
   22  H   0.90179
   23  H   0.91634
   24  H   0.91971
   25  H   0.91634
   26  H   0.91972
 *******************************************************************************
 ** Site#: 14399           For non-commercial use only        Version 13.159M **
 *******************************************************************************
 ** Cite this work as: MOPAC2012, James J. P. Stewart, Stewart Computational  **
 ** Chemistry, Version 13.159M web: HTTP://OpenMOPAC.net  Days remaining:   6 **
 *******************************************************************************
 **                                                                           **
 **                                MOPAC2012                                  **
 **                                                                           **
 *******************************************************************************

                            PM3 CALCULATION RESULTS


 *******************************************************************************
 *  CALCULATION DONE:                                Mon Jun  2 11:09:10 2014  *
 *  PM3      - The PM3 Hamiltonian to be used
 *  OLDGEO   - PREVIOUS GEOMETRY TO BE USED
 *  PRECISE  - CRITERIA TO BE INCREASED BY 100 TIMES
 *  NOSYM    - POINT-GROUP SYMMETRY SET TO C1
 *  T=       - A TIME OF 172800.0 SECONDS REQUESTED
 *  DUMP=N   - RESTART FILE WRITTEN EVERY  7200.000 SECONDS
 *  THERMO   - THERMODYNAMIC QUANTITIES TO BE CALCULATED
 *******************************************************************************
oldgeo thermo nosym precise  pm3

   ATOM   CHEMICAL          X               Y               Z
  NUMBER   SYMBOL      (ANGSTROMS)     (ANGSTROMS)     (ANGSTROMS)
 
     1       C         -0.30564622  *   1.29645722  *  -0.21432640  *
     2       C          0.17642964  *  -0.84413768  *  -0.11888534  *
     3       C          0.99943688  *   0.45858949  *  -0.31971491  *
     4       C         -1.13688257  *  -0.01354034  *  -0.11736861  *
     5       C         -0.60870935  *   2.15349155  *  -1.41444901  *
     6       C          0.29387679  *  -1.85173542  *  -1.23097093  *
     7       C          2.02889329  *   0.76106368  *   0.70415219  *
     8       C         -1.99702932  *  -0.12829142  *   1.08533456  *
     9       C          2.87699133  *  -0.14393980  *   1.17879098  *
    10       C         -2.28786246  *  -1.28470221  *   1.66985356  *
    11       H         -0.35286386  *   1.90764344  *   0.71353169  *
    12       H          0.37707330  *  -1.33169866  *   0.86089970  *
    13       H         -1.76520741  *  -0.19356451  *  -1.01838730  *
    14       H          1.47291242  *   0.52195807  *  -1.32511422  *
    15       H         -1.61043173  *   2.59582698  *  -1.33992938  *
    16       H          0.11380804  *   2.97477107  *  -1.50472399  *
    17       H         -0.57186125  *   1.57877277  *  -2.35039818  *
    18       H          0.10145854  *  -1.40455849  *  -2.21594830  *
    19       H         -0.42453304  *  -2.67058457  *  -1.09438602  *
    20       H          1.30067118  *  -2.28868438  *  -1.25803137  *
    21       H          2.06651352  *   1.80397795  *   1.04271228  *
    22       H         -2.40715852  *   0.81600800  *   1.46441962  *
    23       H          2.86883384  *  -1.18510968  *   0.86615368  *
    24       H          3.63838454  *   0.09568378  *   1.91433040  *
    25       H         -1.90002651  *  -2.23876680  *   1.32185661  *
    26       H         -2.93480577  *  -1.35559487  *   2.53852198  *
 


          CARTESIAN COORDINATES 

    NO.       ATOM         X         Y         Z

     1         C       -0.3056    1.2965   -0.2143
     2         C        0.1764   -0.8441   -0.1189
     3         C        0.9994    0.4586   -0.3197
     4         C       -1.1369   -0.0135   -0.1174
     5         C       -0.6087    2.1535   -1.4144
     6         C        0.2939   -1.8517   -1.2310
     7         C        2.0289    0.7611    0.7042
     8         C       -1.9970   -0.1283    1.0853
     9         C        2.8770   -0.1439    1.1788
    10         C       -2.2879   -1.2847    1.6699
    11         H       -0.3529    1.9076    0.7135
    12         H        0.3771   -1.3317    0.8609
    13         H       -1.7652   -0.1936   -1.0184
    14         H        1.4729    0.5220   -1.3251
    15         H       -1.6104    2.5958   -1.3399
    16         H        0.1138    2.9748   -1.5047
    17         H       -0.5719    1.5788   -2.3504
    18         H        0.1015   -1.4046   -2.2159
    19         H       -0.4245   -2.6706   -1.0944
    20         H        1.3007   -2.2887   -1.2580
    21         H        2.0665    1.8040    1.0427
    22         H       -2.4072    0.8160    1.4644
    23         H        2.8688   -1.1851    0.8662
    24         H        3.6384    0.0957    1.9143
    25         H       -1.9000   -2.2388    1.3219
    26         H       -2.9348   -1.3556    2.5385

  H: (PM3): J. J. P. STEWART, J. COMP. CHEM. 10, 209 (1989).
  C: (PM3): J. J. P. STEWART, J. COMP. CHEM. 10, 209 (1989).

           Empirical Formula: C10 H16  =    26 atoms



      MOLECULAR POINT GROUP   :   C1  


      RHF CALCULATION, NO. OF DOUBLY OCCUPIED LEVELS =   28



          HEAT OF FORMATION =      20.249618 KCALS/MOLE


          INTERNAL COORDINATE DERIVATIVES

   NUMBER  ATOM       BOND         ANGLE      DIHEDRAL

     1       C      0.001819     0.002169     0.000662
     2       C     -0.003316    -0.004419     0.002690
     3       C     -0.000830     0.006463     0.001510
     4       C     -0.002511    -0.002227     0.002759
     5       C     -0.003800    -0.004348     0.005974
     6       C      0.001379    -0.001231    -0.002799
     7       C     -0.000424    -0.008182    -0.000644
     8       C      0.000842    -0.010170     0.003660
     9       C     -0.007336     0.000513     0.006364
    10       C     -0.003269     0.006182     0.000354
    11       H     -0.000189    -0.004471    -0.002977
    12       H      0.004505     0.004704     0.002608
    13       H     -0.006886    -0.003032     0.000490
    14       H      0.008596    -0.001735    -0.000645
    15       H     -0.000252     0.006104     0.001869
    16       H     -0.001496     0.000523    -0.002836
    17       H      0.002083    -0.005178    -0.005701
    18       H      0.001282     0.000915    -0.002256
    19       H      0.003561     0.000320    -0.002101
    20       H     -0.001959     0.001201     0.001781
    21       H     -0.013652     0.011473     0.007046
    22       H      0.019123     0.007007    -0.010574
    23       H      0.010313    -0.000173    -0.010703
    24       H      0.003039    -0.001752     0.002309
    25       H     -0.013222    -0.004402     0.008223
    26       H      0.002599     0.003745    -0.007068


          GRADIENT NORM =   0.04842


          TIME FOR SCF CALCULATION =    0.01

          TIME FOR DERIVATIVES     =    0.01

          MOLECULAR WEIGHT =  136.24



          ROTATIONAL CONSTANTS IN CM(-1)

          A =    0.04824264   B =    0.03494069   C =    0.02911635



           PRINCIPAL MOMENTS OF INERTIA IN UNITS OF 10**(-40)*GRAM-CM**2

          A =      580.2496   B =      801.1513   C =      961.4108


          ORIENTATION OF MOLECULE IN FORCE CALCULATION

    NO.       ATOM         X         Y         Z

     1          C      -1.3130    0.0120   -0.2559
     2          C       0.8833    0.0120   -0.2559
     3          C      -0.2145    1.1119   -0.2559
     4          C      -0.2144   -1.0829   -0.3602
     5          C      -2.2670    0.0673   -1.4193
     6          C       1.8428    0.0672   -1.4143
     7          C      -0.2388    2.0292    0.9092
     8          C      -0.2391   -2.1067    0.7125
     9          C       0.8500    2.5920    1.4204
    10          C       0.8495   -2.7142    1.1700
    11          H      -1.8787   -0.0335    0.7005
    12          H       1.4451   -0.0335    0.7034
    13          H      -0.2161   -1.6033   -1.3441
    14          H      -0.2160    1.7233   -1.1860
    15          H      -2.9147   -0.8185   -1.4401
    16          H      -2.9128    0.9527   -1.3576
    17          H      -1.7394    0.1116   -2.3823
    18          H       1.3219    0.1128   -2.3807
    19          H       2.4891   -0.8201   -1.4295
    20          H       2.4885    0.9524   -1.3455
    21          H      -1.2323    2.2392    1.3247
    22          H      -1.2330   -2.3563    1.1042
    23          H       1.8494    2.4073    1.0345
    24          H       0.8155    3.2769    2.2618
    25          H       1.8494   -2.4925    0.8056
    26          H       0.8144   -3.4759    1.9424


    FIRST DERIVATIVES WILL BE USED IN THE CALCULATION OF SECOND DERIVATIVES

          ESTIMATED TIME TO COMPLETE CALCULATION =        3.89 SECONDS

    FOR POINT-GROUP C1   THERE ARE   1 UNIQUE SYMMETRY FUNCTIONS.

 STEP:   1 TIME =     0.04 SECS, INTEGRAL =      0.04 TIME LEFT: 172799.95
 STEP:   2 TIME =     0.04 SECS, INTEGRAL =      0.08 TIME LEFT: 172799.91
 STEP:   3 TIME =     0.04 SECS, INTEGRAL =      0.12 TIME LEFT: 172799.87
 STEP:   4 TIME =     0.04 SECS, INTEGRAL =      0.15 TIME LEFT: 172799.83
 STEP:   5 TIME =     0.04 SECS, INTEGRAL =      0.19 TIME LEFT: 172799.79
 STEP:   6 TIME =     0.04 SECS, INTEGRAL =      0.23 TIME LEFT: 172799.76
 STEP:   7 TIME =     0.04 SECS, INTEGRAL =      0.27 TIME LEFT: 172799.72
 STEP:   8 TIME =     0.04 SECS, INTEGRAL =      0.31 TIME LEFT: 172799.68
 STEP:   9 TIME =     0.04 SECS, INTEGRAL =      0.35 TIME LEFT: 172799.64
 STEP:  10 TIME =     0.04 SECS, INTEGRAL =      0.39 TIME LEFT: 172799.60
 STEP:  11 TIME =     0.04 SECS, INTEGRAL =      0.43 TIME LEFT: 172799.56
 STEP:  12 TIME =     0.04 SECS, INTEGRAL =      0.47 TIME LEFT: 172799.52
 STEP:  13 TIME =     0.04 SECS, INTEGRAL =      0.50 TIME LEFT: 172799.48
 STEP:  14 TIME =     0.04 SECS, INTEGRAL =      0.54 TIME LEFT: 172799.44
 STEP:  15 TIME =     0.04 SECS, INTEGRAL =      0.58 TIME LEFT: 172799.41
 STEP:  16 TIME =     0.04 SECS, INTEGRAL =      0.62 TIME LEFT: 172799.37
 STEP:  17 TIME =     0.04 SECS, INTEGRAL =      0.66 TIME LEFT: 172799.33
 STEP:  18 TIME =     0.04 SECS, INTEGRAL =      0.70 TIME LEFT: 172799.29
 STEP:  19 TIME =     0.04 SECS, INTEGRAL =      0.73 TIME LEFT: 172799.25
 STEP:  20 TIME =     0.04 SECS, INTEGRAL =      0.77 TIME LEFT: 172799.21
 STEP:  21 TIME =     0.04 SECS, INTEGRAL =      0.81 TIME LEFT: 172799.18
 STEP:  22 TIME =     0.04 SECS, INTEGRAL =      0.85 TIME LEFT: 172799.14
 STEP:  23 TIME =     0.04 SECS, INTEGRAL =      0.89 TIME LEFT: 172799.10
 STEP:  24 TIME =     0.04 SECS, INTEGRAL =      0.93 TIME LEFT: 172799.06
 STEP:  25 TIME =     0.04 SECS, INTEGRAL =      0.97 TIME LEFT: 172799.02
 STEP:  26 TIME =     0.04 SECS, INTEGRAL =      1.01 TIME LEFT: 172798.98
 STEP:  27 TIME =     0.04 SECS, INTEGRAL =      1.05 TIME LEFT: 172798.94
 STEP:  28 TIME =     0.04 SECS, INTEGRAL =      1.08 TIME LEFT: 172798.90
 STEP:  29 TIME =     0.04 SECS, INTEGRAL =      1.12 TIME LEFT: 172798.86
 STEP:  30 TIME =     0.04 SECS, INTEGRAL =      1.16 TIME LEFT: 172798.82
 STEP:  31 TIME =     0.04 SECS, INTEGRAL =      1.20 TIME LEFT: 172798.79
 STEP:  32 TIME =     0.04 SECS, INTEGRAL =      1.24 TIME LEFT: 172798.74
 STEP:  33 TIME =     0.04 SECS, INTEGRAL =      1.28 TIME LEFT: 172798.71
 STEP:  34 TIME =     0.04 SECS, INTEGRAL =      1.32 TIME LEFT: 172798.67
 STEP:  35 TIME =     0.04 SECS, INTEGRAL =      1.36 TIME LEFT: 172798.63
 STEP:  36 TIME =     0.04 SECS, INTEGRAL =      1.40 TIME LEFT: 172798.59
 STEP:  37 TIME =     0.05 SECS, INTEGRAL =      1.45 TIME LEFT: 172798.54
 STEP:  38 TIME =     0.04 SECS, INTEGRAL =      1.49 TIME LEFT: 172798.50
 STEP:  39 TIME =     0.04 SECS, INTEGRAL =      1.52 TIME LEFT: 172798.46
 STEP:  40 TIME =     0.04 SECS, INTEGRAL =      1.56 TIME LEFT: 172798.42
 STEP:  41 TIME =     0.04 SECS, INTEGRAL =      1.60 TIME LEFT: 172798.38
 STEP:  42 TIME =     0.04 SECS, INTEGRAL =      1.64 TIME LEFT: 172798.35
 STEP:  43 TIME =     0.04 SECS, INTEGRAL =      1.68 TIME LEFT: 172798.31
 STEP:  44 TIME =     0.04 SECS, INTEGRAL =      1.72 TIME LEFT: 172798.27
 STEP:  45 TIME =     0.04 SECS, INTEGRAL =      1.76 TIME LEFT: 172798.23
 STEP:  46 TIME =     0.04 SECS, INTEGRAL =      1.80 TIME LEFT: 172798.19
 STEP:  47 TIME =     0.04 SECS, INTEGRAL =      1.84 TIME LEFT: 172798.15
 STEP:  48 TIME =     0.04 SECS, INTEGRAL =      1.88 TIME LEFT: 172798.11
 STEP:  49 TIME =     0.04 SECS, INTEGRAL =      1.92 TIME LEFT: 172798.07
 STEP:  50 TIME =     0.04 SECS, INTEGRAL =      1.96 TIME LEFT: 172798.03
 STEP:  51 TIME =     0.04 SECS, INTEGRAL =      2.00 TIME LEFT: 172797.99
 STEP:  52 TIME =     0.04 SECS, INTEGRAL =      2.03 TIME LEFT: 172797.95
 STEP:  53 TIME =     0.04 SECS, INTEGRAL =      2.07 TIME LEFT: 172797.91
 STEP:  54 TIME =     0.04 SECS, INTEGRAL =      2.11 TIME LEFT: 172797.88
 STEP:  55 TIME =     0.04 SECS, INTEGRAL =      2.15 TIME LEFT: 172797.84
 STEP:  56 TIME =     0.04 SECS, INTEGRAL =      2.19 TIME LEFT: 172797.80
 STEP:  57 TIME =     0.04 SECS, INTEGRAL =      2.23 TIME LEFT: 172797.76
 STEP:  58 TIME =     0.04 SECS, INTEGRAL =      2.27 TIME LEFT: 172797.72
 STEP:  59 TIME =     0.04 SECS, INTEGRAL =      2.31 TIME LEFT: 172797.68
 STEP:  60 TIME =     0.04 SECS, INTEGRAL =      2.35 TIME LEFT: 172797.64
 STEP:  61 TIME =     0.04 SECS, INTEGRAL =      2.38 TIME LEFT: 172797.60
 STEP:  62 TIME =     0.04 SECS, INTEGRAL =      2.43 TIME LEFT: 172797.56
 STEP:  63 TIME =     0.04 SECS, INTEGRAL =      2.47 TIME LEFT: 172797.52
 STEP:  64 TIME =     0.04 SECS, INTEGRAL =      2.50 TIME LEFT: 172797.48
 STEP:  65 TIME =     0.04 SECS, INTEGRAL =      2.55 TIME LEFT: 172797.44
 STEP:  66 TIME =     0.04 SECS, INTEGRAL =      2.59 TIME LEFT: 172797.40
 STEP:  67 TIME =     0.04 SECS, INTEGRAL =      2.62 TIME LEFT: 172797.36
 STEP:  68 TIME =     0.04 SECS, INTEGRAL =      2.67 TIME LEFT: 172797.32
 STEP:  69 TIME =     0.04 SECS, INTEGRAL =      2.71 TIME LEFT: 172797.28
 STEP:  70 TIME =     0.04 SECS, INTEGRAL =      2.75 TIME LEFT: 172797.24
 STEP:  71 TIME =     0.04 SECS, INTEGRAL =      2.79 TIME LEFT: 172797.20
 STEP:  72 TIME =     0.04 SECS, INTEGRAL =      2.82 TIME LEFT: 172797.16
 STEP:  73 TIME =     0.04 SECS, INTEGRAL =      2.86 TIME LEFT: 172797.13
 STEP:  74 TIME =     0.04 SECS, INTEGRAL =      2.90 TIME LEFT: 172797.09
 STEP:  75 TIME =     0.04 SECS, INTEGRAL =      2.94 TIME LEFT: 172797.04
 STEP:  76 TIME =     0.04 SECS, INTEGRAL =      2.98 TIME LEFT: 172797.00
 STEP:  77 TIME =     0.04 SECS, INTEGRAL =      3.02 TIME LEFT: 172796.96
 STEP:  78 TIME =     0.04 SECS, INTEGRAL =      3.06 TIME LEFT: 172796.92

(To convert to Hartree/Bohr^2, multiply by (10^(-21) x N x a0^2)/(4.184 x 627.51) = 0.0642)


           FORCE MATRIX IN MILLIDYNES/ANGSTROM


                  C  1       C  2       C  3       C  4       C  5       C  6
 ------------------------------------------------------------------------------
     C    1  14.443070
     C    2   1.781847  14.426185
     C    3   3.238058   3.229135  14.746737
     C    4   3.236982   3.229774   1.784244  14.747902
     C    5   4.619970   0.041849   0.548336   0.548471  14.513520
     C    6   0.042390   4.629026   0.546391   0.546557   0.006635  14.512856
     C    7   0.566704   0.546543   5.070416   0.040686   0.034755   0.033457
     C    8   0.566782   0.546457   0.040708   5.071181   0.034973   0.033707
     C    9   0.047657   0.050693   0.829501   0.006739   0.006992   0.005424
     C   10   0.047465   0.050777   0.006620   0.829233   0.007258   0.005339
     H   11   4.377620   0.025801   0.438099   0.437995   0.421365   0.001781
     H   12   0.025824   4.362090   0.436409   0.436283   0.001760   0.420174
     H   13   0.442541   0.443323   0.025315   4.328430   0.034016   0.032389
     H   14   0.442442   0.443331   4.328688   0.025316   0.033968   0.032504
     H   15   0.451870   0.004026   0.047510   0.012415   4.745371   0.001370
     H   16   0.451901   0.004021   0.012473   0.047484   4.745218   0.001341
     H   17   0.468637   0.002147   0.021158   0.021274   4.700944   0.001975
     H   18   0.002241   0.469204   0.020203   0.020179   0.002043   4.706586
     H   19   0.004038   0.450996   0.047681   0.012534   0.001194   4.736850
     H   20   0.003997   0.451164   0.012498   0.047726   0.001278   4.736650
     H   21   0.031382   0.034582   0.435006   0.002026   0.002248   0.004685
     H   22   0.031362   0.034718   0.002062   0.434991   0.002068   0.004776
     H   23   0.004166   0.017604   0.099046   0.001759   0.001307   0.004212
     H   24   0.010024   0.007323   0.133390   0.001391   0.001501   0.000783
     H   25   0.004214   0.017634   0.001851   0.098694   0.001252   0.004234
     H   26   0.009980   0.007384   0.001441   0.132952   0.001567   0.000766


                  C  7       C  8       C  9       C 10       H 11       H 12
 ------------------------------------------------------------------------------
     C    7  18.276681
     C    8   0.006927  18.278229
     C    9  11.057309   0.001998  18.011781
     C   10   0.002040  11.057801   0.002136  18.012801
     H   11   0.033802   0.033833   0.003115   0.002987   4.888875
     H   12   0.025939   0.025882   0.014591   0.014633   0.002322   4.871733
     H   13   0.001506   0.390842   0.000997   0.025533   0.030332   0.029740
     H   14   0.390939   0.001447   0.025457   0.001013   0.030287   0.029687
     H   15   0.005805   0.001685   0.001678   0.000845   0.029633   0.000540
     H   16   0.001662   0.005827   0.000816   0.001696   0.029497   0.000513
     H   17   0.001367   0.001391   0.000723   0.000815   0.044245   0.000501
     H   18   0.001633   0.001640   0.001021   0.000990   0.000534   0.043853
     H   19   0.005760   0.001481   0.000708   0.002453   0.000568   0.030281
     H   20   0.001447   0.005813   0.002464   0.000699   0.000568   0.030265
     H   21   4.778043   0.001425   0.455654   0.000573   0.029165   0.002944
     H   22   0.001480   4.779027   0.000494   0.455768   0.029098   0.002947
     H   23   0.493206   0.000919   5.059485   0.000983   0.000745   0.022572
     H   24   0.463590   0.000755   5.113388   0.000725   0.000641   0.001269
     H   25   0.000906   0.493145   0.000840   5.060490   0.000731   0.022732
     H   26   0.000653   0.463646   0.000847   5.113571   0.000616   0.001242


                  H 13       H 14       H 15       H 16       H 17       H 18
 ------------------------------------------------------------------------------
     H   13   4.823075
     H   14   0.002372   4.822876
     H   15   0.005217   0.003062   5.471145
     H   16   0.003098   0.005250   0.563725   5.470912
     H   17   0.023011   0.022809   0.571717   0.571496   5.437883
     H   18   0.022022   0.022029   0.000204   0.000209   0.006008   5.440882
     H   19   0.005055   0.003087   0.000333   0.000255   0.000232   0.569578
     H   20   0.003095   0.005093   0.000252   0.000335   0.000213   0.569366
     H   21   0.000511   0.014280   0.000513   0.001380   0.000575   0.000447
     H   22   0.014190   0.000514   0.001405   0.000549   0.000565   0.000470
     H   23   0.000378   0.012049   0.000211   0.000239   0.000205   0.000691
     H   24   0.000166   0.015092   0.000302   0.000179   0.000150   0.000292
     H   25   0.011847   0.000380   0.000249   0.000230   0.000197   0.000702
     H   26   0.014823   0.000161   0.000181   0.000305   0.000156   0.000309


                  H 19       H 20       H 21       H 22       H 23       H 24
 ------------------------------------------------------------------------------
     H   19   5.456414
     H   20   0.559413   5.456249
     H   21   0.001054   0.000402   5.144204
     H   22   0.000396   0.001034   0.000828   5.145098
     H   23   0.000603   0.008603   0.118685   0.000309   5.448370
     H   24   0.000174   0.000477   0.079332   0.000252   0.417566   5.500012
     H   25   0.008590   0.000592   0.000320   0.118623   0.000522   0.000280
     H   26   0.000490   0.000152   0.000279   0.079235   0.000274   0.000241


                  H 25       H 26
 ------------------------------
     H   25   5.449555
     H   26   0.417710   5.500323


          HEAT OF FORMATION =      20.249618 KCALS/MOLE

          ZERO POINT ENERGY     144.502 KCAL/MOL


           NORMAL COORDINATE ANALYSIS (Total motion = 1 Angstrom)


   Root No.       1         2         3         4         5         6         7         8

                 1 A       2 A       3 A       4 A       5 A       6 A       7 A       8 A   

                  51.0     107.6     108.9     167.9     174.2     191.6     198.5     230.9
  
           1   -0.0003   -0.0024   -0.0016   -0.0227    0.0006    0.0003   -0.0003   -0.0050
           2   -0.0005    0.0072   -0.0081    0.0001   -0.0039    0.0050   -0.0024   -0.0009
           3    0.0118   -0.0032   -0.0031   -0.0080    0.0001    0.0004   -0.0001    0.0145
           4   -0.0010   -0.0021   -0.0013   -0.0222    0.0006    0.0003   -0.0003   -0.0086
           5   -0.0011    0.0043   -0.0058   -0.0003    0.0158   -0.0016    0.0051   -0.0010
           6    0.0223    0.0044    0.0030    0.0104    0.0006   -0.0001    0.0004    0.0164
           7   -0.0005   -0.0006   -0.0032   -0.0207   -0.0101    0.0037   -0.0041   -0.0058
           8   -0.0005    0.0059   -0.0075   -0.0009    0.0058    0.0026    0.0017    0.0007
           9    0.0012    0.0028    0.0236    0.0009   -0.0027    0.0000    0.0003    0.0152
          10   -0.0005   -0.0039    0.0003   -0.0202    0.0112   -0.0032    0.0036   -0.0058
          11    0.0003    0.0040   -0.0070    0.0006    0.0055    0.0026    0.0017   -0.0027
          12    0.0013    0.0247   -0.0022    0.0005    0.0037    0.0001    0.0000    0.0148
          13   -0.0153    0.0247    0.0202   -0.0059    0.0006   -0.0002   -0.0001    0.0288
          14   -0.0011   -0.0028    0.0062    0.0003   -0.0390   -0.0025   -0.0119    0.0016
          15    0.0243   -0.0267   -0.0209   -0.0232   -0.0015    0.0004   -0.0007   -0.0148
          16    0.0265   -0.0190   -0.0157    0.0069   -0.0006    0.0001    0.0003   -0.0319
          17   -0.0022   -0.0123    0.0148   -0.0001    0.0517   -0.0190    0.0059    0.0001
          18    0.0455   -0.0108   -0.0083    0.0369    0.0013   -0.0011    0.0009   -0.0032
          19   -0.0023   -0.0056    0.0088    0.0064    0.0084    0.0013   -0.0019    0.0008
          20    0.0194    0.0035   -0.0285   -0.0086    0.0091    0.0030    0.0027    0.0345
          21   -0.0147    0.0048    0.0407    0.0078   -0.0050   -0.0002   -0.0006   -0.0123
          22   -0.0023    0.0077   -0.0070    0.0056   -0.0087   -0.0014    0.0020    0.0015
          23   -0.0179    0.0241   -0.0087    0.0077    0.0078    0.0026    0.0027   -0.0332
          24   -0.0164    0.0444   -0.0040    0.0080    0.0056   -0.0001    0.0011   -0.0152
          25   -0.0033   -0.0094    0.0092    0.0314    0.0284   -0.0022    0.0017    0.0114
          26    0.0427    0.0082    0.0399   -0.0309   -0.0236    0.0061   -0.0017    0.0044
          27   -0.0380    0.0076   -0.0346   -0.0194   -0.0103    0.0036   -0.0033   -0.0009
          28   -0.0032    0.0085   -0.0112    0.0295   -0.0300    0.0015   -0.0011    0.0120
          29   -0.0389   -0.0370   -0.0025    0.0320   -0.0268    0.0057   -0.0017   -0.0044
          30   -0.0420   -0.0376    0.0138   -0.0150    0.0085   -0.0027    0.0022   -0.0011
          31    0.0115   -0.0228   -0.0179   -0.0339    0.0006    0.0005   -0.0004   -0.0190
          32   -0.0008    0.0188   -0.0205    0.0002   -0.0014    0.0034   -0.0022   -0.0006
          33    0.0189   -0.0150   -0.0135   -0.0153    0.0003    0.0005   -0.0002    0.0046
          34   -0.0227    0.0098    0.0087   -0.0399    0.0012    0.0003   -0.0006    0.0011
          35   -0.0017    0.0114   -0.0134   -0.0011    0.0154   -0.0015    0.0017   -0.0008
          36    0.0351   -0.0027   -0.0037    0.0220    0.0002   -0.0002    0.0005    0.0099
          37    0.0036   -0.0035    0.0044   -0.0162    0.0203   -0.0080    0.0097   -0.0062
          38    0.0172   -0.0167   -0.0061   -0.0018    0.0033    0.0044    0.0026    0.0093
          39   -0.0077    0.0354   -0.0027    0.0021    0.0048   -0.0009   -0.0004    0.0072
          40    0.0038    0.0038   -0.0036   -0.0171   -0.0194    0.0084   -0.0101   -0.0061
          41   -0.0165    0.0087    0.0114    0.0018    0.0037    0.0039    0.0025   -0.0105
          42   -0.0094    0.0047    0.0358    0.0029   -0.0042    0.0009    0.0007    0.0064
          43   -0.0155    0.0226    0.0225   -0.0034    0.0396    0.1660   -0.0269    0.0281
          44   -0.0011   -0.0011    0.0052   -0.0012   -0.0678   -0.1211    0.0070    0.0028
          45    0.0333   -0.0327   -0.0462   -0.0354   -0.0038   -0.1307    0.0297   -0.0373
          46   -0.0146    0.0260    0.0173   -0.0091   -0.0385   -0.1665    0.0268    0.0291
          47   -0.0012   -0.0002    0.0041   -0.0014   -0.0678   -0.1324    0.0097    0.0031
          48    0.0327   -0.0524   -0.0214   -0.0318   -0.0019    0.1203   -0.0296   -0.0360
          49   -0.0283    0.0482    0.0392    0.0088    0.0006   -0.0004    0.0001    0.0605
          50   -0.0013   -0.0151    0.0207    0.0035   -0.0148    0.2320   -0.0598    0.0012
          51    0.0172   -0.0146   -0.0100   -0.0150   -0.0004    0.0110   -0.0028    0.0020
          52    0.0504   -0.0340   -0.0284    0.0335   -0.0016   -0.0001    0.0009   -0.0540
          53   -0.0029   -0.0211    0.0245   -0.0012    0.0427    0.0223    0.2504   -0.0001
          54    0.0327   -0.0032   -0.0011    0.0228    0.0014    0.0009    0.0120    0.0082
          55    0.0267   -0.0236   -0.0099    0.0083    0.0296   -0.0394   -0.1655   -0.0319
          56   -0.0024   -0.0157    0.0196    0.0004    0.0741   -0.0476   -0.1124    0.0005
          57    0.0623   -0.0105   -0.0288    0.0563   -0.0066   -0.0191   -0.1397   -0.0185
          58    0.0249   -0.0139   -0.0210    0.0040   -0.0307    0.0397    0.1661   -0.0315
          59   -0.0021   -0.0146    0.0185    0.0008    0.0733   -0.0492   -0.1250    0.0007
          60    0.0610   -0.0313   -0.0044    0.0554    0.0099    0.0138    0.1304   -0.0179
          61   -0.0003   -0.0071    0.0247    0.0198    0.0149   -0.0004   -0.0007   -0.0027
          62    0.0128   -0.0013   -0.1027   -0.0012    0.0361    0.0020    0.0070    0.0918
          63   -0.0070    0.0037    0.1158    0.0345   -0.0042   -0.0034   -0.0003   -0.0505
          64   -0.0003    0.0236   -0.0116    0.0183   -0.0160   -0.0002    0.0012   -0.0018
          65   -0.0119    0.0914   -0.0164   -0.0019    0.0351    0.0011    0.0070   -0.0858
          66   -0.0079    0.1271   -0.0203    0.0326    0.0058    0.0020    0.0020   -0.0577
          67   -0.0061   -0.0076   -0.0079    0.0166    0.0210   -0.0001    0.0002    0.0143
          68    0.0479    0.0137    0.1085   -0.0442   -0.0538    0.0081   -0.0076   -0.0542
          69   -0.0479    0.0098   -0.1118   -0.0527   -0.0161    0.0084   -0.0048    0.0345
          70   -0.0013   -0.0146    0.0269    0.0701    0.0549   -0.0078    0.0069    0.0187
          71    0.0569    0.0069    0.0306   -0.0373   -0.0221    0.0068   -0.0002    0.0353
          72   -0.0495    0.0085   -0.0264   -0.0128   -0.0106    0.0028   -0.0044   -0.0257
          73   -0.0060   -0.0086   -0.0061    0.0154   -0.0218   -0.0002    0.0001    0.0147
          74   -0.0433   -0.0982    0.0032    0.0477   -0.0579    0.0080   -0.0075    0.0495
          75   -0.0526   -0.1221    0.0315   -0.0453    0.0133   -0.0062    0.0022    0.0390
          76   -0.0010    0.0268   -0.0202    0.0664   -0.0584    0.0061   -0.0053    0.0193
          77   -0.0519   -0.0280   -0.0033    0.0381   -0.0262    0.0061   -0.0003   -0.0320
          78   -0.0548   -0.0281    0.0127   -0.0075    0.0080   -0.0022    0.0035   -0.0279


   Root No.       9        10        11        12        13        14        15        16

                 9 A      10 A      11 A      12 A      13 A      14 A      15 A      16 A   

                 258.9     343.1     417.8     428.4     446.2     542.6     543.4     621.9
  
           1    0.0001   -0.0001    0.0008   -0.0206    0.0184   -0.0029   -0.0051   -0.0221
           2   -0.0168    0.0013   -0.0237    0.0000    0.0024    0.0351   -0.0175   -0.0011
           3   -0.0009    0.0000   -0.0005   -0.0260   -0.0474   -0.0070   -0.0165    0.0200
           4    0.0002   -0.0001    0.0009   -0.0225    0.0184    0.0070    0.0126    0.0078
           5   -0.0153    0.0336    0.0036    0.0005   -0.0027   -0.0218    0.0124   -0.0007
           6   -0.0010    0.0015    0.0005   -0.0107    0.0560   -0.0080   -0.0118    0.0156
           7   -0.0014   -0.0199   -0.0142   -0.0096    0.0231    0.0207   -0.0094    0.0003
           8   -0.0199    0.0173   -0.0076    0.0070   -0.0014    0.0024   -0.0074   -0.0265
           9    0.0008   -0.0103    0.0370   -0.0051    0.0006    0.0178    0.0132   -0.0019
          10    0.0017    0.0198    0.0150   -0.0083    0.0229   -0.0195    0.0118    0.0003
          11   -0.0196    0.0162   -0.0035   -0.0070    0.0014    0.0076    0.0000    0.0265
          12   -0.0030    0.0118   -0.0369   -0.0095    0.0010    0.0025    0.0222    0.0007
          13   -0.0003   -0.0001    0.0010   -0.0350   -0.0332   -0.0114   -0.0205   -0.0001
          14    0.0487    0.0197   -0.0061    0.0009    0.0005   -0.0029    0.0023   -0.0001
          15    0.0026    0.0008    0.0005   -0.0242   -0.0082   -0.0070   -0.0122    0.0008
          16    0.0004    0.0001    0.0002   -0.0046   -0.0405    0.0129    0.0231   -0.0083
          17    0.0292   -0.0213   -0.0195   -0.0012   -0.0005    0.0003    0.0008   -0.0004
          18    0.0013   -0.0009   -0.0013    0.0071    0.0124   -0.0085   -0.0152    0.0078
          19   -0.0103   -0.0236   -0.0109    0.0377   -0.0019   -0.0260    0.0031    0.0197
          20   -0.0009   -0.0032    0.0202    0.0112   -0.0017    0.0010    0.0001   -0.0405
          21   -0.0180    0.0054    0.0193    0.0005   -0.0008    0.0210    0.0131   -0.0123
          22    0.0101    0.0238    0.0081    0.0387   -0.0018    0.0168   -0.0199    0.0195
          23   -0.0018   -0.0025    0.0229   -0.0088    0.0016    0.0005   -0.0036    0.0415
          24    0.0182   -0.0055   -0.0168   -0.0020   -0.0006    0.0000    0.0241   -0.0082
          25   -0.0072   -0.0020    0.0071    0.0172    0.0031   -0.0087    0.0057   -0.0032
          26   -0.0105   -0.0243    0.0067    0.0295   -0.0061   -0.0060    0.0074   -0.0049
          27   -0.0151   -0.0183   -0.0013    0.0305   -0.0056   -0.0119    0.0032   -0.0081
          28    0.0067    0.0021   -0.0084    0.0165    0.0032    0.0096   -0.0039   -0.0032
          29   -0.0119   -0.0260    0.0087   -0.0314    0.0064   -0.0104    0.0016    0.0057
          30    0.0141    0.0158    0.0000    0.0275   -0.0049    0.0083   -0.0079   -0.0078
          31    0.0003   -0.0001    0.0009   -0.0249    0.0223   -0.0106   -0.0190   -0.0278
          32   -0.0278   -0.0067   -0.0610   -0.0016    0.0023    0.0568   -0.0283   -0.0009
          33   -0.0013   -0.0004   -0.0021   -0.0295   -0.0428   -0.0103   -0.0248    0.0159
          34    0.0002   -0.0001    0.0013   -0.0313    0.0221    0.0164    0.0296    0.0088
          35   -0.0242    0.0597   -0.0145   -0.0008   -0.0024   -0.0559    0.0314   -0.0007
          36   -0.0014    0.0028   -0.0006   -0.0046    0.0516   -0.0151   -0.0208    0.0156
          37    0.0004    0.0293    0.0271   -0.0112    0.0713   -0.0529    0.0331   -0.0071
          38   -0.0254    0.0194    0.0039   -0.0121    0.0042    0.0046   -0.0232    0.0337
          39    0.0015    0.0093   -0.0399   -0.0064   -0.0006    0.0041    0.0345   -0.0038
          40   -0.0002   -0.0295   -0.0258   -0.0136    0.0717    0.0570   -0.0252   -0.0074
          41   -0.0249    0.0203   -0.0005    0.0123   -0.0040    0.0200    0.0069   -0.0334
          42   -0.0040   -0.0074    0.0407   -0.0013   -0.0012    0.0293    0.0226   -0.0071
          43   -0.0136   -0.0084   -0.0101   -0.0370   -0.0339    0.0125   -0.0349   -0.0003
          44    0.0602    0.0266    0.0021    0.0018   -0.0006   -0.0223    0.0129    0.0009
          45   -0.0470   -0.0148   -0.0049   -0.0171    0.0319    0.0318   -0.0181   -0.0225
          46    0.0130    0.0082    0.0121   -0.0357   -0.0340   -0.0368   -0.0088    0.0000
          47    0.0555    0.0251    0.0016    0.0002   -0.0022   -0.0200    0.0097    0.0013
          48    0.0537    0.0170    0.0066   -0.0167    0.0315   -0.0351    0.0171   -0.0223
          49   -0.0007    0.0000    0.0011   -0.0486   -0.0909   -0.0216   -0.0390    0.0325
          50    0.0954    0.0323   -0.0068    0.0011    0.0017   -0.0244    0.0143   -0.0008
          51    0.0045    0.0014    0.0005   -0.0311   -0.0381   -0.0131   -0.0209    0.0177
          52    0.0006    0.0002   -0.0005    0.0152   -0.1067    0.0195    0.0346   -0.0301
          53    0.0565   -0.0444   -0.0410   -0.0016   -0.0018    0.0108   -0.0045   -0.0009
          54    0.0024   -0.0021   -0.0019   -0.0032    0.0462   -0.0111   -0.0210    0.0189
          55    0.0124   -0.0252   -0.0100   -0.0054   -0.0413    0.0294    0.0163   -0.0090
          56    0.0390   -0.0410   -0.0282   -0.0021    0.0005    0.0128   -0.0050   -0.0002
          57   -0.0300    0.0330    0.0225    0.0220   -0.0330   -0.0227    0.0001   -0.0062
          58   -0.0117    0.0254    0.0106   -0.0045   -0.0410   -0.0020    0.0328   -0.0089
          59    0.0359   -0.0376   -0.0259   -0.0022    0.0025    0.0101   -0.0058    0.0007
          60    0.0336   -0.0364   -0.0269    0.0200   -0.0324    0.0135   -0.0193   -0.0061
          61   -0.0147   -0.0137   -0.0110    0.0383   -0.0033   -0.0315    0.0022    0.0122
          62    0.0253   -0.0202    0.0761    0.0133   -0.0059    0.0279    0.0357   -0.0193
          63   -0.0423    0.0358   -0.0110    0.0032   -0.0036   -0.0077   -0.0075   -0.0392
          64    0.0144    0.0140    0.0081    0.0393   -0.0032    0.0190   -0.0247    0.0120
          65    0.0232   -0.0162    0.0756   -0.0058    0.0056   -0.0155   -0.0419    0.0229
          66    0.0458   -0.0371    0.0183    0.0044   -0.0033   -0.0038   -0.0147   -0.0372
          67   -0.0057   -0.0197    0.0018    0.0374   -0.0009   -0.0259    0.0106    0.0253
          68   -0.0410   -0.0200   -0.0667    0.0591   -0.0109   -0.0809   -0.0364   -0.0201
          69    0.0029   -0.0678    0.0187    0.0709   -0.0145   -0.0233    0.0369    0.0760
          70   -0.0050    0.0407    0.0345   -0.0329    0.0143    0.0416    0.0030   -0.0769
          71    0.0099   -0.0497    0.0643    0.0253   -0.0067    0.0501    0.0633    0.0735
          72   -0.0318    0.0035   -0.0472    0.0333   -0.0049   -0.0569   -0.0421   -0.0743
          73    0.0053    0.0197   -0.0044    0.0370   -0.0007    0.0232   -0.0156    0.0252
          74   -0.0416   -0.0269   -0.0594   -0.0716    0.0124   -0.0166    0.0858    0.0130
          75   -0.0076    0.0655   -0.0295    0.0620   -0.0130    0.0433    0.0089    0.0776
          76    0.0042   -0.0407   -0.0323   -0.0360    0.0143   -0.0200    0.0366   -0.0765
          77    0.0073   -0.0492    0.0604   -0.0226    0.0068   -0.0270   -0.0683   -0.0662
          78    0.0331   -0.0083    0.0500    0.0355   -0.0044   -0.0083   -0.0761   -0.0814


   Root No.      17        18        19        20        21        22        23        24

                17 A      18 A      19 A      20 A      21 A      22 A      23 A      24 A   

                 667.0     694.1     886.6     907.2     916.6     923.9     936.3     945.6
  
           1    0.0001    0.0325    0.0000    0.0082   -0.0003   -0.0117    0.0000    0.0007
           2    0.0140    0.0007   -0.0181    0.0005    0.0170   -0.0006    0.0003    0.0000
           3    0.0007   -0.0161   -0.0009   -0.0081    0.0011    0.0082    0.0000   -0.0002
           4   -0.0002   -0.0321    0.0000   -0.0080   -0.0001   -0.0098   -0.0001    0.0060
           5    0.0242    0.0007   -0.0154    0.0002   -0.0209    0.0007   -0.0077   -0.0003
           6    0.0011   -0.0160   -0.0007   -0.0081   -0.0011   -0.0072   -0.0004    0.0038
           7   -0.0013    0.0003    0.0009    0.0002   -0.0263    0.0197   -0.0072   -0.0074
           8    0.0061    0.0218    0.0150   -0.0090    0.0025   -0.0013    0.0058    0.0070
           9   -0.0156   -0.0180   -0.0202    0.0161    0.0014   -0.0037   -0.0077   -0.0113
          10    0.0013    0.0003   -0.0008    0.0006    0.0270    0.0188    0.0075   -0.0072
          11    0.0044   -0.0200    0.0130    0.0075    0.0026    0.0016    0.0052   -0.0057
          12    0.0158   -0.0200    0.0216    0.0168   -0.0016   -0.0036    0.0085   -0.0117
          13    0.0001    0.0218    0.0000    0.0111   -0.0004   -0.0163    0.0000   -0.0024
          14    0.0035   -0.0008   -0.0149    0.0002    0.0164   -0.0004   -0.0032   -0.0002
          15    0.0003    0.0159   -0.0007   -0.0015    0.0008    0.0023   -0.0002    0.0021
          16   -0.0002   -0.0222    0.0000   -0.0118   -0.0002   -0.0157   -0.0003    0.0167
          17    0.0052   -0.0008   -0.0137   -0.0001   -0.0203    0.0004   -0.0157   -0.0005
          18    0.0004    0.0157   -0.0007   -0.0010   -0.0010   -0.0003   -0.0008    0.0066
          19    0.0092    0.0001   -0.0019    0.0017   -0.0026    0.0029    0.0023    0.0022
          20   -0.0355   -0.0115    0.0084   -0.0093    0.0055   -0.0058   -0.0146   -0.0114
          21    0.0100    0.0137    0.0052    0.0001   -0.0032    0.0035    0.0135    0.0115
          22   -0.0089    0.0000    0.0020    0.0018    0.0026    0.0028   -0.0024    0.0022
          23   -0.0342    0.0104    0.0089    0.0093    0.0052    0.0053   -0.0136    0.0099
          24   -0.0134    0.0148   -0.0043    0.0010    0.0039    0.0039   -0.0152    0.0122
          25   -0.0015   -0.0001   -0.0011    0.0014    0.0024   -0.0037    0.0009    0.0006
          26   -0.0033    0.0013    0.0077   -0.0057   -0.0028    0.0037   -0.0035   -0.0019
          27   -0.0058    0.0000    0.0106   -0.0079   -0.0060    0.0077    0.0056    0.0071
          28    0.0015   -0.0001    0.0010    0.0014   -0.0026   -0.0036   -0.0009    0.0005
          29   -0.0039   -0.0013    0.0086    0.0063   -0.0037   -0.0043   -0.0029    0.0011
          30    0.0056   -0.0002   -0.0098   -0.0072    0.0061    0.0071   -0.0061    0.0071
          31    0.0002    0.0576    0.0000   -0.0184    0.0006    0.0184   -0.0002    0.0214
          32    0.0360   -0.0002   -0.0095    0.0011   -0.0070   -0.0011    0.0206   -0.0003
          33    0.0018    0.0001   -0.0005   -0.0230    0.0004    0.0245    0.0009    0.0117
          34   -0.0003   -0.0576    0.0001    0.0214    0.0001    0.0104    0.0007   -0.0442
          35    0.0522   -0.0001   -0.0107    0.0012   -0.0056    0.0010    0.0320   -0.0013
          36    0.0025    0.0004   -0.0006   -0.0241   -0.0004   -0.0175    0.0010    0.0321
          37    0.0109   -0.0005   -0.0015    0.0002    0.0560    0.0580    0.0245   -0.0343
          38    0.0322   -0.0554    0.0021   -0.0127    0.0013    0.0023    0.0308   -0.0246
          39    0.0007   -0.0008    0.0261    0.0271   -0.0011   -0.0041   -0.0060   -0.0010
          40   -0.0110   -0.0006    0.0017   -0.0007   -0.0536    0.0599   -0.0234   -0.0349
          41    0.0324    0.0550    0.0045    0.0103    0.0009   -0.0021    0.0294    0.0253
          42    0.0022    0.0044   -0.0258    0.0284    0.0005   -0.0043    0.0088    0.0015
          43    0.0076    0.0246   -0.0528    0.0123    0.0479   -0.0187   -0.0128   -0.0022
          44   -0.0021   -0.0033    0.0269   -0.0026   -0.0215    0.0035    0.0071    0.0005
          45    0.0084    0.0432   -0.0627    0.0477    0.0545   -0.0595   -0.0149   -0.0156
          46   -0.0074    0.0246    0.0529    0.0115   -0.0490   -0.0172    0.0127   -0.0017
          47   -0.0013   -0.0008    0.0209   -0.0022   -0.0161    0.0025    0.0056    0.0011
          48   -0.0083    0.0434    0.0650    0.0467   -0.0597   -0.0577    0.0157   -0.0150
          49    0.0001   -0.0091   -0.0001   -0.0526    0.0019    0.0647   -0.0002    0.0225
          50   -0.0007    0.0001    0.0280    0.0014   -0.0224   -0.0018    0.0079   -0.0006
          51    0.0001   -0.0004    0.0012   -0.0342    0.0003    0.0446    0.0003    0.0148
          52   -0.0001    0.0080    0.0003    0.0532    0.0006    0.0493    0.0013   -0.0863
          53   -0.0054    0.0000    0.0254    0.0018    0.0270    0.0011    0.0247   -0.0025
          54   -0.0002    0.0001    0.0010   -0.0338    0.0008   -0.0337    0.0002    0.0592
          55   -0.0156   -0.0252    0.0491   -0.0128    0.0603   -0.0195    0.0492    0.0186
          56   -0.0066   -0.0033    0.0247   -0.0024    0.0266   -0.0039    0.0231    0.0034
          57    0.0185    0.0427   -0.0573    0.0481   -0.0683    0.0513   -0.0555   -0.0688
          58    0.0153   -0.0253   -0.0492   -0.0137   -0.0608   -0.0174   -0.0498    0.0174
          59   -0.0048   -0.0007    0.0192   -0.0018    0.0199   -0.0017    0.0176    0.0035
          60   -0.0186    0.0429    0.0598    0.0492    0.0718    0.0489    0.0595   -0.0673
          61    0.0043   -0.0019    0.0019   -0.0076    0.0186   -0.0175   -0.0136   -0.0098
          62   -0.0059   -0.0001   -0.0456    0.0687   -0.0107    0.0113    0.1160    0.0882
          63   -0.0158    0.0030    0.0411   -0.0613    0.0572   -0.0552   -0.0904   -0.0677
          64   -0.0042   -0.0020   -0.0019   -0.0077   -0.0191   -0.0168    0.0136   -0.0093
          65   -0.0070   -0.0003   -0.0414   -0.0623   -0.0040   -0.0058    0.1093   -0.0787
          66    0.0153    0.0029   -0.0455   -0.0684   -0.0589   -0.0541    0.1035   -0.0735
          67    0.0190    0.0036   -0.0159    0.0102    0.0226   -0.0267   -0.0115   -0.0129
          68   -0.0676   -0.0520   -0.0585    0.0645    0.0001   -0.0043    0.0782    0.0572
          69    0.0791    0.0346   -0.0001   -0.0159    0.0480   -0.0517   -0.0659   -0.0565
          70   -0.0458   -0.0023    0.0553   -0.0424   -0.0451    0.0498    0.0036    0.0128
          71    0.1257    0.0788    0.0397   -0.0349   -0.0057    0.0108    0.0102    0.0177
          72   -0.1123   -0.0632   -0.0136    0.0144   -0.0044    0.0028   -0.0052   -0.0083
          73   -0.0188    0.0036    0.0159    0.0099   -0.0237   -0.0259    0.0116   -0.0125
          74   -0.0597    0.0490   -0.0582   -0.0624    0.0063    0.0091    0.0731   -0.0497
          75   -0.0851    0.0400   -0.0057   -0.0227   -0.0494   -0.0496    0.0749   -0.0600
          76    0.0451   -0.0023   -0.0552   -0.0415    0.0480    0.0485   -0.0040    0.0129
          77    0.1140   -0.0732    0.0384    0.0333   -0.0073   -0.0111    0.0100   -0.0164
          78    0.1236   -0.0713    0.0174    0.0178    0.0035    0.0015    0.0063   -0.0096


   Root No.      25        26        27        28        29        30        31        32

                25 A      26 A      27 A      28 A      29 A      30 A      31 A      32 A   

                 971.9     981.9    1023.2    1026.7    1061.7    1076.2    1085.8    1086.4
  
           1    0.0000    0.0020   -0.0003    0.0000   -0.0001   -0.0194   -0.0003    0.0156
           2   -0.0021    0.0002   -0.0001   -0.0003    0.0177    0.0002   -0.0002    0.0002
           3   -0.0001   -0.0044    0.0011    0.0000    0.0008   -0.0051    0.0000   -0.0029
           4    0.0000   -0.0017    0.0026    0.0000   -0.0001   -0.0167   -0.0004    0.0202
           5   -0.0015   -0.0001   -0.0004   -0.0063   -0.0216   -0.0006    0.0206   -0.0006
           6   -0.0001    0.0013    0.0092   -0.0004   -0.0011    0.0128    0.0007    0.0175
           7    0.0058    0.0020   -0.0041   -0.0020   -0.0217   -0.0105    0.0065   -0.0122
           8    0.0139    0.0120    0.0027    0.0016   -0.0106   -0.0005   -0.0244    0.0003
           9    0.0089    0.0037   -0.0021    0.0012   -0.0091   -0.0085    0.0077   -0.0127
          10   -0.0058    0.0019   -0.0042    0.0021    0.0218   -0.0105   -0.0063   -0.0122
          11    0.0149   -0.0121   -0.0025    0.0017   -0.0115    0.0015   -0.0236    0.0004
          12   -0.0076    0.0024   -0.0024   -0.0010    0.0082   -0.0084   -0.0097   -0.0129
          13    0.0001   -0.0165    0.0022    0.0000    0.0000    0.0167    0.0001   -0.0049
          14   -0.0217   -0.0006    0.0001    0.0003   -0.0087   -0.0005   -0.0022    0.0001
          15   -0.0011    0.0086   -0.0014    0.0000   -0.0004    0.0106    0.0001   -0.0047
          16    0.0000    0.0039   -0.0025    0.0000    0.0000    0.0121    0.0002   -0.0109
          17   -0.0027    0.0001    0.0005    0.0058    0.0142    0.0008   -0.0129    0.0003
          18   -0.0001   -0.0028   -0.0100    0.0004    0.0007   -0.0179   -0.0005   -0.0082
          19   -0.0071   -0.0085   -0.0056   -0.0059   -0.0031   -0.0010   -0.0067   -0.0031
          20    0.0023    0.0043    0.0146    0.0173   -0.0020   -0.0064    0.0071   -0.0074
          21    0.0011    0.0045   -0.0047   -0.0075    0.0092    0.0101    0.0037    0.0140
          22    0.0073   -0.0084   -0.0054    0.0059    0.0031   -0.0011    0.0069   -0.0030
          23    0.0024   -0.0046   -0.0137    0.0168   -0.0012    0.0053    0.0072    0.0061
          24   -0.0010    0.0041   -0.0060    0.0093   -0.0094    0.0107   -0.0034    0.0145
          25    0.0058    0.0065    0.0058    0.0059   -0.0015    0.0011    0.0025   -0.0003
          26   -0.0102   -0.0090   -0.0265   -0.0286    0.0065    0.0075   -0.0008    0.0080
          27   -0.0192   -0.0160    0.0185    0.0192    0.0012   -0.0025   -0.0004   -0.0032
          28   -0.0059    0.0064    0.0057   -0.0059    0.0015    0.0011   -0.0025   -0.0003
          29   -0.0121    0.0102    0.0242   -0.0272    0.0067   -0.0072   -0.0007   -0.0077
          30    0.0185   -0.0148    0.0205   -0.0222   -0.0005   -0.0031    0.0005   -0.0039
          31   -0.0005    0.0501    0.0000   -0.0001   -0.0004   -0.0451   -0.0017    0.0836
          32    0.0068   -0.0012   -0.0004   -0.0152    0.1650    0.0005    0.0937   -0.0005
          33    0.0001    0.0238    0.0012   -0.0008    0.0076   -0.0197    0.0036    0.0371
          34    0.0000    0.0014    0.0204   -0.0003   -0.0003   -0.0608   -0.0008    0.0602
          35   -0.0384   -0.0003    0.0000   -0.0239   -0.0419   -0.0024    0.2556    0.0030
          36   -0.0018   -0.0009   -0.0021   -0.0011   -0.0019    0.0370    0.0121   -0.0069
          37   -0.0452    0.0502    0.0242   -0.0272    0.0155    0.1428   -0.0904   -0.0588
          38    0.0497   -0.0522    0.0482   -0.0446   -0.0555    0.0557   -0.0487    0.0780
          39   -0.0270    0.0246   -0.0300    0.0243    0.0322   -0.0381    0.0042   -0.0552
          40    0.0445    0.0509    0.0247    0.0269   -0.0148    0.1426    0.0931   -0.0567
          41    0.0462    0.0504   -0.0463   -0.0415   -0.0520   -0.0516   -0.0459   -0.0742
          42    0.0312    0.0299   -0.0352   -0.0279   -0.0372   -0.0433   -0.0069   -0.0630
          43   -0.0631   -0.0171    0.0023    0.0008   -0.0311    0.0235   -0.0060   -0.0058
          44    0.0281    0.0028   -0.0002   -0.0004    0.0169   -0.0060    0.0027    0.0019
          45   -0.0707   -0.0632    0.0061    0.0006   -0.0370    0.0461   -0.0053   -0.0250
          46    0.0634   -0.0161    0.0020   -0.0008    0.0312    0.0233    0.0064   -0.0053
          47    0.0213    0.0035   -0.0005   -0.0004    0.0133    0.0015    0.0022    0.0007
          48    0.0742   -0.0619    0.0058   -0.0006    0.0387    0.0462    0.0066   -0.0246
          49   -0.0008    0.0843   -0.0097    0.0000    0.0000   -0.0056    0.0000    0.0101
          50    0.0293   -0.0027    0.0003   -0.0010    0.0219   -0.0001    0.0053    0.0001
          51    0.0008    0.0613   -0.0079    0.0000    0.0010    0.0002    0.0004    0.0014
          52    0.0000    0.0028    0.0455   -0.0004   -0.0001    0.0261   -0.0011    0.0609
          53    0.0019    0.0001    0.0016   -0.0089   -0.0215    0.0013    0.0273    0.0023
          54    0.0001   -0.0023   -0.0351   -0.0001   -0.0010   -0.0275    0.0021   -0.0449
          55    0.0072    0.0056   -0.0002   -0.0174   -0.0419    0.0202    0.0414   -0.0092
          56    0.0028    0.0013    0.0009   -0.0079   -0.0191    0.0065    0.0205   -0.0005
          57   -0.0075   -0.0068    0.0167    0.0179    0.0459   -0.0345   -0.0495    0.0397
          58   -0.0074    0.0055    0.0001    0.0173    0.0420    0.0202   -0.0410   -0.0099
          59    0.0021   -0.0006   -0.0026   -0.0061   -0.0147   -0.0032    0.0158   -0.0031
          60    0.0079   -0.0068    0.0162   -0.0188   -0.0477   -0.0349    0.0495    0.0403
          61    0.0060    0.0088    0.0119    0.0111    0.0274    0.0086    0.0083    0.0179
          62    0.0197    0.0301   -0.0088   -0.0203    0.0643    0.0436    0.0071    0.0687
          63    0.0248    0.0336    0.0491    0.0525    0.0498    0.0071    0.0394    0.0259
          64   -0.0061    0.0086    0.0118   -0.0114   -0.0275    0.0088   -0.0087    0.0176
          65    0.0230   -0.0332    0.0035   -0.0150    0.0691   -0.0442    0.0127   -0.0701
          66   -0.0229    0.0301    0.0489   -0.0552   -0.0435    0.0033   -0.0391    0.0183
          67    0.0421    0.0398   -0.0010   -0.0017    0.0004    0.0067    0.0119    0.0068
          68    0.0363    0.0372    0.1029    0.1069   -0.0054   -0.0106    0.0062   -0.0113
          69    0.0586    0.0537   -0.0596   -0.0632    0.0126    0.0203    0.0189    0.0245
          70   -0.0968   -0.0841   -0.0314   -0.0353    0.0106    0.0095    0.0062    0.0071
          71   -0.0347   -0.0269    0.1003    0.1041   -0.0068   -0.0145   -0.0019   -0.0164
          72   -0.0023   -0.0036   -0.0854   -0.0898    0.0138    0.0166    0.0017    0.0182
          73   -0.0426    0.0391   -0.0007    0.0014   -0.0004    0.0066   -0.0121    0.0064
          74    0.0423   -0.0416   -0.0951    0.1025   -0.0043    0.0085    0.0078    0.0090
          75   -0.0558    0.0492   -0.0677    0.0744   -0.0132    0.0212   -0.0189    0.0249
          76    0.0981   -0.0826   -0.0310    0.0360   -0.0108    0.0097   -0.0064    0.0072
          77   -0.0355    0.0269   -0.0900    0.0968   -0.0056    0.0128   -0.0022    0.0145
          78   -0.0012   -0.0009   -0.0929    0.1012   -0.0146    0.0180   -0.0023    0.0196


   Root No.      33        34        35        36        37        38        39        40

                33 A      34 A      35 A      36 A      37 A      38 A      39 A      40 A   

                1102.6    1132.7    1153.0    1159.1    1176.8    1180.5    1194.0    1201.0
  
           1    0.0000   -0.0040    0.0000   -0.0131   -0.0015    0.0000   -0.0287    0.0000
           2    0.0182   -0.0021    0.0031    0.0000   -0.0002    0.0629   -0.0018   -0.0047
           3    0.0008    0.0459    0.0003    0.0007    0.0058    0.0029    0.0370   -0.0002
           4    0.0000   -0.0141    0.0000    0.0018   -0.0057    0.0000    0.0262    0.0001
           5    0.0057    0.0010   -0.0306    0.0014   -0.0003   -0.0048   -0.0018    0.0574
           6    0.0003   -0.0180   -0.0014   -0.0341    0.0039   -0.0002    0.0383    0.0026
           7    0.0037    0.0271   -0.0296   -0.0021   -0.0180   -0.0241   -0.0009   -0.0181
           8   -0.0133    0.0109   -0.0041    0.0007   -0.0137    0.0014    0.0316   -0.0042
           9    0.0166   -0.0008   -0.0068   -0.0094    0.0066    0.0168   -0.0244    0.0111
          10   -0.0038    0.0269    0.0296   -0.0021   -0.0182    0.0241   -0.0009    0.0181
          11   -0.0116   -0.0108   -0.0047    0.0003    0.0130    0.0029   -0.0291   -0.0030
          12   -0.0179   -0.0020    0.0063   -0.0093    0.0079   -0.0165   -0.0273   -0.0115
          13    0.0000   -0.0043    0.0000    0.0061    0.0035    0.0000    0.0070    0.0000
          14   -0.0123    0.0017    0.0009   -0.0002    0.0010   -0.0201    0.0006    0.0008
          15   -0.0005   -0.0376   -0.0001    0.0035   -0.0211   -0.0009   -0.0122    0.0000
          16    0.0000    0.0011    0.0000   -0.0016    0.0048    0.0000   -0.0057    0.0000
          17   -0.0051   -0.0004    0.0097   -0.0019    0.0001   -0.0012    0.0006   -0.0181
          18   -0.0002    0.0068    0.0004    0.0419   -0.0015   -0.0001   -0.0118   -0.0008
          19    0.0064   -0.0091    0.0076   -0.0036    0.0092    0.0079    0.0018    0.0128
          20    0.0051    0.0026   -0.0016    0.0001   -0.0044   -0.0062   -0.0043   -0.0097
          21   -0.0186    0.0149   -0.0157    0.0040   -0.0167   -0.0025    0.0006   -0.0139
          22   -0.0064   -0.0092   -0.0077   -0.0036    0.0093   -0.0078    0.0018   -0.0128
          23    0.0033   -0.0040   -0.0030   -0.0005    0.0061   -0.0064    0.0043   -0.0109
          24    0.0190    0.0145    0.0154    0.0039   -0.0163    0.0018    0.0009    0.0128
          25   -0.0041    0.0046   -0.0062   -0.0016   -0.0090    0.0015   -0.0010   -0.0076
          26   -0.0054   -0.0038    0.0029    0.0009    0.0015    0.0017    0.0009    0.0020
          27    0.0061   -0.0093    0.0078    0.0005    0.0065    0.0001   -0.0018    0.0048
          28    0.0041    0.0047    0.0062   -0.0016   -0.0090   -0.0015   -0.0011    0.0075
          29   -0.0048    0.0047    0.0037   -0.0009   -0.0022    0.0017   -0.0007    0.0024
          30   -0.0066   -0.0089   -0.0074    0.0004    0.0063    0.0001   -0.0019   -0.0045
          31   -0.0001    0.0508    0.0006   -0.0378    0.2141   -0.0002   -0.0937    0.0002
          32    0.1307   -0.0034   -0.0471    0.0002   -0.0065   -0.1440    0.0002    0.0755
          33    0.0061    0.0774   -0.0017   -0.0144    0.1379   -0.0070   -0.0012    0.0038
          34    0.0003   -0.0714   -0.0001    0.2322    0.0187    0.0000    0.1069    0.0003
[...]
 RED. MASS   0.4087        C  2 --  C  6           +4.8% ( 19.1%)     0.2%
 EFF. MASS   1.5970

 VIBRATION   52   52A       ATOM PAIR        ENERGY CONTRIBUTION    RADIAL
 FREQ.      1410.14        C  5 --  H 17          +52.3% ( 62.9%)     0.0%
 T-DIPOLE    0.0542        C  5 --  H 16          +20.3% ( 39.2%)    10.9%
 TRAVEL      0.1733        C  5 --  H 15          +19.7% ( 38.6%)    11.4%
 RED. MASS   0.4088        C  1 --  C  5           +4.8% ( 19.0%)     0.0%
 EFF. MASS   1.5919

 VIBRATION   53   53A       ATOM PAIR        ENERGY CONTRIBUTION    RADIAL
 FREQ.      1420.63        C  1 --  C  5          +11.7% ( 48.1%)    99.5%
 T-DIPOLE    0.0595        C  2 --  C  6          +10.7% ( 46.1%)    99.5%
 TRAVEL      0.0868        C  5 --  H 17          +10.1% ( 44.7%)     4.2%
 RED. MASS   0.8249        C  6 --  H 18           +8.7% ( 41.5%)     4.4%
 EFF. MASS   6.2984

 VIBRATION   54   54A       ATOM PAIR        ENERGY CONTRIBUTION    RADIAL
 FREQ.      1486.91        C  3 --  C  4           +8.7% ( 51.1%)   100.0%
 T-DIPOLE    0.1316        C  2 --  C  4           +8.1% ( 49.2%)    55.6%
 TRAVEL      0.0658        C  2 --  C  3           +8.1% ( 49.2%)    55.6%
 RED. MASS   1.5295        C  1 --  C  3           +7.9% ( 48.9%)    52.4%
 EFF. MASS  10.4698

 VIBRATION   55   55A       ATOM PAIR        ENERGY CONTRIBUTION    RADIAL
 FREQ.      1860.76        C  7 --  C  9          +23.8% ( 72.2%)    98.8%
 T-DIPOLE    0.2402        C  8 --  C 10          +21.2% ( 68.1%)    98.8%
 TRAVEL      0.0554        C  3 --  C  7           +9.0% ( 44.3%)    56.8%
 RED. MASS   2.6702        C  7 --  H 21           +8.2% ( 42.4%)     3.7%
 EFF. MASS  11.8216

 VIBRATION   56   56A       ATOM PAIR        ENERGY CONTRIBUTION    RADIAL
 FREQ.      1862.30        C  8 --  C 10          +23.6% ( 71.9%)    98.7%
 T-DIPOLE    0.2853        C  7 --  C  9          +21.0% ( 67.8%)    98.7%
 TRAVEL      0.0553        C  4 --  C  8           +9.1% ( 44.6%)    58.2%
 RED. MASS   2.6467        C  8 --  H 22           +8.2% ( 42.3%)     3.6%
 EFF. MASS  11.8240

 VIBRATION   57   57A       ATOM PAIR        ENERGY CONTRIBUTION    RADIAL
 FREQ.      2920.17        C  3 --  H 14          +40.4% ( 65.1%)   100.0%
 T-DIPOLE    0.1085        C  4 --  H 13          +40.1% ( 64.9%)   100.0%
 TRAVEL      0.1258        C  2 --  H 12           +9.6% ( 31.7%)   100.0%
 RED. MASS   0.3432        C  1 --  H 11           +5.4% ( 23.9%)   100.0%
 EFF. MASS   1.4599

 VIBRATION   58   58A       ATOM PAIR        ENERGY CONTRIBUTION    RADIAL
 FREQ.      2921.19        C  4 --  H 13          +48.2% ( 70.8%)   100.0%
 T-DIPOLE    0.0746        C  3 --  H 14          +47.9% ( 70.6%)   100.0%
 TRAVEL      0.1272        C  3 --  C  4           +0.9% (  9.8%)     0.0%
 RED. MASS   0.4649        C  4 --  C  8           +0.5% (  7.2%)     9.8%
 EFF. MASS   1.4257

 VIBRATION   59   59A       ATOM PAIR        ENERGY CONTRIBUTION    RADIAL
 FREQ.      2934.49        C  2 --  H 12          +73.1% ( 87.3%)   100.0%
 T-DIPOLE    0.1301        C  1 --  H 11          +19.4% ( 45.0%)   100.0%
 TRAVEL      0.1266        C  4 --  H 13           +1.6% ( 13.0%)    99.6%
 RED. MASS   0.5795        C  3 --  H 14           +1.6% ( 12.9%)    99.6%
 EFF. MASS   1.4338

 VIBRATION   60   60A       ATOM PAIR        ENERGY CONTRIBUTION    RADIAL
 FREQ.      2940.94        C  1 --  H 11          +71.0% ( 85.9%)   100.0%
 T-DIPOLE    0.1778        C  2 --  H 12          +13.0% ( 36.8%)   100.0%
 TRAVEL      0.1259        C  4 --  H 13           +5.8% ( 24.6%)    99.9%
 RED. MASS   0.5332        C  3 --  H 14           +5.8% ( 24.6%)    99.9%
 EFF. MASS   1.4466

 VIBRATION   61   61A       ATOM PAIR        ENERGY CONTRIBUTION    RADIAL
 FREQ.      3037.46        C  7 --  H 21          +92.6% ( 97.6%)   100.0%
 T-DIPOLE    0.1880        C  8 --  H 22           +3.7% ( 19.6%)   100.0%
 TRAVEL      0.1214        C  7 --  C  9           +1.4% ( 11.9%)    30.9%
 RED. MASS   0.8463        C  3 --  C  7           +1.3% ( 11.6%)    14.0%
 EFF. MASS   1.5053

 VIBRATION   62   62A       ATOM PAIR        ENERGY CONTRIBUTION    RADIAL
 FREQ.      3037.78        C  8 --  H 22          +92.6% ( 97.6%)   100.0%
 T-DIPOLE    0.2824        C  7 --  H 21           +3.7% ( 19.6%)   100.0%
 TRAVEL      0.1214        C  8 --  C 10           +1.4% ( 11.9%)    30.9%
 RED. MASS   0.8461        C  4 --  C  8           +1.3% ( 11.6%)    14.0%
 EFF. MASS   1.5053

 VIBRATION   63   63A       ATOM PAIR        ENERGY CONTRIBUTION    RADIAL
 FREQ.      3073.33        C  6 --  H 18          +34.8% ( 60.9%)    99.0%
 T-DIPOLE    0.0128        C  5 --  H 17          +33.4% ( 59.6%)    99.1%
 TRAVEL      0.1207        C  6 --  H 19           +8.3% ( 29.7%)    83.7%
 RED. MASS   0.2705        C  6 --  H 20           +8.1% ( 29.4%)    83.3%
 EFF. MASS   1.5050

 VIBRATION   64   64A       ATOM PAIR        ENERGY CONTRIBUTION    RADIAL
 FREQ.      3074.56        C  5 --  H 17          +35.5% ( 61.5%)    99.0%
 T-DIPOLE    0.0147        C  6 --  H 18          +32.0% ( 58.4%)    99.0%
 TRAVEL      0.1207        C  5 --  H 15           +7.9% ( 29.0%)    83.1%
 RED. MASS   0.2677        C  6 --  H 19           +7.9% ( 28.9%)    84.0%
 EFF. MASS   1.5045

 VIBRATION   65   65A       ATOM PAIR        ENERGY CONTRIBUTION    RADIAL
 FREQ.      3080.76        C  6 --  H 20          +49.2% ( 72.3%)    97.1%
 T-DIPOLE    0.0206        C  6 --  H 19          +48.8% ( 72.0%)    97.0%
 TRAVEL      0.1204        C  2 --  C  6           +1.0% ( 10.4%)     0.0%
 RED. MASS   0.5097        C  6 --  H 18           +1.0% ( 10.2%)     0.0%
 EFF. MASS   1.5091

 VIBRATION   66   66A       ATOM PAIR        ENERGY CONTRIBUTION    RADIAL
 FREQ.      3084.08        C  5 --  H 16          +49.1% ( 72.3%)    97.1%
 T-DIPOLE    0.0192        C  5 --  H 15          +48.9% ( 72.1%)    97.0%
 TRAVEL      0.1204        C  1 --  C  5           +1.0% ( 10.4%)     0.0%
 RED. MASS   0.5102        C  5 --  H 17           +1.0% ( 10.1%)     0.0%
 EFF. MASS   1.5081

 VIBRATION   67   67A       ATOM PAIR        ENERGY CONTRIBUTION    RADIAL
 FREQ.      3130.83        C  9 --  H 23          +95.8% ( 99.3%)   100.0%
 T-DIPOLE    0.1885        C  9 --  H 24           +2.2% ( 15.1%)    40.9%
 TRAVEL      0.1194        C  7 --  C  9           +1.4% ( 11.8%)    33.9%
 RED. MASS   0.9067        C 10 --  H 25           +0.5% (  7.3%)   100.0%
 EFF. MASS   1.5118

 VIBRATION   68   68A       ATOM PAIR        ENERGY CONTRIBUTION    RADIAL
 FREQ.      3131.17        C 10 --  H 25          +95.7% ( 99.3%)   100.0%
 T-DIPOLE    0.2177        C 10 --  H 26           +2.3% ( 15.3%)    42.0%
 TRAVEL      0.1193        C  8 --  C 10           +1.4% ( 11.8%)    33.6%
 RED. MASS   0.9058        C  9 --  H 23           +0.5% (  7.3%)   100.0%
 EFF. MASS   1.5124

 VIBRATION   69   69A       ATOM PAIR        ENERGY CONTRIBUTION    RADIAL
 FREQ.      3148.11        C  9 --  H 24          +82.3% ( 91.6%)    99.9%
 T-DIPOLE    0.2445        C 10 --  H 26          +13.6% ( 37.3%)    99.9%
 TRAVEL      0.1198        C  9 --  H 23           +1.5% ( 12.5%)     1.2%
 RED. MASS   0.6774        C  7 --  C  9           +1.3% ( 11.6%)    59.2%
 EFF. MASS   1.4917

 VIBRATION   70   70A       ATOM PAIR        ENERGY CONTRIBUTION    RADIAL
 FREQ.      3148.23        C 10 --  H 26          +82.2% ( 91.6%)    99.9%
 T-DIPOLE    0.2526        C  9 --  H 24          +13.6% ( 37.3%)    99.9%
 TRAVEL      0.1199        C 10 --  H 25           +1.6% ( 12.8%)     1.7%
 RED. MASS   0.6761        C  8 --  C 10           +1.3% ( 11.6%)    59.7%
 EFF. MASS   1.4909

 VIBRATION   71   71A       ATOM PAIR        ENERGY CONTRIBUTION    RADIAL
 FREQ.      3172.25        C  6 --  H 19          +34.2% ( 56.3%)    97.2%
 T-DIPOLE    0.0196        C  6 --  H 20          +34.1% ( 56.2%)    97.2%
 TRAVEL      0.1368        C  6 --  H 18          +30.7% ( 53.3%)    96.6%
 RED. MASS   0.3231        C  2 --  C  6           +0.3% (  5.1%)    99.7%
 EFF. MASS   1.1366

 VIBRATION   72   72A       ATOM PAIR        ENERGY CONTRIBUTION    RADIAL
 FREQ.      3175.93        C  5 --  H 15          +35.3% ( 57.2%)    97.4%
 T-DIPOLE    0.0350        C  5 --  H 16          +35.2% ( 57.2%)    97.4%
 TRAVEL      0.1366        C  5 --  H 17          +28.5% ( 51.4%)    96.2%
 RED. MASS   0.3254        C  1 --  C  5           +0.3% (  5.2%)    99.1%
 EFF. MASS   1.1372

 SYMMETRY NUMBER FOR POINT-GROUP C1  =  1


          SYSTEM IS A GROUND STATE


    NULL



          MOLECULE IS NOT LINEAR

          THERE ARE 72 GENUINE VIBRATIONS IN THIS SYSTEM
          THIS THERMODYNAMICS CALCULATION IS LIMITED TO
          MOLECULES WHICH HAVE NO INTERNAL ROTATIONS




                    CALCULATED THERMODYNAMIC PROPERTIES
                                          *
   TEMP. (K)   PARTITION FUNCTION   H.O.F.    ENTHALPY  HEAT CAPACITY ENTROPY
                                   KCAL/MOL   CAL/MOLE    CAL/K/MOL  CAL/K/MOL


 298.00  VIB.     0.1429D+04                  5295.1528    36.8671    32.2055
         ROT.     0.7542D+06                   888.2813     2.9808    29.8744
         INT.     0.1078D+10                  6183.4341    39.8479    62.0798
         TRA.     0.1537D+28                  1480.4688     4.9680    40.6375
         TOT.                       20.250    7663.9030    44.8159   102.7173

 200.00  VIB.     0.7790D+02                  2336.7131    23.8887    20.3388
         ROT.     0.4146D+06                   596.1620     2.9808    28.6857
         INT.     0.3230D+08                  2932.8750    26.8695    49.0245
         TRA.     0.8452D+27                   993.6033     4.9680    38.6564
         TOT.                       16.512    3926.4783    31.8375    87.6808

 210.00  VIB.     0.1046D+03                  2581.6205    25.0976    21.5334
         ROT.     0.4461D+06                   625.9700     2.9808    28.8311
         INT.     0.4665D+08                  3207.5905    28.0784    50.3646
         TRA.     0.9094D+27                  1043.2834     4.9680    38.8988
         TOT.                       16.837    4250.8739    33.0464    89.2633

 220.00  VIB.     0.1404D+03                  2838.7618    26.3357    22.7294
         ROT.     0.4784D+06                   655.7781     2.9808    28.9698
         INT.     0.6717D+08                  3494.5400    29.3165    51.6992
         TRA.     0.9752D+27                  1092.9636     4.9680    39.1299
         TOT.                       17.173    4587.5036    34.2845    90.8291

 230.00  VIB.     0.1887D+03                  3108.4327    27.6034    23.9280
         ROT.     0.5114D+06                   685.5862     2.9808    29.1023
         INT.     0.9648D+08                  3794.0189    30.5842    53.0303
         TRA.     0.1042D+28                  1142.6437     4.9680    39.3507
         TOT.                       17.522    4936.6627    35.5522    92.3810

 240.00  VIB.     0.2537D+03                  3390.9268    28.9001    25.1300
         ROT.     0.5451D+06                   715.3943     2.9808    29.2292
         INT.     0.1383D+09                  4106.3211    31.8809    54.3592
         TRA.     0.1111D+28                  1192.3239     4.9680    39.5621
         TOT.                       17.884    5298.6450    36.8489    93.9214

 250.00  VIB.     0.3412D+03                  3686.5256    30.2240    26.3366
         ROT.     0.5795D+06                   745.2024     2.9808    29.3508
         INT.     0.1977D+09                  4431.7281    33.2048    55.6874
         TRA.     0.1181D+28                  1242.0041     4.9680    39.7650
         TOT.                       18.259    5673.7321    38.1728    95.4524

 260.00  VIB.     0.4593D+03                  3995.4899    31.5727    27.5482
         ROT.     0.6146D+06                   775.0105     2.9808    29.4678
         INT.     0.2823D+09                  4770.5004    34.5535    57.0159
         TRA.     0.1253D+28                  1291.6842     4.9680    39.9598
         TOT.                       18.648    6062.1847    39.5216    96.9757

 270.00  VIB.     0.6186D+03                  4318.0529    32.9432    28.7654
         ROT.     0.6504D+06                   804.8186     2.9808    29.5803
         INT.     0.4023D+09                  5122.8715    35.9240    58.3456
         TRA.     0.1326D+28                  1341.3644     4.9680    40.1473
         TOT.                       19.050    6464.2359    40.8921    98.4929

 280.00  VIB.     0.8336D+03                  4654.4159    34.3321    29.9885
         ROT.     0.6869D+06                   834.6267     2.9808    29.6887
         INT.     0.5726D+09                  5489.0426    37.3130    59.6771
         TRA.     0.1400D+28                  1391.0445     4.9680    40.3280
         TOT.                       19.466    6880.0872    42.2810   100.0051

 290.00  VIB.     0.1124D+04                  5004.7452    35.7359    31.2177
         ROT.     0.7240D+06                   864.4348     2.9808    29.7933
         INT.     0.8140D+09                  5869.1800    38.7167    61.0109
         TRA.     0.1476D+28                  1440.7247     4.9680    40.5023
         TOT.                       19.896    7309.9048    43.6847   101.5133

 300.00  VIB.     0.1517D+04                  5369.1706    37.1507    32.4530
         ROT.     0.7618D+06                   894.2429     2.9808    29.8943
         INT.     0.1156D+10                  6263.4135    40.1315    62.3473
         TRA.     0.1553D+28                  1490.4049     4.9680    40.6707
         TOT.                       20.340    7753.8184    45.0996   103.0181

 310.00  VIB.     0.2049D+04                  5747.7848    38.5730    33.6944
         ROT.     0.8002D+06                   924.0510     2.9808    29.9921
         INT.     0.1640D+10                  6671.8358    41.5539    63.6864
         TRA.     0.1631D+28                  1540.0850     4.9680    40.8336
         TOT.                       20.798    8211.9209    46.5219   104.5200

 320.00  VIB.     0.2770D+04                  6140.6445    39.9992    34.9415
         ROT.     0.8392D+06                   953.8591     2.9808    30.0867
         INT.     0.2325D+10                  7094.5036    42.9801    65.0282
         TRA.     0.1711D+28                  1589.7652     4.9680    40.9914
         TOT.                       21.270    8684.2688    47.9481   106.0196

 330.00  VIB.     0.3748D+04                  6547.7713    41.4259    36.1942
         ROT.     0.8788D+06                   983.6672     2.9808    30.1784
         INT.     0.3294D+10                  7531.4385    44.4067    66.3726
         TRA.     0.1791D+28                  1639.4454     4.9680    41.1442
         TOT.                       21.757    9170.8838    49.3747   107.5168

 340.00  VIB.     0.5074D+04                  6969.1538    42.8499    37.4520
         ROT.     0.9191D+06                  1013.4753     2.9808    30.2674
         INT.     0.4663D+10                  7982.6292    45.8307    67.7194
         TRA.     0.1874D+28                  1689.1255     4.9680    41.2926
         TOT.                       22.257    9671.7547    50.7987   109.0120

 350.00  VIB.     0.6875D+04                  7404.7503    44.2682    38.7146
         ROT.     0.9599D+06                  1043.2834     2.9808    30.3538
         INT.     0.6599D+10                  8448.0337    47.2490    69.0684
         TRA.     0.1957D+28                  1738.8057     4.9680    41.4366
         TOT.                       22.773   10186.8394    52.2171   110.5050

 360.00  VIB.     0.9323D+04                  7854.4907    45.6783    39.9815
         ROT.     0.1001D+07                  1073.0915     2.9808    30.4378
         INT.     0.9335D+10                  8927.5822    48.6591    70.4193
         TRA.     0.2041D+28                  1788.4859     4.9680    41.5765
         TOT.                       23.302   10716.0680    53.6271   111.9958

 370.00  VIB.     0.1265D+05                  8318.2797    47.0776    41.2521
         ROT.     0.1043D+07                  1102.8996     2.9808    30.5194
         INT.     0.1320D+11                  9421.1793    50.0584    71.7716
         TRA.     0.2127D+28                  1838.1660     4.9680    41.7126
         TOT.                       23.845   11259.3453    55.0264   113.4842

 380.00  VIB.     0.1718D+05                  8795.9995    48.4641    42.5261
         ROT.     0.1086D+07                  1132.7077     2.9808    30.5989
         INT.     0.1866D+11                  9928.7072    51.4449    73.1250
         TRA.     0.2214D+28                  1887.8462     4.9680    41.8451
         TOT.                       24.402   11816.5534    56.4129   114.9701

 390.00  VIB.     0.2336D+05                  9287.5125    49.8359    43.8027
         ROT.     0.1129D+07                  1162.5158     2.9808    30.6764
         INT.     0.2637D+11                 10450.0283    52.8167    74.4791
         TRA.     0.2302D+28                  1937.5263     4.9680    41.9742
         TOT.                       24.973   12387.5546    57.7848   116.4532

 400.00  VIB.     0.3177D+05                  9792.6639    51.1915    45.0816
         ROT.     0.1173D+07                  1192.3239     2.9808    30.7518
         INT.     0.3726D+11                 10984.9878    54.1723    75.8334
         TRA.     0.2391D+28                  1987.2065     4.9680    42.1000
         TOT.                       25.558   12972.1943    59.1404   117.9334

   *: NOTE: HEATS OF FORMATION ARE RELATIVE TO THE
            ELEMENTS IN THEIR STANDARD STATE AT 298K
              (=  Standard Enthalpy of Formation).

            Hvib:  Zero-point energy is not included.
                   frequencies of less than zero cm-1 are not included.
            Hrot = (3/2)RT
            Htra = (3/2)RT + pV = (5/2)RT

            Heat capacity is Cp, not Cv

           For more information, see: HTTP://OpenMOPAC.net/Manual/thermochemistry.html


           FORCE CONSTANT IN CARTESIAN COORDINATES (Millidynes/A)

    ATOM   CHEMICAL       X               Y               Z
   NUMBER   SYMBOL  FORCE CONSTANT  FORCE CONSTANT  FORCE CONSTANT

      1       C        9.569495        6.182952        8.874164
      2       C        9.569461        6.163443        8.859901
      3       C        6.318010        9.793944        8.989025
      4       C        6.317907        9.908368        8.876529
      5       C        8.452518        8.354614        8.329121
      6       C        8.433805        8.350628        8.351071
      7       C       13.305298        6.499571        7.516157
      8       C       13.307881        7.327376        6.686137
      9       C       13.095469        6.099573        7.289338
     10       C       13.099086        6.967863        6.418325
     11       H        1.842756        0.719344        3.695863
     12       H        1.815331        0.708080        3.701277
     13       H        0.667409        1.652053        3.786879
     14       H        0.667328        1.991537        3.446595
     15       H        2.256078        3.796333        0.697999
     16       H        2.246175        3.778240        0.725917
     17       H        1.872065        0.683333        4.200953
     18       H        1.842731        0.681814        4.230918
     19       H        2.245270        3.791178        0.695406
     20       H        2.242036        3.763250        0.726427
     21       H        4.276992        0.700845        1.223010
     22       H        4.280854        0.806990        1.113344
     23       H        4.654203        0.634586        1.151944
     24       H        0.696778        2.373806        3.412058
     25       H        4.659408        0.728564        1.053904
     26       H        0.697212        2.855253        2.931106



 TOTAL CPU TIME:             4.72 SECONDS

 == MOPAC DONE ==
