 *******************************************************************************
 ** Site#: 14399           For non-commercial use only        Version 13.159M **
 *******************************************************************************
 ** Cite this work as: MOPAC2012, James J. P. Stewart, Stewart Computational  **
 ** Chemistry, Version 13.159M web: HTTP://OpenMOPAC.net  Days remaining:   6 **
 *******************************************************************************
 **                                                                           **
 **                                MOPAC2012                                  **
 **                                                                           **
 *******************************************************************************

                            PM3 CALCULATION RESULTS


 *******************************************************************************
 *  CALCULATION DONE:                                Mon Jun  2 14:12:07 2014  *
 *  PM3      - The PM3 Hamiltonian to be used
 *  PRECISE  - CRITERIA TO BE INCREASED BY 100 TIMES
 *  NOSYM    - POINT-GROUP SYMMETRY SET TO C1
 *  T=       - A TIME OF 172800.0 SECONDS REQUESTED
 *  DUMP=N   - RESTART FILE WRITTEN EVERY  7200.000 SECONDS
 *******************************************************************************
pm3  precise nosym
 InChI=1S/C8H14O/c1-3-6-5-8(9)7(6)4-2/h3,6-9H,1,4-5H2,2H3

   ATOM   CHEMICAL          X               Y               Z
  NUMBER   SYMBOL      (ANGSTROMS)     (ANGSTROMS)     (ANGSTROMS)
 
     1       C         -0.65330000  *   0.31500000  *  -0.09990000  *
     2       C          0.82100000  *  -0.10130000  *  -0.05330000  *
     3       C         -0.28160000  *   1.28110000  *  -1.27160000  *
     4       C          1.18820000  *   1.01450000  *  -0.97540000  *
     5       C         -1.65080000  *  -0.78380000  *  -0.48420000  *
     6       C         -1.87760000  *  -1.77780000  *   0.64910000  *
     7       C          1.45530000  *  -0.04390000  *   1.31180000  *
     8       C          2.76150000  *  -0.25720000  *   1.48560000  *
     9       O         -0.65280000  *   2.64950000  *  -1.00940000  *
    10       H         -0.99550000  *   0.89010000  *   0.79520000  *
    11       H          1.00380000  *  -1.09510000  *  -0.53060000  *
    12       H         -0.57860000  *   0.93520000  *  -2.29150000  *
    13       H         -1.31270000  *  -1.33720000  *  -1.39150000  *
    14       H         -2.62520000  *  -0.30540000  *  -0.73650000  *
    15       H          1.68800000  *   1.87890000  *  -0.47520000  *
    16       H          1.75720000  *   0.67460000  *  -1.87200000  *
    17       H         -2.26300000  *  -1.26200000  *   1.55810000  *
    18       H         -0.93330000  *  -2.30870000  *   0.90780000  *
    19       H         -2.62780000  *  -2.53980000  *   0.33850000  *
    20       H          0.84010000  *   0.15210000  *   2.18920000  *
    21       H          3.19350000  *  -0.22120000  *   2.48390000  *
    22       H          3.41720000  *  -0.46870000  *   0.64230000  *
    23       H         -1.67340000  *   2.71120000  *  -1.17030000  *
 


          CARTESIAN COORDINATES 

    NO.       ATOM         X         Y         Z

     1         C       -0.6533    0.3150   -0.0999
     2         C        0.8210   -0.1013   -0.0533
     3         C       -0.2816    1.2811   -1.2716
     4         C        1.1882    1.0145   -0.9754
     5         C       -1.6508   -0.7838   -0.4842
     6         C       -1.8776   -1.7778    0.6491
     7         C        1.4553   -0.0439    1.3118
     8         C        2.7615   -0.2572    1.4856
     9         O       -0.6528    2.6495   -1.0094
    10         H       -0.9955    0.8901    0.7952
    11         H        1.0038   -1.0951   -0.5306
    12         H       -0.5786    0.9352   -2.2915
    13         H       -1.3127   -1.3372   -1.3915
    14         H       -2.6252   -0.3054   -0.7365
    15         H        1.6880    1.8789   -0.4752
    16         H        1.7572    0.6746   -1.8720
    17         H       -2.2630   -1.2620    1.5581
    18         H       -0.9333   -2.3087    0.9078
    19         H       -2.6278   -2.5398    0.3385
    20         H        0.8401    0.1521    2.1892
    21         H        3.1935   -0.2212    2.4839
    22         H        3.4172   -0.4687    0.6423
    23         H       -1.6734    2.7112   -1.1703

  H: (PM3): J. J. P. STEWART, J. COMP. CHEM. 10, 209 (1989).
  C: (PM3): J. J. P. STEWART, J. COMP. CHEM. 10, 209 (1989).
  O: (PM3): J. J. P. STEWART, J. COMP. CHEM. 10, 209 (1989).

           Empirical Formula: C8 H14 O  =    23 atoms



      MOLECULAR POINT GROUP   :   C1  


      RHF CALCULATION, NO. OF DOUBLY OCCUPIED LEVELS =   26

      Geometry optimization using EF

          DIAGONAL MATRIX USED AS START HESSIAN

 CYCLE:     1 TIME:   0.009 TIME LEFT:  2.00D  GRAD.:   161.357 HEAT:-28.17322
 CYCLE:     2 TIME:   0.014 TIME LEFT:  2.00D  GRAD.:    70.104 HEAT:-34.70165
 CYCLE:     3 TIME:   0.017 TIME LEFT:  2.00D  GRAD.:    84.127 HEAT:-34.98480
 CYCLE:     4 TIME:   0.007 TIME LEFT:  2.00D  GRAD.:    73.311 HEAT:-35.80853
 CYCLE:     5 TIME:   0.013 TIME LEFT:  2.00D  GRAD.:    33.755 HEAT:-36.91810
 CYCLE:     6 TIME:   0.013 TIME LEFT:  2.00D  GRAD.:    20.765 HEAT:-37.23918
 CYCLE:     7 TIME:   0.007 TIME LEFT:  2.00D  GRAD.:    27.341 HEAT:-37.37761
 CYCLE:     8 TIME:   0.007 TIME LEFT:  2.00D  GRAD.:    29.351 HEAT:-37.51071
 CYCLE:     9 TIME:   0.007 TIME LEFT:  2.00D  GRAD.:    33.176 HEAT:-37.51689
 CYCLE:    10 TIME:   0.013 TIME LEFT:  2.00D  GRAD.:    10.190 HEAT:-37.75235
 CYCLE:    11 TIME:   0.013 TIME LEFT:  2.00D  GRAD.:    11.825 HEAT:-37.76561
 CYCLE:    12 TIME:   0.007 TIME LEFT:  2.00D  GRAD.:     7.560 HEAT:-37.79953
 CYCLE:    13 TIME:   0.007 TIME LEFT:  2.00D  GRAD.:    10.019 HEAT:-37.81293
 CYCLE:    14 TIME:   0.007 TIME LEFT:  2.00D  GRAD.:     7.858 HEAT:-37.84078
 CYCLE:    15 TIME:   0.012 TIME LEFT:  2.00D  GRAD.:     5.703 HEAT:-37.85630
 CYCLE:    16 TIME:   0.007 TIME LEFT:  2.00D  GRAD.:     4.518 HEAT:-37.86850
 CYCLE:    17 TIME:   0.007 TIME LEFT:  2.00D  GRAD.:     5.257 HEAT:-37.87899
 CYCLE:    18 TIME:   0.013 TIME LEFT:  2.00D  GRAD.:     6.062 HEAT:-37.88303
 CYCLE:    19 TIME:   0.007 TIME LEFT:  2.00D  GRAD.:     3.465 HEAT:-37.89823
 CYCLE:    20 TIME:   0.013 TIME LEFT:  2.00D  GRAD.:     5.674 HEAT:-37.90023
 CYCLE:    21 TIME:   0.007 TIME LEFT:  2.00D  GRAD.:     2.815 HEAT:-37.91487
 CYCLE:    22 TIME:   0.007 TIME LEFT:  2.00D  GRAD.:     3.968 HEAT:-37.92773
 CYCLE:    23 TIME:   0.007 TIME LEFT:  2.00D  GRAD.:     3.700 HEAT:-37.94987
 CYCLE:    24 TIME:   0.007 TIME LEFT:  2.00D  GRAD.:     5.168 HEAT:-37.97867
 CYCLE:    25 TIME:   0.007 TIME LEFT:  2.00D  GRAD.:     6.496 HEAT:-38.00762
 CYCLE:    26 TIME:   0.007 TIME LEFT:  2.00D  GRAD.:     5.993 HEAT:-38.03246
 CYCLE:    27 TIME:   0.007 TIME LEFT:  2.00D  GRAD.:     5.173 HEAT:-38.05918
 CYCLE:    28 TIME:   0.007 TIME LEFT:  2.00D  GRAD.:     5.790 HEAT:-38.09400
 CYCLE:    29 TIME:   0.007 TIME LEFT:  2.00D  GRAD.:     7.705 HEAT:-38.12221
 CYCLE:    30 TIME:   0.007 TIME LEFT:  2.00D  GRAD.:     6.952 HEAT:-38.14570
 CYCLE:    31 TIME:   0.007 TIME LEFT:  2.00D  GRAD.:     4.895 HEAT:-38.16528
 CYCLE:    32 TIME:   0.007 TIME LEFT:  2.00D  GRAD.:     3.149 HEAT:-38.18621
 CYCLE:    33 TIME:   0.007 TIME LEFT:  2.00D  GRAD.:     3.010 HEAT:-38.20509
 CYCLE:    34 TIME:   0.007 TIME LEFT:  2.00D  GRAD.:     3.298 HEAT:-38.21197
 CYCLE:    35 TIME:   0.007 TIME LEFT:  2.00D  GRAD.:     1.839 HEAT:-38.21733
 CYCLE:    36 TIME:   0.007 TIME LEFT:  2.00D  GRAD.:     1.973 HEAT:-38.22068
 CYCLE:    37 TIME:   0.007 TIME LEFT:  2.00D  GRAD.:     1.809 HEAT:-38.22587
 CYCLE:    38 TIME:   0.007 TIME LEFT:  2.00D  GRAD.:     1.767 HEAT:-38.23592
 CYCLE:    39 TIME:   0.007 TIME LEFT:  2.00D  GRAD.:     2.278 HEAT:-38.24379
 CYCLE:    40 TIME:   0.007 TIME LEFT:  2.00D  GRAD.:     2.538 HEAT:-38.25341
 CYCLE:    41 TIME:   0.007 TIME LEFT:  2.00D  GRAD.:     2.516 HEAT:-38.26381
 CYCLE:    42 TIME:   0.007 TIME LEFT:  2.00D  GRAD.:     2.652 HEAT:-38.27767
 CYCLE:    43 TIME:   0.007 TIME LEFT:  2.00D  GRAD.:     2.448 HEAT:-38.29286
 CYCLE:    44 TIME:   0.007 TIME LEFT:  2.00D  GRAD.:     1.994 HEAT:-38.30196
 CYCLE:    45 TIME:   0.007 TIME LEFT:  2.00D  GRAD.:     1.591 HEAT:-38.30701
 CYCLE:    46 TIME:   0.007 TIME LEFT:  2.00D  GRAD.:     1.072 HEAT:-38.30954
 CYCLE:    47 TIME:   0.007 TIME LEFT:  2.00D  GRAD.:     0.915 HEAT:-38.31171
 CYCLE:    48 TIME:   0.007 TIME LEFT:  2.00D  GRAD.:     0.747 HEAT:-38.31334
 CYCLE:    49 TIME:   0.007 TIME LEFT:  2.00D  GRAD.:     0.631 HEAT:-38.31451
 CYCLE:    50 TIME:   0.007 TIME LEFT:  2.00D  GRAD.:     0.570 HEAT:-38.31537
 CYCLE:    51 TIME:   0.007 TIME LEFT:  2.00D  GRAD.:     0.558 HEAT:-38.31624
 CYCLE:    52 TIME:   0.007 TIME LEFT:  2.00D  GRAD.:     0.535 HEAT:-38.31688
 CYCLE:    53 TIME:   0.007 TIME LEFT:  2.00D  GRAD.:     0.459 HEAT:-38.31735
 CYCLE:    54 TIME:   0.007 TIME LEFT:  2.00D  GRAD.:     0.388 HEAT:-38.31762
 CYCLE:    55 TIME:   0.007 TIME LEFT:  2.00D  GRAD.:     0.345 HEAT:-38.31791
 CYCLE:    56 TIME:   0.007 TIME LEFT:  2.00D  GRAD.:     0.321 HEAT:-38.31815
 CYCLE:    57 TIME:   0.007 TIME LEFT:  2.00D  GRAD.:     0.341 HEAT:-38.31847
 CYCLE:    58 TIME:   0.007 TIME LEFT:  2.00D  GRAD.:     0.336 HEAT:-38.31874
 CYCLE:    59 TIME:   0.007 TIME LEFT:  2.00D  GRAD.:     0.326 HEAT:-38.31902
 CYCLE:    60 TIME:   0.007 TIME LEFT:  2.00D  GRAD.:     0.315 HEAT:-38.31926
 CYCLE:    61 TIME:   0.007 TIME LEFT:  2.00D  GRAD.:     0.316 HEAT:-38.31958
 CYCLE:    62 TIME:   0.007 TIME LEFT:  2.00D  GRAD.:     0.278 HEAT:-38.31982
 CYCLE:    63 TIME:   0.007 TIME LEFT:  2.00D  GRAD.:     0.257 HEAT:-38.32006
 CYCLE:    64 TIME:   0.007 TIME LEFT:  2.00D  GRAD.:     0.227 HEAT:-38.32017
 CYCLE:    65 TIME:   0.007 TIME LEFT:  2.00D  GRAD.:     0.425 HEAT:-38.32041
 CYCLE:    66 TIME:   0.007 TIME LEFT:  2.00D  GRAD.:     0.283 HEAT:-38.32058
 CYCLE:    67 TIME:   0.007 TIME LEFT:  2.00D  GRAD.:     0.269 HEAT:-38.32096
 CYCLE:    68 TIME:   0.010 TIME LEFT:  2.00D  GRAD.:     0.325 HEAT:-38.32120
 CYCLE:    69 TIME:   0.009 TIME LEFT:  2.00D  GRAD.:     0.603 HEAT:-38.32224
 CYCLE:    70 TIME:   0.007 TIME LEFT:  2.00D  GRAD.:     0.705 HEAT:-38.32301
 CYCLE:    71 TIME:   0.008 TIME LEFT:  2.00D  GRAD.:     2.172 HEAT:-38.32505
 CYCLE:    72 TIME:   0.008 TIME LEFT:  2.00D  GRAD.:     0.916 HEAT:-38.32728
 CYCLE:    73 TIME:   0.007 TIME LEFT:  2.00D  GRAD.:     0.972 HEAT:-38.33003
 CYCLE:    74 TIME:   0.008 TIME LEFT:  2.00D  GRAD.:     1.801 HEAT:-38.33702
 CYCLE:    75 TIME:   0.007 TIME LEFT:  2.00D  GRAD.:     2.411 HEAT:-38.34130
 CYCLE:    76 TIME:   0.007 TIME LEFT:  2.00D  GRAD.:     2.067 HEAT:-38.34630
 CYCLE:    77 TIME:   0.007 TIME LEFT:  2.00D  GRAD.:     3.123 HEAT:-38.35323
 CYCLE:    78 TIME:   0.007 TIME LEFT:  2.00D  GRAD.:     2.199 HEAT:-38.36163
 CYCLE:    79 TIME:   0.007 TIME LEFT:  2.00D  GRAD.:     3.792 HEAT:-38.37137
 CYCLE:    80 TIME:   0.007 TIME LEFT:  2.00D  GRAD.:     2.581 HEAT:-38.38516
 CYCLE:    81 TIME:   0.007 TIME LEFT:  2.00D  GRAD.:     4.318 HEAT:-38.39952
 CYCLE:    82 TIME:   0.007 TIME LEFT:  2.00D  GRAD.:     3.661 HEAT:-38.41356
 CYCLE:    83 TIME:   0.013 TIME LEFT:  2.00D  GRAD.:     5.892 HEAT:-38.42020
 CYCLE:    84 TIME:   0.007 TIME LEFT:  2.00D  GRAD.:     2.467 HEAT:-38.44160
 CYCLE:    85 TIME:   0.007 TIME LEFT:  2.00D  GRAD.:     4.003 HEAT:-38.46147
 CYCLE:    86 TIME:   0.007 TIME LEFT:  2.00D  GRAD.:     4.382 HEAT:-38.47878
 CYCLE:    87 TIME:   0.007 TIME LEFT:  2.00D  GRAD.:     3.447 HEAT:-38.49144
 CYCLE:    88 TIME:   0.007 TIME LEFT:  2.00D  GRAD.:     2.831 HEAT:-38.49670
 CYCLE:    89 TIME:   0.007 TIME LEFT:  2.00D  GRAD.:     5.877 HEAT:-38.50327
 CYCLE:    90 TIME:   0.007 TIME LEFT:  2.00D  GRAD.:     2.050 HEAT:-38.51378
 CYCLE:    91 TIME:   0.007 TIME LEFT:  2.00D  GRAD.:     1.826 HEAT:-38.52010
 CYCLE:    92 TIME:   0.014 TIME LEFT:  2.00D  GRAD.:     3.573 HEAT:-38.53539
 CYCLE:    93 TIME:   0.007 TIME LEFT:  2.00D  GRAD.:     1.958 HEAT:-38.54125
 CYCLE:    94 TIME:   0.007 TIME LEFT:  2.00D  GRAD.:     1.942 HEAT:-38.54732
 CYCLE:    95 TIME:   0.007 TIME LEFT:  2.00D  GRAD.:     3.156 HEAT:-38.55224
 CYCLE:    96 TIME:   0.007 TIME LEFT:  2.00D  GRAD.:     2.041 HEAT:-38.55560
 CYCLE:    97 TIME:   0.007 TIME LEFT:  2.00D  GRAD.:     1.376 HEAT:-38.55954
 CYCLE:    98 TIME:   0.010 TIME LEFT:  2.00D  GRAD.:     1.731 HEAT:-38.56344
 CYCLE:    99 TIME:   0.009 TIME LEFT:  2.00D  GRAD.:     2.340 HEAT:-38.56916
 CYCLE:   100 TIME:   0.007 TIME LEFT:  2.00D  GRAD.:     2.655 HEAT:-38.57627
 CYCLE:   101 TIME:   0.007 TIME LEFT:  2.00D  GRAD.:     3.360 HEAT:-38.58798
 CYCLE:   102 TIME:   0.010 TIME LEFT:  2.00D  GRAD.:     2.522 HEAT:-38.59947
 CYCLE:   103 TIME:   0.009 TIME LEFT:  2.00D  GRAD.:     5.371 HEAT:-38.61722
 CYCLE:   104 TIME:   0.015 TIME LEFT:  2.00D  GRAD.:     3.349 HEAT:-38.62621
 CYCLE:   105 TIME:   0.008 TIME LEFT:  2.00D  GRAD.:     1.956 HEAT:-38.63931
 CYCLE:   106 TIME:   0.008 TIME LEFT:  2.00D  GRAD.:     2.698 HEAT:-38.64786
 CYCLE:   107 TIME:   0.007 TIME LEFT:  2.00D  GRAD.:     4.572 HEAT:-38.65645
 CYCLE:   108 TIME:   0.007 TIME LEFT:  2.00D  GRAD.:     2.609 HEAT:-38.66734
 CYCLE:   109 TIME:   0.007 TIME LEFT:  2.00D  GRAD.:     4.945 HEAT:-38.68374
 CYCLE:   110 TIME:   0.007 TIME LEFT:  2.00D  GRAD.:     2.893 HEAT:-38.70212
 CYCLE:   111 TIME:   0.007 TIME LEFT:  2.00D  GRAD.:     2.228 HEAT:-38.71700
 CYCLE:   112 TIME:   0.007 TIME LEFT:  2.00D  GRAD.:     5.843 HEAT:-38.72140
 CYCLE:   113 TIME:   0.007 TIME LEFT:  2.00D  GRAD.:     2.499 HEAT:-38.73810
 CYCLE:   114 TIME:   0.007 TIME LEFT:  2.00D  GRAD.:     1.820 HEAT:-38.75061
 CYCLE:   115 TIME:   0.007 TIME LEFT:  2.00D  GRAD.:     5.949 HEAT:-38.76873
 CYCLE:   116 TIME:   0.007 TIME LEFT:  2.00D  GRAD.:     3.504 HEAT:-38.78479
 CYCLE:   117 TIME:   0.007 TIME LEFT:  2.00D  GRAD.:     2.161 HEAT:-38.80033
 CYCLE:   118 TIME:   0.007 TIME LEFT:  2.00D  GRAD.:     6.676 HEAT:-38.80940
 CYCLE:   119 TIME:   0.007 TIME LEFT:  2.00D  GRAD.:     4.607 HEAT:-38.81959
 CYCLE:   120 TIME:   0.007 TIME LEFT:  2.00D  GRAD.:     2.157 HEAT:-38.83261
 CYCLE:   121 TIME:   0.007 TIME LEFT:  2.00D  GRAD.:     5.417 HEAT:-38.84740
 CYCLE:   122 TIME:   0.007 TIME LEFT:  2.00D  GRAD.:     2.839 HEAT:-38.85843
 CYCLE:   123 TIME:   0.007 TIME LEFT:  2.00D  GRAD.:     2.464 HEAT:-38.86884
 CYCLE:   124 TIME:   0.007 TIME LEFT:  2.00D  GRAD.:     5.260 HEAT:-38.87403
 CYCLE:   125 TIME:   0.007 TIME LEFT:  2.00D  GRAD.:     1.909 HEAT:-38.88233
 CYCLE:   126 TIME:   0.007 TIME LEFT:  2.00D  GRAD.:     2.207 HEAT:-38.88667
 CYCLE:   127 TIME:   0.007 TIME LEFT:  2.00D  GRAD.:     2.542 HEAT:-38.89472
 CYCLE:   128 TIME:   0.007 TIME LEFT:  2.00D  GRAD.:     2.310 HEAT:-38.90004
 CYCLE:   129 TIME:   0.007 TIME LEFT:  2.00D  GRAD.:     1.841 HEAT:-38.90688
 CYCLE:   130 TIME:   0.007 TIME LEFT:  2.00D  GRAD.:     1.600 HEAT:-38.91007
 CYCLE:   131 TIME:   0.007 TIME LEFT:  2.00D  GRAD.:     1.242 HEAT:-38.91219
 CYCLE:   132 TIME:   0.007 TIME LEFT:  2.00D  GRAD.:     0.936 HEAT:-38.91379
 CYCLE:   133 TIME:   0.007 TIME LEFT:  2.00D  GRAD.:     0.671 HEAT:-38.91516
 CYCLE:   134 TIME:   0.007 TIME LEFT:  2.00D  GRAD.:     0.728 HEAT:-38.91581
 CYCLE:   135 TIME:   0.007 TIME LEFT:  2.00D  GRAD.:     0.675 HEAT:-38.91625
 CYCLE:   136 TIME:   0.007 TIME LEFT:  2.00D  GRAD.:     0.650 HEAT:-38.91669
 CYCLE:   137 TIME:   0.007 TIME LEFT:  2.00D  GRAD.:     0.948 HEAT:-38.91733
 CYCLE:   138 TIME:   0.007 TIME LEFT:  2.00D  GRAD.:     0.675 HEAT:-38.91793
 CYCLE:   139 TIME:   0.007 TIME LEFT:  2.00D  GRAD.:     0.755 HEAT:-38.91907
 CYCLE:   140 TIME:   0.007 TIME LEFT:  2.00D  GRAD.:     0.723 HEAT:-38.91954
 CYCLE:   141 TIME:   0.007 TIME LEFT:  2.00D  GRAD.:     1.245 HEAT:-38.92080
 CYCLE:   142 TIME:   0.007 TIME LEFT:  2.00D  GRAD.:     0.857 HEAT:-38.92123
 CYCLE:   143 TIME:   0.007 TIME LEFT:  2.00D  GRAD.:     0.585 HEAT:-38.92175
 CYCLE:   144 TIME:   0.007 TIME LEFT:  2.00D  GRAD.:     0.635 HEAT:-38.92238
 CYCLE:   145 TIME:   0.007 TIME LEFT:  2.00D  GRAD.:     0.942 HEAT:-38.92380
 CYCLE:   146 TIME:   0.007 TIME LEFT:  2.00D  GRAD.:     0.982 HEAT:-38.92477
 CYCLE:   147 TIME:   0.007 TIME LEFT:  2.00D  GRAD.:     2.505 HEAT:-38.92687
 CYCLE:   148 TIME:   0.007 TIME LEFT:  2.00D  GRAD.:     1.201 HEAT:-38.92881
 CYCLE:   149 TIME:   0.007 TIME LEFT:  2.00D  GRAD.:     0.909 HEAT:-38.93008
 CYCLE:   150 TIME:   0.007 TIME LEFT:  2.00D  GRAD.:     0.841 HEAT:-38.93333
 CYCLE:   151 TIME:   0.007 TIME LEFT:  2.00D  GRAD.:     0.769 HEAT:-38.93446
 CYCLE:   152 TIME:   0.007 TIME LEFT:  2.00D  GRAD.:     0.723 HEAT:-38.93633
 CYCLE:   153 TIME:   0.007 TIME LEFT:  2.00D  GRAD.:     0.624 HEAT:-38.93755
 CYCLE:   154 TIME:   0.007 TIME LEFT:  2.00D  GRAD.:     0.753 HEAT:-38.93919
 CYCLE:   155 TIME:   0.007 TIME LEFT:  2.00D  GRAD.:     0.625 HEAT:-38.93964
 CYCLE:   156 TIME:   0.007 TIME LEFT:  2.00D  GRAD.:     0.574 HEAT:-38.94019
 CYCLE:   157 TIME:   0.007 TIME LEFT:  2.00D  GRAD.:     0.483 HEAT:-38.94053
 CYCLE:   158 TIME:   0.007 TIME LEFT:  2.00D  GRAD.:     0.433 HEAT:-38.94085
 CYCLE:   159 TIME:   0.007 TIME LEFT:  2.00D  GRAD.:     0.369 HEAT:-38.94121
 CYCLE:   160 TIME:   0.007 TIME LEFT:  2.00D  GRAD.:     0.448 HEAT:-38.94144
 CYCLE:   161 TIME:   0.007 TIME LEFT:  2.00D  GRAD.:     0.829 HEAT:-38.94207
 CYCLE:   162 TIME:   0.007 TIME LEFT:  2.00D  GRAD.:     0.963 HEAT:-38.94254
 CYCLE:   163 TIME:   0.007 TIME LEFT:  2.00D  GRAD.:     1.714 HEAT:-38.94391
 CYCLE:   164 TIME:   0.007 TIME LEFT:  2.00D  GRAD.:     1.226 HEAT:-38.94638
 CYCLE:   165 TIME:   0.007 TIME LEFT:  2.00D  GRAD.:     1.282 HEAT:-38.94911
 CYCLE:   166 TIME:   0.007 TIME LEFT:  2.00D  GRAD.:     1.679 HEAT:-38.95343
 CYCLE:   167 TIME:   0.007 TIME LEFT:  2.00D  GRAD.:     0.741 HEAT:-38.95483
 CYCLE:   168 TIME:   0.007 TIME LEFT:  2.00D  GRAD.:     0.717 HEAT:-38.95584
 CYCLE:   169 TIME:   0.007 TIME LEFT:  2.00D  GRAD.:     0.728 HEAT:-38.95624
 CYCLE:   170 TIME:   0.007 TIME LEFT:  2.00D  GRAD.:     0.507 HEAT:-38.95646
 CYCLE:   171 TIME:   0.007 TIME LEFT:  2.00D  GRAD.:     0.324 HEAT:-38.95673
 CYCLE:   172 TIME:   0.007 TIME LEFT:  2.00D  GRAD.:     0.192 HEAT:-38.95682
 CYCLE:   173 TIME:   0.007 TIME LEFT:  2.00D  GRAD.:     0.248 HEAT:-38.95679
 CYCLE:   174 TIME:   0.007 TIME LEFT:  2.00D  GRAD.:     0.116 HEAT:-38.95688
 CYCLE:   175 TIME:   0.007 TIME LEFT:  2.00D  GRAD.:     0.092 HEAT:-38.95689
 CYCLE:   176 TIME:   0.007 TIME LEFT:  2.00D  GRAD.:     0.073 HEAT:-38.95690
 CYCLE:   177 TIME:   0.007 TIME LEFT:  2.00D  GRAD.:     0.164 HEAT:-38.95686
 CYCLE:   178 TIME:   0.007 TIME LEFT:  2.00D  GRAD.:     0.023 HEAT:-38.95690

     RMS GRADIENT =  0.02258  IS LESS THAN CUTOFF =  0.05000



 -------------------------------------------------------------------------------
pm3  precise nosym
 InChI=1S/C8H14O/c1-3-6-5-8(9)7(6)4-2/h3,6-9H,1,4-5H2,2H3



     GEOMETRY OPTIMISED USING EIGENVECTOR FOLLOWING (EF).     
     SCF FIELD WAS ACHIEVED                                   


                              PM3 CALCULATION
                                                       MOPAC2012 (Version: 13.159M)
                                                       Mon Jun  2 14:12:08 2014
                                                       No. of days left =   6




          FINAL HEAT OF FORMATION =        -38.95690 KCAL/MOL =    -162.99569 KJ/MOL


          TOTAL ENERGY            =      -1457.39509 EV
          ELECTRONIC ENERGY       =      -7591.22255 EV  POINT GROUP:     C1  
          CORE-CORE REPULSION     =       6133.82745 EV
          COSMO AREA              =        178.55 SQUARE ANGSTROMS
          COSMO VOLUME            =        184.25 CUBIC ANGSTROMS

          GRADIENT NORM           =          0.02258
          IONIZATION POTENTIAL    =         10.115644 EV
          HOMO LUMO ENERGIES (EV) =        -10.116  1.079
          NO. OF FILLED LEVELS    =         26
          MOLECULAR WEIGHT        =        126.198

          MOLECULAR DIMENSIONS (Angstroms)

            Atom       Atom       Distance
            H    23    H    22     6.42834
            H    23    H    22     5.54212
            H    21    H    16     2.18627


          SCF CALCULATIONS        =        191
          COMPUTATION TIME        =          1.367 SECONDS




   ATOM   CHEMICAL          X               Y               Z
  NUMBER   SYMBOL      (ANGSTROMS)     (ANGSTROMS)     (ANGSTROMS)
 
     1       C         -0.57109210  *   0.32035070  *  -0.10814185  *
     2       C          0.95749755  *   0.03517088  *  -0.21029414  *
     3       C         -0.43387156  *   1.37884552  *  -1.25128441  *
     4       C          1.09848438  *   1.14716065  *  -1.27673679  *
     5       C         -1.47529780  *  -0.84685755  *  -0.43902802  *
     6       C         -1.51339866  *  -1.86121409  *   0.68204393  *
     7       C          1.69547417  *   0.27223275  *   1.05604874  *
     8       C          2.06359801  *  -0.71765245  *   1.86170061  *
     9       O         -0.74530994  *   2.69949239  *  -0.90097273  *
    10       H         -0.85789008  *   0.76507376  *   0.86992731  *
    11       H          1.18005273  *  -0.97872378  *  -0.60959643  *
    12       H         -0.95932327  *   1.10605146  *  -2.19187763  *
    13       H         -1.14433802  *  -1.33298690  *  -1.37903742  *
    14       H         -2.49567159  *  -0.46625298  *  -0.64412565  *
    15       H          1.70332767  *   2.01449910  *  -0.96552707  *
    16       H          1.49016863  *   0.80611564  *  -2.24613558  *
    17       H         -1.91520550  *  -1.42821972  *   1.60773042  *
    18       H         -0.50778149  *  -2.24253073  *   0.91117513  *
    19       H         -2.14245517  *  -2.72128815  *   0.42046099  *
    20       H          1.91288270  *   1.31861674  *   1.30451345  *
    21       H          2.59365238  *  -0.54841905  *   2.79376836  *
    22       H          1.85821454  *  -1.76408210  *   1.64877416  *
    23       H         -1.65937009  *   2.69584108  *  -0.64925032  *

           Empirical Formula: C8 H14 O  =    23 atoms



      MOLECULAR POINT GROUP   :   C1  


                  EIGENVALUES  
 -41.95313 -36.33988 -33.80659 -31.28151 -25.45001 -24.00795 -21.48142 -20.06052
 -19.18944 -17.81395 -17.01826 -16.31054 -15.47324 -15.08699 -14.91383 -14.34902
 -13.93229 -13.19430 -12.74010 -12.56115 -12.42097 -11.99605 -11.74278 -11.54846
 -10.82740 -10.11564   1.07940   2.99101   3.16077   3.25988   3.49980   3.65003
   3.66318   3.81725   3.82773   3.95249   4.06471   4.10525   4.22157   4.26951
   4.34540   4.43063   4.71490   4.77376   4.81030   5.01072   5.29178   5.62781
   5.83705   5.90522


              NET ATOMIC CHARGES AND DIPOLE CONTRIBUTIONS

  ATOM NO.   TYPE          CHARGE      No. of ELECS.   s-Pop       p-Pop       
    1          C          -0.134943        4.1349     1.20694     2.92800
    2          C          -0.057810        4.0578     1.18012     2.87769
    3          C           0.063354        3.9366     1.18720     2.74945
    4          C          -0.114108        4.1141     1.17782     2.93629
    5          C          -0.085047        4.0850     1.15611     2.92893
    6          C          -0.112634        4.1126     1.13860     2.97404
    7          C          -0.126558        4.1266     1.19461     2.93195
    8          C          -0.165172        4.1652     1.18331     2.98186
    9          O          -0.297001        6.2970     1.80679     4.49022
   10          H           0.087701        0.9123     0.91230
   11          H           0.079057        0.9209     0.92094
   12          H           0.054189        0.9458     0.94581
   13          H           0.051688        0.9483     0.94831
   14          H           0.046314        0.9537     0.95369
   15          H           0.078026        0.9220     0.92197
   16          H           0.058727        0.9413     0.94127
   17          H           0.039614        0.9604     0.96039
   18          H           0.043438        0.9566     0.95656
   19          H           0.038367        0.9616     0.96163
   20          H           0.104468        0.8955     0.89553
   21          H           0.080031        0.9200     0.91997
   22          H           0.081204        0.9188     0.91880
   23          H           0.187096        0.8129     0.81290
 DIPOLE           X         Y         Z       TOTAL
 POINT-CHG.    -0.431    -0.790    -0.131     0.910
 HYBRID        -0.547    -0.322     0.171     0.657
 SUM           -0.978    -1.112     0.041     1.481


          ATOMIC ORBITAL ELECTRON POPULATIONS

    Atom      s        px        py        pz   
    1  C   1.20694   0.95421   0.97344   1.00035
    2  C   1.18012   0.94272   0.98933   0.94563
    3  C   1.18720   0.95850   0.84265   0.94829
    4  C   1.17782   0.95843   0.99037   0.98749
    5  C   1.15611   0.98675   0.95897   0.98321
    6  C   1.13860   1.01345   0.98184   0.97875
    7  C   1.19461   0.98266   0.98902   0.96026
    8  C   1.18331   1.00695   0.98288   0.99204
    9  O   1.80679   1.33186   1.26413   1.89423
   10  H   0.91230
   11  H   0.92094
   12  H   0.94581
   13  H   0.94831
   14  H   0.95369
   15  H   0.92197
   16  H   0.94127
   17  H   0.96039
   18  H   0.95656
   19  H   0.96163
   20  H   0.89553
   21  H   0.91997
   22  H   0.91880
   23  H   0.81290
 *******************************************************************************
 ** Site#: 14399           For non-commercial use only        Version 13.159M **
 *******************************************************************************
 ** Cite this work as: MOPAC2012, James J. P. Stewart, Stewart Computational  **
 ** Chemistry, Version 13.159M web: HTTP://OpenMOPAC.net  Days remaining:   6 **
 *******************************************************************************
 **                                                                           **
 **                                MOPAC2012                                  **
 **                                                                           **
 *******************************************************************************

                            PM3 CALCULATION RESULTS


 *******************************************************************************
 *  CALCULATION DONE:                                Mon Jun  2 14:12:08 2014  *
 *  PM3      - The PM3 Hamiltonian to be used
 *  OLDGEO   - PREVIOUS GEOMETRY TO BE USED
 *  PRECISE  - CRITERIA TO BE INCREASED BY 100 TIMES
 *  NOSYM    - POINT-GROUP SYMMETRY SET TO C1
 *  T=       - A TIME OF 172800.0 SECONDS REQUESTED
 *  DUMP=N   - RESTART FILE WRITTEN EVERY  7200.000 SECONDS
 *  THERMO   - THERMODYNAMIC QUANTITIES TO BE CALCULATED
 *******************************************************************************
oldgeo thermo nosym precise  pm3

   ATOM   CHEMICAL          X               Y               Z
  NUMBER   SYMBOL      (ANGSTROMS)     (ANGSTROMS)     (ANGSTROMS)
 
     1       C         -0.57109210  *   0.32035070  *  -0.10814185  *
     2       C          0.95749755  *   0.03517088  *  -0.21029414  *
     3       C         -0.43387156  *   1.37884552  *  -1.25128441  *
     4       C          1.09848438  *   1.14716065  *  -1.27673679  *
     5       C         -1.47529780  *  -0.84685755  *  -0.43902802  *
     6       C         -1.51339866  *  -1.86121409  *   0.68204393  *
     7       C          1.69547417  *   0.27223275  *   1.05604874  *
     8       C          2.06359801  *  -0.71765245  *   1.86170061  *
     9       O         -0.74530994  *   2.69949239  *  -0.90097273  *
    10       H         -0.85789008  *   0.76507376  *   0.86992731  *
    11       H          1.18005273  *  -0.97872378  *  -0.60959643  *
    12       H         -0.95932327  *   1.10605146  *  -2.19187763  *
    13       H         -1.14433802  *  -1.33298690  *  -1.37903742  *
    14       H         -2.49567159  *  -0.46625298  *  -0.64412565  *
    15       H          1.70332767  *   2.01449910  *  -0.96552707  *
    16       H          1.49016863  *   0.80611564  *  -2.24613558  *
    17       H         -1.91520550  *  -1.42821972  *   1.60773042  *
    18       H         -0.50778149  *  -2.24253073  *   0.91117513  *
    19       H         -2.14245517  *  -2.72128815  *   0.42046099  *
    20       H          1.91288270  *   1.31861674  *   1.30451345  *
    21       H          2.59365238  *  -0.54841905  *   2.79376836  *
    22       H          1.85821454  *  -1.76408210  *   1.64877416  *
    23       H         -1.65937009  *   2.69584108  *  -0.64925032  *
 


          CARTESIAN COORDINATES 

    NO.       ATOM         X         Y         Z

     1         C       -0.5711    0.3204   -0.1081
     2         C        0.9575    0.0352   -0.2103
     3         C       -0.4339    1.3788   -1.2513
     4         C        1.0985    1.1472   -1.2767
     5         C       -1.4753   -0.8469   -0.4390
     6         C       -1.5134   -1.8612    0.6820
     7         C        1.6955    0.2722    1.0560
     8         C        2.0636   -0.7177    1.8617
     9         O       -0.7453    2.6995   -0.9010
    10         H       -0.8579    0.7651    0.8699
    11         H        1.1801   -0.9787   -0.6096
    12         H       -0.9593    1.1061   -2.1919
    13         H       -1.1443   -1.3330   -1.3790
    14         H       -2.4957   -0.4663   -0.6441
    15         H        1.7033    2.0145   -0.9655
    16         H        1.4902    0.8061   -2.2461
    17         H       -1.9152   -1.4282    1.6077
    18         H       -0.5078   -2.2425    0.9112
    19         H       -2.1425   -2.7213    0.4205
    20         H        1.9129    1.3186    1.3045
    21         H        2.5937   -0.5484    2.7938
    22         H        1.8582   -1.7641    1.6488
    23         H       -1.6594    2.6958   -0.6493

  H: (PM3): J. J. P. STEWART, J. COMP. CHEM. 10, 209 (1989).
  C: (PM3): J. J. P. STEWART, J. COMP. CHEM. 10, 209 (1989).
  O: (PM3): J. J. P. STEWART, J. COMP. CHEM. 10, 209 (1989).

           Empirical Formula: C8 H14 O  =    23 atoms



      MOLECULAR POINT GROUP   :   C1  


      RHF CALCULATION, NO. OF DOUBLY OCCUPIED LEVELS =   26



          HEAT OF FORMATION =     -38.956904 KCALS/MOLE


          INTERNAL COORDINATE DERIVATIVES

   NUMBER  ATOM       BOND         ANGLE      DIHEDRAL

     1       C     -0.001527    -0.000466     0.002819
     2       C     -0.001844     0.001200    -0.000710
     3       C     -0.000947     0.000799    -0.000540
     4       C     -0.000719    -0.000397    -0.001681
     5       C     -0.003912     0.000265    -0.000357
     6       C     -0.003709     0.002957     0.002945
     7       C      0.004827    -0.000419    -0.009119
     8       C     -0.002164     0.002637    -0.001642
     9       O      0.002769     0.001879     0.003395
    10       H      0.001004    -0.001538    -0.001480
    11       H      0.002756     0.002593     0.001856
    12       H      0.001397    -0.002056    -0.000539
    13       H     -0.001896     0.000760     0.002988
    14       H      0.004534    -0.003341    -0.000733
    15       H      0.001013    -0.000567    -0.001288
    16       H      0.005667     0.000905    -0.000534
    17       H     -0.000050    -0.000763    -0.000178
    18       H      0.003638    -0.002308     0.000255
    19       H     -0.001324    -0.000788    -0.003640
    20       H     -0.004731    -0.001025     0.005704
    21       H      0.001325     0.001585     0.000741
    22       H     -0.001444    -0.001916     0.001609
    23       H     -0.004662     0.000006     0.000127


          GRADIENT NORM =   0.02118


          TIME FOR SCF CALCULATION =    0.00

          TIME FOR DERIVATIVES     =    0.00

          MOLECULAR WEIGHT =  126.20



          ROTATIONAL CONSTANTS IN CM(-1)

          A =    0.05943966   B =    0.04602622   C =    0.03011501



           PRINCIPAL MOMENTS OF INERTIA IN UNITS OF 10**(-40)*GRAM-CM**2

          A =      470.9444   B =      608.1919   C =      929.5290


          ORIENTATION OF MOLECULE IN FORCE CALCULATION

    NO.       ATOM         X         Y         Z

     1          C      -0.6329   -0.0097   -0.1168
     2          C       0.9254   -0.0097   -0.1168
     3          C      -0.6171    1.5541   -0.1168
     4          C       0.9301    1.5347   -0.0259
     5          C      -1.2846   -0.6306   -1.3330
     6          C      -1.2098   -2.1407   -1.2990
     7          C       1.5229   -0.7162    1.0444
     8          C       2.0123   -1.9478    0.9537
     9          O      -1.1872    2.1704    1.0053
    10          H      -1.0598   -0.4445    0.8135
    11          H       1.3554   -0.3889   -1.0698
    12          H      -1.0210    2.0150   -1.0440
    13          H      -0.8094   -0.2483   -2.2590
    14          H      -2.3417   -0.3019   -1.3835
    15          H       1.3443    1.9432    0.9104
    16          H       1.4403    2.0417   -0.8579
    17          H      -1.7439   -2.5542   -0.4331
    18          H      -0.1686   -2.4886   -1.2353
    19          H      -1.6523   -2.5824   -2.2006
    20          H       1.5284   -0.1706    1.9963
    21          H       2.4402   -2.4724    1.8023
    22          H       2.0163   -2.5185    0.0281
    23          H      -2.0997    1.9129    1.0110


    FIRST DERIVATIVES WILL BE USED IN THE CALCULATION OF SECOND DERIVATIVES

          ESTIMATED TIME TO COMPLETE CALCULATION =        2.67 SECONDS

    FOR POINT-GROUP C1   THERE ARE   1 UNIQUE SYMMETRY FUNCTIONS.

 STEP:   1 TIME =     0.03 SECS, INTEGRAL =      0.03 TIME LEFT: 172799.96
 STEP:   2 TIME =     0.03 SECS, INTEGRAL =      0.06 TIME LEFT: 172799.93
 STEP:   3 TIME =     0.03 SECS, INTEGRAL =      0.09 TIME LEFT: 172799.90
 STEP:   4 TIME =     0.03 SECS, INTEGRAL =      0.12 TIME LEFT: 172799.87
 STEP:   5 TIME =     0.03 SECS, INTEGRAL =      0.16 TIME LEFT: 172799.83
 STEP:   6 TIME =     0.03 SECS, INTEGRAL =      0.19 TIME LEFT: 172799.80
 STEP:   7 TIME =     0.03 SECS, INTEGRAL =      0.22 TIME LEFT: 172799.77
 STEP:   8 TIME =     0.03 SECS, INTEGRAL =      0.25 TIME LEFT: 172799.74
 STEP:   9 TIME =     0.03 SECS, INTEGRAL =      0.28 TIME LEFT: 172799.71
 STEP:  10 TIME =     0.03 SECS, INTEGRAL =      0.31 TIME LEFT: 172799.68
 STEP:  11 TIME =     0.03 SECS, INTEGRAL =      0.34 TIME LEFT: 172799.65
 STEP:  12 TIME =     0.03 SECS, INTEGRAL =      0.37 TIME LEFT: 172799.62
 STEP:  13 TIME =     0.03 SECS, INTEGRAL =      0.40 TIME LEFT: 172799.59
 STEP:  14 TIME =     0.03 SECS, INTEGRAL =      0.43 TIME LEFT: 172799.56
 STEP:  15 TIME =     0.03 SECS, INTEGRAL =      0.46 TIME LEFT: 172799.53
 STEP:  16 TIME =     0.03 SECS, INTEGRAL =      0.50 TIME LEFT: 172799.49
 STEP:  17 TIME =     0.03 SECS, INTEGRAL =      0.53 TIME LEFT: 172799.46
 STEP:  18 TIME =     0.03 SECS, INTEGRAL =      0.56 TIME LEFT: 172799.43
 STEP:  19 TIME =     0.03 SECS, INTEGRAL =      0.59 TIME LEFT: 172799.40
 STEP:  20 TIME =     0.03 SECS, INTEGRAL =      0.62 TIME LEFT: 172799.37
 STEP:  21 TIME =     0.03 SECS, INTEGRAL =      0.65 TIME LEFT: 172799.34
 STEP:  22 TIME =     0.03 SECS, INTEGRAL =      0.68 TIME LEFT: 172799.31
 STEP:  23 TIME =     0.03 SECS, INTEGRAL =      0.71 TIME LEFT: 172799.28
 STEP:  24 TIME =     0.03 SECS, INTEGRAL =      0.74 TIME LEFT: 172799.25
 STEP:  25 TIME =     0.03 SECS, INTEGRAL =      0.77 TIME LEFT: 172799.22
 STEP:  26 TIME =     0.03 SECS, INTEGRAL =      0.80 TIME LEFT: 172799.19
 STEP:  27 TIME =     0.03 SECS, INTEGRAL =      0.84 TIME LEFT: 172799.15
 STEP:  28 TIME =     0.03 SECS, INTEGRAL =      0.87 TIME LEFT: 172799.12
 STEP:  29 TIME =     0.03 SECS, INTEGRAL =      0.90 TIME LEFT: 172799.09
 STEP:  30 TIME =     0.03 SECS, INTEGRAL =      0.93 TIME LEFT: 172799.06
 STEP:  31 TIME =     0.03 SECS, INTEGRAL =      0.96 TIME LEFT: 172799.03
 STEP:  32 TIME =     0.03 SECS, INTEGRAL =      0.99 TIME LEFT: 172799.00
 STEP:  33 TIME =     0.03 SECS, INTEGRAL =      1.02 TIME LEFT: 172798.97
 STEP:  34 TIME =     0.03 SECS, INTEGRAL =      1.05 TIME LEFT: 172798.94
 STEP:  35 TIME =     0.03 SECS, INTEGRAL =      1.08 TIME LEFT: 172798.91
 STEP:  36 TIME =     0.04 SECS, INTEGRAL =      1.12 TIME LEFT: 172798.87
 STEP:  37 TIME =     0.03 SECS, INTEGRAL =      1.15 TIME LEFT: 172798.84
 STEP:  38 TIME =     0.03 SECS, INTEGRAL =      1.18 TIME LEFT: 172798.81
 STEP:  39 TIME =     0.03 SECS, INTEGRAL =      1.21 TIME LEFT: 172798.78
 STEP:  40 TIME =     0.03 SECS, INTEGRAL =      1.24 TIME LEFT: 172798.75
 STEP:  41 TIME =     0.03 SECS, INTEGRAL =      1.27 TIME LEFT: 172798.72
 STEP:  42 TIME =     0.03 SECS, INTEGRAL =      1.30 TIME LEFT: 172798.69
 STEP:  43 TIME =     0.03 SECS, INTEGRAL =      1.33 TIME LEFT: 172798.66
 STEP:  44 TIME =     0.03 SECS, INTEGRAL =      1.37 TIME LEFT: 172798.62
 STEP:  45 TIME =     0.03 SECS, INTEGRAL =      1.40 TIME LEFT: 172798.59
 STEP:  46 TIME =     0.03 SECS, INTEGRAL =      1.44 TIME LEFT: 172798.56
 STEP:  47 TIME =     0.03 SECS, INTEGRAL =      1.47 TIME LEFT: 172798.52
 STEP:  48 TIME =     0.03 SECS, INTEGRAL =      1.50 TIME LEFT: 172798.49
 STEP:  49 TIME =     0.03 SECS, INTEGRAL =      1.53 TIME LEFT: 172798.46
 STEP:  50 TIME =     0.03 SECS, INTEGRAL =      1.56 TIME LEFT: 172798.43
 STEP:  51 TIME =     0.03 SECS, INTEGRAL =      1.59 TIME LEFT: 172798.40
 STEP:  52 TIME =     0.03 SECS, INTEGRAL =      1.62 TIME LEFT: 172798.37
 STEP:  53 TIME =     0.03 SECS, INTEGRAL =      1.65 TIME LEFT: 172798.34
 STEP:  54 TIME =     0.03 SECS, INTEGRAL =      1.68 TIME LEFT: 172798.31
 STEP:  55 TIME =     0.03 SECS, INTEGRAL =      1.71 TIME LEFT: 172798.28
 STEP:  56 TIME =     0.03 SECS, INTEGRAL =      1.74 TIME LEFT: 172798.25
 STEP:  57 TIME =     0.03 SECS, INTEGRAL =      1.77 TIME LEFT: 172798.22
 STEP:  58 TIME =     0.03 SECS, INTEGRAL =      1.81 TIME LEFT: 172798.18
 STEP:  59 TIME =     0.03 SECS, INTEGRAL =      1.84 TIME LEFT: 172798.15
 STEP:  60 TIME =     0.03 SECS, INTEGRAL =      1.87 TIME LEFT: 172798.12
 STEP:  61 TIME =     0.03 SECS, INTEGRAL =      1.90 TIME LEFT: 172798.09
 STEP:  62 TIME =     0.03 SECS, INTEGRAL =      1.93 TIME LEFT: 172798.06
 STEP:  63 TIME =     0.03 SECS, INTEGRAL =      1.96 TIME LEFT: 172798.03
 STEP:  64 TIME =     0.03 SECS, INTEGRAL =      1.99 TIME LEFT: 172798.00
 STEP:  65 TIME =     0.03 SECS, INTEGRAL =      2.02 TIME LEFT: 172797.97
 STEP:  66 TIME =     0.03 SECS, INTEGRAL =      2.05 TIME LEFT: 172797.94
 STEP:  67 TIME =     0.03 SECS, INTEGRAL =      2.08 TIME LEFT: 172797.91
 STEP:  68 TIME =     0.03 SECS, INTEGRAL =      2.12 TIME LEFT: 172797.87
 STEP:  69 TIME =     0.03 SECS, INTEGRAL =      2.15 TIME LEFT: 172797.84

(To convert to Hartree/Bohr^2, multiply by (10^(-21) x N x a0^2)/(4.184 x 627.51) = 0.0642)


           FORCE MATRIX IN MILLIDYNES/ANGSTROM


                  C  1       C  2       C  3       C  4       C  5       C  6
 ------------------------------------------------------------------------------
     C    1  14.207507
     C    2   3.097005  14.818097
     C    3   2.955859   1.797184  14.684635
     C    4   1.768081   3.478135   3.419028  14.339211
     C    5   4.341886   0.532829   0.518326   0.042704  14.495686
     C    6   0.667074   0.030661   0.045492   0.006041   4.463377  14.362187
     C    7   0.586938   5.033412   0.045749   0.576270   0.032064   0.004166
     C    8   0.027482   0.857485   0.002496   0.045963   0.003940   0.007247
     O    9   0.742177   0.041453   5.561925   0.742716   0.056713   0.013502
     H   10   4.392780   0.439452   0.451387   0.024746   0.428870   0.030561
     H   11   0.441455   4.370059   0.030553   0.425156   0.031863   0.008365
     H   12   0.422423   0.026758   4.305878   0.416018   0.030324   0.002086
     H   13   0.449411   0.024004   0.024705   0.001346   4.433328   0.437773
     H   14   0.432215   0.046478   0.021076   0.003044   4.447045   0.441266
     H   15   0.027294   0.453923   0.485378   4.654598   0.001246   0.000504
     H   16   0.033230   0.443152   0.440121   4.717951   0.004983   0.001087
     H   17   0.022077   0.002282   0.002066   0.000490   0.463952   4.728244
     H   18   0.021899   0.007891   0.002119   0.000620   0.463319   4.681614
     H   19   0.052962   0.002067   0.007802   0.001010   0.450972   4.757948
     H   20   0.010696   0.441403   0.005908   0.031836   0.001413   0.000700
     H   21   0.019355   0.139351   0.002814   0.012450   0.002110   0.000415
     H   22   0.013676   0.101997   0.001420   0.006250   0.001956   0.008444
     H   23   0.054295   0.007801   0.858433   0.101333   0.007248   0.003107


                  C  7       C  8       O  9       H 10       H 11       H 12
 ------------------------------------------------------------------------------
     C    7  18.258621
     C    8  11.045830  18.010199
     O    9   0.011304   0.004291  12.017838
     H   10   0.035386   0.004076   0.037470   4.908201
     H   11   0.435403   0.048331   0.004204   0.029299   4.870598
     H   12   0.004625   0.000730   0.419027   0.030777   0.002371   4.757532
     H   13   0.001025   0.000551   0.003508   0.042452   0.026846   0.016798
     H   14   0.006051   0.001324   0.002903   0.024731   0.003122   0.009330
     H   15   0.031844   0.003823   0.062728   0.002951   0.030660   0.029960
     H   16   0.032814   0.005743   0.043199   0.000903   0.027733   0.025239
     H   17   0.000738   0.000560   0.001283   0.020151   0.000470   0.000541
     H   18   0.002532   0.006604   0.001393   0.002257   0.011047   0.000502
     H   19   0.000537   0.000952   0.003120   0.002100   0.000552   0.000477
     H   20   4.783442   0.451603   0.005175   0.004716   0.033622   0.001190
     H   21   0.461335   5.111275   0.001523   0.001189   0.004952   0.000508
     H   22   0.493004   5.046339   0.001286   0.000888   0.026928   0.000262
     H   23   0.004359   0.000818   8.304836   0.021876   0.001489   0.050802


                  H 13       H 14       H 15       H 16       H 17       H 18
 ------------------------------------------------------------------------------
     H   13   5.049434
     H   14   0.571415   5.057557
     H   15   0.000507   0.000578   5.290519
     H   16   0.000659   0.000792   0.547966   5.334051
     H   17   0.048208   0.025526   0.000126   0.000200   5.468946
     H   18   0.023070   0.049090   0.000238   0.000268   0.576016   5.415853
     H   19   0.031395   0.027427   0.000105   0.000214   0.572381   0.565135
     H   20   0.000517   0.000456   0.029593   0.001850   0.000317   0.000382
     H   21   0.000115   0.000400   0.000809   0.001640   0.000315   0.000621
     H   22   0.000268   0.000711   0.000693   0.000986   0.000521   0.009757
     H   23   0.001164   0.002560   0.004784   0.010326   0.000555   0.000516


                  H 19       H 20       H 21       H 22       H 23
 ------------------------------------------------------------------
     H   19   5.489832
     H   20   0.000162   5.149071
     H   21   0.000230   0.081160   5.496770
     H   22   0.000495   0.120947   0.420150   5.441077
     H   23   0.000685   0.001945   0.000751   0.000490   8.586110


          HEAT OF FORMATION =     -38.956904 KCALS/MOLE

          ZERO POINT ENERGY     127.180 KCAL/MOL


           NORMAL COORDINATE ANALYSIS (Total motion = 1 Angstrom)


   Root No.       1         2         3         4         5         6         7         8

                 1 A       2 A       3 A       4 A       5 A       6 A       7 A       8 A   

                  54.5      72.5      90.4     166.5     187.4     219.4     259.8     308.6
  
           1   -0.0155   -0.0122   -0.0121   -0.0099   -0.0047   -0.0008   -0.0201    0.0219
           2    0.0046   -0.0064    0.0068    0.0117   -0.0082   -0.0008   -0.0061   -0.0118
           3    0.0009   -0.0006    0.0161   -0.0109    0.0197    0.0005    0.0169    0.0184
           4   -0.0159   -0.0121   -0.0122   -0.0105   -0.0035    0.0002   -0.0204    0.0206
           5   -0.0179   -0.0147   -0.0050    0.0055   -0.0084    0.0009   -0.0069    0.0195
           6    0.0126   -0.0073    0.0029   -0.0078    0.0077   -0.0021    0.0245    0.0105
           7    0.0074   -0.0047    0.0006   -0.0042   -0.0037    0.0026   -0.0191   -0.0009
           8    0.0044   -0.0062    0.0071    0.0112   -0.0073    0.0003   -0.0027   -0.0088
           9   -0.0064    0.0050   -0.0025    0.0019    0.0022   -0.0043    0.0057   -0.0004
          10    0.0057   -0.0023    0.0004   -0.0027   -0.0041   -0.0002   -0.0189    0.0004
          11   -0.0183   -0.0129   -0.0053    0.0047   -0.0078    0.0007   -0.0069    0.0195
          12    0.0185   -0.0407    0.0026   -0.0116   -0.0007    0.0060   -0.0089   -0.0135
          13   -0.0139   -0.0167   -0.0259    0.0139   -0.0101   -0.0122    0.0352    0.0105
          14    0.0054    0.0061   -0.0049   -0.0094    0.0049   -0.0011   -0.0053   -0.0159
          15   -0.0002   -0.0051    0.0298   -0.0124    0.0148    0.0070   -0.0165    0.0268
          16   -0.0131    0.0086    0.0657    0.0313   -0.0032   -0.0043    0.0019   -0.0158
          17    0.0054    0.0068   -0.0014   -0.0091    0.0053   -0.0008   -0.0070   -0.0183
          18    0.0015   -0.0370   -0.0095    0.0330   -0.0222   -0.0058   -0.0079   -0.0239
          19   -0.0327   -0.0161   -0.0076   -0.0323    0.0274    0.0137    0.0134   -0.0189
          20   -0.0281    0.0145   -0.0144   -0.0077    0.0020    0.0090   -0.0013    0.0043
          21    0.0147    0.0129   -0.0054   -0.0055   -0.0016   -0.0042    0.0098    0.0205
          22    0.0765    0.0107   -0.0181   -0.0168    0.0096    0.0021    0.0049   -0.0175
          23    0.0176    0.0233   -0.0179   -0.0006   -0.0055    0.0040   -0.0036    0.0076
          24   -0.0162    0.0410   -0.0153   -0.0195    0.0031    0.0057   -0.0165   -0.0219
          25   -0.0020    0.0358    0.0018    0.0209   -0.0071    0.0082    0.0145    0.0084
          26    0.0192   -0.0109    0.0294   -0.0032    0.0203   -0.0407    0.0306    0.0051
          27   -0.0195    0.0285   -0.0144    0.0234   -0.0154    0.0184    0.0043   -0.0049
          28   -0.0285   -0.0127   -0.0065   -0.0164   -0.0020    0.0017   -0.0426    0.0367
          29    0.0160   -0.0109    0.0209    0.0116   -0.0074    0.0102   -0.0065   -0.0120
          30    0.0004   -0.0032    0.0251   -0.0135    0.0200    0.0057    0.0042    0.0249
          31   -0.0157   -0.0156   -0.0244   -0.0065   -0.0157   -0.0021   -0.0276    0.0308
          32   -0.0190   -0.0413   -0.0056    0.0039   -0.0116    0.0043   -0.0163    0.0178
          33    0.0128    0.0019   -0.0026   -0.0056    0.0032   -0.0042    0.0233    0.0158
          34    0.0299   -0.0327    0.0088   -0.0160   -0.0018    0.0146   -0.0314   -0.0183
          35    0.0052    0.0013   -0.0018    0.0232   -0.0215   -0.0056   -0.0156   -0.0314
          36   -0.0158    0.0211   -0.0106    0.0135   -0.0062   -0.0133    0.0045   -0.0044
          37   -0.0116   -0.0333   -0.0865    0.0320   -0.0152   -0.0273    0.0969    0.0015
          38    0.0048    0.0322    0.0440   -0.0271    0.0267    0.0072   -0.0213   -0.0041
          39    0.0007   -0.0029    0.0188   -0.0103    0.0207    0.0026    0.0078    0.0267
          40   -0.0136   -0.0226   -0.0473    0.0128   -0.0119   -0.0151    0.0450    0.0120
          41    0.0057   -0.0100   -0.0663   -0.0198    0.0009   -0.0076    0.0153   -0.0059
          42   -0.0027    0.0135    0.0812   -0.0447    0.0244    0.0236   -0.0826    0.0464
          43   -0.0040    0.0299   -0.0003    0.0085   -0.0029   -0.0069   -0.0079    0.0044
          44   -0.0293    0.0069   -0.0093    0.0055   -0.0028   -0.0052    0.0139    0.0423
          45    0.0276   -0.0637    0.0047   -0.0169   -0.0034    0.0120   -0.0229   -0.0257
          46    0.0275   -0.0263    0.0081   -0.0086   -0.0051    0.0061   -0.0264   -0.0174
          47   -0.0222   -0.0348   -0.0090   -0.0006   -0.0120    0.0072   -0.0276    0.0124
          48    0.0296   -0.0691    0.0052   -0.0185   -0.0038    0.0138   -0.0264   -0.0291
          49   -0.0201    0.0243    0.1427   -0.0646   -0.1424   -0.0235    0.0277   -0.0314
          50    0.0057   -0.0198   -0.0527    0.0057   -0.0273   -0.0121    0.0124   -0.0425
          51   -0.0027   -0.0400    0.0134   -0.0191   -0.1241   -0.0233    0.0173   -0.0456
          52   -0.0132    0.0148    0.0896    0.0290   -0.0107   -0.0037   -0.0043   -0.0237
          53    0.0068    0.0221    0.0571    0.0071    0.0111    0.0051   -0.0327   -0.0419
          54    0.0109   -0.0547   -0.0807    0.1643    0.1363    0.0169   -0.0490   -0.0312
          55   -0.0051    0.0065    0.0372    0.1442    0.1488    0.0212   -0.0469   -0.0185
          56    0.0042    0.0182   -0.0063   -0.0392    0.0320    0.0054   -0.0025    0.0279
          57   -0.0019   -0.0416    0.0069   -0.0074   -0.1100   -0.0214    0.0137   -0.0460
          58   -0.1389   -0.0429    0.0041   -0.0690    0.0740    0.0342    0.0602   -0.0796
          59   -0.0743    0.0299   -0.0189   -0.0278    0.0196    0.0210    0.0025   -0.0349
          60    0.0418    0.0044   -0.0029    0.0061   -0.0119   -0.0109    0.0067    0.0423
          61    0.0685    0.0079   -0.0160   -0.0381    0.0381    0.0129    0.0461   -0.0696
          62    0.0117    0.0461   -0.0257   -0.0163    0.0067    0.0136   -0.0088   -0.0488
          63   -0.0158    0.0566   -0.0212   -0.0186   -0.0036    0.0062   -0.0408   -0.0310
          64    0.1806    0.0367   -0.0286    0.0201   -0.0339   -0.0201   -0.0448    0.0337
          65    0.0632    0.0082   -0.0133    0.0210   -0.0244   -0.0103   -0.0009    0.0659
          66   -0.0437    0.0505   -0.0183   -0.0328    0.0146    0.0145   -0.0188   -0.0581
          67   -0.0069    0.0328   -0.0001    0.0123    0.0027   -0.1354    0.0016    0.0036
          68    0.0362    0.0004    0.0364    0.0280   -0.0143    0.4648    0.0774    0.0225
          69   -0.0356    0.0531   -0.0130    0.0209    0.0121   -0.3456    0.0114   -0.0046


   Root No.       9        10        11        12        13        14        15        16

                 9 A      10 A      11 A      12 A      13 A      14 A      15 A      16 A   

                 338.1     383.0     474.4     480.3     532.8     640.5     718.2     820.1
  
           1   -0.0063   -0.0134    0.0094    0.0024    0.0148    0.0274   -0.0262    0.0053
           2   -0.0036    0.0104   -0.0197   -0.0340   -0.0083   -0.0086   -0.0204   -0.0049
           3   -0.0225   -0.0156   -0.0123    0.0153   -0.0376   -0.0063    0.0189   -0.0005
           4   -0.0043   -0.0141    0.0174   -0.0001    0.0221    0.0046   -0.0153   -0.0207
           5    0.0099    0.0003    0.0110   -0.0203   -0.0052    0.0058    0.0309    0.0010
           6   -0.0153    0.0408    0.0131   -0.0268    0.0080   -0.0077    0.0219    0.0142
           7    0.0022    0.0143   -0.0301    0.0090    0.0037   -0.0015    0.0280    0.0005
           8    0.0062    0.0092   -0.0282   -0.0407   -0.0010   -0.0109   -0.0268   -0.0028
           9    0.0045   -0.0294   -0.0230    0.0209    0.0376    0.0057    0.0234    0.0026
          10   -0.0032    0.0111   -0.0369    0.0078    0.0086   -0.0005    0.0255    0.0004
          11    0.0037   -0.0024    0.0143   -0.0350   -0.0052    0.0160    0.0357   -0.0016
          12    0.0473    0.0071    0.0094    0.0162   -0.0102   -0.0007    0.0098    0.0078
          13   -0.0126   -0.0217   -0.0184    0.0020   -0.0260    0.0100   -0.0227    0.0328
          14   -0.0364   -0.0049    0.0172    0.0165   -0.0062    0.0029   -0.0018    0.0021
          15   -0.0093   -0.0055   -0.0150   -0.0062   -0.0333    0.0069   -0.0182   -0.0115
          16   -0.0126   -0.0028    0.0028    0.0083   -0.0029    0.0012   -0.0026    0.0078
          17   -0.0415   -0.0045    0.0242    0.0215   -0.0092    0.0045   -0.0033    0.0020
          18   -0.0195   -0.0008    0.0127    0.0124    0.0020    0.0028   -0.0028   -0.0013
          19   -0.0012    0.0079    0.0125   -0.0128    0.0124   -0.0611   -0.0053   -0.0021
          20    0.0153    0.0205   -0.0114    0.0395    0.0001   -0.0248   -0.0029    0.0031
          21   -0.0156    0.0426    0.0092    0.0042    0.0276    0.0054   -0.0201   -0.0120
          22   -0.0022   -0.0071    0.0063   -0.0244    0.0019    0.0031   -0.0001   -0.0029
          23    0.0147    0.0195   -0.0155    0.0413   -0.0035    0.0018   -0.0018    0.0044
          24    0.0086   -0.0275    0.0061   -0.0201   -0.0028   -0.0022   -0.0021   -0.0065
          25    0.0323    0.0181    0.0346    0.0042   -0.0248    0.0024    0.0078    0.0022
          26    0.0281   -0.0358   -0.0003    0.0061    0.0344    0.0032   -0.0075   -0.0012
          27    0.0083   -0.0048   -0.0115   -0.0136    0.0140   -0.0033   -0.0162   -0.0032
          28   -0.0003   -0.0415    0.0172    0.0180    0.0168    0.0500   -0.0420   -0.0264
          29   -0.0041    0.0329   -0.0369   -0.0619   -0.0406   -0.0288   -0.0449   -0.0158
          30   -0.0199   -0.0168   -0.0167    0.0086   -0.0516   -0.0039   -0.0009   -0.0192
          31    0.0050   -0.0057    0.0430   -0.0039    0.0515    0.0458   -0.0319   -0.0435
          32    0.0368   -0.0153    0.0371   -0.0281   -0.0120    0.0217    0.0569   -0.0038
          33   -0.0206    0.0492    0.0150   -0.0247    0.0241    0.0053    0.0039    0.0045
          34    0.0159    0.0266   -0.0594    0.0210    0.0060   -0.0163    0.0445    0.0044
          35    0.0165    0.0320   -0.0504   -0.0620    0.0099   -0.0288   -0.0565   -0.0062
          36    0.0047   -0.0220   -0.0214    0.0036    0.0411    0.0027   -0.0008   -0.0009
          37   -0.0276   -0.0443   -0.0448    0.0202   -0.0778   -0.0185    0.0213   -0.1218
          38   -0.0398   -0.0019    0.0243    0.0211   -0.0095    0.0092   -0.0091    0.0872
          39   -0.0180   -0.0152   -0.0247    0.0048   -0.0590   -0.0046    0.0010   -0.0509
          40   -0.0163   -0.0276   -0.0210    0.0068   -0.0340    0.0088   -0.0171   -0.0049
          41   -0.0467   -0.0198    0.0153    0.0286   -0.0237    0.0064    0.0047   -0.0819
          42    0.0010    0.0137    0.0180   -0.0186    0.0167    0.0466   -0.0711    0.1465
          43   -0.0394   -0.0069   -0.0855    0.0050    0.0627    0.0037    0.0755    0.0170
          44   -0.0424    0.0146    0.0273   -0.0752    0.0241    0.0240    0.0932    0.0223
          45    0.0860    0.0081    0.0269    0.0367   -0.0495   -0.0069   -0.0399   -0.0112
          46    0.0328    0.0419   -0.0254    0.0123   -0.0446   -0.0196   -0.0251   -0.0030
          47    0.0485   -0.0308    0.0356    0.0027   -0.0278    0.0216    0.0014   -0.0373
          48    0.0977    0.0087    0.0305    0.0431   -0.0589   -0.0091   -0.0460   -0.0168
          49   -0.0174   -0.0025    0.0112    0.0140    0.0032   -0.0058    0.0169   -0.0497
          50   -0.0511   -0.0096    0.0393    0.0361    0.0086    0.0069   -0.0005    0.1030
          51   -0.0274   -0.0032    0.0257    0.0235    0.0149   -0.0002    0.0106    0.0153
          52   -0.0140    0.0018    0.0115    0.0122    0.0049   -0.0030    0.0117   -0.0347
          53   -0.0447    0.0104    0.0514    0.0329    0.0168   -0.0073    0.0384   -0.1104
          54   -0.0198    0.0070    0.0273    0.0194    0.0204    0.0036    0.0059    0.0271
          55   -0.0099    0.0100    0.0150    0.0114    0.0117   -0.0019    0.0141   -0.0419
          56   -0.0309   -0.0141   -0.0137   -0.0021   -0.0537    0.0138   -0.0471    0.0076
          57   -0.0267   -0.0024    0.0263    0.0234    0.0172   -0.0002    0.0112    0.0204
          58    0.0092    0.0732   -0.0018   -0.0281    0.0169    0.0080    0.0043    0.0176
          59    0.0291    0.0216   -0.0279    0.0509   -0.0060    0.0086   -0.0146    0.0043
          60   -0.0227    0.0400    0.0187   -0.0028    0.0300   -0.0141   -0.0127   -0.0125
          61    0.0052    0.0653   -0.0256   -0.0269    0.0030    0.2800   -0.0131   -0.0388
          62    0.0379   -0.0177   -0.0330    0.0088   -0.0427    0.1291    0.0435    0.0298
          63    0.0193   -0.0881    0.0118   -0.0407   -0.0281   -0.0631    0.0337    0.0278
          64   -0.0104   -0.0963    0.0315   -0.0376   -0.0142   -0.1694    0.0295    0.0357
          65   -0.0080    0.0535   -0.0029    0.0745    0.0294   -0.0813   -0.0417   -0.0184
          66    0.0230   -0.0502   -0.0016   -0.0415   -0.0241    0.0483    0.0241    0.0089
          67    0.0326    0.0255    0.0251    0.0025   -0.0260    0.0000    0.0103    0.0018
          68    0.0296   -0.0625    0.0374    0.0121    0.0383    0.0126   -0.0186    0.0000
          69    0.0502    0.0077    0.0455   -0.0106   -0.0115    0.0008   -0.0284   -0.0005


   Root No.      17        18        19        20        21        22        23        24

                17 A      18 A      19 A      20 A      21 A      22 A      23 A      24 A   

                 895.4     926.7     929.2     967.6     974.9     996.1    1019.0    1025.9
  
           1   -0.0132    0.0151   -0.0024   -0.0040   -0.0220    0.0051    0.0069   -0.0047
           2   -0.0002   -0.0127    0.0065    0.0131    0.0188   -0.0072    0.0347   -0.0063
           3    0.0193    0.0073   -0.0086   -0.0197    0.0008    0.0014    0.0027    0.0024
           4    0.0008   -0.0070   -0.0104   -0.0087    0.0324   -0.0048    0.0037    0.0037
           5    0.0016    0.0037   -0.0086    0.0016    0.0087   -0.0154   -0.0003    0.0030
           6   -0.0138    0.0127   -0.0164    0.0062   -0.0015    0.0014   -0.0010    0.0028
           7    0.0070   -0.0035    0.0078   -0.0050   -0.0068    0.0250   -0.0241    0.0057
           8   -0.0017    0.0068   -0.0070   -0.0231   -0.0155    0.0117   -0.0149    0.0025
           9    0.0031   -0.0072    0.0099    0.0100    0.0023    0.0104   -0.0003    0.0007
          10    0.0124    0.0171   -0.0074    0.0186    0.0064   -0.0333    0.0184   -0.0071
          11    0.0243    0.0038    0.0173    0.0105   -0.0145    0.0116   -0.0040   -0.0036
          12   -0.0244   -0.0223    0.0066   -0.0105   -0.0054   -0.0101    0.0173   -0.0033
          13   -0.0016   -0.0027    0.0038    0.0056   -0.0121    0.0044    0.0093    0.0059
          14    0.0001   -0.0002    0.0005    0.0006   -0.0010    0.0018    0.0019    0.0004
          15   -0.0132   -0.0061    0.0057    0.0016    0.0030    0.0000   -0.0002   -0.0046
          16    0.0025   -0.0066    0.0037    0.0046    0.0101   -0.0039   -0.0125   -0.0023
          17   -0.0052   -0.0034    0.0027    0.0084    0.0020   -0.0042   -0.0096    0.0007
          18   -0.0091   -0.0058    0.0066    0.0229   -0.0019   -0.0018   -0.0156    0.0063
          19    0.0081   -0.0161   -0.0274    0.0058   -0.0044    0.0029    0.0022    0.0314
          20   -0.0039   -0.0038   -0.0160    0.0022    0.0006    0.0029    0.0016    0.0130
          21    0.0107    0.0035    0.0099    0.0028    0.0094    0.0134    0.0010   -0.0077
          22    0.0074   -0.0084    0.0005    0.0040   -0.0105   -0.0019   -0.0051   -0.0528
          23   -0.0088    0.0014   -0.0082    0.0008    0.0001    0.0023   -0.0005   -0.0221
          24    0.0162   -0.0131    0.0202   -0.0052   -0.0135   -0.0182   -0.0002    0.0139
          25   -0.0034   -0.0085    0.0056   -0.0021   -0.0010    0.0068    0.0018    0.0001
          26    0.0007    0.0065   -0.0038    0.0010   -0.0011   -0.0023   -0.0068    0.0011
          27    0.0037    0.0127   -0.0088   -0.0019   -0.0015   -0.0068   -0.0095    0.0015
          28   -0.0167    0.0260   -0.0023   -0.0574   -0.0147   -0.0210   -0.0129   -0.0429
          29    0.0010   -0.0307    0.0006   -0.0173    0.0495    0.0046    0.0856   -0.0136
          30    0.0172    0.0035   -0.0106   -0.0580    0.0183   -0.0051    0.0188   -0.0194
          31   -0.0515   -0.0109   -0.0103   -0.0408    0.0840   -0.0037   -0.0503   -0.0361
          32   -0.0266   -0.0382    0.0039   -0.0459    0.0026   -0.0720   -0.0426    0.0060
          33   -0.0247    0.0269   -0.0208    0.0107    0.0261    0.0262   -0.0088   -0.0171
          34   -0.0222   -0.0489    0.0182   -0.0496   -0.0026    0.0674   -0.0714    0.0269
          35   -0.0346   -0.0281   -0.0048   -0.0622   -0.0053    0.0555   -0.0616    0.0208
          36   -0.0007   -0.0029    0.0049    0.0096    0.0052    0.0122   -0.0038    0.0006
          37   -0.0217   -0.0024    0.0029   -0.0244    0.0230   -0.0057   -0.0165   -0.0227
          38    0.0466   -0.0125   -0.0093   -0.0658    0.0490   -0.0025   -0.0216   -0.0187
          39   -0.0029   -0.0108    0.0006   -0.0422    0.0417   -0.0065   -0.0227   -0.0270
          40   -0.0183    0.0089    0.0018    0.0045   -0.0384    0.0135    0.0207    0.0089
          41   -0.0503    0.0373   -0.0062    0.0031   -0.0945    0.0342    0.0438    0.0169
          42   -0.0104    0.0105    0.0010    0.0163   -0.0760    0.0299    0.0454    0.0286
          43   -0.0367   -0.0619    0.0303    0.0029    0.0078    0.0048    0.1009   -0.0218
          44   -0.0558   -0.0344    0.0099   -0.0371   -0.0381   -0.0733   -0.0418    0.0035
          45    0.0362    0.0331   -0.0078    0.0186    0.0049    0.0115   -0.0055    0.0006
          46    0.0476    0.1245   -0.0751    0.0274   -0.0196   -0.1284   -0.0703    0.0045
          47    0.1153    0.0052    0.0612    0.0586    0.0313    0.1425    0.0298   -0.0076
          48    0.0561    0.0480   -0.0090    0.0269    0.0068    0.0125   -0.0156    0.0011
          49   -0.0153    0.0168   -0.0063   -0.0037   -0.0277    0.0101    0.0204    0.0053
          50    0.0668   -0.0012   -0.0201   -0.0982    0.0531   -0.0105    0.0124   -0.0364
          51    0.0167    0.0097   -0.0111   -0.0361    0.0010    0.0036    0.0153   -0.0076
          52   -0.0112    0.0118   -0.0045   -0.0024   -0.0199    0.0065    0.0127    0.0035
          53   -0.0377    0.0498   -0.0233   -0.0223   -0.0791    0.0251    0.0656    0.0144
          54    0.0205    0.0088   -0.0114   -0.0391    0.0032    0.0034    0.0162   -0.0086
          55   -0.0109    0.0183   -0.0091   -0.0103   -0.0296    0.0110    0.0260    0.0025
          56   -0.0513   -0.0577    0.0518    0.1443    0.0295   -0.0287   -0.1097    0.0258
          57    0.0207    0.0099   -0.0122   -0.0397    0.0031    0.0037    0.0164   -0.0088
          58   -0.0492    0.1219    0.2076   -0.0143    0.0587    0.0151    0.0000   -0.0870
          59   -0.0145    0.0170    0.1170   -0.0306   -0.0176   -0.0399   -0.0057   -0.0350
          60    0.0167   -0.0088   -0.0683    0.0218    0.0197    0.0380    0.0053    0.0206
          61    0.0408   -0.0200    0.0174   -0.0253    0.0144   -0.0329    0.0153    0.2151
          62   -0.0765    0.0656   -0.0933    0.0082    0.0787    0.0627    0.0134    0.0858
          63   -0.0431    0.0338   -0.0425    0.0149    0.0240    0.0365   -0.0018   -0.0545
          64   -0.0576    0.1030    0.1135   -0.0186    0.0668    0.0186    0.0175    0.1815
          65    0.0409   -0.0252    0.1299   -0.0330   -0.0405   -0.0719    0.0033    0.0767
          66   -0.0170    0.0058   -0.0669    0.0161    0.0139    0.0294   -0.0022   -0.0455
          67   -0.0011   -0.0074    0.0054   -0.0054   -0.0037    0.0137   -0.0079    0.0024
          68   -0.0088    0.0029   -0.0039    0.0139    0.0094   -0.0312    0.0314   -0.0082
          69   -0.0104    0.0006   -0.0088    0.0139    0.0144   -0.0455    0.0499   -0.0117


   Root No.      25        26        27        28        29        30        31        32

                25 A      26 A      27 A      28 A      29 A      30 A      31 A      32 A   

                1053.8    1068.2    1114.4    1123.7    1127.8    1131.0    1144.6    1165.1
  
           1    0.0058    0.0239   -0.0063   -0.0102   -0.0050   -0.0006    0.0066   -0.0022
           2    0.0230    0.0003    0.0143    0.0093    0.0048   -0.0101   -0.0242    0.0363
           3   -0.0004   -0.0089   -0.0064    0.0114   -0.0035   -0.0188   -0.0231   -0.0327
           4    0.0202   -0.0189    0.0033    0.0191    0.0023   -0.0058   -0.0115   -0.0335
           5   -0.0371   -0.0174    0.0045    0.0131    0.0115    0.0059   -0.0173    0.0056
           6   -0.0067   -0.0015    0.0003   -0.0062    0.0014    0.0041    0.0009    0.0059
           7    0.0254   -0.0059   -0.0038   -0.0204   -0.0060   -0.0115   -0.0145    0.0122
           8   -0.0247    0.0118   -0.0104   -0.0137   -0.0135   -0.0275   -0.0042   -0.0228
           9    0.0103   -0.0042    0.0185   -0.0083   -0.0037    0.0102   -0.0188    0.0230
          10   -0.0145    0.0034    0.0032    0.0064   -0.0002    0.0139    0.0188   -0.0148
          11    0.0176    0.0202   -0.0029   -0.0029   -0.0060    0.0058    0.0223   -0.0039
          12    0.0069    0.0187   -0.0022    0.0003   -0.0077   -0.0078    0.0039   -0.0155
          13   -0.0010   -0.0223   -0.0043    0.0130   -0.0241    0.0033   -0.0006    0.0119
          14    0.0019   -0.0006    0.0347    0.0063    0.0126   -0.0377    0.0026   -0.0016
          15   -0.0002    0.0022    0.0016   -0.0147    0.0105    0.0254    0.0166    0.0199
          16   -0.0017    0.0143    0.0044   -0.0130    0.0317    0.0002   -0.0020   -0.0095
          17   -0.0040    0.0027   -0.0381   -0.0051   -0.0134    0.0349   -0.0065   -0.0004
          18   -0.0054   -0.0015    0.0057    0.0098   -0.0120   -0.0171    0.0026   -0.0084
          19   -0.0025    0.0101   -0.0001   -0.0066   -0.0018    0.0008    0.0061    0.0074
          20    0.0008    0.0044    0.0000   -0.0026   -0.0006    0.0004    0.0024    0.0049
          21   -0.0017    0.0062   -0.0010    0.0061   -0.0003   -0.0025   -0.0054   -0.0086
          22   -0.0025   -0.0081    0.0005    0.0036    0.0014    0.0004   -0.0024   -0.0019
          23    0.0033   -0.0029   -0.0004    0.0006    0.0002   -0.0009   -0.0027   -0.0003
          24   -0.0103   -0.0047    0.0009   -0.0014    0.0024    0.0021   -0.0016    0.0083
          25   -0.0033    0.0020    0.0069   -0.0022   -0.0034    0.0000   -0.0081    0.0028
          26    0.0058   -0.0021   -0.0067   -0.0003    0.0025   -0.0002    0.0050    0.0003
          27    0.0091   -0.0033   -0.0235    0.0050    0.0095   -0.0130    0.0122    0.0000
          28   -0.0842    0.1496    0.0097    0.0751   -0.0035   -0.0115   -0.1166    0.1115
          29    0.1261   -0.0444   -0.0681   -0.0592   -0.0001    0.0299    0.0083   -0.0370
          30    0.0072    0.0282   -0.0380    0.0175   -0.0044   -0.0020   -0.0651   -0.0135
          31   -0.0242   -0.0935   -0.0168   -0.1010   -0.0197   -0.0436    0.0680    0.0526
          32   -0.0970   -0.1152   -0.0218   -0.0879    0.0083   -0.0314   -0.0444    0.0273
          33   -0.0031    0.0032    0.0015   -0.0209   -0.0073    0.0012    0.0479    0.0371
          34    0.0020   -0.0432   -0.0930    0.1848    0.1326    0.0217    0.0682    0.0723
          35   -0.0632   -0.0221    0.1319    0.0699   -0.0182    0.2100   -0.0022   -0.0925
          36    0.0006   -0.0051    0.1353   -0.0589   -0.0707    0.1236   -0.0563   -0.0429
          37   -0.0066    0.0384    0.0202   -0.0253   -0.0015    0.0332    0.0637    0.0448
          38   -0.0162   -0.0050    0.1221    0.0469   -0.1121   -0.0925    0.1425    0.0440
          39   -0.0108    0.0296    0.0506   -0.0181   -0.0297    0.0190    0.1074    0.0561
          40   -0.0024   -0.0259    0.0138   -0.0061    0.0359    0.0093    0.0064    0.0028
          41   -0.0035   -0.0298    0.0950   -0.0531    0.2112   -0.0221    0.0239   -0.0372
          42   -0.0081   -0.0923    0.0145   -0.0033    0.0451    0.0214    0.0116    0.0157
          43   -0.1720    0.0371   -0.0492   -0.0284   -0.0140   -0.0330    0.0589   -0.0526
          44    0.1904    0.0347    0.0268    0.0454   -0.0049    0.0275    0.0087   -0.0234
          45    0.0018   -0.0045    0.0093   -0.0060   -0.0023    0.0047   -0.0087    0.0098
          46    0.0269   -0.0195    0.0314   -0.0032    0.0031    0.0324    0.0040    0.0324
          47   -0.0427   -0.0093   -0.0187    0.0024    0.0065    0.0231    0.0438   -0.0223
          48   -0.0033   -0.0124    0.0072   -0.0034    0.0011    0.0147    0.0066    0.0038
          49    0.0023   -0.0194    0.0069    0.0152   -0.0263   -0.0087    0.0058    0.0088
          50    0.0067    0.0442   -0.0648   -0.0759    0.0846    0.1245   -0.0044    0.0165
          51    0.0021   -0.0015   -0.0043   -0.0077    0.0006    0.0204    0.0094    0.0117
          52    0.0005   -0.0126   -0.0051    0.0052   -0.0143    0.0062    0.0023    0.0047
          53    0.0029   -0.0732   -0.0691    0.0423   -0.1426    0.0609    0.0069    0.0439
          54    0.0028    0.0006    0.0003   -0.0123    0.0142    0.0184    0.0077    0.0103
          55    0.0047   -0.0193    0.0046    0.0142   -0.0237   -0.0054    0.0026    0.0089
          56   -0.0278    0.0286   -0.0450    0.0036   -0.0134   -0.0023   -0.0137   -0.0489
          57    0.0030    0.0012    0.0088   -0.0087    0.0148    0.0066    0.0061    0.0080
          58   -0.0320   -0.0237    0.0005    0.0244    0.0139   -0.0028   -0.0380    0.0104
          59    0.0634   -0.0143   -0.0020   -0.0099   -0.0186   -0.0067    0.0390   -0.0695
          60   -0.0379    0.0170    0.0001    0.0100    0.0099    0.0015   -0.0264    0.0332
          61   -0.0127    0.0118    0.0016   -0.0052    0.0012    0.0031    0.0045    0.0095
          62    0.0262    0.0247   -0.0041   -0.0026   -0.0069   -0.0087   -0.0026   -0.0205
          63    0.0080    0.0029   -0.0019    0.0016   -0.0017   -0.0039   -0.0053   -0.0093
          64    0.0009    0.0305   -0.0012   -0.0078   -0.0039   -0.0009    0.0099    0.0050
          65   -0.0148   -0.0139    0.0013   -0.0124    0.0027    0.0031    0.0002    0.0178
          66    0.0008    0.0025   -0.0003    0.0065    0.0008   -0.0006   -0.0042   -0.0030
          67    0.0019   -0.0003    0.0032   -0.0102   -0.0058   -0.0090   -0.0163    0.0065
          68   -0.0128    0.0076    0.0031    0.0364    0.0162    0.0360    0.0438   -0.0153
          69   -0.0163    0.0092   -0.0185    0.0606    0.0330    0.0339    0.0713   -0.0205


   Root No.      33        34        35        36        37        38        39        40

                33 A      34 A      35 A      36 A      37 A      38 A      39 A      40 A   

                1188.0    1190.2    1208.6    1210.8    1244.8    1258.7    1313.4    1344.9
  
           1    0.0259    0.0003   -0.0358    0.0201    0.0232    0.0232   -0.0169    0.0126
           2   -0.0174    0.0049    0.0082    0.0124    0.0090    0.0070    0.0088    0.0060
           3   -0.0097    0.0114    0.0036   -0.0120    0.0147    0.0148   -0.0025    0.0111
           4   -0.0192   -0.0191   -0.0151    0.0034   -0.0014   -0.0140    0.0210   -0.0006
           5   -0.0038   -0.0076   -0.0407    0.0059   -0.0097   -0.0217   -0.0211    0.0018
           6   -0.0016    0.0234   -0.0360    0.0258   -0.0116    0.0094    0.0134   -0.0006
           7    0.0040   -0.0052   -0.0073    0.0018   -0.0100   -0.0052    0.0017    0.0032
           8   -0.0198   -0.0128    0.0020   -0.0040   -0.0030    0.0013   -0.0031    0.0429
           9   -0.0003    0.0047   -0.0049    0.0006    0.0194   -0.0074   -0.0019    0.0413
          10   -0.0016    0.0051    0.0194   -0.0011   -0.0298    0.0196   -0.0121    0.0033
          11    0.0020    0.0043    0.0200   -0.0202    0.0315   -0.0107    0.0202   -0.0137
          12   -0.0071   -0.0104    0.0051   -0.0133   -0.0044   -0.0035   -0.0022   -0.0105
          13   -0.0055   -0.0013    0.0134   -0.0044   -0.0019   -0.0019   -0.0007   -0.0101
          14    0.0031    0.0061   -0.0027    0.0033    0.0178    0.0200   -0.0137   -0.0309
          15   -0.0166   -0.0210    0.0010    0.0128    0.0068    0.0070   -0.0056   -0.0163
          16    0.0008    0.0013   -0.0014   -0.0011   -0.0011   -0.0009    0.0009    0.0038
          17   -0.0072   -0.0049    0.0009   -0.0007   -0.0027   -0.0023   -0.0004   -0.0087
          18    0.0110    0.0061   -0.0020   -0.0041   -0.0043   -0.0038    0.0018    0.0046
          19    0.0009    0.0059    0.0154    0.0035    0.0014   -0.0004    0.0061   -0.0003
          20    0.0007   -0.0007    0.0030   -0.0077    0.0004   -0.0009   -0.0226   -0.0006
          21    0.0087   -0.0125    0.0461    0.0191    0.0099   -0.0176   -0.0080    0.0003
          22   -0.0017   -0.0007   -0.0029    0.0016    0.0000   -0.0030    0.0026    0.0002
          23    0.0045   -0.0070   -0.0075   -0.0097   -0.0021    0.0083   -0.0056   -0.0003
          24    0.0023   -0.0034   -0.0180   -0.0141   -0.0038    0.0073    0.0008    0.0000
          25   -0.0043   -0.0004   -0.0015   -0.0005    0.0042   -0.0027   -0.0004    0.0009
          26    0.0040   -0.0020   -0.0022    0.0020   -0.0093   -0.0012    0.0006   -0.0239
          27    0.0044   -0.0042   -0.0019    0.0030   -0.0150   -0.0003    0.0010   -0.0319
          28    0.0197    0.1157    0.0698   -0.0140   -0.0822   -0.0344    0.0381   -0.0268
          29    0.2055    0.0774   -0.0740   -0.0467   -0.0046   -0.0481   -0.0310   -0.0053
          30    0.0941    0.1024    0.0148   -0.0574   -0.0404   -0.0377    0.0038   -0.0143
          31   -0.0791    0.1282    0.0707   -0.1409    0.0223    0.0460   -0.0213    0.0085
          32    0.1304   -0.0074    0.1562    0.1304    0.0160    0.0592    0.0072    0.0067
          33   -0.0845    0.0942   -0.0745   -0.0905   -0.0112    0.0034   -0.0173    0.0008
          34    0.0240    0.0357   -0.0081    0.0189    0.0691    0.0111   -0.0011    0.0212
          35    0.0313    0.0497    0.0097   -0.0149    0.0281    0.0328    0.0023   -0.0672
          36    0.0194    0.0204   -0.0011   -0.0138    0.0003    0.0024    0.0008   -0.0219
          37    0.0043   -0.0352   -0.0114    0.0228   -0.0226   -0.0212    0.0089   -0.0115
          38    0.0840   -0.0218   -0.0240    0.0123   -0.0604   -0.0600    0.0268    0.0662
          39    0.0186   -0.0501   -0.0195    0.0296   -0.0358   -0.0354    0.0161    0.0203
          40    0.0003   -0.0012    0.0219   -0.0143   -0.0246   -0.0258    0.0128    0.0157
          41    0.0210    0.0091    0.0325   -0.0377   -0.0651   -0.0672    0.0355    0.0614
          42   -0.0246    0.0010    0.0631   -0.0441   -0.0584   -0.0592    0.0306   -0.0068
          43    0.0020    0.0063    0.0067   -0.0238    0.0805   -0.0581    0.0539   -0.0930
          44   -0.0127   -0.0303    0.0903   -0.0363   -0.0952    0.0561   -0.0416    0.0214
          45   -0.0035    0.0058   -0.0207    0.0045    0.0008    0.0008   -0.0043    0.0167
          46    0.0157    0.0077    0.0274   -0.0369    0.1249   -0.0620    0.0418   -0.0157
          47   -0.0036    0.0480    0.0238    0.0480   -0.1165    0.0778   -0.0161    0.0058
          48   -0.0007    0.0189    0.0090    0.0067    0.0011    0.0008    0.0083   -0.0080
          49    0.0024   -0.0005    0.0013    0.0002    0.0020    0.0019   -0.0062   -0.0241
          50   -0.0415   -0.0336    0.0063    0.0101   -0.0143   -0.0186    0.0210    0.0625
          51   -0.0061   -0.0100    0.0021    0.0029   -0.0063   -0.0079    0.0058    0.0154
          52   -0.0004   -0.0021    0.0034   -0.0016   -0.0067   -0.0079    0.0067    0.0231
          53   -0.0139   -0.0183    0.0161   -0.0008   -0.0212   -0.0259    0.0205    0.0645
          54   -0.0105   -0.0104    0.0039    0.0041   -0.0005   -0.0015   -0.0021   -0.0030
          55    0.0022    0.0008   -0.0009   -0.0002    0.0033    0.0042   -0.0028   -0.0227
          56    0.0361    0.0210   -0.0040   -0.0220   -0.0390   -0.0421    0.0272    0.0888
          57   -0.0113   -0.0080    0.0010    0.0059    0.0090    0.0106   -0.0082   -0.0247
          58    0.0484   -0.0928   -0.0070   -0.0845   -0.0016    0.0272    0.0038   -0.0001
          59   -0.0895    0.1353    0.0180    0.1759    0.0125   -0.0749   -0.0115    0.0009
          60    0.0598   -0.0885    0.0393   -0.0818    0.0035    0.0226   -0.0159   -0.0007
          61   -0.0063    0.0025   -0.0129   -0.0125   -0.0010   -0.0081   -0.0457   -0.0003
          62    0.0154   -0.0057    0.0378    0.0358    0.0007    0.0275    0.1950    0.0025
          63    0.0118   -0.0053    0.0178    0.0208   -0.0008    0.0187    0.1368    0.0018
          64   -0.0019    0.0080    0.0409    0.0096    0.0103   -0.0274   -0.1130   -0.0019
          65    0.0076    0.0011   -0.0737   -0.0325   -0.0198    0.0635    0.2022    0.0018
          66    0.0023   -0.0098    0.0240    0.0006    0.0070   -0.0245   -0.1181   -0.0012
          67   -0.0067   -0.0051   -0.0068    0.0016   -0.0062   -0.0087    0.0000   -0.0309
          68    0.0163    0.0180    0.0208   -0.0065    0.0335    0.0257   -0.0002    0.1116
          69    0.0245    0.0270    0.0315   -0.0111    0.0513    0.0380   -0.0011    0.1764


   Root No.      41        42        43        44        45        46        47        48

                41 A      42 A      43 A      44 A      45 A      46 A      47 A      48 A   

                1372.2    1390.1    1403.8    1407.5    1411.5    1413.0    1427.2    1462.4
  
           1    0.0144   -0.0163   -0.0051    0.0112   -0.0017   -0.0106    0.0026    0.0293
           2    0.0241    0.0075   -0.0024    0.0146   -0.0032   -0.0078    0.0122    0.0296
           3    0.0174   -0.0001   -0.0037    0.0124   -0.0010   -0.0146    0.0052    0.0307
           4    0.0012    0.0224   -0.0007    0.0101   -0.0058    0.0135    0.0054   -0.0332
           5   -0.0170   -0.0239    0.0025   -0.0190    0.0073   -0.0079   -0.0124    0.0372
           6    0.0074    0.0271   -0.0010    0.0126   -0.0066    0.0149    0.0066   -0.0310
           7   -0.0112    0.0482    0.0085   -0.0192    0.0053    0.0044   -0.0104    0.0390
           8   -0.0174   -0.0130   -0.0018    0.0041   -0.0035    0.0092    0.0029   -0.0279
           9   -0.0116   -0.0294   -0.0045    0.0095   -0.0050    0.0071    0.0073   -0.0308
          10   -0.0003   -0.0143   -0.0006   -0.0033    0.0058   -0.0248    0.0043   -0.0246
          11    0.0079    0.0167    0.0011   -0.0012    0.0043   -0.0197    0.0061   -0.0258
          12    0.0018   -0.0011    0.0006   -0.0031    0.0020   -0.0050   -0.0016    0.0066
          13   -0.0036   -0.0005    0.0065   -0.0181    0.0052    0.0114    0.0012   -0.0132
          14   -0.0189   -0.0001   -0.0021   -0.0093    0.0040    0.0057   -0.0477   -0.0234
          15   -0.0040   -0.0035    0.0122   -0.0288    0.0091    0.0193    0.0001   -0.0212
          16    0.0044    0.0008   -0.0232   -0.0079   -0.0174   -0.0025   -0.0008    0.0004
          17   -0.0217    0.0027   -0.0008    0.0069   -0.0095   -0.0041    0.0534    0.0115
          18    0.0023   -0.0013    0.0210    0.0009   -0.0220   -0.0060   -0.0012    0.0016
          19   -0.0037   -0.0098    0.0005   -0.0048    0.0024   -0.0046   -0.0020    0.0069
          20    0.0044    0.0064    0.0001    0.0029   -0.0013    0.0018    0.0013   -0.0018
          21   -0.0089   -0.0208    0.0012   -0.0112    0.0054   -0.0111   -0.0057    0.0200
          22   -0.0031   -0.0056    0.0002   -0.0036    0.0016   -0.0023   -0.0020    0.0064
          23    0.0085    0.0169   -0.0011    0.0101   -0.0045    0.0075    0.0052   -0.0177
          24    0.0019    0.0041   -0.0003    0.0022   -0.0011    0.0023    0.0009   -0.0028
          25    0.0027   -0.0168   -0.0027    0.0060   -0.0018   -0.0007    0.0035   -0.0112
          26    0.0072    0.0009    0.0003   -0.0011    0.0012   -0.0033   -0.0009    0.0047
          27    0.0092    0.0068    0.0013   -0.0031    0.0022   -0.0046   -0.0023    0.0106
[...]
 T-DIPOLE    0.1836        C  3 --  O  9          +10.4% ( 48.0%)    65.5%
 TRAVEL      0.0844        C  3 --  H 12           +9.7% ( 46.3%)     0.1%
 RED. MASS   1.1281        C  3 --  C  4           +9.6% ( 46.0%)    66.8%
 EFF. MASS   6.8169

 VIBRATION   43   43A       ATOM PAIR        ENERGY CONTRIBUTION    RADIAL
 FREQ.      1403.77        C  6 --  H 19          +43.2% ( 58.3%)     0.3%
 T-DIPOLE    0.0519        C  6 --  H 18          +28.7% ( 47.5%)     3.9%
 TRAVEL      0.1683        C  6 --  H 17          +11.4% ( 29.9%)    29.3%
 RED. MASS   0.3561        C  5 --  C  6           +5.0% ( 19.8%)     0.6%
 EFF. MASS   1.6967

 VIBRATION   44   44A       ATOM PAIR        ENERGY CONTRIBUTION    RADIAL
 FREQ.      1407.45        C  5 --  H 13          +14.0% ( 46.8%)     3.1%
 T-DIPOLE    0.0381        C  5 --  H 14          +12.7% ( 44.5%)     4.5%
 TRAVEL      0.1014        C  1 --  C  5          +10.1% ( 39.8%)    98.7%
 RED. MASS   0.4128        C  2 --  C  3           +5.8% ( 30.1%)    97.8%
 EFF. MASS   4.6579

 VIBRATION   45   45A       ATOM PAIR        ENERGY CONTRIBUTION    RADIAL
 FREQ.      1411.50        C  6 --  H 17          +37.9% ( 56.8%)     0.2%
 T-DIPOLE    0.0549        C  6 --  H 18          +25.1% ( 46.2%)     2.8%
 TRAVEL      0.1566        C  6 --  H 19          +11.4% ( 31.2%)    29.1%
 RED. MASS   0.3218        C  5 --  C  6           +5.8% ( 22.3%)     8.3%
 EFF. MASS   1.9477

 VIBRATION   46   46A       ATOM PAIR        ENERGY CONTRIBUTION    RADIAL
 FREQ.      1412.95        C  4 --  H 16          +21.6% ( 53.3%)     2.9%
 T-DIPOLE    0.1459        C  4 --  H 15          +20.7% ( 52.1%)     4.4%
 TRAVEL      0.1189        C  2 --  C  4           +6.2% ( 28.5%)     8.4%
 RED. MASS   0.3374        C  3 --  C  4           +5.4% ( 26.5%)    47.4%
 EFF. MASS   3.3773

 VIBRATION   47   47A       ATOM PAIR        ENERGY CONTRIBUTION    RADIAL
 FREQ.      1427.22        C  5 --  C  6          +19.7% ( 57.5%)    99.9%
 T-DIPOLE    0.0571        C  6 --  H 17          +14.0% ( 48.5%)     4.0%
 TRAVEL      0.0926        C  6 --  H 18          +13.5% ( 47.6%)     3.0%
 RED. MASS   0.9499        C  6 --  H 19          +12.0% ( 44.9%)     4.0%
 EFF. MASS   5.5047        C  5 --  H 13          +11.3% ( 43.5%)     3.1%
                           C  5 --  H 14          +11.2% ( 43.3%)     3.0%

 VIBRATION   48   48A       ATOM PAIR        ENERGY CONTRIBUTION    RADIAL
 FREQ.      1462.45        C  2 --  C  3          +10.5% ( 54.1%)    99.7%
 T-DIPOLE    0.3312        C  1 --  C  2           +9.1% ( 50.3%)    50.4%
 TRAVEL      0.0699        C  1 --  C  3           +8.5% ( 48.6%)    45.9%
 RED. MASS   1.3876        C  2 --  C  4           +7.3% ( 45.2%)    67.4%
 EFF. MASS   9.4326

 VIBRATION   49   49A       ATOM PAIR        ENERGY CONTRIBUTION    RADIAL
 FREQ.      1859.92        C  7 --  C  8          +44.9% ( 99.1%)    98.8%
 T-DIPOLE    0.1428        C  2 --  C  7          +16.9% ( 60.8%)    54.5%
 TRAVEL      0.0554        C  7 --  H 20          +15.4% ( 58.0%)     3.9%
 RED. MASS   5.2792        C  8 --  H 22          +10.8% ( 48.7%)    10.7%
 EFF. MASS  11.7985        C  8 --  H 21          +10.6% ( 48.2%)    13.0%

 VIBRATION   50   50A       ATOM PAIR        ENERGY CONTRIBUTION    RADIAL
 FREQ.      2903.02        C  3 --  H 12          +94.6% ( 99.5%)    99.9%
 T-DIPOLE    0.0654        C  1 --  C  3           +1.1% ( 10.8%)    17.8%
 TRAVEL      0.1262        C  3 --  C  4           +1.1% ( 10.7%)    17.1%
 RED. MASS   0.9114        C  3 --  O  9           +1.1% ( 10.7%)    10.2%
 EFF. MASS   1.4574

 VIBRATION   51   51A       ATOM PAIR        ENERGY CONTRIBUTION    RADIAL
 FREQ.      2932.80        C  2 --  H 11          +86.0% ( 94.9%)   100.0%
 T-DIPOLE    0.0705        C  1 --  H 10           +8.5% ( 29.8%)   100.0%
 TRAVEL      0.1257        C  1 --  C  2           +1.1% ( 10.9%)    15.6%
 RED. MASS   0.7606        C  2 --  C  7           +1.0% ( 10.1%)    12.5%
 EFF. MASS   1.4543

 VIBRATION   52   52A       ATOM PAIR        ENERGY CONTRIBUTION    RADIAL
 FREQ.      2943.27        C  1 --  H 10          +56.2% ( 77.0%)   100.0%
 T-DIPOLE    0.1377        C  5 --  H 13          +16.7% ( 42.0%)    96.7%
 TRAVEL      0.1246        C  5 --  H 14          +14.7% ( 39.4%)    96.0%
 RED. MASS   0.3845        C  2 --  H 11           +8.1% ( 29.3%)    99.9%
 EFF. MASS   1.4760

 VIBRATION   53   53A       ATOM PAIR        ENERGY CONTRIBUTION    RADIAL
 FREQ.      2952.06        C  5 --  H 13          +34.8% ( 60.8%)    96.8%
 T-DIPOLE    0.0942        C  5 --  H 14          +32.1% ( 58.4%)    96.3%
 TRAVEL      0.1232        C  1 --  H 10          +29.1% ( 55.6%)   100.0%
 RED. MASS   0.3273        C  1 --  C  5           +1.0% ( 10.3%)     7.8%
 EFF. MASS   1.5041

 VIBRATION   54   54A       ATOM PAIR        ENERGY CONTRIBUTION    RADIAL
 FREQ.      3029.36        C  5 --  H 14          +51.6% ( 70.8%)    98.0%
 T-DIPOLE    0.0193        C  5 --  H 13          +46.4% ( 67.1%)    97.4%
 TRAVEL      0.1321        C  5 --  C  6           +0.6% (  7.8%)    26.1%
 RED. MASS   0.4789        C  1 --  C  5           +0.6% (  7.7%)    29.5%
 EFF. MASS   1.2753

 VIBRATION   55   55A       ATOM PAIR        ENERGY CONTRIBUTION    RADIAL
 FREQ.      3036.00        C  4 --  H 15          +57.6% ( 78.9%)    98.1%
 T-DIPOLE    0.1996        C  4 --  H 16          +35.1% ( 61.6%)    95.1%
 TRAVEL      0.1201        C  7 --  H 20           +3.5% ( 19.4%)   100.0%
 RED. MASS   0.5022        C  1 --  C  4           +1.1% ( 10.9%)     0.4%
 EFF. MASS   1.5401

 VIBRATION   56   56A       ATOM PAIR        ENERGY CONTRIBUTION    RADIAL
 FREQ.      3039.16        C  7 --  H 20          +92.4% ( 97.6%)   100.0%
 T-DIPOLE    0.2438        C  4 --  H 15           +2.1% ( 14.7%)    97.0%
 TRAVEL      0.1214        C  4 --  H 16           +1.9% ( 13.8%)    96.5%
 RED. MASS   0.8443        C  7 --  C  8           +1.4% ( 11.9%)    30.9%
 EFF. MASS   1.5054

 VIBRATION   57   57A       ATOM PAIR        ENERGY CONTRIBUTION    RADIAL
 FREQ.      3069.61        C  6 --  H 18          +68.1% ( 85.1%)    98.9%
 T-DIPOLE    0.0353        C  6 --  H 17          +25.8% ( 52.4%)    91.5%
 TRAVEL      0.1210        C  6 --  H 19           +4.6% ( 22.2%)    53.7%
 RED. MASS   0.5588        C  5 --  C  6           +1.0% ( 10.2%)     0.0%
 EFF. MASS   1.4996

 VIBRATION   58   58A       ATOM PAIR        ENERGY CONTRIBUTION    RADIAL
 FREQ.      3084.67        C  6 --  H 19          +55.4% ( 76.8%)    98.1%
 T-DIPOLE    0.0067        C  6 --  H 17          +38.4% ( 63.9%)    94.9%
 TRAVEL      0.1205        C  6 --  H 18           +4.8% ( 22.6%)    51.9%
 RED. MASS   0.4850        C  5 --  C  6           +1.0% ( 10.3%)     0.0%
 EFF. MASS   1.5043

 VIBRATION   59   59A       ATOM PAIR        ENERGY CONTRIBUTION    RADIAL
 FREQ.      3102.27        C  4 --  H 16          +61.4% ( 77.8%)    98.4%
 T-DIPOLE    0.1331        C  4 --  H 15          +36.5% ( 60.0%)    94.8%
 TRAVEL      0.1300        C  1 --  C  4           +0.7% (  8.3%)    98.0%
 RED. MASS   0.5105        C  2 --  C  4           +0.7% (  8.2%)    48.1%
 EFF. MASS   1.2863

 VIBRATION   60   60A       ATOM PAIR        ENERGY CONTRIBUTION    RADIAL
 FREQ.      3128.00        C  8 --  H 22          +96.1% ( 99.5%)   100.0%
 T-DIPOLE    0.1970        C  8 --  H 21           +2.4% ( 15.6%)    42.9%
 TRAVEL      0.1194        C  7 --  C  8           +1.4% ( 11.8%)    33.4%
 RED. MASS   0.9135
 EFF. MASS   1.5129

 VIBRATION   61   61A       ATOM PAIR        ENERGY CONTRIBUTION    RADIAL
 FREQ.      3147.40        C  8 --  H 21          +95.8% ( 98.8%)    99.9%
 T-DIPOLE    0.2519        C  8 --  H 22           +1.9% ( 13.9%)     2.1%
 TRAVEL      0.1199        C  7 --  C  8           +1.5% ( 12.6%)    60.1%
 RED. MASS   0.8926        C  7 --  H 20           +0.7% (  8.7%)    95.2%
 EFF. MASS   1.4914

 VIBRATION   62   62A       ATOM PAIR        ENERGY CONTRIBUTION    RADIAL
 FREQ.      3176.18        C  6 --  H 19          +39.6% ( 60.6%)    97.9%
 T-DIPOLE    0.0158        C  6 --  H 17          +35.1% ( 57.0%)    97.3%
 TRAVEL      0.1365        C  6 --  H 18          +25.0% ( 48.2%)    95.3%
 RED. MASS   0.3357        C  5 --  C  6           +0.3% (  5.2%)    97.2%
 EFF. MASS   1.1393

 VIBRATION   63   63A       ATOM PAIR        ENERGY CONTRIBUTION    RADIAL
 FREQ.      3903.06        O  9 --  H 23          +99.6% (100.0%)    99.8%
 T-DIPOLE    0.1947        C  3 --  O  9           +0.4% (  6.2%)     6.6%
 TRAVEL      0.1117
 RED. MASS   0.9481
 EFF. MASS   1.3841

 SYMMETRY NUMBER FOR POINT-GROUP C1  =  1


          SYSTEM IS A GROUND STATE


    NULL



          MOLECULE IS NOT LINEAR

          THERE ARE 63 GENUINE VIBRATIONS IN THIS SYSTEM
          THIS THERMODYNAMICS CALCULATION IS LIMITED TO
          MOLECULES WHICH HAVE NO INTERNAL ROTATIONS




                    CALCULATED THERMODYNAMIC PROPERTIES
                                          *
   TEMP. (K)   PARTITION FUNCTION   H.O.F.    ENTHALPY  HEAT CAPACITY ENTROPY
                                   KCAL/MOL   CAL/MOLE    CAL/K/MOL  CAL/K/MOL


 298.00  VIB.     0.8725D+03                  4625.9967    31.8415    28.9796
         ROT.     0.5821D+06                   888.2813     2.9808    29.3597
         INT.     0.5079D+09                  5514.2780    34.8223    58.3393
         TRA.     0.1371D+28                  1480.4688     4.9680    40.4094
         TOT.                      -38.957    6994.7469    39.7903    98.7486

 200.00  VIB.     0.6761D+02                  2073.8143    20.6228    18.7427
         ROT.     0.3200D+06                   596.1620     2.9808    28.1710
         INT.     0.2164D+08                  2669.9762    23.6037    46.9137
         TRA.     0.7536D+27                   993.6033     4.9680    38.4282
         TOT.                      -42.288    3663.5795    28.5717    85.3419

 210.00  VIB.     0.8776D+02                  2285.1771    21.6542    19.7737
         ROT.     0.3443D+06                   625.9700     2.9808    28.3164
         INT.     0.3022D+08                  2911.1471    24.6350    48.0902
         TRA.     0.8108D+27                  1043.2834     4.9680    38.6706
         TOT.                      -41.997    3954.4305    29.6031    86.7608

 220.00  VIB.     0.1139D+03                  2506.9919    22.7135    20.8054
         ROT.     0.3692D+06                   655.7781     2.9808    28.4551
         INT.     0.4205D+08                  3162.7701    25.6943    49.2605
         TRA.     0.8694D+27                  1092.9636     4.9680    38.9017
         TOT.                      -41.696    4255.7336    30.6623    88.1623

 230.00  VIB.     0.1478D+03                  2739.5423    23.8014    21.8390
         ROT.     0.3947D+06                   685.5862     2.9808    28.5876
         INT.     0.5834D+08                  3425.1286    26.7822    50.4266
         TRA.     0.9293D+27                  1142.6437     4.9680    39.1226
         TOT.                      -41.384    4567.7723    31.7502    89.5491

 240.00  VIB.     0.1918D+03                  2983.1135    24.9175    22.8754
         ROT.     0.4207D+06                   715.3943     2.9808    28.7145
         INT.     0.8070D+08                  3698.5079    27.8983    51.5899
         TRA.     0.9906D+27                  1192.3239     4.9680    39.3340
         TOT.                      -41.061    4890.8318    32.8663    90.9239

 250.00  VIB.     0.2489D+03                  3237.9819    26.0605    23.9157
         ROT.     0.4473D+06                   745.2024     2.9808    28.8362
         INT.     0.1113D+09                  3983.1843    29.0413    52.7519
         TRA.     0.1053D+28                  1242.0041     4.9680    39.5368
         TOT.                      -40.726    5225.1884    34.0093    92.2887

 260.00  VIB.     0.3231D+03                  3504.4067    27.2284    24.9605
         ROT.     0.4744D+06                   775.0105     2.9808    28.9531
         INT.     0.1533D+09                  4279.4172    30.2092    53.9136
         TRA.     0.1117D+28                  1291.6842     4.9680    39.7317
         TOT.                      -40.381    5571.1014    35.1772    93.6452

 270.00  VIB.     0.4194D+03                  3782.6231    28.4184    26.0103
         ROT.     0.5020D+06                   804.8186     2.9808    29.0656
         INT.     0.2106D+09                  4587.4418    31.3992    55.0759
         TRA.     0.1182D+28                  1341.3644     4.9680    39.9191
         TOT.                      -40.023    5928.8061    36.3672    94.9951

 280.00  VIB.     0.5447D+03                  4072.8379    29.6275    27.0657
         ROT.     0.5301D+06                   834.6267     2.9808    29.1740
         INT.     0.2888D+09                  4907.4647    32.6083    56.2396
         TRA.     0.1248D+28                  1391.0445     4.9680    40.0998
         TOT.                      -39.653    6298.5092    37.5763    96.3394

 290.00  VIB.     0.7075D+03                  4375.2258    30.8524    28.1266
         ROT.     0.5588D+06                   864.4348     2.9808    29.2786
         INT.     0.3954D+09                  5239.6607    33.8332    57.4052
         TRA.     0.1316D+28                  1440.7247     4.9680    40.2742
         TOT.                      -39.271    6680.3854    38.8013    97.6794

 300.00  VIB.     0.9195D+03                  4689.9279    32.0898    29.1934
         ROT.     0.5879D+06                   894.2429     2.9808    29.3796
         INT.     0.5406D+09                  5584.1708    35.0706    58.5730
         TRA.     0.1384D+28                  1490.4049     4.9680    40.4426
         TOT.                      -38.877    7074.5757    40.0386    99.0156

 310.00  VIB.     0.1195D+04                  5017.0507    33.3360    30.2659
         ROT.     0.6176D+06                   924.0510     2.9808    29.4774
         INT.     0.7383D+09                  5941.1017    36.3168    59.7433
         TRA.     0.1454D+28                  1540.0850     4.9680    40.6055
         TOT.                      -38.470    7481.1868    41.2849   100.3488

 320.00  VIB.     0.1555D+04                  5356.6671    34.5879    31.3441
         ROT.     0.6477D+06                   953.8591     2.9808    29.5720
         INT.     0.1007D+10                  6310.5263    37.5687    60.9161
         TRA.     0.1525D+28                  1589.7652     4.9680    40.7632
         TOT.                      -38.051    7900.2915    42.5367   101.6793

 330.00  VIB.     0.2024D+04                  5708.8169    35.8422    32.4276
         ROT.     0.6783D+06                   983.6672     2.9808    29.6637
         INT.     0.1373D+10                  6692.4841    38.8230    62.0913
         TRA.     0.1597D+28                  1639.4454     4.9680    40.9161
         TOT.                      -37.620    8331.9295    43.7910   103.0074

 340.00  VIB.     0.2636D+04                  6073.5086    37.0958    33.5162
         ROT.     0.7094D+06                  1013.4753     2.9808    29.7527
         INT.     0.1870D+10                  7086.9840    40.0766    63.2689
         TRA.     0.1670D+28                  1689.1255     4.9680    41.0644
         TOT.                      -37.176    8776.1095    45.0446   104.3333

 350.00  VIB.     0.3434D+04                  6450.7217    38.3460    34.6096
         ROT.     0.7409D+06                  1043.2834     2.9808    29.8391
         INT.     0.2544D+10                  7494.0051    41.3268    64.4487
         TRA.     0.1745D+28                  1738.8057     4.9680    41.2084
         TOT.                      -36.719    9232.8108    46.2948   105.6571

 360.00  VIB.     0.4478D+04                  6840.4086    39.5902    35.7073
         ROT.     0.7729D+06                  1073.0915     2.9808    29.9231
         INT.     0.3461D+10                  7913.5001    42.5710    65.6304
         TRA.     0.1820D+28                  1788.4859     4.9680    41.3484
         TOT.                      -36.250    9701.9860    47.5390   106.9787

 370.00  VIB.     0.5842D+04                  7242.4976    40.8260    36.8089
         ROT.     0.8053D+06                  1102.8996     2.9808    30.0048
         INT.     0.4704D+10                  8345.3972    43.8069    66.8136
         TRA.     0.1896D+28                  1838.1660     4.9680    41.4845
         TOT.                      -35.768   10183.5632    48.7749   108.2981

 380.00  VIB.     0.7626D+04                  7656.8950    42.0516    37.9139
         ROT.     0.8382D+06                  1132.7077     2.9808    30.0843
         INT.     0.6392D+10                  8789.6027    45.0324    67.9982
         TRA.     0.1974D+28                  1887.8462     4.9680    41.6170
         TOT.                      -35.274   10677.4489    50.0004   109.6152

 390.00  VIB.     0.9961D+04                  8083.4880    43.2649    39.0220
         ROT.     0.8715D+06                  1162.5158     2.9808    30.1617
         INT.     0.8681D+10                  9246.0038    46.2457    69.1836
         TRA.     0.2052D+28                  1937.5263     4.9680    41.7460
         TOT.                      -34.768   11183.5302    51.2137   110.9297

 400.00  VIB.     0.1302D+05                  8522.1470    44.4645    40.1325
         ROT.     0.9052D+06                  1192.3239     2.9808    30.2371
         INT.     0.1178D+11                  9714.4709    47.4453    70.3696
         TRA.     0.2131D+28                  1987.2065     4.9680    41.8718
         TOT.                      -34.250   11701.6774    52.4133   112.2414

   *: NOTE: HEATS OF FORMATION ARE RELATIVE TO THE
            ELEMENTS IN THEIR STANDARD STATE AT 298K
              (=  Standard Enthalpy of Formation).

            Hvib:  Zero-point energy is not included.
                   frequencies of less than zero cm-1 are not included.
            Hrot = (3/2)RT
            Htra = (3/2)RT + pV = (5/2)RT

            Heat capacity is Cp, not Cv

           For more information, see: HTTP://OpenMOPAC.net/Manual/thermochemistry.html


           FORCE CONSTANT IN CARTESIAN COORDINATES (Millidynes/A)

    ATOM   CHEMICAL       X               Y               Z
   NUMBER   SYMBOL  FORCE CONSTANT  FORCE CONSTANT  FORCE CONSTANT

      1       C        7.662246        7.764277        8.788393
      2       C        7.509145        8.416941        9.181863
      3       C        8.215396        7.569173        9.222500
      4       C        7.855259        7.837019        8.698096
      5       C        8.316135        8.477412        8.312109
      6       C        8.211382        8.305358        8.355540
      7       C        4.733098       13.671338        8.876253
      8       C        4.203799       13.550417        8.691329
      9       O        9.593395        2.848916        4.714682
     10       H        1.333971        1.388487        3.545395
     11       H        1.349068        1.207232        3.666245
     12       H        1.255556        1.442675        3.344892
     13       H        1.564267        1.199374        3.628129
     14       H        4.609469        1.060422        0.694516
     15       H        1.349165        1.309762        3.977632
     16       H        1.640190        1.629634        3.361621
     17       H        1.814430        1.323620        3.639364
     18       H        4.903404        1.134471        0.684117
     19       H        1.449458        1.412265        3.927150
     20       H        0.425820        1.760465        4.018831
     21       H        1.138353        1.730539        3.604486
     22       H        0.412505        1.938853        4.090204
     23       H        8.001139        0.842102        0.635713



 TOTAL CPU TIME:             3.55 SECONDS

 == MOPAC DONE ==
