 *******************************************************************************
 ** Site#: 14399           For non-commercial use only        Version 13.159M **
 *******************************************************************************
 ** Cite this work as: MOPAC2012, James J. P. Stewart, Stewart Computational  **
 ** Chemistry, Version 13.159M web: HTTP://OpenMOPAC.net  Days remaining:   6 **
 *******************************************************************************
 **                                                                           **
 **                                MOPAC2012                                  **
 **                                                                           **
 *******************************************************************************

                            PM3 CALCULATION RESULTS


 *******************************************************************************
 *  CALCULATION DONE:                                Mon Jun  2 11:07:39 2014  *
 *  PM3      - The PM3 Hamiltonian to be used
 *  PRECISE  - CRITERIA TO BE INCREASED BY 100 TIMES
 *  NOSYM    - POINT-GROUP SYMMETRY SET TO C1
 *  T=       - A TIME OF 172800.0 SECONDS REQUESTED
 *  DUMP=N   - RESTART FILE WRITTEN EVERY  7200.000 SECONDS
 *******************************************************************************
pm3  precise nosym
 InChI=1S/C10H16/c1-4-6-10-7-9(5-2)8(10)3/h4-5,8-10H,1-2,6-7H2,3H3

   ATOM   CHEMICAL          X               Y               Z
  NUMBER   SYMBOL      (ANGSTROMS)     (ANGSTROMS)     (ANGSTROMS)
 
     1       C          0.49510000  *  -0.68600000  *  -0.84690000  *
     2       C         -0.30270000  *  -0.26110000  *   0.43180000  *
     3       C         -1.58760000  *  -0.35600000  *  -0.39470000  *
     4       C         -0.78970000  *  -0.49490000  *  -1.65120000  *
     5       C          1.65190000  *   0.24240000  *  -1.23100000  *
     6       C         -0.20140000  *  -1.24200000  *   1.59800000  *
     7       C         -2.47470000  *   0.85920000  *  -0.31640000  *
     8       C          2.81110000  *   0.06490000  *  -0.29210000  *
     9       C         -3.15580000  *   1.15370000  *   0.79320000  *
    10       C          3.27610000  *   1.05380000  *   0.47490000  *
    11       H          0.80120000  *  -1.76090000  *  -0.84730000  *
    12       H         -0.06570000  *   0.77960000  *   0.76320000  *
    13       H         -2.17560000  *  -1.28630000  *  -0.20070000  *
    14       H         -1.06310000  *  -1.39750000  *  -2.24660000  *
    15       H         -0.77510000  *   0.41440000  *  -2.29900000  *
    16       H          1.30770000  *   1.30330000  *  -1.27240000  *
    17       H          1.99880000  *  -0.01870000  *  -2.25660000  *
    18       H          0.82830000  *  -1.21360000  *   2.02060000  *
    19       H         -0.42560000  *  -2.28860000  *   1.28860000  *
    20       H         -0.91750000  *  -0.94940000  *   2.39850000  *
    21       H         -2.58660000  *   1.51210000  *  -1.18130000  *
    22       H          3.28590000  *  -0.91370000  *  -0.23160000  *
    23       H          4.11630000  *   0.87550000  *   1.14330000  *
    24       H          2.83230000  *   2.04780000  *   0.45680000  *
    25       H         -3.79680000  *   2.03270000  *   0.82430000  *
    26       H         -3.08660000  *   0.52930000  *   1.68260000  *
 


          CARTESIAN COORDINATES 

    NO.       ATOM         X         Y         Z

     1         C        0.4951   -0.6860   -0.8469
     2         C       -0.3027   -0.2611    0.4318
     3         C       -1.5876   -0.3560   -0.3947
     4         C       -0.7897   -0.4949   -1.6512
     5         C        1.6519    0.2424   -1.2310
     6         C       -0.2014   -1.2420    1.5980
     7         C       -2.4747    0.8592   -0.3164
     8         C        2.8111    0.0649   -0.2921
     9         C       -3.1558    1.1537    0.7932
    10         C        3.2761    1.0538    0.4749
    11         H        0.8012   -1.7609   -0.8473
    12         H       -0.0657    0.7796    0.7632
    13         H       -2.1756   -1.2863   -0.2007
    14         H       -1.0631   -1.3975   -2.2466
    15         H       -0.7751    0.4144   -2.2990
    16         H        1.3077    1.3033   -1.2724
    17         H        1.9988   -0.0187   -2.2566
    18         H        0.8283   -1.2136    2.0206
    19         H       -0.4256   -2.2886    1.2886
    20         H       -0.9175   -0.9494    2.3985
    21         H       -2.5866    1.5121   -1.1813
    22         H        3.2859   -0.9137   -0.2316
    23         H        4.1163    0.8755    1.1433
    24         H        2.8323    2.0478    0.4568
    25         H       -3.7968    2.0327    0.8243
    26         H       -3.0866    0.5293    1.6826

  H: (PM3): J. J. P. STEWART, J. COMP. CHEM. 10, 209 (1989).
  C: (PM3): J. J. P. STEWART, J. COMP. CHEM. 10, 209 (1989).

           Empirical Formula: C10 H16  =    26 atoms



      MOLECULAR POINT GROUP   :   C1  


      RHF CALCULATION, NO. OF DOUBLY OCCUPIED LEVELS =   28

      Geometry optimization using EF

          DIAGONAL MATRIX USED AS START HESSIAN

 CYCLE:     1 TIME:   0.012 TIME LEFT:  2.00D  GRAD.:   103.683 HEAT: 26.83335
 CYCLE:     2 TIME:   0.024 TIME LEFT:  2.00D  GRAD.:    41.667 HEAT: 24.30914
 CYCLE:     3 TIME:   0.016 TIME LEFT:  2.00D  GRAD.:    48.480 HEAT: 23.73696
 CYCLE:     4 TIME:   0.009 TIME LEFT:  2.00D  GRAD.:    30.773 HEAT: 23.14542
 CYCLE:     5 TIME:   0.009 TIME LEFT:  2.00D  GRAD.:    59.332 HEAT: 23.09719
 CYCLE:     6 TIME:   0.009 TIME LEFT:  2.00D  GRAD.:    62.179 HEAT: 22.96673
 CYCLE:     7 TIME:   0.016 TIME LEFT:  2.00D  GRAD.:    22.024 HEAT: 22.32166
 CYCLE:     8 TIME:   0.016 TIME LEFT:  2.00D  GRAD.:    14.631 HEAT: 22.22122
 CYCLE:     9 TIME:   0.009 TIME LEFT:  2.00D  GRAD.:     8.239 HEAT: 22.13736
 CYCLE:    10 TIME:   0.016 TIME LEFT:  2.00D  GRAD.:    12.024 HEAT: 22.12651
 CYCLE:    11 TIME:   0.009 TIME LEFT:  2.00D  GRAD.:     9.954 HEAT: 22.10352
 CYCLE:    12 TIME:   0.009 TIME LEFT:  2.00D  GRAD.:    11.227 HEAT: 22.09176
 CYCLE:    13 TIME:   0.008 TIME LEFT:  2.00D  GRAD.:     9.153 HEAT: 22.07605
 CYCLE:    14 TIME:   0.016 TIME LEFT:  2.00D  GRAD.:     5.222 HEAT: 22.05350
 CYCLE:    15 TIME:   0.009 TIME LEFT:  2.00D  GRAD.:     5.668 HEAT: 22.04932
 CYCLE:    16 TIME:   0.009 TIME LEFT:  2.00D  GRAD.:     5.006 HEAT: 22.03423
 CYCLE:    17 TIME:   0.009 TIME LEFT:  2.00D  GRAD.:     6.934 HEAT: 22.03358
 CYCLE:    18 TIME:   0.008 TIME LEFT:  2.00D  GRAD.:     6.333 HEAT: 22.02209
 CYCLE:    19 TIME:   0.009 TIME LEFT:  2.00D  GRAD.:     7.322 HEAT: 22.02045
 CYCLE:    20 TIME:   0.008 TIME LEFT:  2.00D  GRAD.:     6.392 HEAT: 22.00911
 CYCLE:    21 TIME:   0.009 TIME LEFT:  2.00D  GRAD.:     6.778 HEAT: 22.00588
 CYCLE:    22 TIME:   0.009 TIME LEFT:  2.00D  GRAD.:     3.643 HEAT: 21.99012
 CYCLE:    23 TIME:   0.009 TIME LEFT:  2.00D  GRAD.:     3.602 HEAT: 21.98240
 CYCLE:    24 TIME:   0.009 TIME LEFT:  2.00D  GRAD.:     3.325 HEAT: 21.97096
 CYCLE:    25 TIME:   0.009 TIME LEFT:  2.00D  GRAD.:     3.191 HEAT: 21.95520
 CYCLE:    26 TIME:   0.009 TIME LEFT:  2.00D  GRAD.:     4.793 HEAT: 21.93557
 CYCLE:    27 TIME:   0.009 TIME LEFT:  2.00D  GRAD.:     3.802 HEAT: 21.90289
 CYCLE:    28 TIME:   0.009 TIME LEFT:  2.00D  GRAD.:     4.940 HEAT: 21.88461
 CYCLE:    29 TIME:   0.009 TIME LEFT:  2.00D  GRAD.:     5.679 HEAT: 21.86088
 CYCLE:    30 TIME:   0.009 TIME LEFT:  2.00D  GRAD.:     6.370 HEAT: 21.84031
 CYCLE:    31 TIME:   0.009 TIME LEFT:  2.00D  GRAD.:     4.044 HEAT: 21.81021
 CYCLE:    32 TIME:   0.009 TIME LEFT:  2.00D  GRAD.:     5.937 HEAT: 21.79770
 CYCLE:    33 TIME:   0.009 TIME LEFT:  2.00D  GRAD.:     5.552 HEAT: 21.77574
 CYCLE:    34 TIME:   0.009 TIME LEFT:  2.00D  GRAD.:     5.266 HEAT: 21.75150
 CYCLE:    35 TIME:   0.009 TIME LEFT:  2.00D  GRAD.:     3.995 HEAT: 21.72724
 CYCLE:    36 TIME:   0.013 TIME LEFT:  2.00D  GRAD.:     5.989 HEAT: 21.71336
 CYCLE:    37 TIME:   0.009 TIME LEFT:  2.00D  GRAD.:     3.882 HEAT: 21.69172
 CYCLE:    38 TIME:   0.009 TIME LEFT:  2.00D  GRAD.:     3.960 HEAT: 21.67380
 CYCLE:    39 TIME:   0.009 TIME LEFT:  2.00D  GRAD.:     4.039 HEAT: 21.65524
 CYCLE:    40 TIME:   0.009 TIME LEFT:  2.00D  GRAD.:     2.449 HEAT: 21.64357
 CYCLE:    41 TIME:   0.009 TIME LEFT:  2.00D  GRAD.:     2.726 HEAT: 21.63107
 CYCLE:    42 TIME:   0.009 TIME LEFT:  2.00D  GRAD.:     2.949 HEAT: 21.61897
 CYCLE:    43 TIME:   0.009 TIME LEFT:  2.00D  GRAD.:     2.680 HEAT: 21.60821
 CYCLE:    44 TIME:   0.009 TIME LEFT:  2.00D  GRAD.:     2.056 HEAT: 21.59574
 CYCLE:    45 TIME:   0.009 TIME LEFT:  2.00D  GRAD.:     1.876 HEAT: 21.58744
 CYCLE:    46 TIME:   0.009 TIME LEFT:  2.00D  GRAD.:     1.461 HEAT: 21.58238
 CYCLE:    47 TIME:   0.009 TIME LEFT:  2.00D  GRAD.:     1.307 HEAT: 21.57993
 CYCLE:    48 TIME:   0.009 TIME LEFT:  2.00D  GRAD.:     1.058 HEAT: 21.57783
 CYCLE:    49 TIME:   0.009 TIME LEFT:  2.00D  GRAD.:     1.135 HEAT: 21.57562
 CYCLE:    50 TIME:   0.009 TIME LEFT:  2.00D  GRAD.:     1.138 HEAT: 21.57258
 CYCLE:    51 TIME:   0.009 TIME LEFT:  2.00D  GRAD.:     1.143 HEAT: 21.56974
 CYCLE:    52 TIME:   0.009 TIME LEFT:  2.00D  GRAD.:     1.160 HEAT: 21.56647
 CYCLE:    53 TIME:   0.009 TIME LEFT:  2.00D  GRAD.:     1.139 HEAT: 21.56398
 CYCLE:    54 TIME:   0.009 TIME LEFT:  2.00D  GRAD.:     1.077 HEAT: 21.56156
 CYCLE:    55 TIME:   0.009 TIME LEFT:  2.00D  GRAD.:     1.055 HEAT: 21.55906
 CYCLE:    56 TIME:   0.009 TIME LEFT:  2.00D  GRAD.:     1.048 HEAT: 21.55633
 CYCLE:    57 TIME:   0.009 TIME LEFT:  2.00D  GRAD.:     0.938 HEAT: 21.55399
 CYCLE:    58 TIME:   0.009 TIME LEFT:  2.00D  GRAD.:     0.821 HEAT: 21.55219
 CYCLE:    59 TIME:   0.009 TIME LEFT:  2.00D  GRAD.:     0.720 HEAT: 21.55089
 CYCLE:    60 TIME:   0.009 TIME LEFT:  2.00D  GRAD.:     0.683 HEAT: 21.54967
 CYCLE:    61 TIME:   0.009 TIME LEFT:  2.00D  GRAD.:     0.633 HEAT: 21.54854
 CYCLE:    62 TIME:   0.009 TIME LEFT:  2.00D  GRAD.:     0.540 HEAT: 21.54763
 CYCLE:    63 TIME:   0.009 TIME LEFT:  2.00D  GRAD.:     0.488 HEAT: 21.54695
 CYCLE:    64 TIME:   0.009 TIME LEFT:  2.00D  GRAD.:     0.492 HEAT: 21.54643
 CYCLE:    65 TIME:   0.009 TIME LEFT:  2.00D  GRAD.:     0.495 HEAT: 21.54593
 CYCLE:    66 TIME:   0.009 TIME LEFT:  2.00D  GRAD.:     0.493 HEAT: 21.54535
 CYCLE:    67 TIME:   0.009 TIME LEFT:  2.00D  GRAD.:     0.487 HEAT: 21.54472
 CYCLE:    68 TIME:   0.009 TIME LEFT:  2.00D  GRAD.:     0.472 HEAT: 21.54412
 CYCLE:    69 TIME:   0.009 TIME LEFT:  2.00D  GRAD.:     0.478 HEAT: 21.54351
 CYCLE:    70 TIME:   0.009 TIME LEFT:  2.00D  GRAD.:     0.510 HEAT: 21.54294
 CYCLE:    71 TIME:   0.009 TIME LEFT:  2.00D  GRAD.:     0.608 HEAT: 21.54215
 CYCLE:    72 TIME:   0.009 TIME LEFT:  2.00D  GRAD.:     0.758 HEAT: 21.54102
 CYCLE:    73 TIME:   0.009 TIME LEFT:  2.00D  GRAD.:     0.985 HEAT: 21.53899
 CYCLE:    74 TIME:   0.009 TIME LEFT:  2.00D  GRAD.:     0.830 HEAT: 21.53758
 CYCLE:    75 TIME:   0.009 TIME LEFT:  2.00D  GRAD.:     0.696 HEAT: 21.53565
 CYCLE:    76 TIME:   0.009 TIME LEFT:  2.00D  GRAD.:     0.549 HEAT: 21.53512
 CYCLE:    77 TIME:   0.009 TIME LEFT:  2.00D  GRAD.:     0.641 HEAT: 21.53396
 CYCLE:    78 TIME:   0.009 TIME LEFT:  2.00D  GRAD.:     0.546 HEAT: 21.53328
 CYCLE:    79 TIME:   0.009 TIME LEFT:  2.00D  GRAD.:     0.495 HEAT: 21.53217
 CYCLE:    80 TIME:   0.009 TIME LEFT:  2.00D  GRAD.:     0.592 HEAT: 21.53098
 CYCLE:    81 TIME:   0.009 TIME LEFT:  2.00D  GRAD.:     0.776 HEAT: 21.52942
 CYCLE:    82 TIME:   0.009 TIME LEFT:  2.00D  GRAD.:     0.723 HEAT: 21.52821
 CYCLE:    83 TIME:   0.009 TIME LEFT:  2.00D  GRAD.:     0.470 HEAT: 21.52708
 CYCLE:    84 TIME:   0.009 TIME LEFT:  2.00D  GRAD.:     0.432 HEAT: 21.52669
 CYCLE:    85 TIME:   0.009 TIME LEFT:  2.00D  GRAD.:     0.653 HEAT: 21.52530
 CYCLE:    86 TIME:   0.009 TIME LEFT:  2.00D  GRAD.:     0.510 HEAT: 21.52473
 CYCLE:    87 TIME:   0.009 TIME LEFT:  2.00D  GRAD.:     0.398 HEAT: 21.52342
 CYCLE:    88 TIME:   0.009 TIME LEFT:  2.00D  GRAD.:     0.442 HEAT: 21.52312
 CYCLE:    89 TIME:   0.009 TIME LEFT:  2.00D  GRAD.:     0.344 HEAT: 21.52275
 CYCLE:    90 TIME:   0.009 TIME LEFT:  2.00D  GRAD.:     0.310 HEAT: 21.52254
 CYCLE:    91 TIME:   0.009 TIME LEFT:  2.00D  GRAD.:     0.227 HEAT: 21.52229
 CYCLE:    92 TIME:   0.009 TIME LEFT:  2.00D  GRAD.:     0.217 HEAT: 21.52212
 CYCLE:    93 TIME:   0.009 TIME LEFT:  2.00D  GRAD.:     0.156 HEAT: 21.52202
 CYCLE:    94 TIME:   0.009 TIME LEFT:  2.00D  GRAD.:     0.110 HEAT: 21.52197
 CYCLE:    95 TIME:   0.008 TIME LEFT:  2.00D  GRAD.:     0.087 HEAT: 21.52195
 CYCLE:    96 TIME:   0.008 TIME LEFT:  2.00D  GRAD.:     0.099 HEAT: 21.52193
 CYCLE:    97 TIME:   0.009 TIME LEFT:  2.00D  GRAD.:     0.164 HEAT: 21.52190
 CYCLE:    98 TIME:   0.009 TIME LEFT:  2.00D  GRAD.:     0.097 HEAT: 21.52187
 CYCLE:    99 TIME:   0.008 TIME LEFT:  2.00D  GRAD.:     0.073 HEAT: 21.52185
 CYCLE:   100 TIME:   0.008 TIME LEFT:  2.00D  GRAD.:     0.098 HEAT: 21.52183
 CYCLE:   101 TIME:   0.009 TIME LEFT:  2.00D  GRAD.:     0.178 HEAT: 21.52178
 CYCLE:   102 TIME:   0.009 TIME LEFT:  2.00D  GRAD.:     0.186 HEAT: 21.52173
 CYCLE:   103 TIME:   0.009 TIME LEFT:  2.00D  GRAD.:     0.144 HEAT: 21.52157
 CYCLE:   104 TIME:   0.009 TIME LEFT:  2.00D  GRAD.:     0.130 HEAT: 21.52151
 CYCLE:   105 TIME:   0.009 TIME LEFT:  2.00D  GRAD.:     0.226 HEAT: 21.52140
 CYCLE:   106 TIME:   0.009 TIME LEFT:  2.00D  GRAD.:     0.115 HEAT: 21.52136
 CYCLE:   107 TIME:   0.008 TIME LEFT:  2.00D  GRAD.:     0.091 HEAT: 21.52134
 CYCLE:   108 TIME:   0.013 TIME LEFT:  2.00D  GRAD.:     0.297 HEAT: 21.52139
 CYCLE:   109 TIME:   0.009 TIME LEFT:  2.00D  GRAD.:     0.088 HEAT: 21.52130
 CYCLE:   110 TIME:   0.009 TIME LEFT:  2.00D  GRAD.:     0.060 HEAT: 21.52128
 CYCLE:   111 TIME:   0.009 TIME LEFT:  2.00D  GRAD.:     0.067 HEAT: 21.52126
 CYCLE:   112 TIME:   0.009 TIME LEFT:  2.00D  GRAD.:     0.036 HEAT: 21.52125

     RMS GRADIENT =  0.03636  IS LESS THAN CUTOFF =  0.05000



 -------------------------------------------------------------------------------
pm3  precise nosym
 InChI=1S/C10H16/c1-4-6-10-7-9(5-2)8(10)3/h4-5,8-10H,1-2,6-7H2,3H3



     GEOMETRY OPTIMISED USING EIGENVECTOR FOLLOWING (EF).     
     SCF FIELD WAS ACHIEVED                                   


                              PM3 CALCULATION
                                                       MOPAC2012 (Version: 13.159M)
                                                       Mon Jun  2 11:07:40 2014
                                                       No. of days left =   6




          FINAL HEAT OF FORMATION =         21.52125 KCAL/MOL =      90.04492 KJ/MOL


          TOTAL ENERGY            =      -1430.79377 EV
          ELECTRONIC ENERGY       =      -8218.65684 EV  POINT GROUP:     C1  
          CORE-CORE REPULSION     =       6787.86307 EV
          COSMO AREA              =        201.54 SQUARE ANGSTROMS
          COSMO VOLUME            =        213.29 CUBIC ANGSTROMS

          GRADIENT NORM           =          0.03636
          IONIZATION POTENTIAL    =          9.992987 EV
          HOMO LUMO ENERGIES (EV) =         -9.993  1.141
          NO. OF FILLED LEVELS    =         28
          MOLECULAR WEIGHT        =        136.236

          MOLECULAR DIMENSIONS (Angstroms)

            Atom       Atom       Distance
            H    23    H    14     6.67423
            H    25    H    22     6.52965
            H    17    H    20     4.86908


          SCF CALCULATIONS        =        120
          COMPUTATION TIME        =          1.058 SECONDS




   ATOM   CHEMICAL          X               Y               Z
  NUMBER   SYMBOL      (ANGSTROMS)     (ANGSTROMS)     (ANGSTROMS)
 
     1       C          0.50668390  *  -0.70329179  *  -0.78062286  *
     2       C         -0.33027401  *  -0.38940585  *   0.49166592  *
     3       C         -1.62630740  *  -0.36979167  *  -0.37280353  *
     4       C         -0.77510301  *  -0.61036707  *  -1.64114270  *
     5       C          1.57131610  *   0.31660947  *  -1.13096105  *
     6       C         -0.29712791  *  -1.44942163  *   1.55943742  *
     7       C         -2.38351360  *   0.90604975  *  -0.33336964  *
     8       C          2.77931828  *   0.16938521  *  -0.27355068  *
     9       C         -3.07319739  *   1.29257890  *   0.73418388  *
    10       C          3.36505546  *   1.19311508  *   0.33632159  *
    11       H          0.94607322  *  -1.72424730  *  -0.76347509  *
    12       H         -0.09253390  *   0.60336314  *   0.93125921  *
    13       H         -2.31169653  *  -1.21473268  *  -0.14477062  *
    14       H         -1.02561310  *  -1.52791796  *  -2.19352950  *
    15       H         -0.77964487  *   0.21859907  *  -2.36755829  *
    16       H          1.15693581  *   1.34376881  *  -1.06759915  *
    17       H          1.87345457  *   0.17866985  *  -2.18921099  *
    18       H          0.69340811  *  -1.50335971  *   2.02919928  *
    19       H         -0.52633481  *  -2.44678548  *   1.15986475  *
    20       H         -1.03130380  *  -1.23414578  *   2.34690171  *
    21       H         -2.34875369  *   1.52431622  *  -1.23879090  *
    22       H          3.17451829  *  -0.84903294  *  -0.17299113  *
    23       H          4.25465489  *   1.07885158  *   0.94794776  *
    24       H          3.00109344  *   2.21485940  *   0.26883089  *
    25       H         -3.62890700  *   2.22434208  *   0.76804475  *
    26       H         -3.12767980  *   0.70536870  *   1.64695195  *

           Empirical Formula: C10 H16  =    26 atoms



      MOLECULAR POINT GROUP   :   C1  


                  EIGENVALUES  
 -41.85359 -35.28686 -32.21043 -30.22714 -27.11914 -23.03688 -22.45297 -19.95843
 -19.57145 -18.64502 -16.80645 -16.32805 -15.81780 -15.76950 -14.81715 -14.61629
 -14.33444 -13.94525 -13.13883 -12.90395 -12.44108 -12.24403 -11.95053 -11.80266
 -11.53752 -11.21797 -10.17957  -9.99299   1.14074   1.16845   3.21824   3.26808
   3.32017   3.55238   3.64531   3.76858   3.82362   3.89283   3.95159   4.03484
   4.13010   4.17435   4.24912   4.26850   4.42894   4.52407   4.62906   4.67637
   4.76503   4.87216   5.27569   5.46297   5.63631   5.76443   5.88599   5.90882


              NET ATOMIC CHARGES AND DIPOLE CONTRIBUTIONS

  ATOM NO.   TYPE          CHARGE      No. of ELECS.   s-Pop       p-Pop       
    1          C          -0.091092        4.0911     1.19293     2.89816
    2          C          -0.085778        4.0858     1.19334     2.89244
    3          C          -0.066763        4.0668     1.18103     2.88574
    4          C          -0.108023        4.1080     1.17745     2.93057
    5          C          -0.061261        4.0613     1.14896     2.91230
    6          C          -0.102682        4.1027     1.13744     2.96524
    7          C          -0.125453        4.1255     1.19406     2.93139
    8          C          -0.134578        4.1346     1.19525     2.93933
    9          C          -0.168531        4.1685     1.18215     2.98639
   10          C          -0.168681        4.1687     1.18269     2.98599
   11          H           0.075398        0.9246     0.92460
   12          H           0.081849        0.9182     0.91815
   13          H           0.080628        0.9194     0.91937
   14          H           0.055586        0.9444     0.94441
   15          H           0.062195        0.9378     0.93781
   16          H           0.058828        0.9412     0.94117
   17          H           0.057055        0.9429     0.94294
   18          H           0.042189        0.9578     0.95781
   19          H           0.039495        0.9605     0.96051
   20          H           0.040338        0.9597     0.95966
   21          H           0.099386        0.9006     0.90061
   22          H           0.096846        0.9032     0.90315
   23          H           0.079108        0.9209     0.92089
   24          H           0.081796        0.9182     0.91820
   25          H           0.079890        0.9201     0.92011
   26          H           0.082255        0.9177     0.91774
 DIPOLE           X         Y         Z       TOTAL
 POINT-CHG.     0.032    -0.178    -0.151     0.235
 HYBRID         0.007     0.010     0.022     0.025
 SUM            0.039    -0.168    -0.129     0.215


          ATOMIC ORBITAL ELECTRON POPULATIONS

    Atom      s        px        py        pz   
    1  C   1.19293   0.94142   0.99260   0.96413
    2  C   1.19334   0.95081   0.99948   0.94215
    3  C   1.18103   0.95021   0.96793   0.96759
    4  C   1.17745   0.95863   1.01807   0.95388
    5  C   1.14896   0.94008   0.98912   0.98311
    6  C   1.13744   1.00957   0.97750   0.97817
    7  C   1.19406   0.97743   0.96964   0.98433
    8  C   1.19525   0.97119   0.98623   0.98191
    9  C   1.18215   0.99820   1.00881   0.97937
   10  C   1.18269   1.00353   0.98047   1.00198
   11  H   0.92460
   12  H   0.91815
   13  H   0.91937
   14  H   0.94441
   15  H   0.93781
   16  H   0.94117
   17  H   0.94294
   18  H   0.95781
   19  H   0.96051
   20  H   0.95966
   21  H   0.90061
   22  H   0.90315
   23  H   0.92089
   24  H   0.91820
   25  H   0.92011
   26  H   0.91774
 *******************************************************************************
 ** Site#: 14399           For non-commercial use only        Version 13.159M **
 *******************************************************************************
 ** Cite this work as: MOPAC2012, James J. P. Stewart, Stewart Computational  **
 ** Chemistry, Version 13.159M web: HTTP://OpenMOPAC.net  Days remaining:   6 **
 *******************************************************************************
 **                                                                           **
 **                                MOPAC2012                                  **
 **                                                                           **
 *******************************************************************************

                            PM3 CALCULATION RESULTS


 *******************************************************************************
 *  CALCULATION DONE:                                Mon Jun  2 11:07:40 2014  *
 *  PM3      - The PM3 Hamiltonian to be used
 *  OLDGEO   - PREVIOUS GEOMETRY TO BE USED
 *  PRECISE  - CRITERIA TO BE INCREASED BY 100 TIMES
 *  NOSYM    - POINT-GROUP SYMMETRY SET TO C1
 *  T=       - A TIME OF 172800.0 SECONDS REQUESTED
 *  DUMP=N   - RESTART FILE WRITTEN EVERY  7200.000 SECONDS
 *  THERMO   - THERMODYNAMIC QUANTITIES TO BE CALCULATED
 *******************************************************************************
oldgeo thermo nosym precise  pm3

   ATOM   CHEMICAL          X               Y               Z
  NUMBER   SYMBOL      (ANGSTROMS)     (ANGSTROMS)     (ANGSTROMS)
 
     1       C          0.50668390  *  -0.70329179  *  -0.78062286  *
     2       C         -0.33027401  *  -0.38940585  *   0.49166592  *
     3       C         -1.62630740  *  -0.36979167  *  -0.37280353  *
     4       C         -0.77510301  *  -0.61036707  *  -1.64114270  *
     5       C          1.57131610  *   0.31660947  *  -1.13096105  *
     6       C         -0.29712791  *  -1.44942163  *   1.55943742  *
     7       C         -2.38351360  *   0.90604975  *  -0.33336964  *
     8       C          2.77931828  *   0.16938521  *  -0.27355068  *
     9       C         -3.07319739  *   1.29257890  *   0.73418388  *
    10       C          3.36505546  *   1.19311508  *   0.33632159  *
    11       H          0.94607322  *  -1.72424730  *  -0.76347509  *
    12       H         -0.09253390  *   0.60336314  *   0.93125921  *
    13       H         -2.31169653  *  -1.21473268  *  -0.14477062  *
    14       H         -1.02561310  *  -1.52791796  *  -2.19352950  *
    15       H         -0.77964487  *   0.21859907  *  -2.36755829  *
    16       H          1.15693581  *   1.34376881  *  -1.06759915  *
    17       H          1.87345457  *   0.17866985  *  -2.18921099  *
    18       H          0.69340811  *  -1.50335971  *   2.02919928  *
    19       H         -0.52633481  *  -2.44678548  *   1.15986475  *
    20       H         -1.03130380  *  -1.23414578  *   2.34690171  *
    21       H         -2.34875369  *   1.52431622  *  -1.23879090  *
    22       H          3.17451829  *  -0.84903294  *  -0.17299113  *
    23       H          4.25465489  *   1.07885158  *   0.94794776  *
    24       H          3.00109344  *   2.21485940  *   0.26883089  *
    25       H         -3.62890700  *   2.22434208  *   0.76804475  *
    26       H         -3.12767980  *   0.70536870  *   1.64695195  *
 


          CARTESIAN COORDINATES 

    NO.       ATOM         X         Y         Z

     1         C        0.5067   -0.7033   -0.7806
     2         C       -0.3303   -0.3894    0.4917
     3         C       -1.6263   -0.3698   -0.3728
     4         C       -0.7751   -0.6104   -1.6411
     5         C        1.5713    0.3166   -1.1310
     6         C       -0.2971   -1.4494    1.5594
     7         C       -2.3835    0.9060   -0.3334
     8         C        2.7793    0.1694   -0.2736
     9         C       -3.0732    1.2926    0.7342
    10         C        3.3651    1.1931    0.3363
    11         H        0.9461   -1.7242   -0.7635
    12         H       -0.0925    0.6034    0.9313
    13         H       -2.3117   -1.2147   -0.1448
    14         H       -1.0256   -1.5279   -2.1935
    15         H       -0.7796    0.2186   -2.3676
    16         H        1.1569    1.3438   -1.0676
    17         H        1.8735    0.1787   -2.1892
    18         H        0.6934   -1.5034    2.0292
    19         H       -0.5263   -2.4468    1.1599
    20         H       -1.0313   -1.2341    2.3469
    21         H       -2.3488    1.5243   -1.2388
    22         H        3.1745   -0.8490   -0.1730
    23         H        4.2547    1.0789    0.9479
    24         H        3.0011    2.2149    0.2688
    25         H       -3.6289    2.2243    0.7680
    26         H       -3.1277    0.7054    1.6470

  H: (PM3): J. J. P. STEWART, J. COMP. CHEM. 10, 209 (1989).
  C: (PM3): J. J. P. STEWART, J. COMP. CHEM. 10, 209 (1989).

           Empirical Formula: C10 H16  =    26 atoms



      MOLECULAR POINT GROUP   :   C1  


      RHF CALCULATION, NO. OF DOUBLY OCCUPIED LEVELS =   28



          HEAT OF FORMATION =      21.521253 KCALS/MOLE


          INTERNAL COORDINATE DERIVATIVES

   NUMBER  ATOM       BOND         ANGLE      DIHEDRAL

     1       C      0.000270     0.001378    -0.000321
     2       C      0.001044     0.002360     0.000471
     3       C     -0.000302     0.000648     0.001756
     4       C      0.002010     0.002162     0.001179
     5       C      0.003574    -0.000966    -0.001514
     6       C     -0.001726    -0.003771    -0.001159
     7       C     -0.007981    -0.000162    -0.002536
     8       C     -0.003515    -0.006823    -0.003464
     9       C     -0.000532    -0.000897     0.000238
    10       C      0.000140    -0.004491     0.001876
    11       H      0.001739     0.003377     0.002007
    12       H     -0.002932    -0.004997    -0.001848
    13       H      0.004869     0.004885    -0.002033
    14       H      0.008886     0.011067     0.002902
    15       H     -0.003146    -0.007266    -0.001205
    16       H      0.001135     0.003271    -0.000038
    17       H     -0.001103     0.000262     0.000877
    18       H     -0.000308    -0.000796    -0.000336
    19       H      0.001538     0.001055     0.002598
    20       H     -0.003454    -0.009662     0.003220
    21       H     -0.006803    -0.008699    -0.009157
    22       H     -0.001502     0.002105     0.003564
    23       H      0.003813     0.001456    -0.004325
    24       H      0.005780     0.009650     0.000521
    25       H      0.000668     0.004956     0.005290
    26       H     -0.002161    -0.000103     0.001436


          GRADIENT NORM =   0.03453


          TIME FOR SCF CALCULATION =    0.01

          TIME FOR DERIVATIVES     =    0.01

          MOLECULAR WEIGHT =  136.24



          ROTATIONAL CONSTANTS IN CM(-1)

          A =    0.06716902   B =    0.02453789   C =    0.02413496



           PRINCIPAL MOMENTS OF INERTIA IN UNITS OF 10**(-40)*GRAM-CM**2

          A =      416.7512   B =     1140.7981   C =     1159.8436


          ORIENTATION OF MOLECULE IN FORCE CALCULATION

    NO.       ATOM         X         Y         Z

     1          C      -0.9687   -0.0882    0.5462
     2          C       0.5862   -0.0882    0.5462
     3          C       0.5804    1.4698    0.5462
     4          C      -0.9641    1.4567    0.4733
     5          C      -1.6226   -0.7690   -0.6393
     6          C       1.2281   -0.7192    1.7523
     7          C       1.2778    2.0964   -0.6043
     8          C      -1.6009   -2.2514   -0.5047
     9          C       2.6006    2.0876   -0.7265
    10          C      -1.2105   -3.0628   -1.4806
    11          H      -1.3973   -0.4777    1.4950
    12          H       1.0183   -0.5158   -0.3843
    13          H       0.9654    1.9042    1.4942
    14          H      -1.4665    1.9582    1.3135
    15          H      -1.3887    1.8724   -0.4551
    16          H      -1.1403   -0.4448   -1.5843
    17          H      -2.6789   -0.4388   -0.7117
    18          H       1.0684   -1.8051    1.7597
    19          H       0.8231   -0.3209    2.6927
    20          H       2.3110   -0.5387    1.7582
    21          H       0.6431    2.5753   -1.3600
    22          H      -1.9370   -2.6501    0.4605
    23          H      -1.2120   -4.1436   -1.3790
    24          H      -0.8636   -2.7084   -2.4476
    25          H       3.1155    2.5447   -1.5655
    26          H       3.2582    1.6215    0.0024


    FIRST DERIVATIVES WILL BE USED IN THE CALCULATION OF SECOND DERIVATIVES

          ESTIMATED TIME TO COMPLETE CALCULATION =        3.86 SECONDS

    FOR POINT-GROUP C1   THERE ARE   1 UNIQUE SYMMETRY FUNCTIONS.

 STEP:   1 TIME =     0.04 SECS, INTEGRAL =      0.04 TIME LEFT: 172799.95
 STEP:   2 TIME =     0.04 SECS, INTEGRAL =      0.08 TIME LEFT: 172799.91
 STEP:   3 TIME =     0.04 SECS, INTEGRAL =      0.12 TIME LEFT: 172799.87
 STEP:   4 TIME =     0.04 SECS, INTEGRAL =      0.16 TIME LEFT: 172799.83
 STEP:   5 TIME =     0.04 SECS, INTEGRAL =      0.19 TIME LEFT: 172799.79
 STEP:   6 TIME =     0.04 SECS, INTEGRAL =      0.23 TIME LEFT: 172799.76
 STEP:   7 TIME =     0.04 SECS, INTEGRAL =      0.27 TIME LEFT: 172799.72
 STEP:   8 TIME =     0.04 SECS, INTEGRAL =      0.31 TIME LEFT: 172799.68
 STEP:   9 TIME =     0.04 SECS, INTEGRAL =      0.35 TIME LEFT: 172799.64
 STEP:  10 TIME =     0.04 SECS, INTEGRAL =      0.39 TIME LEFT: 172799.60
 STEP:  11 TIME =     0.04 SECS, INTEGRAL =      0.43 TIME LEFT: 172799.56
 STEP:  12 TIME =     0.04 SECS, INTEGRAL =      0.47 TIME LEFT: 172799.52
 STEP:  13 TIME =     0.04 SECS, INTEGRAL =      0.50 TIME LEFT: 172799.48
 STEP:  14 TIME =     0.04 SECS, INTEGRAL =      0.54 TIME LEFT: 172799.44
 STEP:  15 TIME =     0.04 SECS, INTEGRAL =      0.58 TIME LEFT: 172799.41
 STEP:  16 TIME =     0.04 SECS, INTEGRAL =      0.62 TIME LEFT: 172799.37
 STEP:  17 TIME =     0.04 SECS, INTEGRAL =      0.66 TIME LEFT: 172799.33
 STEP:  18 TIME =     0.04 SECS, INTEGRAL =      0.70 TIME LEFT: 172799.29
 STEP:  19 TIME =     0.04 SECS, INTEGRAL =      0.73 TIME LEFT: 172799.25
 STEP:  20 TIME =     0.04 SECS, INTEGRAL =      0.78 TIME LEFT: 172799.21
 STEP:  21 TIME =     0.04 SECS, INTEGRAL =      0.81 TIME LEFT: 172799.17
 STEP:  22 TIME =     0.04 SECS, INTEGRAL =      0.85 TIME LEFT: 172799.13
 STEP:  23 TIME =     0.04 SECS, INTEGRAL =      0.89 TIME LEFT: 172799.09
 STEP:  24 TIME =     0.04 SECS, INTEGRAL =      0.93 TIME LEFT: 172799.06
 STEP:  25 TIME =     0.04 SECS, INTEGRAL =      0.97 TIME LEFT: 172799.02
 STEP:  26 TIME =     0.04 SECS, INTEGRAL =      1.01 TIME LEFT: 172798.98
 STEP:  27 TIME =     0.04 SECS, INTEGRAL =      1.05 TIME LEFT: 172798.94
 STEP:  28 TIME =     0.04 SECS, INTEGRAL =      1.09 TIME LEFT: 172798.90
 STEP:  29 TIME =     0.04 SECS, INTEGRAL =      1.13 TIME LEFT: 172798.86
 STEP:  30 TIME =     0.04 SECS, INTEGRAL =      1.17 TIME LEFT: 172798.82
 STEP:  31 TIME =     0.04 SECS, INTEGRAL =      1.21 TIME LEFT: 172798.78
 STEP:  32 TIME =     0.04 SECS, INTEGRAL =      1.25 TIME LEFT: 172798.74
 STEP:  33 TIME =     0.04 SECS, INTEGRAL =      1.29 TIME LEFT: 172798.70
 STEP:  34 TIME =     0.04 SECS, INTEGRAL =      1.32 TIME LEFT: 172798.66
 STEP:  35 TIME =     0.04 SECS, INTEGRAL =      1.36 TIME LEFT: 172798.62
 STEP:  36 TIME =     0.04 SECS, INTEGRAL =      1.40 TIME LEFT: 172798.58
 STEP:  37 TIME =     0.04 SECS, INTEGRAL =      1.44 TIME LEFT: 172798.54
 STEP:  38 TIME =     0.04 SECS, INTEGRAL =      1.48 TIME LEFT: 172798.50
 STEP:  39 TIME =     0.04 SECS, INTEGRAL =      1.52 TIME LEFT: 172798.47
 STEP:  40 TIME =     0.04 SECS, INTEGRAL =      1.56 TIME LEFT: 172798.43
 STEP:  41 TIME =     0.04 SECS, INTEGRAL =      1.60 TIME LEFT: 172798.39
 STEP:  42 TIME =     0.04 SECS, INTEGRAL =      1.64 TIME LEFT: 172798.35
 STEP:  43 TIME =     0.04 SECS, INTEGRAL =      1.68 TIME LEFT: 172798.31
 STEP:  44 TIME =     0.04 SECS, INTEGRAL =      1.72 TIME LEFT: 172798.27
 STEP:  45 TIME =     0.04 SECS, INTEGRAL =      1.76 TIME LEFT: 172798.23
 STEP:  46 TIME =     0.04 SECS, INTEGRAL =      1.80 TIME LEFT: 172798.19
 STEP:  47 TIME =     0.04 SECS, INTEGRAL =      1.84 TIME LEFT: 172798.15
 STEP:  48 TIME =     0.04 SECS, INTEGRAL =      1.88 TIME LEFT: 172798.11
 STEP:  49 TIME =     0.04 SECS, INTEGRAL =      1.91 TIME LEFT: 172798.07
 STEP:  50 TIME =     0.04 SECS, INTEGRAL =      1.95 TIME LEFT: 172798.03
 STEP:  51 TIME =     0.04 SECS, INTEGRAL =      1.99 TIME LEFT: 172798.00
 STEP:  52 TIME =     0.04 SECS, INTEGRAL =      2.03 TIME LEFT: 172797.96
 STEP:  53 TIME =     0.04 SECS, INTEGRAL =      2.07 TIME LEFT: 172797.92
 STEP:  54 TIME =     0.04 SECS, INTEGRAL =      2.11 TIME LEFT: 172797.88
 STEP:  55 TIME =     0.04 SECS, INTEGRAL =      2.15 TIME LEFT: 172797.84
 STEP:  56 TIME =     0.04 SECS, INTEGRAL =      2.19 TIME LEFT: 172797.80
 STEP:  57 TIME =     0.04 SECS, INTEGRAL =      2.23 TIME LEFT: 172797.76
 STEP:  58 TIME =     0.04 SECS, INTEGRAL =      2.26 TIME LEFT: 172797.72
 STEP:  59 TIME =     0.04 SECS, INTEGRAL =      2.30 TIME LEFT: 172797.69
 STEP:  60 TIME =     0.04 SECS, INTEGRAL =      2.34 TIME LEFT: 172797.65
 STEP:  61 TIME =     0.04 SECS, INTEGRAL =      2.38 TIME LEFT: 172797.61
 STEP:  62 TIME =     0.04 SECS, INTEGRAL =      2.42 TIME LEFT: 172797.57
 STEP:  63 TIME =     0.04 SECS, INTEGRAL =      2.46 TIME LEFT: 172797.53
 STEP:  64 TIME =     0.04 SECS, INTEGRAL =      2.50 TIME LEFT: 172797.48
 STEP:  65 TIME =     0.04 SECS, INTEGRAL =      2.54 TIME LEFT: 172797.44
 STEP:  66 TIME =     0.04 SECS, INTEGRAL =      2.58 TIME LEFT: 172797.41
 STEP:  67 TIME =     0.04 SECS, INTEGRAL =      2.62 TIME LEFT: 172797.36
 STEP:  68 TIME =     0.04 SECS, INTEGRAL =      2.66 TIME LEFT: 172797.33
 STEP:  69 TIME =     0.04 SECS, INTEGRAL =      2.70 TIME LEFT: 172797.29
 STEP:  70 TIME =     0.04 SECS, INTEGRAL =      2.74 TIME LEFT: 172797.25
 STEP:  71 TIME =     0.04 SECS, INTEGRAL =      2.78 TIME LEFT: 172797.21
 STEP:  72 TIME =     0.04 SECS, INTEGRAL =      2.82 TIME LEFT: 172797.17
 STEP:  73 TIME =     0.04 SECS, INTEGRAL =      2.86 TIME LEFT: 172797.13
 STEP:  74 TIME =     0.04 SECS, INTEGRAL =      2.90 TIME LEFT: 172797.09
 STEP:  75 TIME =     0.04 SECS, INTEGRAL =      2.94 TIME LEFT: 172797.05
 STEP:  76 TIME =     0.04 SECS, INTEGRAL =      2.98 TIME LEFT: 172797.01
 STEP:  77 TIME =     0.04 SECS, INTEGRAL =      3.02 TIME LEFT: 172796.97
 STEP:  78 TIME =     0.04 SECS, INTEGRAL =      3.06 TIME LEFT: 172796.93

(To convert to Hartree/Bohr^2, multiply by (10^(-21) x N x a0^2)/(4.184 x 627.51) = 0.0642)


           FORCE MATRIX IN MILLIDYNES/ANGSTROM


                  C  1       C  2       C  3       C  4       C  5       C  6
 ------------------------------------------------------------------------------
     C    1  14.453612
     C    2   3.231116  14.387443
     C    3   1.788686   3.106822  14.811949
     C    4   3.501736   1.804411   3.515328  14.370919
     C    5   4.265358   0.528341   0.040869   0.546215  14.782593
     C    6   0.543450   4.639210   0.549221   0.042216   0.033132  14.522375
     C    7   0.040391   0.567522   5.041610   0.564992   0.005116   0.032808
     C    8   0.694397   0.023789   0.005845   0.050899   4.946732   0.003661
     C    9   0.005455   0.036485   0.846598   0.051099   0.001242   0.004954
     C   10   0.042738   0.003946   0.000842   0.007651   0.835311   0.002284
     H   11   4.388283   0.438217   0.026884   0.427825   0.431256   0.033559
     H   12   0.437834   4.402588   0.436667   0.025082   0.031756   0.420371
     H   13   0.026547   0.443398   4.382265   0.429099   0.001548   0.032804
     H   14   0.441829   0.031701   0.440765   4.711291   0.032338   0.004231
     H   15   0.452870   0.028033   0.453270   4.629735   0.031287   0.001826
     H   16   0.446436   0.024924   0.002014   0.020199   4.417210   0.001086
     H   17   0.439623   0.046093   0.003551   0.019302   4.411195   0.005824
     H   18   0.012062   0.450204   0.047947   0.003730   0.001514   4.747308
     H   19   0.020695   0.468776   0.020231   0.001778   0.001120   4.708829
     H   20   0.047521   0.451506   0.012614   0.003714   0.005660   4.735437
     H   21   0.002088   0.023148   0.439829   0.039042   0.001669   0.003094
     H   22   0.028858   0.003032   0.000904   0.002114   0.432994   0.000794
     H   23   0.017467   0.000910   0.000466   0.002860   0.138076   0.000446
     H   24   0.010122   0.000570   0.000674   0.001731   0.096806   0.000910
     H   25   0.001801   0.013299   0.131743   0.006127   0.000326   0.000964
     H   26   0.001472   0.013051   0.097894   0.001684   0.000425   0.003495


                  C  7       C  8       C  9       C 10       H 11       H 12
 ------------------------------------------------------------------------------
     C    7  18.235066
     C    8   0.001978  18.178478
     C    9  11.041140   0.001514  18.021001
     C   10   0.001055  11.079719   0.001253  18.040853
     H   11   0.001936   0.039468   0.000863   0.002156   4.898547
     H   12   0.029049   0.004080   0.006903   0.002702   0.029029   4.905701
     H   13   0.408156   0.000743   0.031568   0.000430   0.002354   0.029745
     H   14   0.033310   0.006071   0.005955   0.001262   0.027175   0.000952
     H   15   0.031648   0.002652   0.003538   0.000878   0.031066   0.002551
     H   16   0.001292   0.458419   0.000647   0.047686   0.041282   0.027132
     H   17   0.000968   0.411379   0.000351   0.033364   0.024009   0.002932
     H   18   0.005839   0.002201   0.000904   0.000784   0.005133   0.030209
     H   19   0.001372   0.000405   0.000776   0.000446   0.021994   0.043948
     H   20   0.001480   0.000995   0.001757   0.000598   0.002856   0.030180
     H   21   4.784068   0.000637   0.454093   0.000498   0.000713   0.002947
     H   22   0.000481   4.783357   0.000413   0.453738   0.027543   0.001032
     H   23   0.000478   0.462450   0.000415   5.108669   0.000649   0.000503
     H   24   0.000487   0.490042   0.000616   5.072216   0.000630   0.000625
     H   25   0.463233   0.000320   5.113993   0.000306   0.000195   0.001178
     H   26   0.494112   0.000548   5.076998   0.000600   0.000276   0.001298


                  H 13       H 14       H 15       H 16       H 17       H 18
 ------------------------------------------------------------------------------
     H   13   4.870769
     H   14   0.027774   5.328886
     H   15   0.031317   0.551886   5.263915
     H   16   0.000552   0.001197   0.016333   5.027319
     H   17   0.000515   0.002067   0.011195   0.560268   5.000896
     H   18   0.003089   0.000736   0.000505   0.000234   0.000409   5.468550
     H   19   0.021661   0.000714   0.000617   0.000497   0.000323   0.570579
     H   20   0.005304   0.000688   0.000593   0.000471   0.001171   0.563139
     H   21   0.023426   0.001870   0.027315   0.000931   0.000390   0.000705
     H   22   0.000274   0.000490   0.000655   0.038771   0.017446   0.001651
     H   23   0.000127   0.000465   0.000235   0.003161   0.018174   0.000205
     H   24   0.000191   0.000336   0.000282   0.028949   0.011920   0.000382
     H   25   0.010304   0.000940   0.000625   0.000213   0.000094   0.000233
     H   26   0.011639   0.000648   0.000728   0.000243   0.000177   0.000538


                  H 19       H 20       H 21       H 22       H 23       H 24
 ------------------------------------------------------------------------------
     H   19   5.448718
     H   20   0.570207   5.455654
     H   21   0.000609   0.000305   5.149440
     H   22   0.000246   0.000328   0.000323   5.157746
     H   23   0.000173   0.000188   0.000140   0.079904   5.498219
     H   24   0.000247   0.000260   0.000343   0.117060   0.423533   5.468352
     H   25   0.000306   0.000322   0.079392   0.000193   0.000135   0.000231
     H   26   0.000442   0.008354   0.117865   0.000228   0.000126   0.000170


                  H 25       H 26
 ------------------------------
     H   25   5.500532
     H   26   0.417254   5.462633


          HEAT OF FORMATION =      21.521253 KCALS/MOLE

          ZERO POINT ENERGY     144.685 KCAL/MOL


           NORMAL COORDINATE ANALYSIS (Total motion = 1 Angstrom)


   Root No.       1         2         3         4         5         6         7         8

                 1 A       2 A       3 A       4 A       5 A       6 A       7 A       8 A   

                  40.8      65.7      91.2     108.8     161.9     194.2     218.8     301.5
  
           1    0.0085   -0.0166    0.0003   -0.0056    0.0009    0.0052    0.0076    0.0000
           2   -0.0044    0.0103   -0.0041    0.0052   -0.0113   -0.0101   -0.0094   -0.0076
           3   -0.0168    0.0011    0.0088    0.0086    0.0083    0.0061   -0.0014   -0.0161
           4    0.0086   -0.0167    0.0007   -0.0058    0.0016    0.0054    0.0090    0.0000
           5    0.0026   -0.0075   -0.0176    0.0051   -0.0007    0.0031   -0.0111   -0.0095
           6   -0.0189   -0.0201    0.0113    0.0010   -0.0005    0.0002    0.0011   -0.0267
           7    0.0011    0.0005    0.0147   -0.0057   -0.0091   -0.0075    0.0130    0.0076
           8    0.0027   -0.0076   -0.0173    0.0049   -0.0013    0.0031   -0.0097   -0.0106
           9   -0.0027   -0.0092   -0.0130   -0.0088   -0.0097   -0.0064   -0.0045   -0.0133
          10    0.0020    0.0001    0.0134   -0.0050   -0.0079   -0.0067    0.0136    0.0056
          11   -0.0045    0.0096   -0.0044    0.0043   -0.0103   -0.0098   -0.0107   -0.0052
          12   -0.0191   -0.0092    0.0089   -0.0217   -0.0023   -0.0047   -0.0234    0.0371
          13    0.0064   -0.0385   -0.0022   -0.0147   -0.0123   -0.0034   -0.0225   -0.0204
          14   -0.0118    0.0034    0.0047   -0.0156    0.0000   -0.0044   -0.0121    0.0027
          15   -0.0112    0.0175    0.0050    0.0263    0.0084    0.0069    0.0172   -0.0123
          16    0.0146   -0.0063   -0.0143    0.0038    0.0363    0.0199   -0.0142   -0.0146
          17   -0.0077   -0.0269   -0.0015    0.0132    0.0343    0.0204    0.0027    0.0306
          18   -0.0276   -0.0362    0.0283   -0.0002   -0.0006    0.0017    0.0229    0.0028
          19    0.0121    0.0105   -0.0017    0.0113    0.0025    0.0005    0.0114    0.0060
          20    0.0199   -0.0071   -0.0399   -0.0020   -0.0149    0.0022    0.0293    0.0095
          21    0.0135   -0.0027   -0.0356   -0.0019   -0.0094   -0.0014    0.0155   -0.0025
          22   -0.0238    0.0017   -0.0041    0.0393   -0.0318   -0.0221   -0.0230    0.0080
          23   -0.0100    0.0036    0.0037   -0.0160   -0.0012   -0.0055   -0.0135    0.0025
          24    0.0138    0.0157   -0.0063    0.0121   -0.0108   -0.0088   -0.0007   -0.0032
          25    0.0151    0.0127    0.0023    0.0134    0.0058    0.0021    0.0077    0.0079
          26    0.0499    0.0083    0.0595   -0.0065   -0.0140   -0.0076    0.0209   -0.0028
          27    0.0435    0.0194    0.0012    0.0194    0.0222    0.0138   -0.0214    0.0098
          28   -0.0450    0.0506   -0.0067   -0.0284    0.0065    0.0037    0.0039    0.0004
          29   -0.0354    0.0163    0.0111    0.0062    0.0124    0.0056    0.0071   -0.0125
          30    0.0264    0.0247   -0.0135   -0.0337   -0.0071   -0.0080   -0.0075    0.0067
          31    0.0130   -0.0073   -0.0057    0.0003    0.0080    0.0145    0.0119    0.0117
          32   -0.0022    0.0224   -0.0027    0.0234   -0.0132   -0.0124    0.0049   -0.0301
          33   -0.0136    0.0104    0.0066    0.0187    0.0101    0.0088    0.0068   -0.0189
          34    0.0088   -0.0362    0.0004   -0.0126   -0.0032    0.0025    0.0159    0.0045
          35    0.0151   -0.0049   -0.0390   -0.0001   -0.0054   -0.0010   -0.0206   -0.0221
          36   -0.0245   -0.0306    0.0214    0.0002   -0.0005    0.0008    0.0099   -0.0172
          37   -0.0125    0.0035    0.0331   -0.0164   -0.0118   -0.0148    0.0001    0.0313
          38   -0.0069   -0.0201   -0.0071    0.0095    0.0062    0.0116   -0.0155   -0.0267
          39    0.0073   -0.0047   -0.0252   -0.0063   -0.0116   -0.0068    0.0039   -0.0142
          40   -0.0100    0.0051    0.0308   -0.0127   -0.0067   -0.0102    0.0013    0.0422
          41   -0.0048    0.0215   -0.0008    0.0217   -0.0070   -0.0073    0.0049   -0.0393
          42   -0.0260   -0.0134    0.0172   -0.0368   -0.0035   -0.0083   -0.0403    0.0802
          43    0.0107    0.0057    0.0024    0.0042   -0.0144   -0.0104    0.0283   -0.0296
          44   -0.0088    0.0073    0.0005   -0.0145   -0.0189   -0.0198   -0.0256    0.0346
          45   -0.0250   -0.0127    0.0161   -0.0343   -0.0033   -0.0076   -0.0373    0.0723
          46    0.0200   -0.0724   -0.0027   -0.0541   -0.0140   -0.0030   -0.0498   -0.0470
          47   -0.0365    0.0165    0.0110    0.0067    0.0037   -0.0030   -0.0056    0.0114
          48   -0.0127    0.0047    0.0069    0.0138    0.0085    0.0074    0.0055   -0.0219
          49    0.0130   -0.0473   -0.0018   -0.0287   -0.0088   -0.0003   -0.0248   -0.0263
          50    0.0066   -0.0188    0.0068   -0.0530    0.0138    0.0075   -0.0111   -0.0109
          51   -0.0253    0.0491    0.0086    0.0593    0.0177    0.0123    0.0507    0.0155
          52    0.0198   -0.0219   -0.0308    0.0081    0.1571   -0.1265   -0.0008   -0.0102
          53   -0.0085   -0.0247    0.0010    0.0126    0.0169    0.0424    0.0008    0.0306
          54   -0.0392   -0.0434    0.0507    0.0060   -0.0299    0.1074    0.0254    0.0425
          55    0.0152    0.0145   -0.0137    0.0084   -0.0292    0.1500   -0.0457   -0.0306
          56   -0.0201   -0.0294    0.0245    0.0161   -0.0326    0.1551    0.0030    0.0645
          57   -0.0221   -0.0262    0.0176    0.0005   -0.0005    0.0007    0.0095   -0.0177
          58    0.0138   -0.0036   -0.0117    0.0032    0.0167    0.0445   -0.0167   -0.0157
          59   -0.0026   -0.0425   -0.0181    0.0176    0.1547   -0.1252    0.0162    0.0369
          60   -0.0284   -0.0520    0.0313   -0.0084    0.0283   -0.1018    0.0534    0.0129
          61    0.0182    0.0168   -0.0181    0.0237    0.0144    0.0095    0.0040    0.0121
          62    0.0062   -0.0211   -0.1404   -0.0041   -0.0326    0.0070    0.0859    0.0355
          63   -0.0002   -0.0168   -0.0858   -0.0135   -0.0301   -0.0055    0.0568    0.0098
          64   -0.0290   -0.0074   -0.0030    0.1356   -0.0788   -0.0587   -0.0451    0.0398
          65    0.0131   -0.0067   -0.0032   -0.0358   -0.0121   -0.0143   -0.0291    0.0097
          66    0.0216    0.0082   -0.0088    0.0372   -0.0318   -0.0253   -0.0152    0.0114
          67   -0.0678    0.0836   -0.0080    0.0051   -0.0053   -0.0092    0.0063    0.0250
          68   -0.0335    0.0162    0.0103    0.0047    0.0107    0.0040    0.0050   -0.0100
          69    0.0455    0.0247   -0.0224   -0.0495   -0.0258   -0.0251   -0.0306    0.0356
          70   -0.0412    0.0618   -0.0078   -0.1223    0.0527    0.0401    0.0264   -0.0312
          71   -0.0598    0.0277    0.0186    0.0283    0.0265    0.0174    0.0287   -0.0306
          72    0.0188    0.0328   -0.0112   -0.0591    0.0145    0.0091    0.0082   -0.0109
          73    0.0237    0.0211   -0.0122    0.0286    0.0264    0.0165   -0.0128    0.0242
          74    0.0624    0.0084    0.0489   -0.0120   -0.0285   -0.0105    0.0645    0.0132
          75    0.0555    0.0246   -0.0134    0.0258    0.0272    0.0212   -0.0105    0.0287
          76    0.0092    0.0065    0.0212   -0.0001   -0.0122   -0.0109    0.0247   -0.0069
          77    0.0641    0.0220    0.1602   -0.0054   -0.0002   -0.0147   -0.0285   -0.0319
          78    0.0578    0.0338    0.0483    0.0324    0.0477    0.0213   -0.0688    0.0049


   Root No.       9        10        11        12        13        14        15        16

                 9 A      10 A      11 A      12 A      13 A      14 A      15 A      16 A   

                 340.5     379.5     382.8     450.1     487.1     533.9     611.1     647.1
  
           1   -0.0232    0.0276    0.0140   -0.0025   -0.0011   -0.0084   -0.0044    0.0115
           2    0.0012   -0.0179    0.0006   -0.0055    0.0259    0.0043   -0.0065    0.0069
           3    0.0017   -0.0130   -0.0303   -0.0189   -0.0171   -0.0260    0.0235    0.0025
           4   -0.0202    0.0286    0.0160   -0.0044    0.0005   -0.0010   -0.0027    0.0100
           5   -0.0265   -0.0114    0.0144   -0.0018   -0.0135    0.0068    0.0013    0.0176
           6    0.0113   -0.0067    0.0035   -0.0205   -0.0084    0.0342   -0.0047   -0.0050
           7    0.0002   -0.0063    0.0038   -0.0026    0.0256   -0.0004    0.0112   -0.0032
           8   -0.0277   -0.0084    0.0143   -0.0058   -0.0139    0.0110    0.0046   -0.0028
           9    0.0045   -0.0107    0.0400    0.0163    0.0127   -0.0102    0.0037    0.0113
          10    0.0015    0.0002    0.0056   -0.0058    0.0387   -0.0020    0.0142   -0.0028
          11   -0.0018   -0.0272    0.0019   -0.0062    0.0317    0.0076   -0.0033    0.0117
          12   -0.0153   -0.0230   -0.0060    0.0034   -0.0063    0.0079    0.0009   -0.0002
          13   -0.0059   -0.0019   -0.0337    0.0132    0.0034   -0.0161   -0.0002    0.0057
          14    0.0154    0.0208    0.0018   -0.0168   -0.0136   -0.0135   -0.0009    0.0002
          15   -0.0186   -0.0095   -0.0095   -0.0121    0.0022   -0.0219    0.0057    0.0097
          16    0.0295    0.0002    0.0093   -0.0092    0.0044    0.0221   -0.0065   -0.0055
          17    0.0102   -0.0122    0.0063    0.0185    0.0064   -0.0195    0.0047    0.0096
          18    0.0053    0.0119    0.0038   -0.0123    0.0005    0.0193   -0.0059   -0.0094
          19    0.0012   -0.0253   -0.0012    0.0093   -0.0353    0.0035   -0.0021   -0.0045
          20   -0.0076    0.0051   -0.0194   -0.0153    0.0043    0.0084    0.0178   -0.0521
          21    0.0186   -0.0116    0.0203    0.0216   -0.0054   -0.0179    0.0000   -0.0064
          22    0.0114    0.0058   -0.0049   -0.0079   -0.0023   -0.0168   -0.0301   -0.0143
          23    0.0187    0.0296    0.0009   -0.0127   -0.0183   -0.0150   -0.0067   -0.0037
          24   -0.0041    0.0189   -0.0128    0.0406    0.0072    0.0115   -0.0158   -0.0083
          25   -0.0019   -0.0236   -0.0046    0.0067   -0.0367    0.0062   -0.0024   -0.0046
          26    0.0094   -0.0093   -0.0040    0.0009   -0.0092    0.0035   -0.0018    0.0006
          27   -0.0079    0.0190   -0.0088   -0.0086    0.0198   -0.0008   -0.0002    0.0057
          28   -0.0005   -0.0031    0.0012   -0.0014    0.0003    0.0020    0.0064    0.0026
          29   -0.0006    0.0314   -0.0133    0.0367   -0.0026    0.0072   -0.0066   -0.0046
          30    0.0082    0.0168    0.0015    0.0031   -0.0068    0.0000   -0.0036   -0.0024
          31   -0.0439    0.0373    0.0219   -0.0005   -0.0149   -0.0305   -0.0009    0.0271
          32    0.0121   -0.0258   -0.0037   -0.0134    0.0539    0.0025   -0.0003    0.0085
          33   -0.0044   -0.0109   -0.0270   -0.0206   -0.0120   -0.0362    0.0263    0.0101
          34   -0.0372    0.0481    0.0370    0.0039   -0.0050    0.0118   -0.0150    0.0210
          35   -0.0438   -0.0087    0.0410    0.0080   -0.0240    0.0044    0.0008    0.0367
          36    0.0111    0.0020    0.0014   -0.0210   -0.0056    0.0404   -0.0099   -0.0097
          37   -0.0050   -0.0173   -0.0105   -0.0090    0.0586    0.0044    0.0187    0.0004
          38   -0.0366    0.0005    0.0171   -0.0203   -0.0376    0.0365   -0.0076    0.0221
          39    0.0113   -0.0105    0.0428    0.0253    0.0105   -0.0239    0.0062   -0.0018
          40   -0.0039   -0.0209   -0.0298   -0.0141    0.0378    0.0228    0.0053   -0.0142
          41    0.0203   -0.0248   -0.0159   -0.0236    0.0435   -0.0277    0.0272    0.0160
          42   -0.0321   -0.0373   -0.0167    0.0088   -0.0143    0.0455   -0.0238   -0.0102
          43    0.0234    0.0046    0.0347    0.0011    0.0717   -0.0280    0.0310    0.0109
          44   -0.0078   -0.0440    0.0126    0.0084    0.0523    0.0469   -0.0314    0.0079
          45   -0.0288   -0.0339   -0.0150    0.0071   -0.0129    0.0393   -0.0205   -0.0085
          46    0.0095   -0.0169   -0.0962    0.0571    0.0019   -0.0110    0.0695    0.0185
          47    0.0184    0.0175    0.0163   -0.0603   -0.0288   -0.0402   -0.0220   -0.0080
          48   -0.0097   -0.0182   -0.0348   -0.0063   -0.0041   -0.0283    0.0325    0.0131
          49   -0.0059    0.0006   -0.0440    0.0248    0.0016   -0.0121    0.0229    0.0144
          50    0.0101    0.0342   -0.0143    0.0055   -0.0220   -0.0045    0.0556    0.0265
          51   -0.0376    0.0147    0.0606   -0.0679   -0.0068   -0.0335   -0.0529    0.0069
          52    0.0546   -0.0110   -0.0002   -0.0049    0.0166    0.0233   -0.0085   -0.0222
          53    0.0073   -0.0108    0.0079    0.0185    0.0053   -0.0204    0.0051    0.0119
          54    0.0456    0.0106    0.0040    0.0111    0.0272   -0.0078   -0.0040   -0.0252
          55    0.0622   -0.0209    0.0135   -0.0152    0.0048    0.0512   -0.0130   -0.0161
          56    0.0302   -0.0064    0.0103    0.0381    0.0242   -0.0473    0.0080    0.0057
          57    0.0106    0.0006    0.0039   -0.0226   -0.0066    0.0421   -0.0097   -0.0121
          58    0.0266    0.0015    0.0110   -0.0103    0.0028    0.0236   -0.0068   -0.0037
          59    0.0342   -0.0231   -0.0034    0.0250    0.0193   -0.0238    0.0045   -0.0043
          60   -0.0478    0.0412    0.0038   -0.0120   -0.0087   -0.0071    0.0005    0.0089
          61   -0.0080   -0.0199   -0.0165    0.0008   -0.0473    0.0117   -0.0056   -0.0069
          62    0.0173    0.0138   -0.0817   -0.0390    0.0021    0.0309   -0.0067   -0.0005
          63    0.0410   -0.0096   -0.0073    0.0127    0.0042   -0.0100   -0.0123    0.0279
          64    0.0418    0.0474    0.0165    0.0026   -0.0262    0.0161    0.0361    0.0072
          65    0.0324    0.0406    0.0040   -0.0156   -0.0254   -0.0139   -0.0115   -0.0085
          66    0.0126    0.0379   -0.0035    0.0410   -0.0048    0.0224    0.0049   -0.0029
          67    0.0196    0.0375    0.0286    0.0308   -0.0257    0.0806    0.1876    0.0820
          68    0.0024    0.0330   -0.0107    0.0313   -0.0060    0.0063   -0.0008   -0.0019
          69    0.0420    0.0289    0.0333   -0.0668   -0.0448   -0.0148    0.0646    0.0300
          70   -0.0321   -0.0510   -0.0198   -0.0229    0.0290   -0.0494   -0.1175   -0.0487
          71   -0.0239    0.0349   -0.0328    0.1079    0.0214    0.0431   -0.0142   -0.0105
          72   -0.0112    0.0009   -0.0127    0.0200    0.0117   -0.0061   -0.0507   -0.0229
          73   -0.0290    0.0104   -0.0402   -0.0325    0.0007    0.0300    0.0105   -0.0213
          74    0.0473   -0.0098   -0.0549   -0.0114   -0.0193    0.0266   -0.0732    0.2155
          75   -0.0043    0.0405   -0.0587   -0.0401    0.0390    0.0266   -0.0307    0.1123
          76    0.0220   -0.0562    0.0276    0.0428   -0.0757   -0.0139   -0.0153    0.0112
          77   -0.0090   -0.0285    0.0652    0.0362   -0.0250   -0.0281    0.0358   -0.1208
          78   -0.0417    0.0369    0.0057   -0.0195    0.0461   -0.0023    0.0360   -0.0868


   Root No.      17        18        19        20        21        22        23        24

                17 A      18 A      19 A      20 A      21 A      22 A      23 A      24 A   

                 735.5     850.9     881.1     901.7     925.5     929.2     942.9     951.8
  
           1    0.0181    0.0231   -0.0045   -0.0060    0.0130    0.0102   -0.0013   -0.0078
           2    0.0268   -0.0048   -0.0093    0.0013    0.0004   -0.0050   -0.0022    0.0036
           3   -0.0106   -0.0093    0.0028    0.0116   -0.0056    0.0065    0.0035    0.0054
           4    0.0181   -0.0317   -0.0007    0.0087   -0.0057   -0.0058   -0.0007    0.0038
           5   -0.0211   -0.0082    0.0239    0.0058    0.0015   -0.0051   -0.0109    0.0000
           6   -0.0154    0.0123    0.0156   -0.0034    0.0022    0.0010   -0.0027    0.0013
           7   -0.0264    0.0033    0.0046   -0.0030    0.0002   -0.0051   -0.0057    0.0038
           8   -0.0168    0.0050   -0.0161   -0.0089   -0.0065    0.0114    0.0268   -0.0023
           9   -0.0231    0.0048   -0.0216   -0.0068    0.0014   -0.0085    0.0008    0.0115
          10   -0.0273    0.0006    0.0239   -0.0082   -0.0110    0.0112    0.0175    0.0004
          11    0.0333   -0.0013   -0.0114    0.0109    0.0091    0.0048   -0.0040   -0.0109
          12   -0.0086   -0.0047   -0.0212    0.0187    0.0100   -0.0001    0.0008   -0.0176
          13    0.0142    0.0426    0.0037    0.0086   -0.0025   -0.0007   -0.0054    0.0047
          14    0.0016   -0.0024   -0.0021    0.0051    0.0022    0.0103    0.0015    0.0096
          15    0.0179    0.0008   -0.0001   -0.0230    0.0022   -0.0082   -0.0013    0.0022
          16    0.0119   -0.0209   -0.0050    0.0106   -0.0080   -0.0064   -0.0007    0.0057
          17   -0.0128    0.0000    0.0225    0.0041    0.0014   -0.0046   -0.0202   -0.0004
          18    0.0125   -0.0061   -0.0068    0.0024    0.0019    0.0000   -0.0049   -0.0070
          19    0.0007    0.0006   -0.0067   -0.0001    0.0000   -0.0024   -0.0040    0.0026
          20   -0.0020    0.0025   -0.0122   -0.0037   -0.0188    0.0110   -0.0097   -0.0082
          21    0.0198   -0.0027    0.0127   -0.0019   -0.0123    0.0075   -0.0089    0.0002
          22   -0.0097   -0.0046    0.0000    0.0026   -0.0117   -0.0140    0.0081   -0.0039
          23   -0.0036    0.0022    0.0027   -0.0051   -0.0029   -0.0059    0.0001   -0.0006
          24   -0.0066    0.0001   -0.0004    0.0025   -0.0034   -0.0059    0.0023   -0.0057
          25   -0.0016    0.0009   -0.0113    0.0007    0.0019   -0.0036   -0.0035    0.0016
          26   -0.0028    0.0023   -0.0090   -0.0017   -0.0026   -0.0036   -0.0122    0.0050
          27    0.0044   -0.0030    0.0177    0.0020   -0.0054    0.0130    0.0113   -0.0148
          28    0.0013   -0.0035   -0.0006   -0.0030   -0.0013   -0.0040    0.0026   -0.0045
          29   -0.0046    0.0019    0.0029   -0.0146   -0.0013   -0.0170   -0.0022   -0.0162
          30   -0.0036    0.0039    0.0009    0.0079   -0.0027    0.0037    0.0018    0.0054
          31    0.0339   -0.0012   -0.0277   -0.0043    0.0413    0.0135   -0.0154   -0.0386
          32    0.0506   -0.0121    0.0077   -0.0330   -0.0231   -0.0114    0.0100    0.0470
          33    0.0067   -0.0210   -0.0008   -0.0035   -0.0019    0.0052    0.0019    0.0098
          34    0.0262   -0.0434    0.0037   -0.0052    0.0124   -0.0136   -0.0118   -0.0153
          35   -0.0443   -0.0265    0.0099   -0.0043   -0.0041   -0.0149    0.0252    0.0217
          36    0.0000    0.0136    0.0220   -0.0047    0.0123    0.0020   -0.0235   -0.0175
          37   -0.0478    0.0086   -0.0006    0.0251    0.0328   -0.0091   -0.0190   -0.0446
          38   -0.0408    0.0010    0.0119   -0.0276   -0.0141    0.0206    0.1030    0.0209
          39   -0.0023    0.0038   -0.0300   -0.0092   -0.0089   -0.0110   -0.0300    0.0208
          40    0.0175   -0.0155    0.1219   -0.0231   -0.0551    0.0347    0.0187    0.0274
          41    0.0064   -0.0399   -0.0220    0.0940    0.0186    0.0290   -0.0072   -0.0659
          42    0.0379    0.0085    0.0459   -0.0428   -0.0242   -0.0006    0.0042    0.0347
          43   -0.0807   -0.0022   -0.0441    0.0267    0.0279   -0.0105    0.0117   -0.0378
          44    0.0742    0.0131    0.0264   -0.0581   -0.0115   -0.0184   -0.0062    0.0453
          45    0.0361    0.0041    0.0303   -0.0313   -0.0187   -0.0008    0.0025    0.0276
          46    0.0084   -0.0797   -0.0093   -0.0539    0.0064   -0.0103    0.0073    0.0011
          47   -0.0050    0.0357    0.0104    0.0489   -0.0267    0.0154    0.0068    0.0496
          48    0.0127   -0.0457   -0.0018   -0.0381   -0.0036   -0.0113    0.0067    0.0144
          49    0.0188    0.0255    0.0003   -0.0132    0.0138    0.0108   -0.0074    0.0027
          50    0.0199   -0.0174   -0.0074   -0.0494    0.0539    0.0532   -0.0104    0.0080
          51    0.0343    0.1520    0.0179    0.0293    0.0085    0.0185   -0.0228    0.0153
          52    0.0142    0.0344   -0.0561   -0.0292    0.0102    0.0184    0.0509   -0.0085
          53   -0.0131   -0.0071    0.0278    0.0088   -0.0012   -0.0078   -0.0253    0.0022
          54    0.0401    0.0146   -0.1166   -0.0275   -0.0076    0.0197    0.1057    0.0146
          55   -0.0102    0.0385    0.0191   -0.0185    0.0275    0.0093   -0.0308   -0.0350
          56    0.0083   -0.0053   -0.0493   -0.0066   -0.0160    0.0022    0.0598    0.0288
          57   -0.0053    0.0204    0.0319   -0.0052    0.0236    0.0036   -0.0499   -0.0356
          58    0.0120   -0.0287    0.0023    0.0160   -0.0099   -0.0099   -0.0091    0.0061
          59   -0.0144    0.0578   -0.0259   -0.0367    0.0187    0.0201    0.0329   -0.0094
          60    0.0401   -0.1053   -0.0112    0.0567   -0.0443   -0.0304   -0.0011    0.0380
          61    0.0107   -0.0030   -0.0016    0.0083    0.0060    0.0154    0.0346   -0.0287
          62    0.0022    0.0011    0.0572    0.0358    0.1458   -0.0711    0.0945    0.0201
          63    0.0134   -0.0005    0.0519    0.0161    0.0874   -0.0601    0.0241    0.0449
          64   -0.0104   -0.0706   -0.0073   -0.0623    0.1128    0.1291   -0.0548    0.0311
          65   -0.0117    0.0185    0.0056    0.0355   -0.0115    0.0196    0.0028    0.0298
          66   -0.0103   -0.0159   -0.0015   -0.0036    0.0362    0.0540   -0.0186    0.0188
          67    0.0555    0.0660    0.0012    0.0482   -0.0125    0.0160   -0.0037    0.0365
          68   -0.0026    0.0034    0.0039   -0.0213   -0.0017   -0.0242   -0.0034   -0.0222
          69    0.0219    0.0136    0.0102   -0.0776   -0.0038   -0.0806   -0.0127   -0.0679
          70   -0.0302   -0.0558   -0.0042   -0.0467    0.0720    0.0734   -0.0405    0.0155
          71   -0.0127    0.0199   -0.0021    0.0767   -0.0060    0.0604    0.0070    0.0610
          72   -0.0178   -0.0083   -0.0020    0.0236    0.0218    0.0579   -0.0105    0.0391
          73   -0.0496    0.0181   -0.0966   -0.0117    0.0172   -0.0643   -0.0748    0.0715
          74   -0.0359   -0.0035   -0.0159   -0.0068   -0.0093    0.0142    0.0319   -0.0058
          75   -0.0441    0.0047   -0.0388   -0.0088    0.0005   -0.0156   -0.0099    0.0236
          76    0.0401   -0.0145    0.0568    0.0142   -0.0030    0.0436    0.0638   -0.0580
          77    0.0423   -0.0057    0.0599    0.0262    0.0964   -0.0433    0.0723    0.0132
          78   -0.0060    0.0065   -0.0025    0.0072    0.0629   -0.0571    0.0020    0.0466


   Root No.      25        26        27        28        29        30        31        32

                25 A      26 A      27 A      28 A      29 A      30 A      31 A      32 A   

                 965.5    1001.9    1015.3    1026.0    1048.4    1052.3    1069.5    1079.3
  
           1   -0.0107    0.0054    0.0046    0.0019    0.0067   -0.0041   -0.0122    0.0161
           2   -0.0003   -0.0097   -0.0048   -0.0006    0.0027   -0.0419   -0.0153   -0.0126
           3    0.0044    0.0069    0.0012    0.0016   -0.0050    0.0059    0.0007    0.0082
           4    0.0011    0.0019   -0.0091   -0.0026   -0.0061   -0.0108   -0.0080   -0.0202
           5   -0.0009    0.0030   -0.0021   -0.0063   -0.0041   -0.0114    0.0233    0.0053
           6    0.0005    0.0005    0.0067   -0.0063    0.0039   -0.0013    0.0091    0.0008
           7   -0.0008   -0.0068   -0.0024   -0.0013   -0.0003   -0.0394    0.0081    0.0154
           8    0.0041   -0.0019    0.0023    0.0110    0.0047   -0.0028   -0.0169    0.0165
           9    0.0010    0.0004    0.0009    0.0009    0.0006   -0.0046   -0.0032    0.0088
          10    0.0022    0.0069    0.0022    0.0038    0.0035    0.0270   -0.0144   -0.0079
          11   -0.0011    0.0145    0.0045   -0.0003   -0.0011    0.0299    0.0057    0.0184
          12    0.0053   -0.0034    0.0007   -0.0025    0.0021    0.0003   -0.0152   -0.0248
          13    0.0242   -0.0030    0.0027   -0.0002   -0.0126    0.0018    0.0017   -0.0076
          14   -0.0193   -0.0059    0.0025   -0.0009    0.0124   -0.0030    0.0031   -0.0064
          15   -0.0084   -0.0114   -0.0047   -0.0019    0.0010    0.0009    0.0034   -0.0075
          16    0.0141   -0.0087    0.0120    0.0023    0.0055    0.0052    0.0041    0.0106
          17   -0.0031   -0.0073    0.0030    0.0057    0.0038    0.0057   -0.0144   -0.0026
          18   -0.0054   -0.0002   -0.0066    0.0067   -0.0032    0.0011   -0.0004    0.0046
          19   -0.0004    0.0030    0.0005    0.0007    0.0005    0.0012   -0.0010   -0.0009
          20    0.0007   -0.0078   -0.0014    0.0315   -0.0030   -0.0003    0.0105   -0.0058
          21   -0.0015    0.0110    0.0017    0.0123    0.0026    0.0002   -0.0029   -0.0023
          22   -0.0187   -0.0009   -0.0096    0.0000    0.0316    0.0047    0.0076    0.0003
          23    0.0035   -0.0006   -0.0065    0.0000   -0.0053    0.0009   -0.0007    0.0030
          24   -0.0019    0.0024    0.0017    0.0002    0.0155    0.0022    0.0035   -0.0018
          25    0.0000   -0.0001    0.0000   -0.0037   -0.0004    0.0011    0.0003   -0.0017
          26   -0.0016    0.0056    0.0021   -0.0560    0.0023    0.0054   -0.0080    0.0020
          27    0.0018   -0.0132   -0.0019   -0.0297   -0.0011   -0.0101    0.0025    0.0054
          28   -0.0133    0.0019    0.0300    0.0001   -0.0295   -0.0049   -0.0048   -0.0008
          29    0.0221    0.0067    0.0026    0.0007   -0.0057    0.0028   -0.0013    0.0025
          30   -0.0087   -0.0010    0.0060   -0.0002   -0.0148    0.0006   -0.0011    0.0013
          31   -0.0651    0.0361   -0.0449    0.0023   -0.0120    0.0334   -0.0159    0.1500
          32    0.0159   -0.0463   -0.0140    0.0017   -0.0297   -0.0952   -0.0551   -0.0999
          33   -0.0140    0.0042   -0.0249    0.0026   -0.0269    0.0011   -0.0171    0.0334
          34   -0.0397    0.0361   -0.0715   -0.0264   -0.0552    0.0366    0.0545   -0.1445
          35    0.0085    0.0467   -0.0228   -0.0508   -0.0453    0.0337    0.1672   -0.0645
          36   -0.0222   -0.0039   -0.0130    0.0039   -0.0001    0.0000   -0.0285   -0.0245
          37    0.0007   -0.0640   -0.0118   -0.0183   -0.0250   -0.1053    0.1228    0.0707
          38    0.0186    0.0165    0.0113   -0.0593    0.0282    0.0160   -0.1092   -0.0281
          39   -0.0064    0.0171    0.0007    0.0413   -0.0001    0.0141   -0.0070    0.0069
          40    0.0064    0.1357    0.0107    0.0161    0.0145   -0.0007    0.0167    0.0081
          41    0.0185    0.1312    0.0156   -0.0007    0.0181    0.0013   -0.0024   -0.0377
          42   -0.0038    0.0044   -0.0010    0.0056   -0.0030    0.0010    0.0068    0.0180
          43    0.0062   -0.0883   -0.0047   -0.0205   -0.0184    0.1697   -0.0112   -0.0598
          44   -0.0144   -0.0635   -0.0061   -0.0102   -0.0338    0.1748    0.0421    0.0399
          45   -0.0027    0.0058   -0.0009    0.0046   -0.0030    0.0002    0.0008    0.0110
          46   -0.0508   -0.0141   -0.0347   -0.0022   -0.0088    0.0148   -0.0022    0.0147
          47   -0.0104   -0.0165   -0.0669   -0.0032   -0.0685    0.0446    0.0007    0.0163
          48   -0.0417   -0.0204   -0.0477   -0.0039   -0.0262    0.0245    0.0010    0.0106
          49   -0.0022   -0.0086    0.0382   -0.0009    0.0245    0.0053    0.0206   -0.0206
          50   -0.0869   -0.0243    0.1351   -0.0038    0.1349    0.0092    0.0747   -0.0632
          51    0.0546   -0.0118    0.0690   -0.0034    0.0117    0.0135    0.0426   -0.0576
          52   -0.0152    0.0298   -0.0292   -0.0158   -0.0200   -0.0232    0.0333   -0.0108
          53    0.0014   -0.0116    0.0085    0.0069    0.0069    0.0087   -0.0161   -0.0003
          54    0.0205    0.0387   -0.0107   -0.0334   -0.0188   -0.0307    0.0795    0.0113
          55   -0.0522    0.0114   -0.0449    0.0154   -0.0188   -0.0048   -0.0197   -0.0223
          56    0.0343    0.0127    0.0189   -0.0297    0.0015   -0.0113    0.0436    0.0015
          57   -0.0479    0.0001   -0.0365    0.0268   -0.0125    0.0040   -0.0326   -0.0091
          58    0.0165   -0.0140    0.0156    0.0059    0.0080    0.0091   -0.0005    0.0131
          59   -0.0293    0.0323   -0.0328   -0.0182   -0.0188   -0.0235    0.0156   -0.0280
          60    0.0768   -0.0408    0.0672    0.0073    0.0298    0.0285    0.0168    0.0613
          61    0.0065   -0.0366   -0.0034    0.0081   -0.0089    0.0516    0.0035   -0.0206
          62    0.0049   -0.0166   -0.0005   -0.0694   -0.0009    0.0153   -0.0150    0.0094
          63   -0.0046    0.0391    0.0055   -0.0581    0.0118   -0.0334   -0.0226    0.0240
          64    0.0815   -0.0019    0.0329   -0.0010   -0.0789   -0.0058   -0.0119   -0.0021
          65   -0.0006   -0.0027   -0.0330    0.0013   -0.0477   -0.0003   -0.0160    0.0227
          66    0.0319    0.0012    0.0051    0.0005   -0.0411   -0.0014   -0.0096    0.0058
          67    0.0328   -0.0169   -0.1247   -0.0009    0.1149    0.0094    0.0156   -0.0032
          68    0.0327    0.0086   -0.0016    0.0009   -0.0029    0.0045   -0.0011    0.0034
          69    0.1080    0.0203   -0.0327    0.0021    0.0286    0.0162    0.0026    0.0057
          70    0.1024   -0.0031   -0.0964    0.0001    0.1007    0.0131    0.0143   -0.0002
          71   -0.0500   -0.0159   -0.0285   -0.0014   -0.0119    0.0038    0.0006    0.0070
          72    0.0085   -0.0105   -0.0507   -0.0010    0.0289    0.0081    0.0065    0.0034
          73   -0.0100    0.0590    0.0107    0.0042    0.0078    0.0345   -0.0192   -0.0132
          74    0.0049   -0.0067   -0.0046    0.2238   -0.0056   -0.0054    0.0177   -0.0074
          75   -0.0010    0.0180    0.0013    0.1270    0.0000    0.0039    0.0041   -0.0062
          76    0.0101   -0.0563   -0.0102    0.0233   -0.0105   -0.0218    0.0233    0.0011
          77    0.0041   -0.0042   -0.0046    0.1934   -0.0061   -0.0003    0.0179   -0.0124
          78   -0.0040    0.0332    0.0033    0.1045    0.0027    0.0072   -0.0020   -0.0065


   Root No.      33        34        35        36        37        38        39        40

                33 A      34 A      35 A      36 A      37 A      38 A      39 A      40 A   

                1122.5    1147.5    1149.1    1165.0    1184.9    1196.4    1201.7    1203.6
  
           1   -0.0036   -0.0004    0.0240   -0.0082    0.0011    0.0384   -0.0160    0.0001
           2    0.0077    0.0016   -0.0255   -0.0026    0.0155    0.0045    0.0176    0.0100
           3   -0.0039    0.0212    0.0004   -0.0141   -0.0346   -0.0051   -0.0022   -0.0021
           4    0.0076    0.0082   -0.0126   -0.0154   -0.0272   -0.0102    0.0128   -0.0220
           5    0.0118    0.0120   -0.0183   -0.0213   -0.0033    0.0104    0.0109   -0.0231
           6    0.0199   -0.0071    0.0187   -0.0330    0.0114    0.0233   -0.0018    0.0111
           7    0.0145    0.0005   -0.0156   -0.0098    0.0039   -0.0217   -0.0132    0.0150
           8   -0.0271   -0.0149    0.0105    0.0153   -0.0156   -0.0130   -0.0004   -0.0178
           9   -0.0186   -0.0106    0.0011   -0.0036   -0.0009   -0.0241    0.0105    0.0160
          10   -0.0131   -0.0017   -0.0008    0.0047    0.0048    0.0199   -0.0045   -0.0076
          11    0.0020   -0.0045    0.0162   -0.0016   -0.0100   -0.0003   -0.0228   -0.0042
          12    0.0040    0.0036    0.0005   -0.0006    0.0123    0.0121   -0.0073    0.0001
          13    0.0009   -0.0049   -0.0130    0.0081    0.0012   -0.0049    0.0060    0.0031
          14    0.0044   -0.0140   -0.0157    0.0029   -0.0134    0.0148    0.0026    0.0088
          15    0.0029   -0.0174   -0.0007    0.0086    0.0340   -0.0021    0.0035   -0.0202
          16   -0.0033   -0.0059    0.0029    0.0074    0.0101    0.0000   -0.0024    0.0055
          17   -0.0048   -0.0041    0.0062    0.0050    0.0026   -0.0021   -0.0034    0.0090
          18   -0.0185    0.0123   -0.0202    0.0287   -0.0008   -0.0020   -0.0012   -0.0056
          19    0.0035    0.0013    0.0010    0.0031   -0.0011    0.0017   -0.0029   -0.0034
          20    0.0107    0.0020   -0.0018   -0.0057    0.0066   -0.0045   -0.0127    0.0101
          21    0.0233    0.0066    0.0131    0.0202   -0.0060    0.0160    0.0241   -0.0100
          22   -0.0032    0.0061    0.0077   -0.0018    0.0026   -0.0027   -0.0013   -0.0038
          23   -0.0017    0.0022    0.0071   -0.0007    0.0205    0.0034    0.0055   -0.0177
          24    0.0008   -0.0011   -0.0056    0.0000   -0.0197    0.0003   -0.0037    0.0143
          25   -0.0013   -0.0002   -0.0002    0.0003    0.0001   -0.0038   -0.0144   -0.0011
          26   -0.0079   -0.0017    0.0023    0.0019   -0.0019    0.0027    0.0096   -0.0019
          27   -0.0050   -0.0016   -0.0065   -0.0055    0.0012   -0.0075   -0.0154    0.0016
          28    0.0008    0.0001   -0.0014    0.0001    0.0004   -0.0022   -0.0002    0.0016
          29   -0.0002    0.0017    0.0005   -0.0004   -0.0059   -0.0022   -0.0020    0.0038
          30    0.0014   -0.0069   -0.0025    0.0022    0.0033    0.0075    0.0028   -0.0053
          31    0.0410    0.0694   -0.0350   -0.0168    0.0583   -0.0127    0.0574    0.1322
          32   -0.0831    0.0990    0.1191    0.0004   -0.0509    0.0720   -0.0289    0.0663
          33   -0.0209    0.0940    0.0343   -0.0173   -0.0346   -0.0019    0.0123    0.0826
          34    0.0088   -0.0689    0.0924   -0.0205   -0.0158   -0.0997   -0.0210    0.0575
          35   -0.0523    0.0588   -0.0274    0.0964    0.0730    0.0887   -0.0602    0.0776
          36    0.0493   -0.0656    0.0722   -0.0915   -0.0191   -0.0565    0.0165    0.0017
          37    0.0196   -0.0210    0.1354    0.1239   -0.0708   -0.0041    0.0963   -0.0370
          38    0.1626    0.0383    0.0054    0.1100    0.0178   -0.0610    0.0128    0.0639
          39   -0.1103   -0.0273   -0.0589   -0.1059    0.0139   -0.0088   -0.0394   -0.0016
          40   -0.0402   -0.0250   -0.0096    0.0082    0.0234   -0.0392    0.0803    0.0043
          41    0.0007   -0.0259    0.0137    0.0071    0.0312   -0.0410    0.0206    0.0095
          42   -0.0132    0.0034   -0.0032   -0.0051   -0.0031   -0.0004    0.0167    0.0003
          43    0.0522    0.0538   -0.0323   -0.0113    0.0094    0.0199    0.0311   -0.0352
          44    0.0408    0.0514   -0.0142   -0.0318   -0.0594   -0.0506    0.0157   -0.0181
          45   -0.0101    0.0042    0.0014   -0.0086   -0.0120   -0.0102   -0.0048    0.0073
          46    0.0078   -0.0481    0.0147    0.0206    0.0472   -0.0007   -0.0122   -0.0113
          47    0.0204   -0.1076   -0.0293    0.0500   -0.0875    0.0069   -0.0465    0.0891
          48    0.0122   -0.0720    0.0093    0.0307    0.0334   -0.0052   -0.0224   -0.0014
          49   -0.0058    0.0093   -0.0052    0.0107    0.0005   -0.0274    0.0030    0.0065
          50   -0.0199    0.0377    0.0041    0.0141   -0.0260   -0.0753   -0.0051    0.0261
          51   -0.0068    0.0059   -0.0157    0.0238    0.0145   -0.0761    0.0130    0.0052
          52    0.0057    0.0180   -0.0303   -0.0022   -0.0166   -0.0087    0.0109   -0.0317
          53   -0.0047   -0.0069    0.0110    0.0040    0.0065    0.0009   -0.0051    0.0146
          54    0.0169    0.0158   -0.0288   -0.0293   -0.0083    0.0068    0.0135   -0.0405
          55   -0.0346    0.0258   -0.0419    0.0513   -0.0193   -0.0240    0.0032   -0.0179
          56    0.0442   -0.0134    0.0291   -0.0628    0.0086    0.0225    0.0036    0.0087
          57   -0.0529    0.0303   -0.0496    0.0753   -0.0148   -0.0219   -0.0017   -0.0152
          58   -0.0081   -0.0081    0.0033    0.0157    0.0126   -0.0042   -0.0036    0.0075
          59    0.0222    0.0132   -0.0051   -0.0404   -0.0203    0.0121    0.0083   -0.0119
          60   -0.0110   -0.0194    0.0144    0.0294    0.0435   -0.0023   -0.0081    0.0269
          61   -0.0737   -0.0222    0.0149   -0.0403    0.0160    0.0295    0.2122    0.0595
          62   -0.0724   -0.0215   -0.0077   -0.0309    0.0042   -0.0096    0.0526    0.0221
          63    0.0354    0.0112   -0.0014    0.0412   -0.0220   -0.0100   -0.1107   -0.0546
          64    0.0108   -0.0296   -0.0251    0.0092   -0.0025    0.0199    0.0079   -0.0024
          65   -0.0311    0.1079    0.1074   -0.0281    0.1233   -0.1272   -0.0186   -0.0531
          66   -0.0064    0.0301    0.0248   -0.0075    0.0215   -0.0473   -0.0110    0.0002
          67   -0.0030    0.0040    0.0027   -0.0013    0.0093    0.0039    0.0050   -0.0066
          68   -0.0005    0.0025    0.0018   -0.0003   -0.0069   -0.0045   -0.0035    0.0046
          69    0.0006   -0.0029    0.0001    0.0034   -0.0240   -0.0110   -0.0124    0.0165
          70   -0.0032    0.0096    0.0050   -0.0038   -0.0106   -0.0063   -0.0041    0.0074
          71   -0.0018   -0.0058    0.0138    0.0035    0.0378    0.0055    0.0057   -0.0339
          72   -0.0003   -0.0075    0.0042    0.0027    0.0141    0.0093    0.0038   -0.0163
          73    0.0054    0.0017    0.0236    0.0197   -0.0047    0.0128    0.0286   -0.0030
          74    0.0158    0.0017    0.0000   -0.0003    0.0006   -0.0015   -0.0032    0.0002
          75    0.0138    0.0020    0.0072    0.0066   -0.0011    0.0012    0.0046    0.0003
          76   -0.0174   -0.0065   -0.0186   -0.0267    0.0118   -0.0326   -0.0651    0.0199
          77    0.0188    0.0040    0.0001   -0.0042    0.0060   -0.0007   -0.0056    0.0090
          78    0.0274    0.0078    0.0094    0.0161   -0.0047    0.0161    0.0194   -0.0107


   Root No.      41        42        43        44        45        46        47        48

                41 A      42 A      43 A      44 A      45 A      46 A      47 A      48 A   

                1213.4    1223.0    1240.0    1276.2    1305.3    1322.1    1343.9    1395.8
  
           1    0.0044   -0.0240    0.0030   -0.0127   -0.0131   -0.0038    0.0218    0.0153
           2   -0.0021    0.0220   -0.0159   -0.0148    0.0057    0.0199    0.0088    0.0153
           3   -0.0247   -0.0025   -0.0166   -0.0051   -0.0019    0.0050    0.0116    0.0173
[...]
 EFF. MASS   1.6415

 VIBRATION   52   52A       ATOM PAIR        ENERGY CONTRIBUTION    RADIAL
 FREQ.      1416.06        C  4 --  H 14          +24.7% ( 57.1%)     2.9%
 T-DIPOLE    0.0222        C  4 --  H 15          +22.9% ( 55.0%)     4.3%
 TRAVEL      0.1186        C  1 --  C  5           +7.1% ( 30.7%)    80.0%
 RED. MASS   0.4324        C  1 --  C  4           +6.2% ( 28.5%)     4.8%
 EFF. MASS   3.3864

 VIBRATION   53   53A       ATOM PAIR        ENERGY CONTRIBUTION    RADIAL
 FREQ.      1418.74        C  2 --  C  6          +12.3% ( 50.1%)    99.7%
 T-DIPOLE    0.0172        C  6 --  H 19          +12.1% ( 49.7%)     4.7%
 TRAVEL      0.0845        C  6 --  H 20           +9.9% ( 44.9%)     3.1%
 RED. MASS   0.8526        C  6 --  H 18           +9.2% ( 43.3%)     2.9%
 EFF. MASS   6.6499

 VIBRATION   54   54A       ATOM PAIR        ENERGY CONTRIBUTION    RADIAL
 FREQ.      1470.13        C  2 --  C  3           +9.2% ( 51.1%)    52.9%
 T-DIPOLE    0.1146        C  1 --  C  3           +9.2% ( 51.0%)    99.9%
 TRAVEL      0.0687        C  1 --  C  2           +8.8% ( 50.0%)    57.1%
 RED. MASS   1.3843        C  2 --  C  6           +7.8% ( 47.1%)    95.5%
 EFF. MASS   9.7113

 VIBRATION   55   55A       ATOM PAIR        ENERGY CONTRIBUTION    RADIAL
 FREQ.      1858.78        C  7 --  C  9          +44.8% ( 99.1%)    98.8%
 T-DIPOLE    0.1746        C  3 --  C  7          +16.9% ( 60.8%)    54.6%
 TRAVEL      0.0554        C  7 --  H 21          +15.3% ( 58.0%)     3.8%
 RED. MASS   5.2808        C  9 --  H 26          +10.8% ( 48.7%)    10.8%
 EFF. MASS  11.8156        C  9 --  H 25          +10.6% ( 48.2%)    13.0%

 VIBRATION   56   56A       ATOM PAIR        ENERGY CONTRIBUTION    RADIAL
 FREQ.      1861.02        C  8 --  C 10          +45.3% ( 99.2%)    98.9%
 T-DIPOLE    0.2358        C  5 --  C  8          +16.7% ( 60.3%)    54.6%
 TRAVEL      0.0554        C  8 --  H 22          +15.4% ( 57.9%)     3.9%
 RED. MASS   5.2905        C 10 --  H 24          +11.0% ( 48.8%)    10.9%
 EFF. MASS  11.7920        C 10 --  H 23          +10.8% ( 48.4%)    12.9%

 VIBRATION   57   57A       ATOM PAIR        ENERGY CONTRIBUTION    RADIAL
 FREQ.      2935.55        C  3 --  H 13          +39.8% ( 64.9%)   100.0%
 T-DIPOLE    0.0652        C  1 --  H 11          +19.7% ( 45.7%)   100.0%
 TRAVEL      0.1244        C  2 --  H 12          +14.8% ( 39.6%)   100.0%
 RED. MASS   0.2505        C  5 --  H 16          +10.7% ( 33.7%)    96.5%
 EFF. MASS   1.4846        C  5 --  H 17          +10.4% ( 33.1%)    96.2%

 VIBRATION   58   58A       ATOM PAIR        ENERGY CONTRIBUTION    RADIAL
 FREQ.      2936.34        C  3 --  H 13          +43.8% ( 68.0%)   100.0%
 T-DIPOLE    0.0683        C  1 --  H 11          +22.1% ( 48.3%)   100.0%
 TRAVEL      0.1250        C  5 --  H 17          +15.1% ( 39.9%)    96.4%
 RED. MASS   0.2954        C  5 --  H 16          +14.8% ( 39.5%)    96.4%
 EFF. MASS   1.4692

 VIBRATION   59   59A       ATOM PAIR        ENERGY CONTRIBUTION    RADIAL
 FREQ.      2943.55        C  1 --  H 11          +25.4% ( 51.8%)   100.0%
 T-DIPOLE    0.0464        C  2 --  H 12          +24.5% ( 50.9%)   100.0%
 TRAVEL      0.1245        C  5 --  H 17          +22.8% ( 49.0%)    96.9%
 RED. MASS   0.2257        C  5 --  H 16          +19.7% ( 45.6%)    96.2%
 EFF. MASS   1.4787

 VIBRATION   60   60A       ATOM PAIR        ENERGY CONTRIBUTION    RADIAL
 FREQ.      2948.83        C  2 --  H 12          +55.4% ( 75.9%)   100.0%
 T-DIPOLE    0.1577        C  1 --  H 11          +27.4% ( 53.4%)   100.0%
 TRAVEL      0.1257        C  3 --  H 13           +6.4% ( 25.8%)    99.9%
 RED. MASS   0.3934        C  5 --  H 17           +3.2% ( 18.3%)    96.6%
 EFF. MASS   1.4480

 VIBRATION   61   61A       ATOM PAIR        ENERGY CONTRIBUTION    RADIAL
 FREQ.      3017.42        C  5 --  H 16          +50.5% ( 70.0%)    97.8%
 T-DIPOLE    0.0536        C  5 --  H 17          +47.7% ( 68.1%)    97.5%
 TRAVEL      0.1323        C  5 --  C  8           +0.6% (  7.9%)    30.9%
 RED. MASS   0.4801        C  1 --  C  5           +0.6% (  7.7%)    29.7%
 EFF. MASS   1.2761

 VIBRATION   62   62A       ATOM PAIR        ENERGY CONTRIBUTION    RADIAL
 FREQ.      3029.90        C  4 --  H 15          +61.4% ( 81.5%)    98.2%
 T-DIPOLE    0.1070        C  4 --  H 14          +32.9% ( 59.7%)    94.5%
 TRAVEL      0.1203        C  7 --  H 21           +1.6% ( 13.1%)   100.0%
 RED. MASS   0.5347        C  2 --  C  4           +1.1% ( 11.0%)     0.8%
 EFF. MASS   1.5370

 VIBRATION   63   63A       ATOM PAIR        ENERGY CONTRIBUTION    RADIAL
 FREQ.      3039.11        C  7 --  H 21          +94.5% ( 98.6%)   100.0%
 T-DIPOLE    0.2391        C  7 --  C  9           +1.4% ( 12.0%)    30.5%
 TRAVEL      0.1214        C  3 --  C  7           +1.3% ( 11.7%)    15.5%
 RED. MASS   0.8809        C  4 --  H 14           +1.0% ( 10.1%)    97.2%
 EFF. MASS   1.5045

 VIBRATION   64   64A       ATOM PAIR        ENERGY CONTRIBUTION    RADIAL
 FREQ.      3040.88        C  8 --  H 22          +95.9% ( 99.3%)   100.0%
 T-DIPOLE    0.2280        C  8 --  C 10           +1.4% ( 12.0%)    30.6%
 TRAVEL      0.1216        C  5 --  C  8           +1.3% ( 11.6%)    14.1%
 RED. MASS   0.9033        C 10 --  H 23           +0.9% (  9.5%)    95.3%
 EFF. MASS   1.4996

 VIBRATION   65   65A       ATOM PAIR        ENERGY CONTRIBUTION    RADIAL
 FREQ.      3075.22        C  6 --  H 19          +65.1% ( 83.3%)    98.8%
 T-DIPOLE    0.0115        C  6 --  H 20          +24.5% ( 51.0%)    90.2%
 TRAVEL      0.1207        C  6 --  H 18           +9.3% ( 31.4%)    71.8%
 RED. MASS   0.5211        C  2 --  C  6           +1.0% ( 10.4%)     0.0%
 EFF. MASS   1.5050

 VIBRATION   66   66A       ATOM PAIR        ENERGY CONTRIBUTION    RADIAL
 FREQ.      3082.38        C  6 --  H 18          +54.5% ( 76.2%)    97.9%
 T-DIPOLE    0.0248        C  6 --  H 20          +41.9% ( 66.8%)    95.8%
 TRAVEL      0.1204        C  6 --  H 19           +2.5% ( 16.4%)    29.5%
 RED. MASS   0.5035        C  2 --  C  6           +1.0% ( 10.4%)     0.0%
 EFF. MASS   1.5085

 VIBRATION   67   67A       ATOM PAIR        ENERGY CONTRIBUTION    RADIAL
 FREQ.      3099.21        C  4 --  H 14          +64.5% ( 79.7%)    98.7%
 T-DIPOLE    0.0754        C  4 --  H 15          +33.3% ( 57.3%)    94.1%
 TRAVEL      0.1299        C  2 --  C  4           +0.7% (  8.4%)    96.5%
 RED. MASS   0.5255        C  3 --  C  4           +0.7% (  8.3%)    47.4%
 EFF. MASS   1.2895

 VIBRATION   68   68A       ATOM PAIR        ENERGY CONTRIBUTION    RADIAL
 FREQ.      3135.36        C  9 --  H 26          +95.9% ( 99.4%)   100.0%
 T-DIPOLE    0.2003        C  9 --  H 25           +2.6% ( 16.4%)    46.3%
 TRAVEL      0.1191        C  7 --  C  9           +1.4% ( 11.8%)    32.0%
 RED. MASS   0.9117
 EFF. MASS   1.5152

 VIBRATION   69   69A       ATOM PAIR        ENERGY CONTRIBUTION    RADIAL
 FREQ.      3135.59        C 10 --  H 24          +91.4% ( 97.3%)    99.9%
 T-DIPOLE    0.1886        C 10 --  H 23           +7.2% ( 27.4%)    72.7%
 TRAVEL      0.1182        C  8 --  C 10           +1.3% ( 11.7%)    21.4%
 RED. MASS   0.8477
 EFF. MASS   1.5400

 VIBRATION   70   70A       ATOM PAIR        ENERGY CONTRIBUTION    RADIAL
 FREQ.      3148.06        C 10 --  H 23          +91.0% ( 96.0%)    99.7%
 T-DIPOLE    0.2519        C 10 --  H 24           +6.2% ( 25.0%)    44.0%
 TRAVEL      0.1210        C  8 --  C 10           +1.6% ( 12.7%)    74.0%
 RED. MASS   0.8046        C  8 --  H 22           +0.7% (  8.7%)    94.6%
 EFF. MASS   1.4637

 VIBRATION   71   71A       ATOM PAIR        ENERGY CONTRIBUTION    RADIAL
 FREQ.      3148.28        C  9 --  H 25          +95.1% ( 98.5%)    99.9%
 T-DIPOLE    0.2457        C  9 --  H 26           +2.1% ( 14.6%)     4.1%
 TRAVEL      0.1200        C  7 --  C  9           +1.5% ( 12.5%)    61.3%
 RED. MASS   0.8797        C  7 --  H 21           +0.7% (  8.7%)    95.2%
 EFF. MASS   1.4882

 VIBRATION   72   72A       ATOM PAIR        ENERGY CONTRIBUTION    RADIAL
 FREQ.      3174.80        C  6 --  H 18          +35.8% ( 57.6%)    97.5%
 T-DIPOLE    0.0305        C  6 --  H 20          +32.7% ( 55.1%)    97.0%
 TRAVEL      0.1367        C  6 --  H 19          +31.2% ( 53.8%)    96.7%
 RED. MASS   0.3277        C  2 --  C  6           +0.3% (  5.2%)    99.7%
 EFF. MASS   1.1368

 SYMMETRY NUMBER FOR POINT-GROUP C1  =  1


          SYSTEM IS A GROUND STATE


    NULL



          MOLECULE IS NOT LINEAR

          THERE ARE 72 GENUINE VIBRATIONS IN THIS SYSTEM
          THIS THERMODYNAMICS CALCULATION IS LIMITED TO
          MOLECULES WHICH HAVE NO INTERNAL ROTATIONS




                    CALCULATED THERMODYNAMIC PROPERTIES
                                          *
   TEMP. (K)   PARTITION FUNCTION   H.O.F.    ENTHALPY  HEAT CAPACITY ENTROPY
                                   KCAL/MOL   CAL/MOLE    CAL/K/MOL  CAL/K/MOL


 298.00  VIB.     0.2797D+04                  5203.6691    36.0245    33.2328
         ROT.     0.8377D+06                   888.2813     2.9808    30.0831
         INT.     0.2343D+10                  6091.9504    39.0053    63.3159
         TRA.     0.1537D+28                  1480.4688     4.9680    40.6375
         TOT.                       21.521    7572.4193    43.9733   103.9534

 200.00  VIB.     0.1578D+03                  2335.4062    22.9518    21.7344
         ROT.     0.4606D+06                   596.1620     2.9808    28.8945
         INT.     0.7266D+08                  2931.5681    25.9326    50.6288
         TRA.     0.8452D+27                   993.6033     4.9680    38.6564
         TOT.                       17.874    3925.1714    30.9006    89.2852

 210.00  VIB.     0.2116D+03                  2570.8841    24.1498    22.8830
         ROT.     0.4955D+06                   625.9700     2.9808    29.0399
         INT.     0.1048D+09                  3196.8541    27.1306    51.9229
         TRA.     0.9094D+27                  1043.2834     4.9680    38.8988
         TOT.                       18.189    4240.1376    32.0986    90.8217

 220.00  VIB.     0.2837D+03                  2818.5205    25.3835    24.0348
         ROT.     0.5314D+06                   655.7781     2.9808    29.1786
         INT.     0.1507D+09                  3474.2986    28.3643    53.2134
         TRA.     0.9752D+27                  1092.9636     4.9680    39.1299
         TOT.                       18.516    4567.2622    33.3323    92.3432

 230.00  VIB.     0.3802D+03                  3078.6718    26.6526    25.1910
         ROT.     0.5680D+06                   685.5862     2.9808    29.3111
         INT.     0.2160D+09                  3764.2580    29.6334    54.5021
         TRA.     0.1042D+28                  1142.6437     4.9680    39.3507
         TOT.                       18.856    4906.9017    34.6014    93.8528

 240.00  VIB.     0.5096D+03                  3351.6852    27.9556    26.3528
         ROT.     0.6054D+06                   715.3943     2.9808    29.4379
         INT.     0.3085D+09                  4067.0796    30.9364    55.7907
         TRA.     0.1111D+28                  1192.3239     4.9680    39.5621
         TOT.                       19.208    5259.4035    35.9044    95.3528

 250.00  VIB.     0.6830D+03                  3637.8887    29.2901    27.5209
         ROT.     0.6437D+06                   745.2024     2.9808    29.5596
         INT.     0.4396D+09                  4383.0911    32.2709    57.0805
         TRA.     0.1181D+28                  1242.0041     4.9680    39.7650
         TOT.                       19.574    5625.0952    37.2389    96.8455

 260.00  VIB.     0.9155D+03                  3937.5822    30.6530    28.6962
         ROT.     0.6827D+06                   775.0105     2.9808    29.6765
         INT.     0.6250D+09                  4712.5927    33.6339    58.3727
         TRA.     0.1253D+28                  1291.6842     4.9680    39.9598
         TOT.                       19.953    6004.2769    38.6019    98.3325

 270.00  VIB.     0.1227D+04                  4251.0322    32.0408    29.8790
         ROT.     0.7224D+06                   804.8186     2.9808    29.7890
         INT.     0.8868D+09                  5055.8509    35.0216    59.6680
         TRA.     0.1326D+28                  1341.3644     4.9680    40.1473
         TOT.                       20.346    6397.2153    39.9896    99.8153

 280.00  VIB.     0.1646D+04                  4578.4676    33.4494    31.0696
         ROT.     0.7629D+06                   834.6267     2.9808    29.8974
         INT.     0.1256D+10                  5413.0943    36.4302    60.9670
         TRA.     0.1400D+28                  1391.0445     4.9680    40.3280
         TOT.                       20.753    6804.1388    41.3982   101.2950

 290.00  VIB.     0.2209D+04                  4920.0766    34.8748    32.2682
         ROT.     0.8042D+06                   864.4348     2.9808    30.0020
         INT.     0.1777D+10                  5784.5114    37.8556    62.2702
         TRA.     0.1476D+28                  1440.7247     4.9680    40.5023
         TOT.                       21.174    7225.2361    42.8237   102.7726

 300.00  VIB.     0.2967D+04                  5276.0064    36.3129    33.4747
         ROT.     0.8461D+06                   894.2429     2.9808    30.1031
         INT.     0.2510D+10                  6170.2493    39.2937    63.5778
         TRA.     0.1553D+28                  1490.4049     4.9680    40.6707
         TOT.                       21.609    7660.6542    44.2617   104.2485

 310.00  VIB.     0.3986D+04                  5646.3633    37.7596    34.6890
         ROT.     0.8888D+06                   924.0510     2.9808    30.2008
         INT.     0.3543D+10                  6570.4143    40.7404    64.8898
         TRA.     0.1631D+28                  1540.0850     4.9680    40.8336
         TOT.                       22.059    8110.4993    45.7084   105.7235

 320.00  VIB.     0.5359D+04                  6031.2132    39.2109    35.9107
         ROT.     0.9321D+06                   953.8591     2.9808    30.2954
         INT.     0.4995D+10                  6985.0723    42.1917    66.2062
         TRA.     0.1711D+28                  1589.7652     4.9680    40.9914
         TOT.                       22.524    8574.8375    47.1597   107.1975

 330.00  VIB.     0.7210D+04                  6430.5843    40.6632    37.1396
         ROT.     0.9762D+06                   983.6672     2.9808    30.3872
         INT.     0.7039D+10                  7414.2515    43.6440    67.5267
         TRA.     0.1791D+28                  1639.4454     4.9680    41.1442
         TOT.                       23.003    9053.6969    48.6120   108.6710

 340.00  VIB.     0.9709D+04                  6844.4690    42.1131    38.3750
         ROT.     0.1021D+07                  1013.4753     2.9808    30.4762
         INT.     0.9912D+10                  7857.9443    45.0939    68.8512
         TRA.     0.1874D+28                  1689.1255     4.9680    41.2926
         TOT.                       23.496    9547.0698    50.0619   110.1437

 350.00  VIB.     0.1308D+05                  7272.8266    43.5573    39.6166
         ROT.     0.1066D+07                  1043.2834     2.9808    30.5626
         INT.     0.1395D+11                  8316.1100    46.5381    70.1792
         TRA.     0.1957D+28                  1738.8057     4.9680    41.4366
         TOT.                       24.004   10054.9157    51.5061   111.6157

 360.00  VIB.     0.1765D+05                  7715.5866    44.9931    40.8638
         ROT.     0.1112D+07                  1073.0915     2.9808    30.6465
         INT.     0.1963D+11                  8788.6782    47.9739    71.5103
         TRA.     0.2041D+28                  1788.4859     4.9680    41.5765
         TOT.                       24.526   10577.1640    52.9419   113.0869

 370.00  VIB.     0.2382D+05                  8172.6515    46.4179    42.1160
         ROT.     0.1159D+07                  1102.8996     2.9808    30.7282
         INT.     0.2761D+11                  9275.5511    49.3987    72.8442
         TRA.     0.2127D+28                  1838.1660     4.9680    41.7126
         TOT.                       25.063   11113.7171    54.3667   114.5569

 380.00  VIB.     0.3218D+05                  8643.8999    47.8294    43.3727
         ROT.     0.1206D+07                  1132.7077     2.9808    30.8077
         INT.     0.3882D+11                  9776.6076    50.8102    74.1804
         TRA.     0.2214D+28                  1887.8462     4.9680    41.8451
         TOT.                       25.613   11664.4538    55.7783   116.0255

 390.00  VIB.     0.4351D+05                  9129.1895    49.2258    44.6332
         ROT.     0.1254D+07                  1162.5158     2.9808    30.8851
         INT.     0.5457D+11                 10291.7053    52.2066    75.5183
         TRA.     0.2302D+28                  1937.5263     4.9680    41.9742
         TOT.                       26.178   12229.2316    57.1746   117.4925

 400.00  VIB.     0.5888D+05                  9628.3602    50.6054    45.8969
         ROT.     0.1303D+07                  1192.3239     2.9808    30.9606
         INT.     0.7670D+11                 10820.6841    53.5862    76.8575
         TRA.     0.2391D+28                  1987.2065     4.9680    42.1000
         TOT.                       26.757   12807.8906    58.5542   118.9574

   *: NOTE: HEATS OF FORMATION ARE RELATIVE TO THE
            ELEMENTS IN THEIR STANDARD STATE AT 298K
              (=  Standard Enthalpy of Formation).

            Hvib:  Zero-point energy is not included.
                   frequencies of less than zero cm-1 are not included.
            Hrot = (3/2)RT
            Htra = (3/2)RT + pV = (5/2)RT

            Heat capacity is Cp, not Cv

           For more information, see: HTTP://OpenMOPAC.net/Manual/thermochemistry.html


           FORCE CONSTANT IN CARTESIAN COORDINATES (Millidynes/A)

    ATOM   CHEMICAL       X               Y               Z
   NUMBER   SYMBOL  FORCE CONSTANT  FORCE CONSTANT  FORCE CONSTANT

      1       C        7.777069        8.192173        8.679214
      2       C        7.864426        7.733238        8.909967
      3       C        8.514424        7.630735        9.019308
      4       C        7.926259        7.882605        8.639461
      5       C        8.064135        9.112571        8.391673
      6       C        8.382211        8.402595        8.367018
      7       C       15.423160        4.318284        7.538501
      8       C        3.774598       11.579921       11.785606
      9       C       15.340997        3.800429        7.359713
     10       C        3.380376       11.608874       11.529336
     11       H        1.351972        1.232409        3.674810
     12       H        1.360989        1.333202        3.553493
     13       H        1.202886        1.341796        3.616523
     14       H        1.611443        1.607578        3.416333
     15       H        1.351596        1.329224        3.916672
     16       H        1.571608        1.093430        3.721541
     17       H        4.559437        0.997690        0.683737
     18       H        0.773092        5.268973        0.701296
     19       H        1.375295        1.352406        4.039422
     20       H        5.227728        0.802722        0.700613
     21       H        2.189698        1.289117        2.727431
     22       H        0.810307        1.368475        4.047420
     23       H        0.381684        5.395606        0.701178
     24       H        0.865339        1.220903        4.382972
     25       H        1.738078        1.281664        3.463223
     26       H        2.402775        1.301680        2.740222



 TOTAL CPU TIME:             4.15 SECONDS

 == MOPAC DONE ==
