 *******************************************************************************
 ** Site#: 14399           For non-commercial use only        Version 13.159M **
 *******************************************************************************
 ** Cite this work as: MOPAC2012, James J. P. Stewart, Stewart Computational  **
 ** Chemistry, Version 13.159M web: HTTP://OpenMOPAC.net  Days remaining:   6 **
 *******************************************************************************
 **                                                                           **
 **                                MOPAC2012                                  **
 **                                                                           **
 *******************************************************************************

                            PM3 CALCULATION RESULTS


 *******************************************************************************
 *  CALCULATION DONE:                                Mon Jun  2 11:11:42 2014  *
 *  PM3      - The PM3 Hamiltonian to be used
 *  PRECISE  - CRITERIA TO BE INCREASED BY 100 TIMES
 *  NOSYM    - POINT-GROUP SYMMETRY SET TO C1
 *  T=       - A TIME OF 172800.0 SECONDS REQUESTED
 *  DUMP=N   - RESTART FILE WRITTEN EVERY  7200.000 SECONDS
 *******************************************************************************
pm3  precise nosym
 InChI=1S/C10H12/c1-3-7-8(4-1)10-6-2-5-9(7)10/h1-3,5,7-10H,4,6H2

   ATOM   CHEMICAL          X               Y               Z
  NUMBER   SYMBOL      (ANGSTROMS)     (ANGSTROMS)     (ANGSTROMS)
 
     1       C          0.53310000  *  -0.65460000  *  -0.54430000  *
     2       C         -0.63830000  *  -0.58820000  *   0.45240000  *
     3       C          0.68250000  *   0.89280000  *  -0.40640000  *
     4       C         -0.53150000  *   0.90200000  *   0.51850000  *
     5       C          1.84360000  *  -1.26010000  *  -0.02660000  *
     6       C         -2.02700000  *  -0.91920000  *  -0.11220000  *
     7       C          1.99530000  *   1.06290000  *   0.28080000  *
     8       C         -1.78490000  *   1.39970000  *  -0.11960000  *
     9       C          2.61800000  *  -0.09040000  *   0.47630000  *
    10       C         -2.59820000  *   0.41110000  *  -0.45430000  *
    11       H          0.26550000  *  -0.97170000  *  -1.58010000  *
    12       H         -0.43940000  *  -1.08070000  *   1.43420000  *
    13       H          0.59780000  *   1.44850000  *  -1.36980000  *
    14       H         -0.37130000  *   1.30830000  *   1.54520000  *
    15       H          2.41190000  *  -1.73780000  *  -0.85690000  *
    16       H          1.68330000  *  -2.01130000  *   0.77990000  *
    17       H         -2.66780000  *  -1.39750000  *   0.66350000  *
    18       H         -1.98860000  *  -1.58120000  *  -1.00710000  *
    19       H          3.59450000  *  -0.16880000  *   0.94980000  *
    20       H          2.40190000  *   2.02500000  *   0.58540000  *
    21       H         -3.57060000  *   0.56080000  *  -0.91930000  *
    22       H         -2.00990000  *   2.45060000  *  -0.28940000  *
 


          CARTESIAN COORDINATES 

    NO.       ATOM         X         Y         Z

     1         C        0.5331   -0.6546   -0.5443
     2         C       -0.6383   -0.5882    0.4524
     3         C        0.6825    0.8928   -0.4064
     4         C       -0.5315    0.9020    0.5185
     5         C        1.8436   -1.2601   -0.0266
     6         C       -2.0270   -0.9192   -0.1122
     7         C        1.9953    1.0629    0.2808
     8         C       -1.7849    1.3997   -0.1196
     9         C        2.6180   -0.0904    0.4763
    10         C       -2.5982    0.4111   -0.4543
    11         H        0.2655   -0.9717   -1.5801
    12         H       -0.4394   -1.0807    1.4342
    13         H        0.5978    1.4485   -1.3698
    14         H       -0.3713    1.3083    1.5452
    15         H        2.4119   -1.7378   -0.8569
    16         H        1.6833   -2.0113    0.7799
    17         H       -2.6678   -1.3975    0.6635
    18         H       -1.9886   -1.5812   -1.0071
    19         H        3.5945   -0.1688    0.9498
    20         H        2.4019    2.0250    0.5854
    21         H       -3.5706    0.5608   -0.9193
    22         H       -2.0099    2.4506   -0.2894

  H: (PM3): J. J. P. STEWART, J. COMP. CHEM. 10, 209 (1989).
  C: (PM3): J. J. P. STEWART, J. COMP. CHEM. 10, 209 (1989).

           Empirical Formula: C10 H12  =    22 atoms



      MOLECULAR POINT GROUP   :   C1  


      RHF CALCULATION, NO. OF DOUBLY OCCUPIED LEVELS =   26

      Geometry optimization using EF

          DIAGONAL MATRIX USED AS START HESSIAN

 CYCLE:     1 TIME:   0.009 TIME LEFT:  2.00D  GRAD.:   110.295 HEAT: 40.93865
 CYCLE:     2 TIME:   0.013 TIME LEFT:  2.00D  GRAD.:   130.796 HEAT: 40.75969
 CYCLE:     3 TIME:   0.007 TIME LEFT:  2.00D  GRAD.:   113.997 HEAT: 40.47713
 CYCLE:     4 TIME:   0.007 TIME LEFT:  2.00D  GRAD.:    72.609 HEAT: 37.78081
 CYCLE:     5 TIME:   0.013 TIME LEFT:  2.00D  GRAD.:    73.880 HEAT: 37.60407
 CYCLE:     6 TIME:   0.007 TIME LEFT:  2.00D  GRAD.:    75.340 HEAT: 37.45606
 CYCLE:     7 TIME:   0.007 TIME LEFT:  2.00D  GRAD.:    64.456 HEAT: 37.23331
 CYCLE:     8 TIME:   0.007 TIME LEFT:  2.00D  GRAD.:    59.061 HEAT: 36.77087
 CYCLE:     9 TIME:   0.013 TIME LEFT:  2.00D  GRAD.:    31.841 HEAT: 36.09075
 CYCLE:    10 TIME:   0.015 TIME LEFT:  2.00D  GRAD.:    30.135 HEAT: 36.00036
 CYCLE:    11 TIME:   0.009 TIME LEFT:  2.00D  GRAD.:    23.572 HEAT: 35.94836
 CYCLE:    12 TIME:   0.007 TIME LEFT:  2.00D  GRAD.:    23.111 HEAT: 35.87817
 CYCLE:    13 TIME:   0.013 TIME LEFT:  2.00D  GRAD.:    13.062 HEAT: 35.80471
 CYCLE:    14 TIME:   0.007 TIME LEFT:  2.00D  GRAD.:    11.073 HEAT: 35.78418
 CYCLE:    15 TIME:   0.007 TIME LEFT:  2.00D  GRAD.:     8.340 HEAT: 35.75958
 CYCLE:    16 TIME:   0.013 TIME LEFT:  2.00D  GRAD.:     7.779 HEAT: 35.74670
 CYCLE:    17 TIME:   0.007 TIME LEFT:  2.00D  GRAD.:     6.858 HEAT: 35.73795
 CYCLE:    18 TIME:   0.007 TIME LEFT:  2.00D  GRAD.:     7.138 HEAT: 35.73134
 CYCLE:    19 TIME:   0.007 TIME LEFT:  2.00D  GRAD.:     7.095 HEAT: 35.72733
 CYCLE:    20 TIME:   0.007 TIME LEFT:  2.00D  GRAD.:     7.522 HEAT: 35.72310
 CYCLE:    21 TIME:   0.007 TIME LEFT:  2.00D  GRAD.:     5.022 HEAT: 35.71164
 CYCLE:    22 TIME:   0.012 TIME LEFT:  2.00D  GRAD.:     3.932 HEAT: 35.70591
 CYCLE:    23 TIME:   0.007 TIME LEFT:  2.00D  GRAD.:     1.880 HEAT: 35.70003
 CYCLE:    24 TIME:   0.007 TIME LEFT:  2.00D  GRAD.:     3.782 HEAT: 35.69165
 CYCLE:    25 TIME:   0.007 TIME LEFT:  2.00D  GRAD.:     7.490 HEAT: 35.67723
 CYCLE:    26 TIME:   0.007 TIME LEFT:  2.00D  GRAD.:     5.091 HEAT: 35.65573
 CYCLE:    27 TIME:   0.007 TIME LEFT:  2.00D  GRAD.:     3.401 HEAT: 35.64041
 CYCLE:    28 TIME:   0.007 TIME LEFT:  2.00D  GRAD.:     3.138 HEAT: 35.63104
 CYCLE:    29 TIME:   0.007 TIME LEFT:  2.00D  GRAD.:     3.002 HEAT: 35.62280
 CYCLE:    30 TIME:   0.007 TIME LEFT:  2.00D  GRAD.:     3.620 HEAT: 35.61571
 CYCLE:    31 TIME:   0.007 TIME LEFT:  2.00D  GRAD.:     4.843 HEAT: 35.60622
 CYCLE:    32 TIME:   0.007 TIME LEFT:  2.00D  GRAD.:     4.015 HEAT: 35.59273
 CYCLE:    33 TIME:   0.007 TIME LEFT:  2.00D  GRAD.:     3.026 HEAT: 35.57756
 CYCLE:    34 TIME:   0.007 TIME LEFT:  2.00D  GRAD.:     2.966 HEAT: 35.56677
 CYCLE:    35 TIME:   0.007 TIME LEFT:  2.00D  GRAD.:     2.778 HEAT: 35.55874
 CYCLE:    36 TIME:   0.007 TIME LEFT:  2.00D  GRAD.:     1.607 HEAT: 35.55416
 CYCLE:    37 TIME:   0.007 TIME LEFT:  2.00D  GRAD.:     1.421 HEAT: 35.55154
 CYCLE:    38 TIME:   0.007 TIME LEFT:  2.00D  GRAD.:     1.205 HEAT: 35.54943
 CYCLE:    39 TIME:   0.007 TIME LEFT:  2.00D  GRAD.:     0.926 HEAT: 35.54706
 CYCLE:    40 TIME:   0.009 TIME LEFT:  2.00D  GRAD.:     0.689 HEAT: 35.54624
 CYCLE:    41 TIME:   0.009 TIME LEFT:  2.00D  GRAD.:     0.715 HEAT: 35.54528
 CYCLE:    42 TIME:   0.007 TIME LEFT:  2.00D  GRAD.:     0.786 HEAT: 35.54414
 CYCLE:    43 TIME:   0.007 TIME LEFT:  2.00D  GRAD.:     0.538 HEAT: 35.54350
 CYCLE:    44 TIME:   0.007 TIME LEFT:  2.00D  GRAD.:     0.432 HEAT: 35.54310
 CYCLE:    45 TIME:   0.007 TIME LEFT:  2.00D  GRAD.:     0.487 HEAT: 35.54274
 CYCLE:    46 TIME:   0.007 TIME LEFT:  2.00D  GRAD.:     0.483 HEAT: 35.54236
 CYCLE:    47 TIME:   0.007 TIME LEFT:  2.00D  GRAD.:     0.314 HEAT: 35.54207
 CYCLE:    48 TIME:   0.007 TIME LEFT:  2.00D  GRAD.:     0.228 HEAT: 35.54191
 CYCLE:    49 TIME:   0.007 TIME LEFT:  2.00D  GRAD.:     0.209 HEAT: 35.54180
 CYCLE:    50 TIME:   0.007 TIME LEFT:  2.00D  GRAD.:     0.160 HEAT: 35.54173
 CYCLE:    51 TIME:   0.007 TIME LEFT:  2.00D  GRAD.:     0.113 HEAT: 35.54169
 CYCLE:    52 TIME:   0.006 TIME LEFT:  2.00D  GRAD.:     0.096 HEAT: 35.54167
 CYCLE:    53 TIME:   0.006 TIME LEFT:  2.00D  GRAD.:     0.094 HEAT: 35.54165
 CYCLE:    54 TIME:   0.007 TIME LEFT:  2.00D  GRAD.:     0.078 HEAT: 35.54163
 CYCLE:    55 TIME:   0.007 TIME LEFT:  2.00D  GRAD.:     0.080 HEAT: 35.54162
 CYCLE:    56 TIME:   0.007 TIME LEFT:  2.00D  GRAD.:     0.060 HEAT: 35.54161
 CYCLE:    57 TIME:   0.007 TIME LEFT:  2.00D  GRAD.:     0.046 HEAT: 35.54160

     RMS GRADIENT =  0.04559  IS LESS THAN CUTOFF =  0.05000



 -------------------------------------------------------------------------------
pm3  precise nosym
 InChI=1S/C10H12/c1-3-7-8(4-1)10-6-2-5-9(7)10/h1-3,5,7-10H,4,6H2



     GEOMETRY OPTIMISED USING EIGENVECTOR FOLLOWING (EF).     
     SCF FIELD WAS ACHIEVED                                   


                              PM3 CALCULATION
                                                       MOPAC2012 (Version: 13.159M)
                                                       Mon Jun  2 11:11:43 2014
                                                       No. of days left =   6




          FINAL HEAT OF FORMATION =         35.54160 KCAL/MOL =     148.70606 KJ/MOL


          TOTAL ENERGY            =      -1368.85507 EV
          ELECTRONIC ENERGY       =      -7708.90257 EV  POINT GROUP:     C1  
          CORE-CORE REPULSION     =       6340.04750 EV
          COSMO AREA              =        171.64 SQUARE ANGSTROMS
          COSMO VOLUME            =        175.61 CUBIC ANGSTROMS

          GRADIENT NORM           =          0.04559
          IONIZATION POTENTIAL    =          9.450104 EV
          HOMO LUMO ENERGIES (EV) =         -9.450  0.958
          NO. OF FILLED LEVELS    =         26
          MOLECULAR WEIGHT        =        132.205

          MOLECULAR DIMENSIONS (Angstroms)

            Atom       Atom       Distance
            H    21    H    19     7.47540
            H    20    H    17     4.24666
            H    14    H    11     3.71916


          SCF CALCULATIONS        =         65
          COMPUTATION TIME        =          0.451 SECONDS




   ATOM   CHEMICAL          X               Y               Z
  NUMBER   SYMBOL      (ANGSTROMS)     (ANGSTROMS)     (ANGSTROMS)
 
     1       C          0.54461322  *  -0.68350274  *  -0.53218656  *
     2       C         -0.65756699  *  -0.64518320  *   0.44463771  *
     3       C          0.68033377  *   0.87410994  *  -0.42577343  *
     4       C         -0.52948368  *   0.91376900  *   0.54060031  *
     5       C          1.84531668  *  -1.25809648  *   0.03264602  *
     6       C         -2.02999441  *  -0.91656500  *  -0.17487931  *
     7       C          2.00748007  *   1.09548175  *   0.22155439  *
     8       C         -1.79378067  *   1.43544412  *  -0.05836540  *
     9       C          2.63999144  *  -0.06081199  *   0.46118148  *
    10       C         -2.60836440  *   0.44181613  *  -0.43739325  *
    11       H          0.30303171  *  -1.08164111  *  -1.53536048  *
    12       H         -0.49678223  *  -1.20367337  *   1.38563545  *
    13       H          0.55517928  *   1.45446099  *  -1.35809495  *
    14       H         -0.31922330  *   1.34034368  *   1.53834735  *
    15       H          2.40059542  *  -1.84185124  *  -0.72436124  *
    16       H          1.66775502  *  -1.94301170  *   0.88298974  *
    17       H         -2.68326494  *  -1.49135947  *   0.50707558  *
    18       H         -1.96049137  *  -1.50664836  *  -1.10798523  *
    19       H          3.62424592  *  -0.17622622  *   0.91463744  *
    20       H          2.37003676  *   2.09747048  *   0.44778601  *
    21       H         -3.59319031  *   0.55204816  *  -0.89087431  *
    22       H         -1.98111472  *   2.50461171  *  -0.15001656  *

           Empirical Formula: C10 H12  =    22 atoms



      MOLECULAR POINT GROUP   :   C1  


                  EIGENVALUES  
 -43.13931 -36.31452 -29.60526 -29.16904 -26.48354 -23.80248 -20.81848 -19.11122
 -19.05306 -17.72454 -17.37914 -17.23055 -15.68122 -14.43950 -14.11151 -14.08537
 -13.60080 -13.09538 -12.83733 -12.77634 -12.20171 -12.11548 -11.72798 -11.21591
  -9.88882  -9.45010   0.95808   1.18252   3.17269   3.24221   3.45512   3.49134
   3.58746   3.63332   3.79894   3.86513   3.89583   4.10851   4.10985   4.19053
   4.30045   4.31618   4.52128   4.65696   4.73784   4.99968   5.27999   5.36172
   5.70294   5.73941   5.98247   6.01051


              NET ATOMIC CHARGES AND DIPOLE CONTRIBUTIONS

  ATOM NO.   TYPE          CHARGE      No. of ELECS.   s-Pop       p-Pop       
    1          C          -0.095451        4.0955     1.20101     2.89444
    2          C          -0.095468        4.0955     1.20102     2.89445
    3          C          -0.055453        4.0555     1.18679     2.86867
    4          C          -0.055465        4.0555     1.18679     2.86868
    5          C          -0.058539        4.0585     1.15331     2.90523
    6          C          -0.058522        4.0585     1.15331     2.90522
    7          C          -0.147211        4.1472     1.20009     2.94712
    8          C          -0.147222        4.1472     1.20009     2.94713
    9          C          -0.148245        4.1482     1.20443     2.94382
   10          C          -0.148249        4.1482     1.20443     2.94382
   11          H           0.080880        0.9191     0.91912
   12          H           0.080876        0.9191     0.91912
   13          H           0.085481        0.9145     0.91452
   14          H           0.085475        0.9145     0.91453
   15          H           0.055744        0.9443     0.94426
   16          H           0.061003        0.9390     0.93900
   17          H           0.055744        0.9443     0.94426
   18          H           0.061006        0.9390     0.93899
   19          H           0.108925        0.8911     0.89108
   20          H           0.112884        0.8871     0.88712
   21          H           0.108923        0.8911     0.89108
   22          H           0.112886        0.8871     0.88711
 DIPOLE           X         Y         Z       TOTAL
 POINT-CHG.    -0.023    -0.268    -0.017     0.270
 HYBRID         0.002     0.024     0.002     0.024
 SUM           -0.021    -0.244    -0.016     0.246


          ATOMIC ORBITAL ELECTRON POPULATIONS

    Atom      s        px        py        pz   
    1  C   1.20101   0.94725   0.96074   0.98644
    2  C   1.20102   0.94264   0.96707   0.98474
    3  C   1.18679   0.92881   0.95939   0.98046
    4  C   1.18679   0.93481   0.95029   0.98358
    5  C   1.15331   0.94736   0.95991   0.99796
    6  C   1.15331   0.95084   0.95441   0.99997
    7  C   1.20009   0.96599   0.97582   1.00532
    8  C   1.20009   0.96322   0.97964   1.00426
    9  C   1.20443   0.98664   0.95353   1.00365
   10  C   1.20443   0.98628   0.95474   1.00281
   11  H   0.91912
   12  H   0.91912
   13  H   0.91452
   14  H   0.91453
   15  H   0.94426
   16  H   0.93900
   17  H   0.94426
   18  H   0.93899
   19  H   0.89108
   20  H   0.88712
   21  H   0.89108
   22  H   0.88711
 *******************************************************************************
 ** Site#: 14399           For non-commercial use only        Version 13.159M **
 *******************************************************************************
 ** Cite this work as: MOPAC2012, James J. P. Stewart, Stewart Computational  **
 ** Chemistry, Version 13.159M web: HTTP://OpenMOPAC.net  Days remaining:   6 **
 *******************************************************************************
 **                                                                           **
 **                                MOPAC2012                                  **
 **                                                                           **
 *******************************************************************************

                            PM3 CALCULATION RESULTS


 *******************************************************************************
 *  CALCULATION DONE:                                Mon Jun  2 11:11:43 2014  *
 *  PM3      - The PM3 Hamiltonian to be used
 *  OLDGEO   - PREVIOUS GEOMETRY TO BE USED
 *  PRECISE  - CRITERIA TO BE INCREASED BY 100 TIMES
 *  NOSYM    - POINT-GROUP SYMMETRY SET TO C1
 *  T=       - A TIME OF 172800.0 SECONDS REQUESTED
 *  DUMP=N   - RESTART FILE WRITTEN EVERY  7200.000 SECONDS
 *  THERMO   - THERMODYNAMIC QUANTITIES TO BE CALCULATED
 *******************************************************************************
oldgeo thermo nosym precise  pm3

   ATOM   CHEMICAL          X               Y               Z
  NUMBER   SYMBOL      (ANGSTROMS)     (ANGSTROMS)     (ANGSTROMS)
 
     1       C          0.54461322  *  -0.68350274  *  -0.53218656  *
     2       C         -0.65756699  *  -0.64518320  *   0.44463771  *
     3       C          0.68033377  *   0.87410994  *  -0.42577343  *
     4       C         -0.52948368  *   0.91376900  *   0.54060031  *
     5       C          1.84531668  *  -1.25809648  *   0.03264602  *
     6       C         -2.02999441  *  -0.91656500  *  -0.17487931  *
     7       C          2.00748007  *   1.09548175  *   0.22155439  *
     8       C         -1.79378067  *   1.43544412  *  -0.05836540  *
     9       C          2.63999144  *  -0.06081199  *   0.46118148  *
    10       C         -2.60836440  *   0.44181613  *  -0.43739325  *
    11       H          0.30303171  *  -1.08164111  *  -1.53536048  *
    12       H         -0.49678223  *  -1.20367337  *   1.38563545  *
    13       H          0.55517928  *   1.45446099  *  -1.35809495  *
    14       H         -0.31922330  *   1.34034368  *   1.53834735  *
    15       H          2.40059542  *  -1.84185124  *  -0.72436124  *
    16       H          1.66775502  *  -1.94301170  *   0.88298974  *
    17       H         -2.68326494  *  -1.49135947  *   0.50707558  *
    18       H         -1.96049137  *  -1.50664836  *  -1.10798523  *
    19       H          3.62424592  *  -0.17622622  *   0.91463744  *
    20       H          2.37003676  *   2.09747048  *   0.44778601  *
    21       H         -3.59319031  *   0.55204816  *  -0.89087431  *
    22       H         -1.98111472  *   2.50461171  *  -0.15001656  *
 


          CARTESIAN COORDINATES 

    NO.       ATOM         X         Y         Z

     1         C        0.5446   -0.6835   -0.5322
     2         C       -0.6576   -0.6452    0.4446
     3         C        0.6803    0.8741   -0.4258
     4         C       -0.5295    0.9138    0.5406
     5         C        1.8453   -1.2581    0.0326
     6         C       -2.0300   -0.9166   -0.1749
     7         C        2.0075    1.0955    0.2216
     8         C       -1.7938    1.4354   -0.0584
     9         C        2.6400   -0.0608    0.4612
    10         C       -2.6084    0.4418   -0.4374
    11         H        0.3030   -1.0816   -1.5354
    12         H       -0.4968   -1.2037    1.3856
    13         H        0.5552    1.4545   -1.3581
    14         H       -0.3192    1.3403    1.5383
    15         H        2.4006   -1.8419   -0.7244
    16         H        1.6678   -1.9430    0.8830
    17         H       -2.6833   -1.4914    0.5071
    18         H       -1.9605   -1.5066   -1.1080
    19         H        3.6242   -0.1762    0.9146
    20         H        2.3700    2.0975    0.4478
    21         H       -3.5932    0.5520   -0.8909
    22         H       -1.9811    2.5046   -0.1500

  H: (PM3): J. J. P. STEWART, J. COMP. CHEM. 10, 209 (1989).
  C: (PM3): J. J. P. STEWART, J. COMP. CHEM. 10, 209 (1989).

           Empirical Formula: C10 H12  =    22 atoms



      MOLECULAR POINT GROUP   :   C1  


      RHF CALCULATION, NO. OF DOUBLY OCCUPIED LEVELS =   26



          HEAT OF FORMATION =      35.541600 KCALS/MOLE


          INTERNAL COORDINATE DERIVATIVES

   NUMBER  ATOM       BOND         ANGLE      DIHEDRAL

     1       C     -0.005695     0.008227    -0.004079
     2       C      0.001106    -0.001451    -0.001496
     3       C     -0.004748    -0.001095     0.000930
     4       C     -0.007186     0.012118    -0.000759
     5       C      0.007951    -0.009071     0.007135
     6       C     -0.006800     0.002614    -0.004177
     7       C     -0.005072     0.002955    -0.001605
     8       C     -0.003470     0.008076     0.004936
     9       C      0.000761     0.004253    -0.001776
    10       C      0.001473    -0.002897     0.003995
    11       H     -0.010494     0.006190    -0.008683
    12       H     -0.001603     0.000535     0.007645
    13       H      0.002179     0.002711     0.004489
    14       H      0.008720    -0.003918     0.007664
    15       H      0.010041    -0.002500    -0.006192
    16       H     -0.009728    -0.001147    -0.000964
    17       H      0.006987    -0.005556     0.001997
    18       H      0.004925    -0.001391    -0.001314
    19       H     -0.007365    -0.007679    -0.006274
    20       H      0.008639    -0.005651     0.007940
    21       H      0.009638    -0.000041    -0.003437
    22       H     -0.000260    -0.005281    -0.005973


          GRADIENT NORM =   0.04595


          TIME FOR SCF CALCULATION =    0.01

          TIME FOR DERIVATIVES     =    0.00

          MOLECULAR WEIGHT =  132.20



          ROTATIONAL CONSTANTS IN CM(-1)

          A =    0.10934519   B =    0.03750295   C =    0.03073422



           PRINCIPAL MOMENTS OF INERTIA IN UNITS OF 10**(-40)*GRAM-CM**2

          A =      256.0037   B =      746.4153   C =      910.8014


          ORIENTATION OF MOLECULE IN FORCE CALCULATION

    NO.       ATOM         X         Y         Z

     1          C      -0.7748   -0.7675   -0.0031
     2          C       0.7747   -0.7675   -0.0031
     3          C      -0.7745    0.7996   -0.0031
     4          C       0.7743    0.7996    0.0099
     5          C      -1.4421   -1.1875   -1.3144
     6          C       1.4422   -1.1983    1.3045
     7          C      -1.3906    1.1787   -1.3093
     8          C       1.3906    1.1678    1.3191
     9          C      -1.7589    0.1005   -2.0139
    10          C       1.7591    0.0839    2.0146
    11          H      -1.2296   -1.2522    0.8809
    12          H       1.2293   -1.2449   -0.8912
    13          H      -1.2508    1.3024    0.8583
    14          H       1.2508    1.3094   -0.8473
    15          H      -2.3646   -1.7708   -1.1386
    16          H      -0.7852   -1.8260   -1.9345
    17          H       2.3648   -1.7800    1.1237
    18          H       0.7855   -1.8420    1.9193
    19          H      -2.2395    0.1019   -2.9920
    20          H      -1.5045    2.2214   -1.6033
    21          H       2.2400    0.0773    2.9925
    22          H       1.5046    2.2080    1.6217


    FIRST DERIVATIVES WILL BE USED IN THE CALCULATION OF SECOND DERIVATIVES

          ESTIMATED TIME TO COMPLETE CALCULATION =        2.70 SECONDS

    FOR POINT-GROUP C1   THERE ARE   1 UNIQUE SYMMETRY FUNCTIONS.

 STEP:   1 TIME =     0.03 SECS, INTEGRAL =      0.03 TIME LEFT: 172799.96
 STEP:   2 TIME =     0.03 SECS, INTEGRAL =      0.06 TIME LEFT: 172799.93
 STEP:   3 TIME =     0.03 SECS, INTEGRAL =      0.10 TIME LEFT: 172799.89
 STEP:   4 TIME =     0.03 SECS, INTEGRAL =      0.13 TIME LEFT: 172799.86
 STEP:   5 TIME =     0.03 SECS, INTEGRAL =      0.16 TIME LEFT: 172799.83
 STEP:   6 TIME =     0.03 SECS, INTEGRAL =      0.19 TIME LEFT: 172799.80
 STEP:   7 TIME =     0.03 SECS, INTEGRAL =      0.22 TIME LEFT: 172799.77
 STEP:   8 TIME =     0.03 SECS, INTEGRAL =      0.25 TIME LEFT: 172799.74
 STEP:   9 TIME =     0.03 SECS, INTEGRAL =      0.29 TIME LEFT: 172799.70
 STEP:  10 TIME =     0.03 SECS, INTEGRAL =      0.32 TIME LEFT: 172799.67
 STEP:  11 TIME =     0.03 SECS, INTEGRAL =      0.35 TIME LEFT: 172799.64
 STEP:  12 TIME =     0.03 SECS, INTEGRAL =      0.38 TIME LEFT: 172799.61
 STEP:  13 TIME =     0.03 SECS, INTEGRAL =      0.41 TIME LEFT: 172799.58
 STEP:  14 TIME =     0.03 SECS, INTEGRAL =      0.45 TIME LEFT: 172799.54
 STEP:  15 TIME =     0.03 SECS, INTEGRAL =      0.48 TIME LEFT: 172799.51
 STEP:  16 TIME =     0.03 SECS, INTEGRAL =      0.51 TIME LEFT: 172799.48
 STEP:  17 TIME =     0.03 SECS, INTEGRAL =      0.54 TIME LEFT: 172799.45
 STEP:  18 TIME =     0.03 SECS, INTEGRAL =      0.57 TIME LEFT: 172799.42
 STEP:  19 TIME =     0.03 SECS, INTEGRAL =      0.61 TIME LEFT: 172799.38
 STEP:  20 TIME =     0.03 SECS, INTEGRAL =      0.64 TIME LEFT: 172799.35
 STEP:  21 TIME =     0.03 SECS, INTEGRAL =      0.67 TIME LEFT: 172799.32
 STEP:  22 TIME =     0.03 SECS, INTEGRAL =      0.70 TIME LEFT: 172799.29
 STEP:  23 TIME =     0.03 SECS, INTEGRAL =      0.73 TIME LEFT: 172799.26
 STEP:  24 TIME =     0.03 SECS, INTEGRAL =      0.77 TIME LEFT: 172799.22
 STEP:  25 TIME =     0.04 SECS, INTEGRAL =      0.80 TIME LEFT: 172799.19
 STEP:  26 TIME =     0.04 SECS, INTEGRAL =      0.84 TIME LEFT: 172799.15
 STEP:  27 TIME =     0.03 SECS, INTEGRAL =      0.87 TIME LEFT: 172799.12
 STEP:  28 TIME =     0.03 SECS, INTEGRAL =      0.90 TIME LEFT: 172799.09
 STEP:  29 TIME =     0.03 SECS, INTEGRAL =      0.93 TIME LEFT: 172799.06
 STEP:  30 TIME =     0.03 SECS, INTEGRAL =      0.97 TIME LEFT: 172799.02
 STEP:  31 TIME =     0.03 SECS, INTEGRAL =      1.00 TIME LEFT: 172798.99
 STEP:  32 TIME =     0.03 SECS, INTEGRAL =      1.03 TIME LEFT: 172798.96
 STEP:  33 TIME =     0.03 SECS, INTEGRAL =      1.06 TIME LEFT: 172798.93
 STEP:  34 TIME =     0.03 SECS, INTEGRAL =      1.10 TIME LEFT: 172798.89
 STEP:  35 TIME =     0.03 SECS, INTEGRAL =      1.13 TIME LEFT: 172798.86
 STEP:  36 TIME =     0.04 SECS, INTEGRAL =      1.16 TIME LEFT: 172798.83
 STEP:  37 TIME =     0.03 SECS, INTEGRAL =      1.20 TIME LEFT: 172798.79
 STEP:  38 TIME =     0.03 SECS, INTEGRAL =      1.23 TIME LEFT: 172798.76
 STEP:  39 TIME =     0.03 SECS, INTEGRAL =      1.26 TIME LEFT: 172798.73
 STEP:  40 TIME =     0.03 SECS, INTEGRAL =      1.29 TIME LEFT: 172798.70
 STEP:  41 TIME =     0.03 SECS, INTEGRAL =      1.33 TIME LEFT: 172798.66
 STEP:  42 TIME =     0.03 SECS, INTEGRAL =      1.36 TIME LEFT: 172798.63
 STEP:  43 TIME =     0.03 SECS, INTEGRAL =      1.39 TIME LEFT: 172798.60
 STEP:  44 TIME =     0.03 SECS, INTEGRAL =      1.42 TIME LEFT: 172798.57
 STEP:  45 TIME =     0.03 SECS, INTEGRAL =      1.45 TIME LEFT: 172798.54
 STEP:  46 TIME =     0.03 SECS, INTEGRAL =      1.49 TIME LEFT: 172798.50
 STEP:  47 TIME =     0.03 SECS, INTEGRAL =      1.52 TIME LEFT: 172798.47
 STEP:  48 TIME =     0.03 SECS, INTEGRAL =      1.55 TIME LEFT: 172798.44
 STEP:  49 TIME =     0.03 SECS, INTEGRAL =      1.58 TIME LEFT: 172798.41
 STEP:  50 TIME =     0.03 SECS, INTEGRAL =      1.61 TIME LEFT: 172798.38
 STEP:  51 TIME =     0.03 SECS, INTEGRAL =      1.64 TIME LEFT: 172798.34
 STEP:  52 TIME =     0.03 SECS, INTEGRAL =      1.68 TIME LEFT: 172798.31
 STEP:  53 TIME =     0.03 SECS, INTEGRAL =      1.71 TIME LEFT: 172798.28
 STEP:  54 TIME =     0.03 SECS, INTEGRAL =      1.74 TIME LEFT: 172798.25
 STEP:  55 TIME =     0.03 SECS, INTEGRAL =      1.77 TIME LEFT: 172798.22
 STEP:  56 TIME =     0.03 SECS, INTEGRAL =      1.81 TIME LEFT: 172798.18
 STEP:  57 TIME =     0.03 SECS, INTEGRAL =      1.84 TIME LEFT: 172798.15
 STEP:  58 TIME =     0.03 SECS, INTEGRAL =      1.87 TIME LEFT: 172798.12
 STEP:  59 TIME =     0.04 SECS, INTEGRAL =      1.91 TIME LEFT: 172798.08
 STEP:  60 TIME =     0.04 SECS, INTEGRAL =      1.95 TIME LEFT: 172798.04
 STEP:  61 TIME =     0.05 SECS, INTEGRAL =      2.01 TIME LEFT: 172797.98
 STEP:  62 TIME =     0.04 SECS, INTEGRAL =      2.04 TIME LEFT: 172797.95
 STEP:  63 TIME =     0.03 SECS, INTEGRAL =      2.08 TIME LEFT: 172797.91
 STEP:  64 TIME =     0.03 SECS, INTEGRAL =      2.11 TIME LEFT: 172797.88
 STEP:  65 TIME =     0.03 SECS, INTEGRAL =      2.14 TIME LEFT: 172797.85
 STEP:  66 TIME =     0.03 SECS, INTEGRAL =      2.17 TIME LEFT: 172797.82

(To convert to Hartree/Bohr^2, multiply by (10^(-21) x N x a0^2)/(4.184 x 627.51) = 0.0642)


           FORCE MATRIX IN MILLIDYNES/ANGSTROM


                  C  1       C  2       C  3       C  4       C  5       C  6
 ------------------------------------------------------------------------------
     C    1  14.392712
     C    2   3.388254  14.392815
     C    3   2.930310   1.751506  14.824347
     C    4   1.751486   2.930114   3.313216  14.830362
     C    5   3.871304   0.507875   0.703121   0.045281  14.670282
     C    6   0.507701   3.871542   0.045316   0.702843   0.037462  14.670222
     C    7   0.830073   0.043562   4.759935   0.561822   1.124300   0.001904
     C    8   0.043485   0.830046   0.561603   4.761615   0.001775   1.124148
     C    9   0.899766   0.029599   1.188809   0.043391   4.582129   0.003604
     C   10   0.029573   0.899856   0.043473   1.189034   0.003658   4.582336
     H   11   4.556613   0.432644   0.417369   0.027852   0.424072   0.030291
     H   12   0.432690   4.556478   0.027865   0.416858   0.030343   0.424074
     H   13   0.407531   0.029033   4.566996   0.436509   0.030937   0.003203
     H   14   0.029034   0.407504   0.436875   4.567254   0.003224   0.030951
     H   15   0.437947   0.033254   0.023642   0.005001   4.522198   0.004101
     H   16   0.443814   0.034584   0.034061   0.001932   4.491496   0.002311
     H   17   0.033251   0.437898   0.005076   0.023411   0.004121   4.521649
     H   18   0.034500   0.443841   0.001977   0.033894   0.002366   4.491571
     H   19   0.042824   0.003107   0.114294   0.016542   0.411401   0.000954
     H   20   0.041443   0.002669   0.416376   0.006461   0.114643   0.000670
     H   21   0.003087   0.042855   0.016900   0.114084   0.000937   0.411414
     H   22   0.002671   0.041418   0.006484   0.416379   0.000668   0.114732


                  C  7       C  8       C  9       C 10       H 11       H 12
 ------------------------------------------------------------------------------
     C    7  18.314588
     C    8   0.036109  18.317772
     C    9  10.477602   0.007150  18.247982
     C   10   0.007190  10.478557   0.001553  18.248681
     H   11   0.033584   0.003117   0.033347   0.002163   5.062823
     H   12   0.003127   0.033577   0.002187   0.033266   0.025749   5.062690
     H   13   0.417547   0.019647   0.039492   0.004306   0.015086   0.001398
     H   14   0.019599   0.417571   0.004322   0.039412   0.001398   0.015093
     H   15   0.037819   0.000616   0.429386   0.000463   0.032636   0.002355
     H   16   0.038466   0.000755   0.431620   0.000573   0.020146   0.027754
     H   17   0.000609   0.037817   0.000442   0.429403   0.002369   0.032654
     H   18   0.000740   0.038440   0.000540   0.431629   0.027787   0.020148
     H   19   0.447932   0.002279   5.012465   0.000960   0.003967   0.000779
     H   20   5.026502   0.001763   0.448432   0.001027   0.003621   0.000708
     H   21   0.002282   0.447832   0.000933   5.012731   0.000784   0.003964
     H   22   0.001783   5.026517   0.001038   0.448449   0.000697   0.003616


                  H 13       H 14       H 15       H 16       H 17       H 18
 ------------------------------------------------------------------------------
     H   13   5.076359
     H   14   0.024701   5.076542
     H   15   0.001051   0.000673   5.123173
     H   16   0.004461   0.000581   0.565790   5.105209
     H   17   0.000662   0.001072   0.000601   0.000382   5.122517
     H   18   0.000579   0.004470   0.000390   0.000388   0.565655   5.105202
     H   19   0.012826   0.000952   0.014775   0.014228   0.000239   0.000211
     H   20   0.013639   0.003429   0.015977   0.015319   0.000151   0.000277
     H   21   0.000965   0.012838   0.000244   0.000200   0.014772   0.014202
     H   22   0.003429   0.013654   0.000163   0.000273   0.016006   0.015344


                  H 19       H 20       H 21       H 22
 ------------------------------------------------------
     H   19   5.407362
     H   20   0.047464   5.422018
     H   21   0.000226   0.000315   5.407581
     H   22   0.000299   0.000771   0.047545   5.421940


          HEAT OF FORMATION =      35.541600 KCALS/MOLE

          ZERO POINT ENERGY     120.458 KCAL/MOL


           NORMAL COORDINATE ANALYSIS (Total motion = 1 Angstrom)


   Root No.       1         2         3         4         5         6         7         8

                 1 A       2 A       3 A       4 A       5 A       6 A       7 A       8 A   

                 112.0     193.6     263.0     317.1     323.0     441.9     447.6     610.6
  
           1    0.0003   -0.0299    0.0014   -0.0042   -0.0254   -0.0145   -0.0011   -0.0326
           2   -0.0165   -0.0058    0.0186   -0.0163    0.0185   -0.0099    0.0040    0.0001
           3   -0.0132    0.0135   -0.0067   -0.0206    0.0244    0.0013   -0.0156   -0.0121
           4   -0.0005   -0.0299   -0.0017    0.0035   -0.0255   -0.0145    0.0009   -0.0326
           5   -0.0166    0.0057    0.0186   -0.0168   -0.0184    0.0098    0.0040    0.0000
           6    0.0132    0.0133    0.0070    0.0211    0.0238    0.0012    0.0156   -0.0121
           7   -0.0008   -0.0391   -0.0013    0.0032   -0.0005   -0.0126   -0.0064    0.0380
           8   -0.0166   -0.0049    0.0189   -0.0168    0.0196   -0.0091    0.0026    0.0036
           9    0.0110    0.0230   -0.0199   -0.0184   -0.0088    0.0151   -0.0127    0.0065
          10    0.0005   -0.0391    0.0010   -0.0034   -0.0004   -0.0127    0.0063    0.0380
          11   -0.0165    0.0048    0.0187   -0.0174   -0.0193    0.0089    0.0026   -0.0037
          12   -0.0110    0.0228    0.0202    0.0182   -0.0093    0.0149    0.0129    0.0065
          13    0.0227   -0.0006    0.0215   -0.0343    0.0344    0.0015   -0.0218   -0.0167
          14    0.0064   -0.0019   -0.0086    0.0092    0.0082   -0.0076    0.0017   -0.0286
          15   -0.0332   -0.0036   -0.0072   -0.0201   -0.0045   -0.0112   -0.0108   -0.0248
          16   -0.0227   -0.0002   -0.0214    0.0350    0.0338    0.0012    0.0218   -0.0167
          17    0.0062    0.0020   -0.0086    0.0088   -0.0083    0.0076    0.0017    0.0288
          18    0.0332   -0.0041    0.0070    0.0200   -0.0050   -0.0112    0.0106   -0.0245
          19   -0.0204    0.0103   -0.0182    0.0220   -0.0138    0.0391   -0.0460    0.0055
          20    0.0073   -0.0026   -0.0078    0.0051    0.0097   -0.0083   -0.0042   -0.0222
          21    0.0281   -0.0011   -0.0230   -0.0214   -0.0057   -0.0091   -0.0033    0.0264
          22    0.0204    0.0099    0.0183   -0.0221   -0.0134    0.0387    0.0464    0.0055
          23    0.0075    0.0026   -0.0080    0.0047   -0.0097    0.0085   -0.0041    0.0219
          24   -0.0280   -0.0011    0.0229    0.0212   -0.0062   -0.0091    0.0032    0.0266
          25   -0.0075    0.0572   -0.0331   -0.0382    0.0000   -0.0198    0.0039    0.0096
          26    0.0190   -0.0011   -0.0191    0.0173    0.0018   -0.0014   -0.0036   -0.0122
          27    0.0036   -0.0278    0.0006   -0.0073   -0.0006    0.0112   -0.0315    0.0049
          28    0.0080    0.0567    0.0335    0.0383   -0.0008   -0.0198   -0.0041    0.0096
          29    0.0191    0.0013   -0.0191    0.0172   -0.0020    0.0013   -0.0039    0.0121
          30   -0.0036   -0.0278   -0.0009    0.0073   -0.0007    0.0108    0.0316    0.0049
          31   -0.0165   -0.0332   -0.0084   -0.0134   -0.0561   -0.0152   -0.0057   -0.0596
          32   -0.0317   -0.0180    0.0306   -0.0163    0.0412   -0.0230    0.0053    0.0159
          33   -0.0302    0.0044   -0.0048   -0.0254    0.0192   -0.0069   -0.0169   -0.0184
          34    0.0163   -0.0335    0.0080    0.0120   -0.0563   -0.0153    0.0054   -0.0596
          35   -0.0319    0.0180    0.0306   -0.0173   -0.0411    0.0229    0.0053   -0.0157
          36    0.0300    0.0041    0.0052    0.0257    0.0184   -0.0069    0.0169   -0.0185
          37    0.0134   -0.0555   -0.0157   -0.0160    0.0192   -0.0387   -0.0056    0.0761
          38   -0.0324   -0.0082    0.0253   -0.0213    0.0467   -0.0125   -0.0060    0.0172
          39    0.0281    0.0143   -0.0313   -0.0257   -0.0133    0.0014   -0.0072    0.0205
          40   -0.0136   -0.0556    0.0153    0.0161    0.0189   -0.0389    0.0053    0.0761
          41   -0.0322    0.0083    0.0251   -0.0225   -0.0463    0.0125   -0.0059   -0.0174
          42   -0.0283    0.0143    0.0316    0.0252   -0.0142    0.0013    0.0072    0.0204
          43    0.0385   -0.0260    0.0539   -0.0351    0.0626    0.0300   -0.0537   -0.0205
          44   -0.0266    0.0311   -0.0610    0.0147   -0.0495   -0.0586    0.0583   -0.0313
          45   -0.0603   -0.0265   -0.0136   -0.0059   -0.0529   -0.0371    0.0173   -0.0527
          46    0.0467   -0.0011    0.0568   -0.0529    0.0938    0.0374   -0.0626   -0.0041
          47    0.0460   -0.0327    0.0321    0.0137    0.0579    0.0433   -0.0531   -0.0286
          48   -0.0487    0.0277   -0.0129   -0.0435    0.0049   -0.0277    0.0053   -0.0123
          49   -0.0387   -0.0252   -0.0539    0.0365    0.0621    0.0295    0.0540   -0.0206
          50   -0.0273   -0.0301   -0.0611    0.0158    0.0498    0.0584    0.0592    0.0316
          51    0.0599   -0.0275    0.0128    0.0047   -0.0526   -0.0364   -0.0173   -0.0524
          52   -0.0467   -0.0002   -0.0565    0.0550    0.0929    0.0368    0.0630   -0.0042
          53    0.0458    0.0316    0.0320    0.0120   -0.0583   -0.0426   -0.0535    0.0288
          54    0.0493    0.0271    0.0133    0.0437    0.0035   -0.0280   -0.0061   -0.0120
          55   -0.0159    0.1214   -0.0710   -0.0723   -0.0094   -0.0482    0.0340    0.0061
          56    0.0360    0.0011   -0.0341    0.0302   -0.0097    0.0098   -0.0063    0.0270
          57    0.0077   -0.0593    0.0190    0.0095    0.0040    0.0252   -0.0466    0.0065
          58   -0.0420    0.0220   -0.0370    0.0688   -0.0389    0.1148   -0.1118   -0.0427
          59    0.0130   -0.0017   -0.0137    0.0093    0.0071   -0.0082   -0.0041   -0.0228
          60    0.0567   -0.0025   -0.0368   -0.0247   -0.0052   -0.0381    0.0221    0.0422
          61    0.0168    0.1203    0.0718    0.0723   -0.0109   -0.0481   -0.0344    0.0061
          62    0.0360   -0.0007   -0.0339    0.0305    0.0092   -0.0099   -0.0068   -0.0271
          63   -0.0078   -0.0590   -0.0197   -0.0092    0.0043    0.0247    0.0468    0.0062
          64    0.0421    0.0213    0.0372   -0.0695   -0.0378    0.1141    0.1132   -0.0431
          65    0.0135    0.0017   -0.0140    0.0089   -0.0072    0.0086   -0.0038    0.0224
          66   -0.0566   -0.0023    0.0367    0.0246   -0.0058   -0.0381   -0.0226    0.0426


   Root No.       9        10        11        12        13        14        15        16

                 9 A      10 A      11 A      12 A      13 A      14 A      15 A      16 A   

                 729.9     753.0     756.7     777.1     799.2     830.9     854.3     913.3
  
           1    0.0101   -0.0005   -0.0015    0.0063    0.0024    0.0123   -0.0219   -0.0071
           2   -0.0070    0.0181   -0.0021    0.0065   -0.0199    0.0425    0.0007   -0.0066
           3   -0.0194   -0.0272   -0.0317   -0.0014   -0.0034   -0.0259    0.0082    0.0101
           4   -0.0101    0.0005   -0.0014    0.0064   -0.0024    0.0122    0.0219   -0.0071
           5   -0.0071    0.0178    0.0029   -0.0063   -0.0200   -0.0424    0.0007    0.0065
           6    0.0193    0.0278   -0.0311   -0.0015    0.0032   -0.0262   -0.0083    0.0101
           7    0.0099   -0.0008   -0.0171    0.0086   -0.0032   -0.0143    0.0085    0.0037
           8    0.0097    0.0260    0.0284   -0.0004   -0.0073    0.0394    0.0028   -0.0080
           9   -0.0132    0.0174   -0.0104    0.0014   -0.0262    0.0401   -0.0056   -0.0095
          10   -0.0099    0.0010   -0.0170    0.0086    0.0032   -0.0143   -0.0086    0.0037
          11    0.0096    0.0265   -0.0277    0.0005   -0.0075   -0.0398    0.0027    0.0081
          12    0.0132   -0.0169   -0.0112    0.0011    0.0261    0.0398    0.0057   -0.0093
          13    0.0108   -0.0164   -0.0025   -0.0106   -0.0047    0.0122   -0.0309    0.0248
          14   -0.0212   -0.0264   -0.0385    0.0061   -0.0104    0.0060   -0.0131   -0.0031
          15   -0.0050   -0.0228    0.0011    0.0040    0.0145   -0.0117   -0.0020   -0.0124
          16   -0.0109    0.0165   -0.0020   -0.0105    0.0045    0.0121    0.0309    0.0247
          17   -0.0211   -0.0272    0.0379   -0.0061   -0.0103   -0.0058   -0.0132    0.0032
          18    0.0048    0.0225    0.0020    0.0041   -0.0145   -0.0118    0.0018   -0.0124
          19    0.0126   -0.0004   -0.0075   -0.0167   -0.0231    0.0012    0.0125   -0.0192
          20    0.0205   -0.0086    0.0455   -0.0099    0.0373   -0.0205    0.0015    0.0027
          21   -0.0012    0.0184   -0.0031    0.0104   -0.0112    0.0056   -0.0006    0.0094
          22   -0.0126    0.0006   -0.0075   -0.0169    0.0229    0.0013   -0.0125   -0.0192
          23    0.0204   -0.0077   -0.0459    0.0095    0.0372    0.0206    0.0015   -0.0028
          24    0.0014   -0.0185   -0.0040    0.0103    0.0116    0.0059    0.0006    0.0093
          25    0.0191   -0.0025    0.0196   -0.0150    0.0015   -0.0063    0.0100   -0.0036
          26   -0.0005   -0.0088   -0.0028   -0.0010    0.0054   -0.0125    0.0015    0.0017
          27    0.0263    0.0150    0.0516   -0.0046    0.0244   -0.0083    0.0014    0.0033
          28   -0.0191    0.0022    0.0198   -0.0150   -0.0016   -0.0063   -0.0100   -0.0035
          29   -0.0003   -0.0087    0.0022    0.0009    0.0056    0.0126    0.0015   -0.0017
          30   -0.0261   -0.0159    0.0515   -0.0044   -0.0243   -0.0083   -0.0014    0.0033
          31   -0.0091   -0.0227    0.0155    0.0123    0.0019    0.0054   -0.0247   -0.0503
          32    0.0111    0.0246    0.0132    0.0109    0.0023    0.0443    0.0403    0.0031
          33   -0.0188   -0.0357   -0.0151    0.0042    0.0095   -0.0286    0.0267   -0.0068
          34    0.0091    0.0225    0.0161    0.0123   -0.0017    0.0052    0.0246   -0.0502
          35    0.0109    0.0245   -0.0124   -0.0109    0.0023   -0.0444    0.0405   -0.0029
          36    0.0189    0.0361   -0.0144    0.0042   -0.0094   -0.0289   -0.0265   -0.0069
          37   -0.0113    0.0177   -0.0082    0.0328   -0.0269   -0.0237    0.0134    0.0305
          38   -0.0119    0.0176    0.0116    0.0023   -0.0427    0.0604    0.0346   -0.0063
          39   -0.0118    0.0327    0.0033    0.0138   -0.0189    0.0228   -0.0205    0.0048
          40    0.0114   -0.0178   -0.0088    0.0325    0.0273   -0.0235   -0.0135    0.0306
          41   -0.0119    0.0179   -0.0110   -0.0020   -0.0428   -0.0608    0.0343    0.0062
          42    0.0117   -0.0326    0.0022    0.0136    0.0187    0.0224    0.0208    0.0049
          43   -0.0222   -0.0080    0.0071    0.0241    0.0183    0.0050   -0.0068   -0.0260
          44    0.0370   -0.0358   -0.0562   -0.0475   -0.0514    0.0349   -0.0742    0.0820
          45    0.0281   -0.0066   -0.0024   -0.0012   -0.0045    0.0538   -0.0889    0.0164
          46   -0.0468   -0.0276   -0.0090    0.0221    0.0132   -0.0249    0.0432   -0.0382
          47   -0.0744   -0.0228   -0.0248    0.0551    0.0348   -0.0418    0.0468   -0.0809
          48   -0.0087   -0.0384   -0.0227   -0.0140   -0.0161    0.0001    0.0111    0.0048
          49    0.0222    0.0079    0.0072    0.0242   -0.0180    0.0050    0.0068   -0.0260
          50    0.0377   -0.0369    0.0551    0.0476   -0.0507   -0.0350   -0.0752   -0.0821
          51   -0.0280    0.0064   -0.0015   -0.0007    0.0040    0.0531    0.0883    0.0156
          52    0.0468    0.0278   -0.0087    0.0221   -0.0129   -0.0246   -0.0433   -0.0382
          53   -0.0746   -0.0234    0.0249   -0.0550    0.0340    0.0416    0.0471    0.0808
          54    0.0079    0.0386   -0.0216   -0.0145    0.0163    0.0005   -0.0107    0.0055
          55   -0.0780    0.0732    0.0756    0.1392    0.1286   -0.0378    0.0012   -0.0234
          56    0.0026    0.0296   -0.0156    0.0001   -0.0334   -0.0015    0.0287    0.0030
          57    0.0741   -0.0222    0.0242   -0.0803   -0.0381    0.0068    0.0057    0.0132
          58   -0.0802    0.0802    0.0239    0.0962    0.0301    0.0155   -0.0916    0.1249
          59    0.0172   -0.0181    0.0289   -0.0111    0.0318   -0.0346    0.0036    0.0037
          60    0.0225   -0.0475   -0.0758   -0.0373   -0.0523   -0.0495    0.0463   -0.0431
          61    0.0788   -0.0751    0.0735    0.1400   -0.1267   -0.0376   -0.0015   -0.0234
          62    0.0033    0.0292    0.0162    0.0010   -0.0337    0.0011    0.0287   -0.0031
          63   -0.0743    0.0224    0.0253   -0.0805    0.0369    0.0067   -0.0053    0.0132
          64    0.0807   -0.0808    0.0213    0.0960   -0.0290    0.0156    0.0917    0.1245
          65    0.0173   -0.0180   -0.0290    0.0110    0.0314    0.0351    0.0040   -0.0034
          66   -0.0227    0.0485   -0.0747   -0.0374    0.0521   -0.0490   -0.0463   -0.0431


   Root No.      17        18        19        20        21        22        23        24

                17 A      18 A      19 A      20 A      21 A      22 A      23 A      24 A   

                 935.6     956.5     965.3     993.6     999.9    1025.9    1040.5    1050.8
  
           1    0.0011    0.0175   -0.0020   -0.0014   -0.0045    0.0110    0.0119   -0.0062
           2   -0.0302   -0.0044    0.0232   -0.0043   -0.0109   -0.0020   -0.0043    0.0047
           3    0.0128   -0.0057   -0.0129    0.0090    0.0119    0.0115    0.0099   -0.0114
           4    0.0011   -0.0175    0.0020   -0.0014    0.0046    0.0109   -0.0119   -0.0061
           5    0.0301   -0.0044    0.0230    0.0043   -0.0107    0.0019   -0.0042   -0.0043
           6    0.0131    0.0057    0.0131    0.0091   -0.0119    0.0115   -0.0100   -0.0119
           7    0.0009    0.0080   -0.0016   -0.0020    0.0219   -0.0104   -0.0037    0.0008
           8    0.0249    0.0080   -0.0207   -0.0003   -0.0010    0.0052    0.0043    0.0021
           9    0.0085    0.0021   -0.0093   -0.0008   -0.0162   -0.0082   -0.0077    0.0014
          10    0.0009   -0.0080    0.0016   -0.0017   -0.0220   -0.0104    0.0037    0.0016
          11   -0.0250    0.0081   -0.0207    0.0003   -0.0011   -0.0051    0.0042   -0.0021
          12    0.0083   -0.0020    0.0092   -0.0010    0.0162   -0.0081    0.0077    0.0012
          13   -0.0024    0.0007    0.0043    0.0154    0.0169   -0.0045   -0.0039    0.0088
          14    0.0080    0.0085   -0.0058   -0.0014   -0.0019   -0.0199   -0.0136   -0.0048
          15   -0.0049    0.0034    0.0075   -0.0105   -0.0078   -0.0059   -0.0021    0.0036
          16   -0.0024   -0.0007   -0.0044    0.0156   -0.0168   -0.0045    0.0039    0.0086
          17   -0.0079    0.0085   -0.0057    0.0015   -0.0020    0.0200   -0.0138    0.0041
          18   -0.0050   -0.0033   -0.0075   -0.0106    0.0076   -0.0057    0.0020    0.0040
          19   -0.0037    0.0216    0.0075    0.0176   -0.0017   -0.0015   -0.0106    0.0084
          20   -0.0029   -0.0103   -0.0031   -0.0020   -0.0056   -0.0028   -0.0005    0.0037
          21   -0.0042   -0.0037    0.0068   -0.0067    0.0079    0.0081    0.0074   -0.0044
          22   -0.0037   -0.0217   -0.0075    0.0176    0.0019   -0.0014    0.0106    0.0081
          23    0.0029   -0.0104   -0.0031    0.0022   -0.0055    0.0027   -0.0004   -0.0035
          24   -0.0042    0.0036   -0.0069   -0.0065   -0.0081    0.0081   -0.0074   -0.0042
          25   -0.0012   -0.0122   -0.0068   -0.0217   -0.0160    0.0006    0.0115   -0.0240
          26   -0.0030   -0.0018    0.0051    0.0006    0.0039    0.0099    0.0068    0.0055
          27   -0.0002    0.0042   -0.0042    0.0133    0.0059   -0.0102   -0.0137    0.0023
          28   -0.0012    0.0122    0.0068   -0.0218    0.0158    0.0006   -0.0114   -0.0234
          29    0.0030   -0.0018    0.0051   -0.0007    0.0039   -0.0098    0.0068   -0.0053
          30   -0.0002   -0.0042    0.0042    0.0134   -0.0057   -0.0102    0.0138    0.0022
          31    0.0531    0.0301   -0.0335   -0.0457   -0.0348    0.0429    0.0708    0.0439
          32   -0.1289   -0.0314    0.0967    0.0070    0.0474    0.0342    0.0014   -0.0544
          33   -0.0168   -0.0136    0.0128   -0.0074    0.0275    0.0481    0.0441   -0.0190
          34    0.0530   -0.0303    0.0336   -0.0460    0.0343    0.0426   -0.0713    0.0412
          35    0.1291   -0.0316    0.0967   -0.0075    0.0475   -0.0345    0.0017    0.0518
          36   -0.0157    0.0133   -0.0120   -0.0071   -0.0271    0.0476   -0.0443   -0.0188
          37    0.0628   -0.0034   -0.0347   -0.0266    0.0477   -0.0154   -0.0347   -0.0027
          38    0.1089    0.0150   -0.0756    0.0202    0.0971    0.0867    0.0386    0.0051
          39   -0.0086   -0.0087    0.0059   -0.0270   -0.0587   -0.0591   -0.0454   -0.0025
          40    0.0629    0.0035    0.0346   -0.0263   -0.0480   -0.0152    0.0345    0.0004
          41   -0.1090    0.0152   -0.0755   -0.0211    0.0963   -0.0860    0.0386   -0.0048
          42   -0.0095    0.0090   -0.0065   -0.0280    0.0592   -0.0595    0.0458   -0.0013
          43   -0.0219    0.0311    0.0265    0.0044   -0.0205    0.0118    0.0321   -0.0200
          44    0.0288   -0.0194   -0.0255    0.0335    0.0555   -0.0386   -0.0532    0.0228
          45   -0.0362    0.0672    0.0575    0.0546   -0.0096    0.0150    0.0513   -0.0525
          46   -0.0114   -0.0295    0.0132   -0.0556   -0.0113   -0.0025   -0.0225    0.0752
          47    0.0174    0.0450   -0.0222   -0.0223   -0.0508   -0.0248    0.0111   -0.0890
          48   -0.0235   -0.0662    0.0345   -0.0613    0.0153    0.0017   -0.0482    0.1593
          49   -0.0219   -0.0311   -0.0265    0.0042    0.0206    0.0116   -0.0321   -0.0196
          50   -0.0285   -0.0188   -0.0249   -0.0346    0.0552    0.0382   -0.0529   -0.0222
          51   -0.0366   -0.0674   -0.0577    0.0542    0.0107    0.0150   -0.0515   -0.0516
          52   -0.0113    0.0295   -0.0131   -0.0557    0.0106   -0.0023    0.0221    0.0746
          53   -0.0172    0.0446   -0.0220    0.0232   -0.0506    0.0251    0.0101    0.0849
          54   -0.0236    0.0667   -0.0347   -0.0611   -0.0166    0.0024    0.0474    0.1578
          55   -0.0015    0.0822    0.0202    0.0966    0.0545   -0.0154   -0.0405    0.0466
          56   -0.0102    0.0003    0.0227    0.0097    0.0321    0.1151    0.0791    0.0092
          57   -0.0009   -0.0420   -0.0165   -0.0446   -0.0283   -0.0015    0.0122   -0.0320
          58   -0.0189   -0.0945    0.0163   -0.0694    0.0286    0.0356    0.0453   -0.0039
          59   -0.0189   -0.0094    0.0195    0.0000    0.0033    0.0144    0.0102    0.0176
          60   -0.0562    0.0455    0.0840    0.0340    0.0268    0.0503    0.0203    0.0474
          61   -0.0016   -0.0822   -0.0203    0.0968   -0.0534   -0.0151    0.0403    0.0452
          62    0.0101   -0.0001    0.0225   -0.0096    0.0317   -0.1147    0.0799   -0.0061
          63   -0.0008    0.0420    0.0167   -0.0449    0.0281   -0.0026   -0.0114   -0.0312
          64   -0.0187    0.0946   -0.0163   -0.0689   -0.0294    0.0353   -0.0455   -0.0032
          65    0.0194   -0.0091    0.0202   -0.0002    0.0036   -0.0148    0.0106   -0.0175
          66   -0.0561   -0.0455   -0.0839    0.0341   -0.0264    0.0502   -0.0207    0.0463


   Root No.      25        26        27        28        29        30        31        32

                25 A      26 A      27 A      28 A      29 A      30 A      31 A      32 A   

                1052.3    1073.2    1074.3    1096.2    1097.2    1105.3    1130.1    1135.8
  
           1   -0.0028   -0.0131    0.0032   -0.0014   -0.0005    0.0124    0.0090   -0.0200
           2    0.0069   -0.0026   -0.0008   -0.0043   -0.0052   -0.0123   -0.0042    0.0072
           3    0.0084   -0.0085    0.0091    0.0088    0.0125   -0.0172    0.0107    0.0006
           4    0.0030   -0.0130   -0.0033   -0.0013    0.0006   -0.0124    0.0088    0.0201
           5    0.0071    0.0026   -0.0007    0.0042   -0.0052   -0.0124    0.0041    0.0072
           6   -0.0079   -0.0085   -0.0092    0.0085   -0.0126    0.0171    0.0107   -0.0005
           7   -0.0200   -0.0025   -0.0032    0.0025    0.0014    0.0244   -0.0077   -0.0185
           8    0.0021    0.0011    0.0018    0.0023   -0.0017    0.0135    0.0052   -0.0194
           9    0.0052    0.0027   -0.0033    0.0058    0.0062   -0.0121    0.0121    0.0031
          10    0.0199   -0.0025    0.0032    0.0026   -0.0015   -0.0244   -0.0078    0.0185
          11    0.0022   -0.0011    0.0018   -0.0025   -0.0016    0.0133   -0.0053   -0.0194
          12   -0.0052    0.0027    0.0033    0.0056   -0.0064    0.0122    0.0121   -0.0032
          13    0.0047    0.0051    0.0019    0.0019    0.0061   -0.0052   -0.0019    0.0027
          14   -0.0116   -0.0052    0.0118   -0.0068   -0.0066    0.0116   -0.0127    0.0051
          15   -0.0078    0.0088   -0.0053   -0.0010   -0.0057    0.0181   -0.0111    0.0031
          16   -0.0049    0.0051   -0.0018    0.0017   -0.0062    0.0052   -0.0019   -0.0027
          17   -0.0117    0.0050    0.0118    0.0067   -0.0068    0.0118    0.0128    0.0052
          18    0.0076    0.0088    0.0054   -0.0008    0.0056   -0.0180   -0.0110   -0.0031
          19    0.0080    0.0002    0.0006    0.0009    0.0033   -0.0035    0.0036   -0.0008
          20    0.0038    0.0070   -0.0136    0.0050    0.0053   -0.0124    0.0089    0.0015
          21   -0.0052   -0.0037    0.0101   -0.0086   -0.0109    0.0130   -0.0118    0.0010
          22   -0.0083    0.0002   -0.0006    0.0009   -0.0033    0.0035    0.0036    0.0008
          23    0.0038   -0.0068   -0.0135   -0.0048    0.0053   -0.0123   -0.0089    0.0014
          24    0.0054   -0.0037   -0.0103   -0.0084    0.0111   -0.0131   -0.0119   -0.0010
          25   -0.0159    0.0009    0.0047   -0.0049   -0.0073    0.0034   -0.0095    0.0072
          26    0.0042    0.0055   -0.0075    0.0065    0.0055    0.0006    0.0037   -0.0007
          27    0.0061   -0.0143    0.0118   -0.0083   -0.0052   -0.0037   -0.0083    0.0080
          28    0.0166    0.0009   -0.0047   -0.0048    0.0074   -0.0035   -0.0095   -0.0073
          29    0.0044   -0.0053   -0.0075   -0.0063    0.0056    0.0005   -0.0037   -0.0007
          30   -0.0062   -0.0143   -0.0119   -0.0083    0.0054    0.0037   -0.0083   -0.0080
          31    0.0568   -0.0126   -0.0153    0.0031    0.0111   -0.0238    0.0368   -0.0900
          32   -0.0726   -0.0610    0.0696   -0.0052    0.0524   -0.0372    0.0722   -0.0269
          33   -0.0049   -0.0399    0.0384    0.0118    0.0514   -0.0496    0.0682   -0.0546
          34   -0.0580   -0.0126    0.0151    0.0028   -0.0112    0.0238    0.0366    0.0901
          35   -0.0743    0.0609    0.0705    0.0065    0.0526   -0.0373   -0.0726   -0.0276
          36    0.0050   -0.0391   -0.0383    0.0105   -0.0511    0.0491    0.0675    0.0546
          37   -0.0837    0.0665   -0.1137    0.0387    0.0633   -0.0277    0.0772   -0.0151
          38   -0.0053    0.0191   -0.0504   -0.0769   -0.0561   -0.0330   -0.0184    0.0707
          39   -0.0267    0.0308   -0.0338    0.0732    0.0730   -0.0136    0.0753   -0.0494
          40    0.0839    0.0656    0.1140    0.0374   -0.0639    0.0277    0.0772    0.0153
          41   -0.0053   -0.0189   -0.0509    0.0752   -0.0570   -0.0329    0.0175    0.0703
          42    0.0268    0.0304    0.0335    0.0723   -0.0748    0.0135    0.0754    0.0502
          43   -0.0181    0.0603   -0.0319    0.0237    0.0104    0.0091   -0.0214    0.0263
          44    0.0135   -0.0601    0.0545   -0.0271   -0.0038   -0.0147    0.0066   -0.0122
          45   -0.0403    0.1238   -0.0479    0.0469    0.0247    0.0009   -0.0484    0.0748
          46    0.0220   -0.0123   -0.0232    0.0042   -0.0092    0.0634   -0.0164   -0.0154
          47   -0.0631   -0.0107    0.0399   -0.0266   -0.0246    0.0065   -0.0174    0.0081
          48    0.0631   -0.0051   -0.0585    0.0222   -0.0029    0.0951   -0.0220   -0.0167
          49    0.0187    0.0600    0.0323    0.0235   -0.0109   -0.0090   -0.0213   -0.0264
          50    0.0140    0.0587    0.0545    0.0267   -0.0041   -0.0146   -0.0062   -0.0116
          51    0.0420    0.1239    0.0493    0.0466   -0.0256   -0.0007   -0.0482   -0.0751
          52   -0.0242   -0.0125    0.0232    0.0047    0.0090   -0.0632   -0.0165    0.0154
          53   -0.0650    0.0104    0.0396    0.0260   -0.0252    0.0076    0.0177    0.0081
          54   -0.0682   -0.0054    0.0590    0.0229    0.0021   -0.0946   -0.0219    0.0168
          55    0.0369   -0.0187    0.0079   -0.0015    0.0060   -0.0065   -0.0016    0.0003
          56    0.0563   -0.0385    0.0154    0.1155    0.0887    0.0979   -0.0744    0.0563
          57   -0.0194   -0.0049    0.0106   -0.0100   -0.0120    0.0024   -0.0140    0.0126
          58   -0.0261    0.0304   -0.0140   -0.0570   -0.0569   -0.0013    0.0046   -0.0339
          59    0.0064    0.0332   -0.0313   -0.0282   -0.0246   -0.0306    0.0248   -0.0205
          60    0.0151    0.0745   -0.0428   -0.1045   -0.0940   -0.0505    0.0412   -0.0620
          61   -0.0383   -0.0185   -0.0078   -0.0015   -0.0061    0.0066   -0.0015   -0.0004
          62    0.0561    0.0384    0.0160   -0.1139    0.0908    0.0973    0.0745    0.0567
          63    0.0208   -0.0046   -0.0106   -0.0107    0.0130   -0.0017   -0.0135   -0.0122
          64    0.0263    0.0303    0.0141   -0.0559    0.0581    0.0009    0.0043    0.0339
          65    0.0069   -0.0336   -0.0319    0.0286   -0.0260   -0.0308   -0.0251   -0.0211
          66   -0.0164    0.0739    0.0433   -0.1024    0.0958    0.0498    0.0408    0.0620


   Root No.      33        34        35        36        37        38        39        40

                33 A      34 A      35 A      36 A      37 A      38 A      39 A      40 A   

                1169.0    1190.6    1214.7    1228.3    1231.1    1242.6    1248.6    1345.1
  
           1    0.0010    0.0021   -0.0366    0.0217    0.0060    0.0229   -0.0121   -0.0149
           2    0.0341    0.0055    0.0176   -0.0109    0.0146   -0.0060   -0.0503    0.0046
           3   -0.0125   -0.0162   -0.0038   -0.0213    0.0103   -0.0092   -0.0263   -0.0205
           4   -0.0011    0.0021   -0.0366   -0.0218    0.0057   -0.0229   -0.0122   -0.0148
           5    0.0340   -0.0054   -0.0176   -0.0109   -0.0148   -0.0062    0.0504   -0.0045
           6    0.0127   -0.0163   -0.0039    0.0211    0.0104    0.0092   -0.0258   -0.0205
           7    0.0071   -0.0323    0.0030   -0.0167   -0.0007   -0.0282    0.0006    0.0162
           8   -0.0304   -0.0213   -0.0038   -0.0119    0.0187   -0.0001    0.0402   -0.0216
           9   -0.0228   -0.0141   -0.0124    0.0128   -0.0061    0.0019   -0.0087    0.0269
          10   -0.0072   -0.0323    0.0030    0.0167   -0.0005    0.0282    0.0008    0.0161
          11   -0.0306    0.0215    0.0039   -0.0115   -0.0188    0.0002   -0.0401    0.0214
          12    0.0225   -0.0140   -0.0123   -0.0129   -0.0063   -0.0019   -0.0091    0.0271
          13   -0.0020    0.0047    0.0115   -0.0060    0.0007    0.0032    0.0132    0.0233
          14    0.0083    0.0127    0.0061    0.0046   -0.0057   -0.0030    0.0101   -0.0266
          15   -0.0026    0.0111   -0.0091   -0.0028    0.0066    0.0195    0.0224    0.0439
          16    0.0020    0.0047    0.0115    0.0060    0.0007   -0.0033    0.0132    0.0233
          17    0.0083   -0.0128   -0.0060    0.0045    0.0057   -0.0029   -0.0103    0.0262
          18    0.0026    0.0110   -0.0092    0.0028    0.0066   -0.0196    0.0222    0.0442
          19   -0.0012    0.0107    0.0023    0.0063   -0.0044   -0.0023    0.0030   -0.0086
          20   -0.0057   -0.0110   -0.0070    0.0018   -0.0027   -0.0012   -0.0150    0.0109
          21    0.0057   -0.0001    0.0056    0.0088   -0.0116   -0.0159    0.0077   -0.0125
          22    0.0013    0.0107    0.0023   -0.0062   -0.0044    0.0023    0.0030   -0.0086
          23   -0.0056    0.0110    0.0069    0.0018    0.0028   -0.0014    0.0150   -0.0108
          24   -0.0057    0.0000    0.0057   -0.0087   -0.0116    0.0159    0.0079   -0.0126
          25    0.0090    0.0041    0.0031   -0.0017    0.0007   -0.0004   -0.0038   -0.0086
          26   -0.0103   -0.0107   -0.0071    0.0117   -0.0139   -0.0111   -0.0017    0.0113
          27    0.0173    0.0157    0.0097   -0.0016    0.0019    0.0026   -0.0069   -0.0185
          28   -0.0090    0.0041    0.0031    0.0017    0.0007    0.0004   -0.0037   -0.0087
          29   -0.0101    0.0106    0.0070    0.0116    0.0139   -0.0111    0.0018   -0.0112
          30   -0.0174    0.0158    0.0097    0.0017    0.0020   -0.0026   -0.0069   -0.0186
          31    0.1328   -0.0192    0.2026    0.0417   -0.0121   -0.0387   -0.0195    0.0159
          32   -0.0399    0.0320   -0.0321    0.0842   -0.0644    0.0316    0.0945    0.0078
          33    0.0137   -0.0133    0.0958    0.0427   -0.0436   -0.0194    0.0492   -0.0010
          34   -0.1328   -0.0189    0.2027   -0.0415   -0.0124    0.0388   -0.0192    0.0158
          35   -0.0397   -0.0321    0.0312    0.0839    0.0656    0.0315   -0.0946   -0.0078
          36   -0.0140   -0.0134    0.0961   -0.0415   -0.0434    0.0197    0.0485   -0.0012
          37    0.0811    0.1494   -0.0064   -0.0052   -0.0092    0.0489   -0.0347   -0.0087
          38    0.0102    0.0580   -0.0409    0.0817   -0.0670    0.0321   -0.0509    0.0531
          39   -0.0064    0.0414    0.0042   -0.0371    0.0403    0.0247    0.0237   -0.0309
          40   -0.0810    0.1494   -0.0064    0.0056   -0.0093   -0.0488   -0.0349   -0.0086
          41    0.0102   -0.0585    0.0408    0.0805    0.0675    0.0318    0.0509   -0.0529
          42    0.0065    0.0409    0.0045    0.0374    0.0411   -0.0247    0.0239   -0.0313
          43   -0.0208   -0.0169    0.0022    0.0072   -0.0248   -0.0366   -0.0050   -0.0380
          44    0.0320    0.0424    0.0425   -0.0143    0.0184    0.0385    0.0421    0.0361
          45   -0.0337   -0.0146    0.0501   -0.0014   -0.0469   -0.0619    0.0202   -0.0712
          46    0.0090    0.0182   -0.0131    0.0379   -0.0196    0.0069    0.0259   -0.0373
          47    0.0299    0.0366    0.0201   -0.0150    0.0221    0.0411    0.0373    0.0324
          48   -0.0122    0.0030   -0.0452    0.0620   -0.0427   -0.0201    0.0096   -0.0805
          49    0.0209   -0.0169    0.0022   -0.0069   -0.0248    0.0368   -0.0049   -0.0380
          50    0.0317   -0.0423   -0.0430   -0.0142   -0.0181    0.0382   -0.0421   -0.0354
          51    0.0340   -0.0150    0.0497    0.0018   -0.0469    0.0623    0.0202   -0.0716
          52   -0.0090    0.0183   -0.0131   -0.0377   -0.0200   -0.0069    0.0258   -0.0374
          53    0.0297   -0.0366   -0.0197   -0.0143   -0.0217    0.0411   -0.0372   -0.0317
          54    0.0125    0.0028   -0.0453   -0.0617   -0.0434    0.0205    0.0094   -0.0808
          55    0.0116    0.0088    0.0084   -0.0033    0.0015   -0.0001   -0.0023   -0.0081
          56    0.0351    0.0720    0.0043   -0.0594    0.0686    0.0901    0.0302    0.0394
          57    0.0176    0.0156    0.0080   -0.0011    0.0018    0.0032   -0.0071   -0.0199
          58   -0.0070   -0.0126    0.0054   -0.0343    0.0363    0.0176    0.0231   -0.0100
          59   -0.0191   -0.0118   -0.0075   -0.0221    0.0275    0.0217   -0.0028    0.0076
          60   -0.0337    0.0118    0.0063   -0.0593    0.0781    0.0567    0.0438   -0.0275
          61   -0.0115    0.0088    0.0084    0.0033    0.0016    0.0000   -0.0023   -0.0080
          62    0.0351   -0.0720   -0.0043   -0.0587   -0.0688    0.0904   -0.0297   -0.0391
          63   -0.0174    0.0151    0.0080    0.0006    0.0012   -0.0024   -0.0073   -0.0203
          64    0.0069   -0.0127    0.0054    0.0338    0.0365   -0.0177    0.0231   -0.0101
          65   -0.0193    0.0118    0.0074   -0.0223   -0.0283    0.0223    0.0025   -0.0073
          66    0.0336    0.0118    0.0064    0.0583    0.0782   -0.0570    0.0435   -0.0276


   Root No.      41        42        43        44        45        46        47        48

                41 A      42 A      43 A      44 A      45 A      46 A      47 A      48 A   

                1353.7    1370.1    1377.6    1406.4    1408.8    1432.0    1819.8    1820.9
  
           1   -0.0166   -0.0508    0.0008    0.0055   -0.0229   -0.0088   -0.0019    0.0013
           2   -0.0175   -0.0132    0.0093    0.0084   -0.0123   -0.0117    0.0027   -0.0026
           3   -0.0044   -0.0371    0.0016    0.0063   -0.0185    0.0118   -0.0030    0.0025
           4    0.0166    0.0508    0.0008    0.0057    0.0229    0.0087    0.0018    0.0014
           5   -0.0175   -0.0135   -0.0093   -0.0086   -0.0124   -0.0116    0.0025    0.0027
           6    0.0043    0.0370    0.0015    0.0063    0.0183   -0.0120    0.0028    0.0027
           7   -0.0104    0.0020   -0.0158   -0.0068   -0.0081   -0.0615    0.0029   -0.0046
           8    0.0116    0.0103    0.0112    0.0057    0.0071    0.0300    0.0027   -0.0038
           9   -0.0005    0.0110   -0.0267   -0.0111   -0.0010   -0.0676    0.0083   -0.0093
          10    0.0104   -0.0021   -0.0156   -0.0066    0.0082    0.0616   -0.0026   -0.0048
          11    0.0116    0.0104   -0.0109   -0.0055    0.0071    0.0295    0.0025    0.0041
          12    0.0006   -0.0109   -0.0267   -0.0110    0.0011    0.0681   -0.0077   -0.0098
          13   -0.0102    0.0205    0.0092   -0.0039    0.0098    0.0014   -0.0007    0.0006
          14    0.0192   -0.0238   -0.0026   -0.0342    0.0336   -0.0041   -0.0104    0.0098
          15   -0.0282    0.0326    0.0188   -0.0029    0.0128   -0.0001   -0.0010    0.0009
          16    0.0102   -0.0205    0.0092   -0.0040   -0.0098   -0.0013    0.0007    0.0007
          17    0.0189   -0.0235    0.0025    0.0345    0.0335   -0.0042   -0.0098   -0.0105
          18    0.0283   -0.0328    0.0188   -0.0027   -0.0125    0.0000    0.0008    0.0009
          19   -0.0042    0.0021    0.0163    0.0084   -0.0009    0.0235   -0.0381    0.0362
          20   -0.0011   -0.0008   -0.0131   -0.0013   -0.0059   -0.0225   -0.0906    0.0847
          21   -0.0118    0.0045    0.0296    0.0156   -0.0030    0.0443   -0.0746    0.0704
          22    0.0042   -0.0021    0.0162    0.0083    0.0009   -0.0236    0.0358    0.0385
          23   -0.0012   -0.0008    0.0128    0.0011   -0.0060   -0.0222   -0.0858   -0.0907
          24    0.0117   -0.0045    0.0297    0.0156    0.0029   -0.0447    0.0694    0.0741
          25    0.0074   -0.0075   -0.0048   -0.0040    0.0022   -0.0020    0.0295   -0.0276
          26   -0.0235    0.0120    0.0234    0.0172   -0.0100    0.0232    0.1074   -0.1003
          27    0.0177   -0.0146   -0.0101   -0.0089    0.0059   -0.0027    0.0554   -0.0517
          28   -0.0074    0.0075   -0.0048   -0.0040   -0.0022    0.0020   -0.0278   -0.0293
          29   -0.0233    0.0119   -0.0233   -0.0172   -0.0098    0.0233    0.1015    0.1072
          30   -0.0179    0.0147   -0.0103   -0.0091   -0.0060    0.0029   -0.0513   -0.0541
          31    0.0329    0.0815    0.0066   -0.0157    0.0414   -0.0181    0.0012   -0.0004
          32    0.0229    0.0068   -0.0296   -0.0250    0.0190   -0.0331    0.0017   -0.0015
          33    0.0441    0.0431   -0.0175   -0.0242    0.0318   -0.0040   -0.0033    0.0034
          34   -0.0329   -0.0815    0.0066   -0.0159   -0.0413    0.0182   -0.0012   -0.0004
          35    0.0232    0.0071    0.0297    0.0253    0.0191   -0.0332    0.0016    0.0016
          36   -0.0439   -0.0430   -0.0172   -0.0241   -0.0315    0.0038    0.0031    0.0036
          37    0.0062   -0.0245    0.0107    0.0020    0.0036    0.0931    0.0067   -0.0061
          38   -0.0043    0.0141   -0.0298   -0.0123    0.0031   -0.0396   -0.0126    0.0105
          39    0.0183   -0.0047    0.0123    0.0049    0.0079    0.0589    0.0165   -0.0170
          40   -0.0062    0.0245    0.0105    0.0018   -0.0036   -0.0932   -0.0063   -0.0065
          41   -0.0041    0.0141    0.0297    0.0123    0.0031   -0.0393   -0.0117   -0.0111
          42   -0.0183    0.0048    0.0124    0.0049   -0.0079   -0.0593   -0.0155   -0.0181
          43    0.0085   -0.0448    0.0185   -0.0617    0.0630    0.0010    0.0059   -0.0055
          44    0.0377    0.0870   -0.0575    0.0992   -0.0990    0.0048   -0.0125    0.0116
          45    0.1037    0.0234   -0.0767    0.0694   -0.0755    0.0210    0.0122   -0.0114
          46    0.0733    0.0325   -0.0778    0.1027   -0.1134    0.0086    0.0057   -0.0056
          47    0.0311    0.0764   -0.0553    0.0962   -0.0978    0.0014   -0.0131    0.0122
          48    0.0548   -0.0484   -0.0291   -0.0054   -0.0025    0.0049    0.0129   -0.0120
          49   -0.0085    0.0448    0.0184   -0.0620   -0.0626   -0.0009   -0.0056   -0.0058
          50    0.0386    0.0872    0.0582   -0.1003   -0.0990    0.0051   -0.0117   -0.0123
          51   -0.1033   -0.0226   -0.0763    0.0689    0.0742   -0.0210   -0.0116   -0.0122
          52   -0.0733   -0.0325   -0.0779    0.1033    0.1127   -0.0087   -0.0053   -0.0059
          53    0.0316    0.0760    0.0555   -0.0966   -0.0971    0.0015   -0.0122   -0.0128
          54   -0.0545    0.0491   -0.0287   -0.0062    0.0017   -0.0048   -0.0122   -0.0129
          55    0.0091   -0.0072   -0.0062   -0.0057    0.0035   -0.0035    0.0364   -0.0341
          56    0.0276    0.0065   -0.0512   -0.0407    0.0262   -0.0652   -0.0304    0.0281
          57    0.0181   -0.0152   -0.0092   -0.0090    0.0067   -0.0006    0.0771   -0.0719
          58    0.0233   -0.0056   -0.0203   -0.0126    0.0085   -0.0124    0.0209   -0.0198
          59    0.0199   -0.0058   -0.0370   -0.0144    0.0007   -0.0453   -0.0733    0.0681
          60    0.0523   -0.0115   -0.0363   -0.0237    0.0198   -0.0154    0.0472   -0.0443
          61   -0.0090    0.0072   -0.0063   -0.0058   -0.0035    0.0036   -0.0343   -0.0363
          62    0.0277    0.0063    0.0511    0.0408    0.0260   -0.0656   -0.0280   -0.0293
          63   -0.0179    0.0153   -0.0087   -0.0087   -0.0064    0.0000   -0.0727   -0.0768
          64   -0.0233    0.0056   -0.0203   -0.0126   -0.0085    0.0124   -0.0196   -0.0210
          65    0.0203   -0.0059    0.0372    0.0146    0.0008   -0.0456   -0.0686   -0.0720
          66   -0.0521    0.0115   -0.0360   -0.0237   -0.0197    0.0152   -0.0449   -0.0478


   Root No.      49        50        51        52        53        54        55        56

                49 A      50 A      51 A      52 A      53 A      54 A      55 A      56 A   

                2971.9    2972.9    2994.2    2999.5    3002.7    3007.7    3049.8    3050.1
  
           1   -0.0022    0.0015   -0.0079    0.0107    0.0050    0.0036    0.0000   -0.0010
           2   -0.0028    0.0015   -0.0090    0.0113    0.0052    0.0033   -0.0001   -0.0010
           3    0.0049   -0.0025    0.0159   -0.0201   -0.0090   -0.0073    0.0006    0.0012
           4    0.0023    0.0013    0.0079    0.0107   -0.0048    0.0036   -0.0005   -0.0009
           5   -0.0029   -0.0013   -0.0090   -0.0111    0.0050   -0.0033    0.0004    0.0009
           6   -0.0050   -0.0022   -0.0161   -0.0203    0.0088   -0.0074    0.0001    0.0013
           7    0.0002   -0.0001    0.0039   -0.0040    0.0098    0.0115    0.0000   -0.0001
           8   -0.0003    0.0001   -0.0048    0.0046   -0.0109   -0.0118   -0.0002    0.0003
           9   -0.0005    0.0001   -0.0080    0.0067   -0.0180   -0.0209   -0.0002    0.0005
          10   -0.0002   -0.0001   -0.0039   -0.0039   -0.0097    0.0116   -0.0001   -0.0001
          11   -0.0003   -0.0001   -0.0049   -0.0045   -0.0109    0.0122   -0.0003   -0.0002
          12    0.0005    0.0000    0.0080    0.0064    0.0178   -0.0211    0.0004    0.0003
          13    0.0218   -0.0256   -0.0054    0.0027    0.0021    0.0008    0.0039   -0.0064
          14   -0.0014    0.0015    0.0004   -0.0016   -0.0002   -0.0007    0.0142   -0.0229
          15   -0.0112    0.0132    0.0030   -0.0021   -0.0013   -0.0007    0.0047   -0.0076
          16   -0.0231   -0.0242    0.0054    0.0027   -0.0021    0.0008   -0.0066   -0.0038
          17   -0.0016   -0.0015    0.0004    0.0016   -0.0002    0.0007    0.0239    0.0136
          18    0.0119    0.0124   -0.0030   -0.0021    0.0012   -0.0007   -0.0077   -0.0044
          19    0.0001   -0.0001   -0.0001    0.0000   -0.0002    0.0001    0.0000    0.0001
          20    0.0000    0.0000    0.0002   -0.0002    0.0003    0.0004    0.0001   -0.0001
          21   -0.0001    0.0001   -0.0001    0.0001   -0.0002   -0.0001   -0.0001    0.0002
          22   -0.0001   -0.0001    0.0001    0.0000    0.0002    0.0001    0.0001    0.0000
          23    0.0000    0.0000    0.0002    0.0002    0.0003   -0.0004    0.0001    0.0001
          24    0.0001    0.0001    0.0001    0.0001    0.0002   -0.0001    0.0002    0.0001
          25    0.0000   -0.0001    0.0000    0.0000    0.0001    0.0001   -0.0003    0.0005
          26    0.0000    0.0000    0.0001   -0.0001    0.0001    0.0000    0.0002   -0.0004
          27    0.0000    0.0000    0.0000    0.0001    0.0000    0.0000   -0.0006    0.0010
          28    0.0000    0.0000    0.0000    0.0000   -0.0001    0.0001    0.0005    0.0003
          29    0.0000    0.0000    0.0001    0.0001    0.0001    0.0000    0.0004    0.0002
          30    0.0000    0.0000    0.0000    0.0001    0.0000    0.0000    0.0010    0.0006
          31    0.0317   -0.0174    0.0991   -0.1277   -0.0562   -0.0452    0.0019    0.0092
          32    0.0325   -0.0185    0.1063   -0.1342   -0.0621   -0.0494    0.0030    0.0099
          33   -0.0564    0.0308   -0.1922    0.2410    0.1091    0.0853   -0.0041   -0.0195
          34   -0.0326   -0.0152   -0.0997   -0.1277    0.0544   -0.0455    0.0030    0.0089
          35    0.0330    0.0160    0.1054    0.1323   -0.0593    0.0490   -0.0022   -0.0099
          36    0.0583    0.0271    0.1944    0.2422   -0.1061    0.0862   -0.0061   -0.0190
          37   -0.0038    0.0008   -0.0540    0.0468   -0.1207   -0.1409   -0.0009    0.0021
          38    0.0036   -0.0006    0.0564   -0.0477    0.1296    0.1485    0.0008   -0.0022
          39    0.0068   -0.0014    0.0969   -0.0825    0.2169    0.2481    0.0016   -0.0037
          40    0.0038    0.0005    0.0539    0.0451    0.1198   -0.1425    0.0019    0.0014
          41    0.0037    0.0004    0.0570    0.0465    0.1304   -0.1523    0.0019    0.0016
          42   -0.0068   -0.0010   -0.0961   -0.0790   -0.2143    0.2498   -0.0033   -0.0025
          43   -0.1474    0.1754    0.0389   -0.0071   -0.0132    0.0018   -0.1504    0.2432
          44   -0.0968    0.1151    0.0254   -0.0059   -0.0090    0.0004   -0.0844    0.1365
          45    0.0269   -0.0317   -0.0054   -0.0012    0.0014   -0.0012    0.0336   -0.0541
          46   -0.1130    0.1329    0.0289   -0.0243   -0.0135   -0.0101    0.1034   -0.1662
          47    0.1142   -0.1342   -0.0291    0.0248    0.0134    0.0100   -0.0858    0.1377
          48    0.1092   -0.1281   -0.0278    0.0249    0.0129    0.0102   -0.0912    0.1463
          49    0.1568    0.1661   -0.0388   -0.0071    0.0132    0.0018    0.2523    0.1446
          50   -0.1027   -0.1087    0.0253    0.0059   -0.0089   -0.0004   -0.1411   -0.0809
          51   -0.0295   -0.0310    0.0056   -0.0012   -0.0015   -0.0012   -0.0575   -0.0328
          52    0.1197    0.1254   -0.0289   -0.0243    0.0131   -0.0103   -0.1734   -0.0987
          53    0.1221    0.1277   -0.0293   -0.0250    0.0130   -0.0103   -0.1452   -0.0825
          54   -0.1147   -0.1199    0.0275    0.0247   -0.0124    0.0103    0.1516    0.0862
          55    0.0002   -0.0003   -0.0003    0.0004    0.0020    0.0019    0.0033   -0.0053
          56    0.0000    0.0000    0.0002   -0.0002    0.0000    0.0000    0.0007   -0.0011
          57   -0.0009    0.0008   -0.0004    0.0007    0.0033    0.0033    0.0065   -0.0107
          58    0.0002   -0.0002   -0.0001    0.0001    0.0005    0.0009    0.0003   -0.0006
          59    0.0005   -0.0004   -0.0005    0.0000   -0.0058   -0.0064   -0.0037    0.0064
          60   -0.0003    0.0002   -0.0003    0.0004    0.0008    0.0010    0.0009   -0.0016
          61   -0.0002   -0.0003    0.0003    0.0004   -0.0019    0.0019   -0.0055   -0.0032
          62    0.0000    0.0000    0.0002    0.0002    0.0000    0.0000    0.0012    0.0007
          63    0.0009    0.0007    0.0004    0.0008   -0.0032    0.0034   -0.0110   -0.0063
          64   -0.0002   -0.0002    0.0001    0.0001   -0.0005    0.0009   -0.0006   -0.0004
          65    0.0005    0.0003   -0.0005    0.0000   -0.0057    0.0064   -0.0065   -0.0039
          66    0.0003    0.0002    0.0003    0.0004   -0.0009    0.0011   -0.0017   -0.0010


   Root No.      57        58        59        60

                57 A      58 A      59 A      60 A   

                3114.7    3114.8    3134.0    3134.2
  
           1    0.0000    0.0000   -0.0001   -0.0001
           2    0.0000    0.0000    0.0004    0.0004
           3    0.0002   -0.0001   -0.0006   -0.0005
           4    0.0000    0.0000   -0.0001    0.0001
           5    0.0000    0.0000   -0.0004    0.0004
           6    0.0001    0.0001   -0.0005    0.0005
           7    0.0001   -0.0001    0.0000    0.0000
           8    0.0000    0.0000   -0.0004   -0.0004
           9    0.0001    0.0000   -0.0007   -0.0007
          10    0.0001    0.0002    0.0000    0.0000
          11    0.0000    0.0000    0.0004   -0.0005
          12    0.0001    0.0001   -0.0007    0.0007
          13   -0.0001    0.0001    0.0002    0.0002
          14   -0.0003    0.0002    0.0010    0.0010
          15   -0.0002    0.0001    0.0003    0.0003
          16   -0.0001   -0.0001    0.0002   -0.0002
          17    0.0001    0.0003   -0.0010    0.0010
          18   -0.0001   -0.0002    0.0003   -0.0003
          19    0.0024   -0.0014    0.0014    0.0014
          20   -0.0196    0.0112   -0.0233   -0.0222
          21    0.0060   -0.0034    0.0042    0.0039
          22    0.0014    0.0024    0.0013   -0.0014
          23    0.0112    0.0197    0.0221   -0.0232
          24    0.0035    0.0062    0.0042   -0.0044
          25   -0.0123    0.0070    0.0082    0.0078
          26   -0.0004    0.0002    0.0026    0.0025
          27   -0.0250    0.0142    0.0165    0.0157
          28   -0.0070   -0.0123    0.0078   -0.0082
          29    0.0003    0.0006   -0.0026    0.0028
          30   -0.0142   -0.0250    0.0157   -0.0166
          31    0.0003   -0.0001   -0.0013   -0.0011
          32    0.0004   -0.0002   -0.0014   -0.0011
          33   -0.0005    0.0001    0.0024    0.0021
          34    0.0002    0.0003   -0.0012    0.0012
          35   -0.0003   -0.0003    0.0013   -0.0012
[...]
 FREQ.      1248.58        C  1 --  C  2           +9.7% ( 53.3%)     0.0%
 T-DIPOLE    0.0613        C  1 --  C  3           +8.9% ( 51.1%)    94.6%
 TRAVEL      0.0766        C  2 --  C  4           +8.9% ( 51.1%)    94.5%
 RED. MASS   1.3405        C  1 --  H 11           +7.6% ( 47.1%)     0.2%
 EFF. MASS   9.2128

 VIBRATION   40   40A       ATOM PAIR        ENERGY CONTRIBUTION    RADIAL
 FREQ.      1345.12        C  6 --  C 10           +7.4% ( 43.3%)    73.7%
 T-DIPOLE    0.0765        C  5 --  C  9           +7.4% ( 43.3%)    73.7%
 TRAVEL      0.0744        C  1 --  C  5           +7.0% ( 42.3%)    60.9%
 RED. MASS   1.1798        C  2 --  C  6           +7.0% ( 42.3%)    60.8%
 EFF. MASS   9.0593

 VIBRATION   41   41A       ATOM PAIR        ENERGY CONTRIBUTION    RADIAL
 FREQ.      1353.70        C  5 --  C  9           +9.4% ( 42.7%)    90.1%
 T-DIPOLE    0.0648        C  6 --  C 10           +9.3% ( 42.6%)    90.1%
 TRAVEL      0.0856        C  5 --  H 15           +7.4% ( 37.9%)     0.3%
 RED. MASS   0.5575        C  6 --  H 17           +7.4% ( 37.9%)     0.3%
 EFF. MASS   6.7978

 VIBRATION   42   42A       ATOM PAIR        ENERGY CONTRIBUTION    RADIAL
 FREQ.      1370.07        C  1 --  C  2          +13.6% ( 60.0%)    65.3%
 T-DIPOLE    0.0744        C  2 --  C  6           +9.8% ( 50.8%)    76.9%
 TRAVEL      0.0744        C  1 --  C  5           +9.7% ( 50.7%)    76.9%
 RED. MASS   1.5014        C  2 --  H 12           +7.5% ( 44.5%)     0.1%
 EFF. MASS   8.8988

 VIBRATION   43   43A       ATOM PAIR        ENERGY CONTRIBUTION    RADIAL
 FREQ.      1377.63        C  3 --  C  7          +10.4% ( 45.9%)    98.4%
 T-DIPOLE    0.0497        C  4 --  C  8          +10.4% ( 45.8%)    98.5%
 TRAVEL      0.0805        C  7 --  C  9           +6.0% ( 34.9%)     0.2%
 RED. MASS   0.6282        C  8 --  C 10           +6.0% ( 34.8%)     0.2%
 EFF. MASS   7.5470

 VIBRATION   44   44A       ATOM PAIR        ENERGY CONTRIBUTION    RADIAL
 FREQ.      1406.42        C  6 --  H 18          +11.4% ( 41.8%)     5.5%
 T-DIPOLE    0.0075        C  5 --  H 16          +11.2% ( 41.6%)     5.5%
 TRAVEL      0.0975        C  6 --  H 17          +10.6% ( 40.4%)     6.9%
 RED. MASS   0.3870        C  5 --  H 15          +10.5% ( 40.2%)     6.9%
 EFF. MASS   5.0410

 VIBRATION   45   45A       ATOM PAIR        ENERGY CONTRIBUTION    RADIAL
 FREQ.      1408.79        C  5 --  H 16          +10.3% ( 42.1%)     5.6%
 T-DIPOLE    0.0687        C  6 --  H 18          +10.2% ( 41.8%)     5.6%
 TRAVEL      0.0945        C  5 --  H 15           +9.1% ( 39.6%)     8.0%
 RED. MASS   0.4880        C  6 --  H 17           +9.0% ( 39.3%)     8.0%
 EFF. MASS   5.3598

 VIBRATION   46   46A       ATOM PAIR        ENERGY CONTRIBUTION    RADIAL
 FREQ.      1431.98        C  3 --  C  4          +15.7% ( 68.3%)    46.0%
 T-DIPOLE    0.1440        C  4 --  C  8          +12.5% ( 60.9%)    95.1%
 TRAVEL      0.0667        C  3 --  C  7          +12.4% ( 60.7%)    95.1%
 RED. MASS   2.5172        C  4 --  H 14           +8.4% ( 50.0%)     0.5%
 EFF. MASS  10.5773

 VIBRATION   47   47A       ATOM PAIR        ENERGY CONTRIBUTION    RADIAL
 FREQ.      1819.75        C  7 --  C  9          +24.3% ( 73.0%)   100.0%
 T-DIPOLE    0.1348        C  8 --  C 10          +21.5% ( 68.6%)   100.0%
 TRAVEL      0.0558        C  5 --  C  9           +7.5% ( 40.4%)    26.1%
 RED. MASS   2.7113        C  3 --  C  7           +7.3% ( 40.0%)    25.0%
 EFF. MASS  11.8812

 VIBRATION   48   48A       ATOM PAIR        ENERGY CONTRIBUTION    RADIAL
 FREQ.      1820.93        C  8 --  C 10          +24.3% ( 72.9%)   100.0%
 T-DIPOLE    0.1132        C  7 --  C  9          +21.5% ( 68.5%)   100.0%
 TRAVEL      0.0558        C  6 --  C 10           +7.4% ( 40.3%)    26.2%
 RED. MASS   2.7038        C  4 --  C  8           +7.4% ( 40.1%)    25.9%
 EFF. MASS  11.8807

 VIBRATION   49   49A       ATOM PAIR        ENERGY CONTRIBUTION    RADIAL
 FREQ.      2971.86        C  6 --  H 18          +25.9% ( 52.9%)    97.1%
 T-DIPOLE    0.0440        C  5 --  H 16          +23.1% ( 49.9%)    97.1%
 TRAVEL      0.1213        C  6 --  H 17          +22.3% ( 49.1%)    96.1%
 RED. MASS   0.2295        C  5 --  H 15          +19.8% ( 46.2%)    96.1%
 EFF. MASS   1.5424

 VIBRATION   50   50A       ATOM PAIR        ENERGY CONTRIBUTION    RADIAL
 FREQ.      2972.89        C  5 --  H 16          +27.1% ( 54.0%)    97.0%
 T-DIPOLE    0.0455        C  6 --  H 18          +24.2% ( 51.0%)    97.0%
 TRAVEL      0.1214        C  5 --  H 15          +23.7% ( 50.6%)    96.2%
 RED. MASS   0.2534        C  6 --  H 17          +21.3% ( 47.9%)    96.2%
 EFF. MASS   1.5395

 VIBRATION   51   51A       ATOM PAIR        ENERGY CONTRIBUTION    RADIAL
 FREQ.      2994.18        C  2 --  H 12          +35.7% ( 61.3%)   100.0%
 T-DIPOLE    0.1336        C  1 --  H 11          +35.2% ( 60.8%)   100.0%
 TRAVEL      0.1244        C  3 --  H 13           +9.4% ( 31.5%)   100.0%
 RED. MASS   0.2761        C  4 --  H 14           +9.4% ( 31.4%)   100.0%
 EFF. MASS   1.4551

 VIBRATION   52   52A       ATOM PAIR        ENERGY CONTRIBUTION    RADIAL
 FREQ.      2999.53        C  2 --  H 12          +42.0% ( 66.2%)   100.0%
 T-DIPOLE    0.1055        C  1 --  H 11          +41.9% ( 66.2%)   100.0%
 TRAVEL      0.1243        C  3 --  H 13           +5.2% ( 23.2%)   100.0%
 RED. MASS   0.3637        C  4 --  H 14           +4.8% ( 22.3%)   100.0%
 EFF. MASS   1.4557

 VIBRATION   53   53A       ATOM PAIR        ENERGY CONTRIBUTION    RADIAL
 FREQ.      3002.72        C  3 --  H 13          +38.6% ( 63.6%)   100.0%
 T-DIPOLE    0.0730        C  4 --  H 14          +38.0% ( 63.1%)   100.0%
 TRAVEL      0.1239        C  1 --  H 11           +9.3% ( 31.2%)   100.0%
 RED. MASS   0.3160        C  2 --  H 12           +8.7% ( 30.2%)   100.0%
 EFF. MASS   1.4640

 VIBRATION   54   54A       ATOM PAIR        ENERGY CONTRIBUTION    RADIAL
 FREQ.      3007.74        C  4 --  H 14          +43.4% ( 67.2%)   100.0%
 T-DIPOLE    0.2380        C  3 --  H 13          +42.4% ( 66.5%)   100.0%
 TRAVEL      0.1249        C  2 --  H 12           +4.8% ( 22.4%)   100.0%
 RED. MASS   0.3780        C  1 --  H 11           +4.8% ( 22.3%)   100.0%
 EFF. MASS   1.4373

 VIBRATION   55   55A       ATOM PAIR        ENERGY CONTRIBUTION    RADIAL
 FREQ.      3049.85        C  6 --  H 17          +39.4% ( 61.9%)    98.0%
 T-DIPOLE    0.1140        C  6 --  H 18          +33.3% ( 56.9%)    96.9%
 TRAVEL      0.1313        C  5 --  H 15          +14.0% ( 36.9%)    98.0%
 RED. MASS   0.2976        C  5 --  H 16          +11.8% ( 33.9%)    96.9%
 EFF. MASS   1.2834

 VIBRATION   56   56A       ATOM PAIR        ENERGY CONTRIBUTION    RADIAL
 FREQ.      3050.14        C  5 --  H 15          +39.4% ( 62.0%)    98.0%
 T-DIPOLE    0.0368        C  5 --  H 16          +32.9% ( 56.6%)    96.9%
 TRAVEL      0.1312        C  6 --  H 17          +13.9% ( 36.8%)    98.0%
 RED. MASS   0.2953        C  6 --  H 18          +11.6% ( 33.6%)    96.9%
 EFF. MASS   1.2843

 VIBRATION   57   57A       ATOM PAIR        ENERGY CONTRIBUTION    RADIAL
 FREQ.      3114.71        C  9 --  H 19          +46.4% ( 69.2%)   100.0%
 T-DIPOLE    0.3544        C  7 --  H 20          +27.2% ( 53.0%)   100.0%
 TRAVEL      0.1215        C 10 --  H 21          +14.9% ( 39.2%)   100.0%
 RED. MASS   0.3135        C  8 --  H 22           +8.8% ( 30.2%)    99.9%
 EFF. MASS   1.4658

 VIBRATION   58   58A       ATOM PAIR        ENERGY CONTRIBUTION    RADIAL
 FREQ.      3114.80        C 10 --  H 21          +46.3% ( 69.1%)   100.0%
 T-DIPOLE    0.3711        C  8 --  H 22          +27.3% ( 53.1%)    99.9%
 TRAVEL      0.1215        C  9 --  H 19          +15.0% ( 39.3%)   100.0%
 RED. MASS   0.3131        C  7 --  H 20           +8.8% ( 30.1%)   100.0%
 EFF. MASS   1.4659

 VIBRATION   59   59A       ATOM PAIR        ENERGY CONTRIBUTION    RADIAL
 FREQ.      3134.01        C  7 --  H 20          +31.8% ( 57.4%)    99.9%
 T-DIPOLE    0.3570        C  8 --  H 22          +28.6% ( 54.5%)   100.0%
 TRAVEL      0.1144        C  9 --  H 19          +18.5% ( 43.8%)    99.9%
 RED. MASS   0.2495        C 10 --  H 21          +16.8% ( 41.7%)    99.9%
 EFF. MASS   1.6433

 VIBRATION   60   60A       ATOM PAIR        ENERGY CONTRIBUTION    RADIAL
 FREQ.      3134.20        C  8 --  H 22          +31.7% ( 57.3%)   100.0%
 T-DIPOLE    0.3515        C  7 --  H 20          +28.7% ( 54.6%)    99.9%
 TRAVEL      0.1144        C 10 --  H 21          +18.6% ( 43.9%)    99.9%
 RED. MASS   0.2496        C  9 --  H 19          +16.6% ( 41.5%)    99.9%
 EFF. MASS   1.6431

 SYMMETRY NUMBER FOR POINT-GROUP C1  =  1


          SYSTEM IS A GROUND STATE


    NULL



          MOLECULE IS NOT LINEAR

          THERE ARE 60 GENUINE VIBRATIONS IN THIS SYSTEM
          THIS THERMODYNAMICS CALCULATION IS LIMITED TO
          MOLECULES WHICH HAVE NO INTERNAL ROTATIONS




                    CALCULATED THERMODYNAMIC PROPERTIES
                                          *
   TEMP. (K)   PARTITION FUNCTION   H.O.F.    ENTHALPY  HEAT CAPACITY ENTROPY
                                   KCAL/MOL   CAL/MOLE    CAL/K/MOL  CAL/K/MOL


 298.00  VIB.     0.1636D+02                  2847.4656    25.2886    15.1093
         ROT.     0.4706D+06                   888.2813     2.9808    28.9373
         INT.     0.7700D+07                  3735.7469    28.2694    44.0465
         TRA.     0.1470D+28                  1480.4688     4.9680    40.5480
         TOT.                       35.542    5216.2158    33.2374    84.5945

 200.00  VIB.     0.3997D+01                  1002.0103    12.9295     7.7636
         ROT.     0.2588D+06                   596.1620     2.9808    27.7486
         INT.     0.1034D+07                  1598.1723    15.9103    35.5122
         TRA.     0.8080D+27                   993.6033     4.9680    38.5668
         TOT.                       32.917    2591.7755    20.8783    74.0790

 210.00  VIB.     0.4543D+01                  1136.6696    14.0112     8.4204
         ROT.     0.2784D+06                   625.9700     2.9808    27.8941
         INT.     0.1265D+07                  1762.6397    16.9920    36.3144
         TRA.     0.8694D+27                  1043.2834     4.9680    38.8092
         TOT.                       33.131    2805.9231    21.9600    75.1237

 220.00  VIB.     0.5181D+01                  1282.4057    15.1444     9.0982
         ROT.     0.2985D+06                   655.7781     2.9808    28.0327
         INT.     0.1547D+07                  1938.1839    18.1252    37.1309
         TRA.     0.9322D+27                  1092.9636     4.9680    39.0403
         TOT.                       33.357    3031.1474    23.0933    76.1712

 230.00  VIB.     0.5931D+01                  1439.7204    16.3263     9.7972
         ROT.     0.3191D+06                   685.5862     2.9808    28.1652
         INT.     0.1893D+07                  2125.3066    19.3071    37.9625
         TRA.     0.9965D+27                  1142.6437     4.9680    39.2612
         TOT.                       33.593    3267.9503    24.2751    77.2236

 240.00  VIB.     0.6814D+01                  1609.0802    17.5527    10.5179
         ROT.     0.3401D+06                   715.3943     2.9808    28.2921
         INT.     0.2318D+07                  2324.4745    20.5336    38.8099
         TRA.     0.1062D+28                  1192.3239     4.9680    39.4726
         TOT.                       33.842    3516.7984    25.5016    78.2825

 250.00  VIB.     0.7856D+01                  1790.9084    18.8191    11.2599
         ROT.     0.3616D+06                   745.2024     2.9808    28.4138
         INT.     0.2841D+07                  2536.1109    21.8000    39.6737
         TRA.     0.1129D+28                  1242.0041     4.9680    39.6754
         TOT.                       34.103    3778.1149    26.7680    79.3491

 260.00  VIB.     0.9091D+01                  1985.5793    20.1204    12.0233
         ROT.     0.3835D+06                   775.0105     2.9808    28.5307
         INT.     0.3487D+07                  2760.5899    23.1012    40.5540
         TRA.     0.1198D+28                  1291.6842     4.9680    39.8703
         TOT.                       34.378    4052.2741    28.0692    80.4242

 270.00  VIB.     0.1056D+02                  2193.4148    21.4512    12.8075
         ROT.     0.4059D+06                   804.8186     2.9808    28.6432
         INT.     0.4285D+07                  2998.2334    24.4320    41.4507
         TRA.     0.1267D+28                  1341.3644     4.9680    40.0578
         TOT.                       34.665    4339.5978    29.4000    81.5084

 280.00  VIB.     0.1231D+02                  2414.6828    22.8060    13.6121
         ROT.     0.4286D+06                   834.6267     2.9808    28.7516
         INT.     0.5275D+07                  3249.3095    25.7868    42.3636
         TRA.     0.1338D+28                  1391.0445     4.9680    40.2384
         TOT.                       34.966    4640.3541    30.7548    82.6021

 290.00  VIB.     0.1440D+02                  2649.5976    24.1796    14.4363
         ROT.     0.4518D+06                   864.4348     2.9808    28.8562
         INT.     0.6504D+07                  3514.0324    27.1605    43.2924
         TRA.     0.1411D+28                  1440.7247     4.9680    40.4128
         TOT.                       35.280    4954.7571    32.1285    83.7052

 300.00  VIB.     0.1690D+02                  2898.3211    25.5669    15.2793
         ROT.     0.4754D+06                   894.2429     2.9808    28.9572
         INT.     0.8033D+07                  3792.5640    28.5477    44.2366
         TRA.     0.1484D+28                  1490.4049     4.9680    40.5812
         TOT.                       35.608    5282.9689    33.5157    84.8178

 310.00  VIB.     0.1991D+02                  3160.9651    26.9630    16.1404
         ROT.     0.4993D+06                   924.0510     2.9808    29.0550
         INT.     0.9939D+07                  4085.0162    29.9438    45.1954
         TRA.     0.1559D+28                  1540.0850     4.9680    40.7441
         TOT.                       35.950    5625.1012    34.9118    85.9395

 320.00  VIB.     0.2353D+02                  3437.5946    28.3633    17.0186
         ROT.     0.5237D+06                   953.8591     2.9808    29.1496
         INT.     0.1232D+08                  4391.4537    31.3441    46.1682
         TRA.     0.1635D+28                  1589.7652     4.9680    40.9018
         TOT.                       36.307    5981.2189    36.3121    87.0700

 330.00  VIB.     0.2791D+02                  3728.2306    29.7636    17.9128
         ROT.     0.5484D+06                   983.6672     2.9808    29.2413
         INT.     0.1530D+08                  4711.8978    32.7444    47.1541
         TRA.     0.1713D+28                  1639.4454     4.9680    41.0547
         TOT.                       36.677    6351.3432    37.7125    88.2088

 340.00  VIB.     0.3321D+02                  4032.8548    31.1603    18.8221
         ROT.     0.5735D+06                  1013.4753     2.9808    29.3303
         INT.     0.1905D+08                  5046.3301    34.1411    48.1524
         TRA.     0.1791D+28                  1689.1255     4.9680    41.2030
         TOT.                       37.061    6735.4556    39.1091    89.3554

 350.00  VIB.     0.3964D+02                  4351.4126    32.5498    19.7454
         ROT.     0.5990D+06                  1043.2834     2.9808    29.4167
         INT.     0.2375D+08                  5394.6960    35.5306    49.1621
         TRA.     0.1871D+28                  1738.8057     4.9680    41.3470
         TOT.                       37.459    7133.5017    40.4987    90.5091

 360.00  VIB.     0.4748D+02                  4683.8177    33.9293    20.6817
         ROT.     0.6249D+06                  1073.0915     2.9808    29.5007
         INT.     0.2967D+08                  5756.9092    36.9101    50.1824
         TRA.     0.1951D+28                  1788.4859     4.9680    41.4870
         TOT.                       37.871    7545.3950    41.8781    91.6694

 370.00  VIB.     0.5703D+02                  5029.9553    35.2959    21.6300
         ROT.     0.6511D+06                  1102.8996     2.9808    29.5824
         INT.     0.3713D+08                  6132.8549    38.2768    51.2124
         TRA.     0.2033D+28                  1838.1660     4.9680    41.6231
         TOT.                       38.296    7971.0209    43.2448    92.8355

 380.00  VIB.     0.6872D+02                  5389.6864    36.6476    22.5893
         ROT.     0.6777D+06                  1132.7077     2.9808    29.6619
         INT.     0.4657D+08                  6522.3942    39.6284    52.2511
         TRA.     0.2116D+28                  1887.8462     4.9680    41.7556
         TOT.                       38.736    8410.2403    44.5964    94.0067

 390.00  VIB.     0.8303D+02                  5762.8508    37.9823    23.5585
         ROT.     0.7046D+06                  1162.5158     2.9808    29.7393
         INT.     0.5851D+08                  6925.3666    40.9631    53.2978
         TRA.     0.2200D+28                  1937.5263     4.9680    41.8846
         TOT.                       39.188    8862.8930    45.9311    95.1824

 400.00  VIB.     0.1006D+03                  6149.2705    39.2984    24.5368
         ROT.     0.7319D+06                  1192.3239     2.9808    29.8148
         INT.     0.7364D+08                  7341.5944    42.2792    54.3515
         TRA.     0.2285D+28                  1987.2065     4.9680    42.0104
         TOT.                       39.654    9328.8009    47.2472    96.3619

   *: NOTE: HEATS OF FORMATION ARE RELATIVE TO THE
            ELEMENTS IN THEIR STANDARD STATE AT 298K
              (=  Standard Enthalpy of Formation).

            Hvib:  Zero-point energy is not included.
                   frequencies of less than zero cm-1 are not included.
            Hrot = (3/2)RT
            Htra = (3/2)RT + pV = (5/2)RT

            Heat capacity is Cp, not Cv

           For more information, see: HTTP://OpenMOPAC.net/Manual/thermochemistry.html


           FORCE CONSTANT IN CARTESIAN COORDINATES (Millidynes/A)

    ATOM   CHEMICAL       X               Y               Z
   NUMBER   SYMBOL  FORCE CONSTANT  FORCE CONSTANT  FORCE CONSTANT

      1       C        8.038399        7.447869        8.985395
      2       C        8.038796        7.429494        9.003526
      3       C        8.003071        7.471998        9.651156
      4       C        8.003576        7.486552        9.645516
      5       C        8.121279        9.455654        7.708542
      6       C        8.121142        9.461412        7.702862
      7       C        4.090523       14.533941        8.891805
      8       C        4.091705       14.560437        8.876271
      9       C        4.507944       11.872067       10.916683
     10       C        4.511427       11.914074       10.872985
     11       H        1.466097        1.501769        3.403660
     12       H        1.465663        1.477031        3.428692
     13       H        1.494164        1.570636        3.262514
     14       H        1.494541        1.596073        3.236843
     15       H        3.761605        1.793440        0.830046
     16       H        2.295074        2.032063        2.044129
     17       H        3.761361        1.786621        0.836563
     18       H        2.294391        2.055631        2.021167
     19       H        1.326641        0.713924        4.380185
     20       H        0.461291        4.967300        0.985343
     21       H        1.327449        0.713712        4.379465
     22       H        0.461066        4.946776        1.005729



 TOTAL CPU TIME:             2.66 SECONDS

 == MOPAC DONE ==
