 *******************************************************************************
 ** Site#: 14399           For non-commercial use only        Version 13.159M **
 *******************************************************************************
 ** Cite this work as: MOPAC2012, James J. P. Stewart, Stewart Computational  **
 ** Chemistry, Version 13.159M web: HTTP://OpenMOPAC.net  Days remaining:   6 **
 *******************************************************************************
 **                                                                           **
 **                                MOPAC2012                                  **
 **                                                                           **
 *******************************************************************************

                            PM3 CALCULATION RESULTS


 *******************************************************************************
 *  CALCULATION DONE:                                Mon Jun  2 11:09:37 2014  *
 *  PM3      - The PM3 Hamiltonian to be used
 *  PRECISE  - CRITERIA TO BE INCREASED BY 100 TIMES
 *  NOSYM    - POINT-GROUP SYMMETRY SET TO C1
 *  T=       - A TIME OF 172800.0 SECONDS REQUESTED
 *  DUMP=N   - RESTART FILE WRITTEN EVERY  7200.000 SECONDS
 *******************************************************************************
pm3  precise nosym
 InChI=1S/C11H16/c1-2-9-5-3-6-10-7-4-8-11(9)10/h3-5,8-11H,2,6-7H2,1H3

   ATOM   CHEMICAL          X               Y               Z
  NUMBER   SYMBOL      (ANGSTROMS)     (ANGSTROMS)     (ANGSTROMS)
 
     1       C         -1.62260000  *  -0.53760000  *  -0.55050000  *
     2       C         -0.37930000  *   0.37630000  *  -0.74140000  *
     3       C          0.83970000  *   0.00580000  *   0.14570000  *
     4       C          2.12950000  *   0.73590000  *  -0.27540000  *
     5       C         -2.80120000  *   0.38080000  *  -0.19370000  *
     6       C         -1.42060000  *  -1.67760000  *   0.46960000  *
     7       C          3.26420000  *   0.63170000  *   0.74180000  *
     8       C         -0.91570000  *   1.74300000  *  -0.46870000  *
     9       C          1.01000000  *  -1.50010000  *   0.14890000  *
    10       C         -2.20660000  *   1.74200000  *  -0.18060000  *
    11       C         -0.05950000  *  -2.29330000  *   0.30440000  *
    12       H         -1.84380000  *  -1.02440000  *  -1.53160000  *
    13       H         -0.06750000  *   0.34630000  *  -1.81320000  *
    14       H          0.59800000  *   0.30240000  *   1.19520000  *
    15       H          1.92700000  *   1.82260000  *  -0.41220000  *
    16       H          2.48310000  *   0.35570000  *  -1.26230000  *
    17       H         -3.25390000  *   0.17660000  *   0.80400000  *
    18       H         -3.60600000  *   0.33530000  *  -0.96320000  *
    19       H         -1.47390000  *  -1.28070000  *   1.51050000  *
    20       H         -2.21540000  *  -2.45210000  *   0.36890000  *
    21       H          4.14430000  *   1.21370000  *   0.38550000  *
    22       H          3.59450000  *  -0.42130000  *   0.88510000  *
    23       H          2.95230000  *   1.04870000  *   1.72630000  *
    24       H         -2.77190000  *   2.64780000  *   0.02980000  *
    25       H         -0.33070000  *   2.65860000  *  -0.52800000  *
    26       H          0.04760000  *  -3.37520000  *   0.24490000  *
    27       H          1.97840000  *  -1.96110000  *  -0.03980000  *
 


          CARTESIAN COORDINATES 

    NO.       ATOM         X         Y         Z

     1         C       -1.6226   -0.5376   -0.5505
     2         C       -0.3793    0.3763   -0.7414
     3         C        0.8397    0.0058    0.1457
     4         C        2.1295    0.7359   -0.2754
     5         C       -2.8012    0.3808   -0.1937
     6         C       -1.4206   -1.6776    0.4696
     7         C        3.2642    0.6317    0.7418
     8         C       -0.9157    1.7430   -0.4687
     9         C        1.0100   -1.5001    0.1489
    10         C       -2.2066    1.7420   -0.1806
    11         C       -0.0595   -2.2933    0.3044
    12         H       -1.8438   -1.0244   -1.5316
    13         H       -0.0675    0.3463   -1.8132
    14         H        0.5980    0.3024    1.1952
    15         H        1.9270    1.8226   -0.4122
    16         H        2.4831    0.3557   -1.2623
    17         H       -3.2539    0.1766    0.8040
    18         H       -3.6060    0.3353   -0.9632
    19         H       -1.4739   -1.2807    1.5105
    20         H       -2.2154   -2.4521    0.3689
    21         H        4.1443    1.2137    0.3855
    22         H        3.5945   -0.4213    0.8851
    23         H        2.9523    1.0487    1.7263
    24         H       -2.7719    2.6478    0.0298
    25         H       -0.3307    2.6586   -0.5280
    26         H        0.0476   -3.3752    0.2449
    27         H        1.9784   -1.9611   -0.0398

  H: (PM3): J. J. P. STEWART, J. COMP. CHEM. 10, 209 (1989).
  C: (PM3): J. J. P. STEWART, J. COMP. CHEM. 10, 209 (1989).

           Empirical Formula: C11 H16  =    27 atoms



      MOLECULAR POINT GROUP   :   C1  


      RHF CALCULATION, NO. OF DOUBLY OCCUPIED LEVELS =   30

      Geometry optimization using EF

          DIAGONAL MATRIX USED AS START HESSIAN

 CYCLE:     1 TIME:   0.013 TIME LEFT:  2.00D  GRAD.:    63.390 HEAT: 11.08867
 CYCLE:     2 TIME:   0.019 TIME LEFT:  2.00D  GRAD.:    79.634 HEAT: 10.40659
 CYCLE:     3 TIME:   0.012 TIME LEFT:  2.00D  GRAD.:    58.695 HEAT: 9.703037
 CYCLE:     4 TIME:   0.011 TIME LEFT:  2.00D  GRAD.:    64.320 HEAT: 9.621932
 CYCLE:     5 TIME:   0.018 TIME LEFT:  2.00D  GRAD.:    30.976 HEAT: 8.630312
 CYCLE:     6 TIME:   0.018 TIME LEFT:  2.00D  GRAD.:    21.449 HEAT: 8.398728
 CYCLE:     7 TIME:   0.010 TIME LEFT:  2.00D  GRAD.:    14.799 HEAT: 8.173398
 CYCLE:     8 TIME:   0.010 TIME LEFT:  2.00D  GRAD.:    33.547 HEAT: 8.106213
 CYCLE:     9 TIME:   0.010 TIME LEFT:  2.00D  GRAD.:    35.280 HEAT: 8.058210
 CYCLE:    10 TIME:   0.018 TIME LEFT:  2.00D  GRAD.:    17.994 HEAT: 7.759379
 CYCLE:    11 TIME:   0.018 TIME LEFT:  2.00D  GRAD.:    20.577 HEAT: 7.740964
 CYCLE:    12 TIME:   0.010 TIME LEFT:  2.00D  GRAD.:    14.162 HEAT: 7.684539
 CYCLE:    13 TIME:   0.010 TIME LEFT:  2.00D  GRAD.:    12.653 HEAT: 7.640299
 CYCLE:    14 TIME:   0.010 TIME LEFT:  2.00D  GRAD.:    14.722 HEAT: 7.630509
 CYCLE:    15 TIME:   0.010 TIME LEFT:  2.00D  GRAD.:    14.207 HEAT: 7.601223
 CYCLE:    16 TIME:   0.010 TIME LEFT:  2.00D  GRAD.:    13.327 HEAT: 7.571276
 CYCLE:    17 TIME:   0.010 TIME LEFT:  2.00D  GRAD.:    14.143 HEAT: 7.551855
 CYCLE:    18 TIME:   0.010 TIME LEFT:  2.00D  GRAD.:    14.914 HEAT: 7.545167
 CYCLE:    19 TIME:   0.010 TIME LEFT:  2.00D  GRAD.:    10.922 HEAT: 7.502148
 CYCLE:    20 TIME:   0.018 TIME LEFT:  2.00D  GRAD.:     8.998 HEAT: 7.480672
 CYCLE:    21 TIME:   0.010 TIME LEFT:  2.00D  GRAD.:     6.302 HEAT: 7.458229
 CYCLE:    22 TIME:   0.018 TIME LEFT:  2.00D  GRAD.:     6.349 HEAT: 7.450889
 CYCLE:    23 TIME:   0.010 TIME LEFT:  2.00D  GRAD.:     3.722 HEAT: 7.434859
 CYCLE:    24 TIME:   0.014 TIME LEFT:  2.00D  GRAD.:     6.485 HEAT: 7.430763
 CYCLE:    25 TIME:   0.010 TIME LEFT:  2.00D  GRAD.:     3.540 HEAT: 7.413757
 CYCLE:    26 TIME:   0.010 TIME LEFT:  2.00D  GRAD.:     5.385 HEAT: 7.404216
 CYCLE:    27 TIME:   0.010 TIME LEFT:  2.00D  GRAD.:     3.708 HEAT: 7.392593
 CYCLE:    28 TIME:   0.011 TIME LEFT:  2.00D  GRAD.:     4.453 HEAT: 7.392721
 CYCLE:    29 TIME:   0.010 TIME LEFT:  2.00D  GRAD.:     3.076 HEAT: 7.386626
 CYCLE:    30 TIME:   0.010 TIME LEFT:  2.00D  GRAD.:     5.009 HEAT: 7.390550
 CYCLE:    31 TIME:   0.010 TIME LEFT:  2.00D  GRAD.:     1.596 HEAT: 7.380134
 CYCLE:    32 TIME:   0.010 TIME LEFT:  2.00D  GRAD.:     2.290 HEAT: 7.377857
 CYCLE:    33 TIME:   0.010 TIME LEFT:  2.00D  GRAD.:     2.080 HEAT: 7.372577
 CYCLE:    34 TIME:   0.010 TIME LEFT:  2.00D  GRAD.:     3.044 HEAT: 7.363591
 CYCLE:    35 TIME:   0.010 TIME LEFT:  2.00D  GRAD.:     2.392 HEAT: 7.358276
 CYCLE:    36 TIME:   0.010 TIME LEFT:  2.00D  GRAD.:     1.965 HEAT: 7.352538
 CYCLE:    37 TIME:   0.010 TIME LEFT:  2.00D  GRAD.:     2.378 HEAT: 7.343927
 CYCLE:    38 TIME:   0.010 TIME LEFT:  2.00D  GRAD.:     2.472 HEAT: 7.335169
 CYCLE:    39 TIME:   0.010 TIME LEFT:  2.00D  GRAD.:     1.844 HEAT: 7.330741
 CYCLE:    40 TIME:   0.010 TIME LEFT:  2.00D  GRAD.:     1.921 HEAT: 7.326723
 CYCLE:    41 TIME:   0.010 TIME LEFT:  2.00D  GRAD.:     1.718 HEAT: 7.322314
 CYCLE:    42 TIME:   0.010 TIME LEFT:  2.00D  GRAD.:     1.504 HEAT: 7.318904
 CYCLE:    43 TIME:   0.010 TIME LEFT:  2.00D  GRAD.:     1.318 HEAT: 7.315284
 CYCLE:    44 TIME:   0.010 TIME LEFT:  2.00D  GRAD.:     1.803 HEAT: 7.310489
 CYCLE:    45 TIME:   0.010 TIME LEFT:  2.00D  GRAD.:     2.106 HEAT: 7.303104
 CYCLE:    46 TIME:   0.010 TIME LEFT:  2.00D  GRAD.:     1.957 HEAT: 7.296911
 CYCLE:    47 TIME:   0.010 TIME LEFT:  2.00D  GRAD.:     1.832 HEAT: 7.290453
 CYCLE:    48 TIME:   0.010 TIME LEFT:  2.00D  GRAD.:     2.177 HEAT: 7.284100
 CYCLE:    49 TIME:   0.010 TIME LEFT:  2.00D  GRAD.:     1.910 HEAT: 7.278345
 CYCLE:    50 TIME:   0.010 TIME LEFT:  2.00D  GRAD.:     1.405 HEAT: 7.274283
 CYCLE:    51 TIME:   0.010 TIME LEFT:  2.00D  GRAD.:     1.065 HEAT: 7.271808
 CYCLE:    52 TIME:   0.010 TIME LEFT:  2.00D  GRAD.:     1.026 HEAT: 7.269910
 CYCLE:    53 TIME:   0.010 TIME LEFT:  2.00D  GRAD.:     0.720 HEAT: 7.268540
 CYCLE:    54 TIME:   0.010 TIME LEFT:  2.00D  GRAD.:     0.522 HEAT: 7.267840
 CYCLE:    55 TIME:   0.010 TIME LEFT:  2.00D  GRAD.:     0.636 HEAT: 7.267139
 CYCLE:    56 TIME:   0.010 TIME LEFT:  2.00D  GRAD.:     0.706 HEAT: 7.266359
 CYCLE:    57 TIME:   0.010 TIME LEFT:  2.00D  GRAD.:     0.635 HEAT: 7.265569
 CYCLE:    58 TIME:   0.010 TIME LEFT:  2.00D  GRAD.:     0.638 HEAT: 7.264693
 CYCLE:    59 TIME:   0.010 TIME LEFT:  2.00D  GRAD.:     0.840 HEAT: 7.263738
 CYCLE:    60 TIME:   0.010 TIME LEFT:  2.00D  GRAD.:     0.912 HEAT: 7.262670
 CYCLE:    61 TIME:   0.010 TIME LEFT:  2.00D  GRAD.:     0.738 HEAT: 7.261521
 CYCLE:    62 TIME:   0.010 TIME LEFT:  2.00D  GRAD.:     0.687 HEAT: 7.259973
 CYCLE:    63 TIME:   0.010 TIME LEFT:  2.00D  GRAD.:     0.901 HEAT: 7.258488
 CYCLE:    64 TIME:   0.010 TIME LEFT:  2.00D  GRAD.:     0.827 HEAT: 7.257235
 CYCLE:    65 TIME:   0.010 TIME LEFT:  2.00D  GRAD.:     0.579 HEAT: 7.256370
 CYCLE:    66 TIME:   0.010 TIME LEFT:  2.00D  GRAD.:     0.501 HEAT: 7.255715
 CYCLE:    67 TIME:   0.010 TIME LEFT:  2.00D  GRAD.:     0.620 HEAT: 7.255032
 CYCLE:    68 TIME:   0.010 TIME LEFT:  2.00D  GRAD.:     0.558 HEAT: 7.254406
 CYCLE:    69 TIME:   0.010 TIME LEFT:  2.00D  GRAD.:     0.315 HEAT: 7.253951
 CYCLE:    70 TIME:   0.010 TIME LEFT:  2.00D  GRAD.:     0.229 HEAT: 7.253820
 CYCLE:    71 TIME:   0.010 TIME LEFT:  2.00D  GRAD.:     0.180 HEAT: 7.253683
 CYCLE:    72 TIME:   0.009 TIME LEFT:  2.00D  GRAD.:     0.148 HEAT: 7.253636
 CYCLE:    73 TIME:   0.009 TIME LEFT:  2.00D  GRAD.:     0.118 HEAT: 7.253591
 CYCLE:    74 TIME:   0.010 TIME LEFT:  2.00D  GRAD.:     0.160 HEAT: 7.253555
 CYCLE:    75 TIME:   0.010 TIME LEFT:  2.00D  GRAD.:     0.144 HEAT: 7.253519
 CYCLE:    76 TIME:   0.010 TIME LEFT:  2.00D  GRAD.:     0.153 HEAT: 7.253454
 CYCLE:    77 TIME:   0.009 TIME LEFT:  2.00D  GRAD.:     0.135 HEAT: 7.253421
 CYCLE:    78 TIME:   0.010 TIME LEFT:  2.00D  GRAD.:     0.135 HEAT: 7.253348
 CYCLE:    79 TIME:   0.010 TIME LEFT:  2.00D  GRAD.:     0.150 HEAT: 7.253274
 CYCLE:    80 TIME:   0.010 TIME LEFT:  2.00D  GRAD.:     0.124 HEAT: 7.253223
 CYCLE:    81 TIME:   0.010 TIME LEFT:  2.00D  GRAD.:     0.097 HEAT: 7.253178
 CYCLE:    82 TIME:   0.010 TIME LEFT:  2.00D  GRAD.:     0.125 HEAT: 7.253149
 CYCLE:    83 TIME:   0.009 TIME LEFT:  2.00D  GRAD.:     0.105 HEAT: 7.253124
 CYCLE:    84 TIME:   0.010 TIME LEFT:  2.00D  GRAD.:     0.148 HEAT: 7.253059
 CYCLE:    85 TIME:   0.009 TIME LEFT:  2.00D  GRAD.:     0.115 HEAT: 7.253033
 CYCLE:    86 TIME:   0.010 TIME LEFT:  2.00D  GRAD.:     0.102 HEAT: 7.252989
 CYCLE:    87 TIME:   0.010 TIME LEFT:  2.00D  GRAD.:     0.174 HEAT: 7.252938
 CYCLE:    88 TIME:   0.010 TIME LEFT:  2.00D  GRAD.:     0.178 HEAT: 7.252883
 CYCLE:    89 TIME:   0.010 TIME LEFT:  2.00D  GRAD.:     0.187 HEAT: 7.252753
 CYCLE:    90 TIME:   0.010 TIME LEFT:  2.00D  GRAD.:     0.175 HEAT: 7.252671
 CYCLE:    91 TIME:   0.010 TIME LEFT:  2.00D  GRAD.:     0.191 HEAT: 7.252542
 CYCLE:    92 TIME:   0.010 TIME LEFT:  2.00D  GRAD.:     0.137 HEAT: 7.252497
 CYCLE:    93 TIME:   0.009 TIME LEFT:  2.00D  GRAD.:     0.083 HEAT: 7.252427
 CYCLE:    94 TIME:   0.010 TIME LEFT:  2.00D  GRAD.:     0.067 HEAT: 7.252390
 CYCLE:    95 TIME:   0.010 TIME LEFT:  2.00D  GRAD.:     0.050 HEAT: 7.252371
 CYCLE:    96 TIME:   0.010 TIME LEFT:  2.00D  GRAD.:     0.038 HEAT: 7.252366

     RMS GRADIENT =  0.03772  IS LESS THAN CUTOFF =  0.05000



 -------------------------------------------------------------------------------
pm3  precise nosym
 InChI=1S/C11H16/c1-2-9-5-3-6-10-7-4-8-11(9)10/h3-5,8-11H,2,6-7H2,1H3



     GEOMETRY OPTIMISED USING EIGENVECTOR FOLLOWING (EF).     
     SCF FIELD WAS ACHIEVED                                   


                              PM3 CALCULATION
                                                       MOPAC2012 (Version: 13.159M)
                                                       Mon Jun  2 11:09:38 2014
                                                       No. of days left =   6




          FINAL HEAT OF FORMATION =          7.25237 KCAL/MOL =      30.34390 KJ/MOL


          TOTAL ENERGY            =      -1550.05294 EV
          ELECTRONIC ENERGY       =      -9488.01266 EV  POINT GROUP:     C1  
          CORE-CORE REPULSION     =       7937.95972 EV
          COSMO AREA              =        196.68 SQUARE ANGSTROMS
          COSMO VOLUME            =        209.78 CUBIC ANGSTROMS

          GRADIENT NORM           =          0.03772
          IONIZATION POTENTIAL    =          9.601093 EV
          HOMO LUMO ENERGIES (EV) =         -9.601  1.061
          NO. OF FILLED LEVELS    =         30
          MOLECULAR WEIGHT        =        148.247

          MOLECULAR DIMENSIONS (Angstroms)

            Atom       Atom       Distance
            H    21    H    18     7.45854
            H    21    H    17     7.37051
            H    13    H    23     3.23361


          SCF CALCULATIONS        =        104
          COMPUTATION TIME        =          1.027 SECONDS




   ATOM   CHEMICAL          X               Y               Z
  NUMBER   SYMBOL      (ANGSTROMS)     (ANGSTROMS)     (ANGSTROMS)
 
     1       C         -1.59133845  *  -0.54589545  *  -0.60098255  *
     2       C         -0.35959233  *   0.39567890  *  -0.71419764  *
     3       C          0.84487602  *  -0.00373153  *   0.15592527  *
     4       C          2.11868286  *   0.67890686  *  -0.35046938  *
     5       C         -2.78826200  *   0.36812943  *  -0.26306776  *
     6       C         -1.42405093  *  -1.65744474  *   0.43153435  *
     7       C          3.22671395  *   0.66701936  *   0.67888842  *
     8       C         -0.88997082  *   1.75096840  *  -0.33955901  *
     9       C          0.99807529  *  -1.48945741  *   0.19406262  *
    10       C         -2.20552127  *   1.73362642  *  -0.10389014  *
    11       C         -0.07448433  *  -2.27110889  *   0.33452072  *
    12       H         -1.75719191  *  -1.02622187  *  -1.59307889  *
    13       H         -0.02742905  *   0.42651000  *  -1.78023853  *
    14       H          0.64884899  *   0.33187482  *   1.20648132  *
    15       H          1.88793469  *   1.72753843  *  -0.62852004  *
    16       H          2.46106444  *   0.19127080  *  -1.28496229  *
    17       H         -3.31598551  *   0.05454511  *   0.65760011  *
    18       H         -3.54739933  *   0.36080680  *  -1.06708278  *
    19       H         -1.55553808  *  -1.26088529  *   1.46032217  *
    20       H         -2.21740474  *  -2.41706586  *   0.29650926  *
    21       H          4.12929053  *   1.15914357  *   0.29437836  *
    22       H          3.50862097  *  -0.35557730  *   0.96501089  *
    23       H          2.93284850  *   1.19186270  *   1.59786832  *
    24       H         -2.82728297  *   2.58494545  *   0.17203564  *
    25       H         -0.23101043  *   2.61820035  *  -0.28506755  *
    26       H          0.00297283  *  -3.36071470  *   0.38956202  *
    27       H          2.01028865  *  -1.90165439  *   0.12084096  *

           Empirical Formula: C11 H16  =    27 atoms



      MOLECULAR POINT GROUP   :   C1  


                  EIGENVALUES  
 -42.59403 -36.36058 -33.99639 -29.55229 -27.41018 -25.50071 -23.21562 -21.12778
 -19.87450 -18.76625 -17.52062 -17.36696 -17.00699 -15.79360 -15.06076 -14.57246
 -14.32101 -14.09506 -13.90121 -13.60483 -13.16925 -12.84160 -12.51877 -12.39859
 -12.06184 -11.86133 -11.60169 -11.25978  -9.77225  -9.60109   1.06150   1.18399
   3.28817   3.38019   3.40217   3.51430   3.67244   3.72417   3.81963   3.88900
   3.92874   3.96777   4.05938   4.08479   4.17101   4.31582   4.38927   4.43046
   4.50658   4.60633   4.63568   4.89992   4.99294   5.03529   5.08762   5.34881
   5.54331   5.83024   5.97971   6.00760


              NET ATOMIC CHARGES AND DIPOLE CONTRIBUTIONS

  ATOM NO.   TYPE          CHARGE      No. of ELECS.   s-Pop       p-Pop       
    1          C          -0.072075        4.0721     1.18618     2.88589
    2          C          -0.040439        4.0404     1.17738     2.86306
    3          C          -0.037083        4.0371     1.16615     2.87093
    4          C          -0.098094        4.0981     1.16209     2.93600
    5          C          -0.069049        4.0690     1.15761     2.91144
    6          C          -0.059245        4.0592     1.14858     2.91067
    7          C          -0.111526        4.1115     1.13884     2.97269
    8          C          -0.157102        4.1571     1.20500     2.95210
    9          C          -0.147888        4.1479     1.19880     2.94909
   10          C          -0.151218        4.1512     1.20150     2.94972
   11          C          -0.153095        4.1531     1.19478     2.95831
   12          H           0.064499        0.9355     0.93550
   13          H           0.071109        0.9289     0.92889
   14          H           0.077633        0.9224     0.92237
   15          H           0.051445        0.9486     0.94855
   16          H           0.052379        0.9476     0.94762
   17          H           0.060181        0.9398     0.93982
   18          H           0.056275        0.9437     0.94373
   19          H           0.061637        0.9384     0.93836
   20          H           0.051601        0.9484     0.94840
   21          H           0.037173        0.9628     0.96283
   22          H           0.039937        0.9601     0.96006
   23          H           0.038933        0.9611     0.96107
   24          H           0.110615        0.8894     0.88939
   25          H           0.114145        0.8859     0.88586
   26          H           0.102097        0.8979     0.89790
   27          H           0.107156        0.8928     0.89284
 DIPOLE           X         Y         Z       TOTAL
 POINT-CHG.    -0.095     0.044     0.035     0.110
 HYBRID         0.000     0.026     0.005     0.026
 SUM           -0.095     0.070     0.040     0.124


          ATOMIC ORBITAL ELECTRON POPULATIONS

    Atom      s        px        py        pz   
    1  C   1.18618   0.94446   0.95134   0.99010
    2  C   1.17738   0.94267   0.92829   0.99210
    3  C   1.16615   0.93964   0.93600   0.99529
    4  C   1.16209   0.94980   1.00480   0.98140
    5  C   1.15761   0.96504   0.93698   1.00942
    6  C   1.14858   0.95241   0.97265   0.98561
    7  C   1.13884   0.97690   1.01094   0.98484
    8  C   1.20500   0.96490   0.97642   1.01079
    9  C   1.19880   0.98161   0.95668   1.01080
   10  C   1.20150   0.96454   0.97625   1.00894
   11  C   1.19478   0.95523   0.98397   1.01911
   12  H   0.93550
   13  H   0.92889
   14  H   0.92237
   15  H   0.94855
   16  H   0.94762
   17  H   0.93982
   18  H   0.94373
   19  H   0.93836
   20  H   0.94840
   21  H   0.96283
   22  H   0.96006
   23  H   0.96107
   24  H   0.88939
   25  H   0.88586
   26  H   0.89790
   27  H   0.89284
 *******************************************************************************
 ** Site#: 14399           For non-commercial use only        Version 13.159M **
 *******************************************************************************
 ** Cite this work as: MOPAC2012, James J. P. Stewart, Stewart Computational  **
 ** Chemistry, Version 13.159M web: HTTP://OpenMOPAC.net  Days remaining:   6 **
 *******************************************************************************
 **                                                                           **
 **                                MOPAC2012                                  **
 **                                                                           **
 *******************************************************************************

                            PM3 CALCULATION RESULTS


 *******************************************************************************
 *  CALCULATION DONE:                                Mon Jun  2 11:09:38 2014  *
 *  PM3      - The PM3 Hamiltonian to be used
 *  OLDGEO   - PREVIOUS GEOMETRY TO BE USED
 *  PRECISE  - CRITERIA TO BE INCREASED BY 100 TIMES
 *  NOSYM    - POINT-GROUP SYMMETRY SET TO C1
 *  T=       - A TIME OF 172800.0 SECONDS REQUESTED
 *  DUMP=N   - RESTART FILE WRITTEN EVERY  7200.000 SECONDS
 *  THERMO   - THERMODYNAMIC QUANTITIES TO BE CALCULATED
 *******************************************************************************
oldgeo thermo nosym precise  pm3

   ATOM   CHEMICAL          X               Y               Z
  NUMBER   SYMBOL      (ANGSTROMS)     (ANGSTROMS)     (ANGSTROMS)
 
     1       C         -1.59133845  *  -0.54589545  *  -0.60098255  *
     2       C         -0.35959233  *   0.39567890  *  -0.71419764  *
     3       C          0.84487602  *  -0.00373153  *   0.15592527  *
     4       C          2.11868286  *   0.67890686  *  -0.35046938  *
     5       C         -2.78826200  *   0.36812943  *  -0.26306776  *
     6       C         -1.42405093  *  -1.65744474  *   0.43153435  *
     7       C          3.22671395  *   0.66701936  *   0.67888842  *
     8       C         -0.88997082  *   1.75096840  *  -0.33955901  *
     9       C          0.99807529  *  -1.48945741  *   0.19406262  *
    10       C         -2.20552127  *   1.73362642  *  -0.10389014  *
    11       C         -0.07448433  *  -2.27110889  *   0.33452072  *
    12       H         -1.75719191  *  -1.02622187  *  -1.59307889  *
    13       H         -0.02742905  *   0.42651000  *  -1.78023853  *
    14       H          0.64884899  *   0.33187482  *   1.20648132  *
    15       H          1.88793469  *   1.72753843  *  -0.62852004  *
    16       H          2.46106444  *   0.19127080  *  -1.28496229  *
    17       H         -3.31598551  *   0.05454511  *   0.65760011  *
    18       H         -3.54739933  *   0.36080680  *  -1.06708278  *
    19       H         -1.55553808  *  -1.26088529  *   1.46032217  *
    20       H         -2.21740474  *  -2.41706586  *   0.29650926  *
    21       H          4.12929053  *   1.15914357  *   0.29437836  *
    22       H          3.50862097  *  -0.35557730  *   0.96501089  *
    23       H          2.93284850  *   1.19186270  *   1.59786832  *
    24       H         -2.82728297  *   2.58494545  *   0.17203564  *
    25       H         -0.23101043  *   2.61820035  *  -0.28506755  *
    26       H          0.00297283  *  -3.36071470  *   0.38956202  *
    27       H          2.01028865  *  -1.90165439  *   0.12084096  *
 


          CARTESIAN COORDINATES 

    NO.       ATOM         X         Y         Z

     1         C       -1.5913   -0.5459   -0.6010
     2         C       -0.3596    0.3957   -0.7142
     3         C        0.8449   -0.0037    0.1559
     4         C        2.1187    0.6789   -0.3505
     5         C       -2.7883    0.3681   -0.2631
     6         C       -1.4241   -1.6574    0.4315
     7         C        3.2267    0.6670    0.6789
     8         C       -0.8900    1.7510   -0.3396
     9         C        0.9981   -1.4895    0.1941
    10         C       -2.2055    1.7336   -0.1039
    11         C       -0.0745   -2.2711    0.3345
    12         H       -1.7572   -1.0262   -1.5931
    13         H       -0.0274    0.4265   -1.7802
    14         H        0.6488    0.3319    1.2065
    15         H        1.8879    1.7275   -0.6285
    16         H        2.4611    0.1913   -1.2850
    17         H       -3.3160    0.0545    0.6576
    18         H       -3.5474    0.3608   -1.0671
    19         H       -1.5555   -1.2609    1.4603
    20         H       -2.2174   -2.4171    0.2965
    21         H        4.1293    1.1591    0.2944
    22         H        3.5086   -0.3556    0.9650
    23         H        2.9328    1.1919    1.5979
    24         H       -2.8273    2.5849    0.1720
    25         H       -0.2310    2.6182   -0.2851
    26         H        0.0030   -3.3607    0.3896
    27         H        2.0103   -1.9017    0.1208

  H: (PM3): J. J. P. STEWART, J. COMP. CHEM. 10, 209 (1989).
  C: (PM3): J. J. P. STEWART, J. COMP. CHEM. 10, 209 (1989).

           Empirical Formula: C11 H16  =    27 atoms



      MOLECULAR POINT GROUP   :   C1  


      RHF CALCULATION, NO. OF DOUBLY OCCUPIED LEVELS =   30



          HEAT OF FORMATION =       7.252366 KCALS/MOLE


          INTERNAL COORDINATE DERIVATIVES

   NUMBER  ATOM       BOND         ANGLE      DIHEDRAL

     1       C      0.000430    -0.001897    -0.001016
     2       C     -0.001161    -0.001554    -0.000502
     3       C     -0.003575     0.001627     0.002270
     4       C     -0.004127     0.002709     0.000477
     5       C     -0.000843    -0.004643    -0.001800
     6       C      0.003644     0.001508     0.001590
     7       C     -0.003397     0.004807     0.001931
     8       C     -0.000991    -0.005690     0.000201
     9       C      0.001324     0.004362    -0.000094
    10       C     -0.002396    -0.003097    -0.003527
    11       C     -0.001878     0.004473     0.001272
    12       H     -0.006104    -0.007387    -0.004340
    13       H      0.004522     0.000720    -0.001292
    14       H     -0.001983    -0.001834    -0.000150
    15       H     -0.003854    -0.000863    -0.001903
    16       H      0.011399    -0.000837     0.002489
    17       H      0.000664     0.006521     0.005836
    18       H     -0.005725    -0.010817    -0.009283
    19       H     -0.001043    -0.004205    -0.002760
    20       H      0.007736     0.005240     0.004344
    21       H     -0.004932     0.004745     0.007878
    22       H     -0.001818     0.004409    -0.002394
    23       H      0.006466    -0.004350    -0.002053
    24       H     -0.001787    -0.008415    -0.002889
    25       H      0.001128     0.002736     0.000621
    26       H      0.007377     0.009599     0.003501
    27       H      0.000923     0.002135     0.001594


          GRADIENT NORM =   0.03802


          TIME FOR SCF CALCULATION =    0.01

          TIME FOR DERIVATIVES     =    0.01

          MOLECULAR WEIGHT =  148.25



          ROTATIONAL CONSTANTS IN CM(-1)

          A =    0.05787271   B =    0.03091598   C =    0.02178888



           PRINCIPAL MOMENTS OF INERTIA IN UNITS OF 10**(-40)*GRAM-CM**2

          A =      483.6956   B =      905.4467   C =     1284.7275


          ORIENTATION OF MOLECULE IN FORCE CALCULATION

    NO.       ATOM         X         Y         Z

     1          C      -1.4076   -0.7810    0.1956
     2          C       0.1470   -0.7810    0.1956
     3          C       0.7960    0.6140    0.1956
     4          C       2.2557    0.5234    0.6497
     5          C      -1.8270   -1.6702   -0.9942
     6          C      -2.0235    0.6123    0.1004
     7          C       3.0515    1.7553    0.2800
     8          C       0.5203   -1.5670   -1.0296
     9          C       0.0147    1.5590    1.0494
    10          C      -0.5497   -2.0530   -1.6663
    11          C      -1.3188    1.5648    0.9967
    12          H      -1.7577   -1.2426    1.1479
    13          H       0.5065   -1.3352    1.0964
    14          H       0.7675    1.0173   -0.8490
    15          H       2.7283   -0.3694    0.1916
    16          H       2.2997    0.3553    1.7443
    17          H      -2.5021   -1.1477   -1.6982
    18          H      -2.3744   -2.5704   -0.6582
    19          H      -1.9624    0.9985   -0.9389
    20          H      -3.1024    0.5626    0.3416
    21          H       4.0927    1.6693    0.6163
    22          H       2.6346    2.6639    0.7358
    23          H       3.0696    1.9160   -0.8064
    24          H      -0.5469   -2.6628   -2.5693
    25          H       1.5638   -1.6978   -1.3184
    26          H      -1.9214    2.2584    1.5901
    27          H       0.5724    2.2458    1.6953


    FIRST DERIVATIVES WILL BE USED IN THE CALCULATION OF SECOND DERIVATIVES

          ESTIMATED TIME TO COMPLETE CALCULATION =        5.99 SECONDS

    FOR POINT-GROUP C1   THERE ARE   1 UNIQUE SYMMETRY FUNCTIONS.

 STEP:   1 TIME =     0.04 SECS, INTEGRAL =      0.04 TIME LEFT: 172799.94
 STEP:   2 TIME =     0.04 SECS, INTEGRAL =      0.09 TIME LEFT: 172799.89
 STEP:   3 TIME =     0.04 SECS, INTEGRAL =      0.13 TIME LEFT: 172799.85
 STEP:   4 TIME =     0.04 SECS, INTEGRAL =      0.18 TIME LEFT: 172799.81
 STEP:   5 TIME =     0.04 SECS, INTEGRAL =      0.22 TIME LEFT: 172799.76
 STEP:   6 TIME =     0.04 SECS, INTEGRAL =      0.26 TIME LEFT: 172799.72
 STEP:   7 TIME =     0.04 SECS, INTEGRAL =      0.31 TIME LEFT: 172799.67
 STEP:   8 TIME =     0.04 SECS, INTEGRAL =      0.35 TIME LEFT: 172799.63
 STEP:   9 TIME =     0.05 SECS, INTEGRAL =      0.40 TIME LEFT: 172799.58
 STEP:  10 TIME =     0.04 SECS, INTEGRAL =      0.44 TIME LEFT: 172799.54
 STEP:  11 TIME =     0.04 SECS, INTEGRAL =      0.49 TIME LEFT: 172799.50
 STEP:  12 TIME =     0.05 SECS, INTEGRAL =      0.53 TIME LEFT: 172799.45
 STEP:  13 TIME =     0.04 SECS, INTEGRAL =      0.58 TIME LEFT: 172799.40
 STEP:  14 TIME =     0.04 SECS, INTEGRAL =      0.62 TIME LEFT: 172799.36
 STEP:  15 TIME =     0.04 SECS, INTEGRAL =      0.67 TIME LEFT: 172799.32
 STEP:  16 TIME =     0.04 SECS, INTEGRAL =      0.71 TIME LEFT: 172799.27
 STEP:  17 TIME =     0.04 SECS, INTEGRAL =      0.75 TIME LEFT: 172799.23
 STEP:  18 TIME =     0.04 SECS, INTEGRAL =      0.80 TIME LEFT: 172799.18
 STEP:  19 TIME =     0.04 SECS, INTEGRAL =      0.84 TIME LEFT: 172799.14
 STEP:  20 TIME =     0.04 SECS, INTEGRAL =      0.88 TIME LEFT: 172799.10
 STEP:  21 TIME =     0.04 SECS, INTEGRAL =      0.93 TIME LEFT: 172799.05
 STEP:  22 TIME =     0.04 SECS, INTEGRAL =      0.97 TIME LEFT: 172799.01
 STEP:  23 TIME =     0.04 SECS, INTEGRAL =      1.02 TIME LEFT: 172798.97
 STEP:  24 TIME =     0.04 SECS, INTEGRAL =      1.06 TIME LEFT: 172798.92
 STEP:  25 TIME =     0.04 SECS, INTEGRAL =      1.11 TIME LEFT: 172798.88
 STEP:  26 TIME =     0.04 SECS, INTEGRAL =      1.15 TIME LEFT: 172798.83
 STEP:  27 TIME =     0.05 SECS, INTEGRAL =      1.20 TIME LEFT: 172798.79
 STEP:  28 TIME =     0.04 SECS, INTEGRAL =      1.24 TIME LEFT: 172798.74
 STEP:  29 TIME =     0.05 SECS, INTEGRAL =      1.29 TIME LEFT: 172798.70
 STEP:  30 TIME =     0.05 SECS, INTEGRAL =      1.33 TIME LEFT: 172798.65
 STEP:  31 TIME =     0.04 SECS, INTEGRAL =      1.38 TIME LEFT: 172798.60
 STEP:  32 TIME =     0.04 SECS, INTEGRAL =      1.42 TIME LEFT: 172798.56
 STEP:  33 TIME =     0.05 SECS, INTEGRAL =      1.47 TIME LEFT: 172798.51
 STEP:  34 TIME =     0.05 SECS, INTEGRAL =      1.51 TIME LEFT: 172798.47
 STEP:  35 TIME =     0.05 SECS, INTEGRAL =      1.56 TIME LEFT: 172798.42
 STEP:  36 TIME =     0.04 SECS, INTEGRAL =      1.60 TIME LEFT: 172798.38
 STEP:  37 TIME =     0.05 SECS, INTEGRAL =      1.65 TIME LEFT: 172798.33
 STEP:  38 TIME =     0.05 SECS, INTEGRAL =      1.69 TIME LEFT: 172798.29
 STEP:  39 TIME =     0.04 SECS, INTEGRAL =      1.74 TIME LEFT: 172798.24
 STEP:  40 TIME =     0.05 SECS, INTEGRAL =      1.78 TIME LEFT: 172798.20
 STEP:  41 TIME =     0.05 SECS, INTEGRAL =      1.83 TIME LEFT: 172798.15
 STEP:  42 TIME =     0.04 SECS, INTEGRAL =      1.87 TIME LEFT: 172798.11
 STEP:  43 TIME =     0.04 SECS, INTEGRAL =      1.92 TIME LEFT: 172798.06
 STEP:  44 TIME =     0.04 SECS, INTEGRAL =      1.96 TIME LEFT: 172798.02
 STEP:  45 TIME =     0.05 SECS, INTEGRAL =      2.01 TIME LEFT: 172797.97
 STEP:  46 TIME =     0.05 SECS, INTEGRAL =      2.05 TIME LEFT: 172797.93
 STEP:  47 TIME =     0.05 SECS, INTEGRAL =      2.10 TIME LEFT: 172797.88
 STEP:  48 TIME =     0.04 SECS, INTEGRAL =      2.14 TIME LEFT: 172797.84
 STEP:  49 TIME =     0.04 SECS, INTEGRAL =      2.19 TIME LEFT: 172797.80
 STEP:  50 TIME =     0.04 SECS, INTEGRAL =      2.23 TIME LEFT: 172797.75
 STEP:  51 TIME =     0.04 SECS, INTEGRAL =      2.27 TIME LEFT: 172797.71
 STEP:  52 TIME =     0.04 SECS, INTEGRAL =      2.32 TIME LEFT: 172797.66
 STEP:  53 TIME =     0.04 SECS, INTEGRAL =      2.36 TIME LEFT: 172797.62
 STEP:  54 TIME =     0.05 SECS, INTEGRAL =      2.41 TIME LEFT: 172797.57
 STEP:  55 TIME =     0.05 SECS, INTEGRAL =      2.45 TIME LEFT: 172797.53
 STEP:  56 TIME =     0.05 SECS, INTEGRAL =      2.50 TIME LEFT: 172797.48
 STEP:  57 TIME =     0.04 SECS, INTEGRAL =      2.54 TIME LEFT: 172797.44
 STEP:  58 TIME =     0.04 SECS, INTEGRAL =      2.58 TIME LEFT: 172797.40
 STEP:  59 TIME =     0.05 SECS, INTEGRAL =      2.63 TIME LEFT: 172797.35
 STEP:  60 TIME =     0.05 SECS, INTEGRAL =      2.67 TIME LEFT: 172797.31
 STEP:  61 TIME =     0.04 SECS, INTEGRAL =      2.72 TIME LEFT: 172797.27
 STEP:  62 TIME =     0.05 SECS, INTEGRAL =      2.76 TIME LEFT: 172797.22
 STEP:  63 TIME =     0.05 SECS, INTEGRAL =      2.81 TIME LEFT: 172797.18
 STEP:  64 TIME =     0.05 SECS, INTEGRAL =      2.85 TIME LEFT: 172797.13
 STEP:  65 TIME =     0.04 SECS, INTEGRAL =      2.89 TIME LEFT: 172797.09
 STEP:  66 TIME =     0.04 SECS, INTEGRAL =      2.94 TIME LEFT: 172797.04
 STEP:  67 TIME =     0.04 SECS, INTEGRAL =      2.98 TIME LEFT: 172797.00
 STEP:  68 TIME =     0.05 SECS, INTEGRAL =      3.03 TIME LEFT: 172796.95
 STEP:  69 TIME =     0.04 SECS, INTEGRAL =      3.07 TIME LEFT: 172796.91
 STEP:  70 TIME =     0.04 SECS, INTEGRAL =      3.12 TIME LEFT: 172796.87
 STEP:  71 TIME =     0.05 SECS, INTEGRAL =      3.16 TIME LEFT: 172796.82
 STEP:  72 TIME =     0.04 SECS, INTEGRAL =      3.20 TIME LEFT: 172796.78
 STEP:  73 TIME =     0.04 SECS, INTEGRAL =      3.25 TIME LEFT: 172796.73
 STEP:  74 TIME =     0.05 SECS, INTEGRAL =      3.30 TIME LEFT: 172796.68
 STEP:  75 TIME =     0.05 SECS, INTEGRAL =      3.34 TIME LEFT: 172796.64
 STEP:  76 TIME =     0.04 SECS, INTEGRAL =      3.39 TIME LEFT: 172796.59
 STEP:  77 TIME =     0.04 SECS, INTEGRAL =      3.43 TIME LEFT: 172796.55
 STEP:  78 TIME =     0.05 SECS, INTEGRAL =      3.48 TIME LEFT: 172796.50
 STEP:  79 TIME =     0.04 SECS, INTEGRAL =      3.52 TIME LEFT: 172796.46
 STEP:  80 TIME =     0.05 SECS, INTEGRAL =      3.57 TIME LEFT: 172796.41
 STEP:  81 TIME =     0.05 SECS, INTEGRAL =      3.61 TIME LEFT: 172796.37

(To convert to Hartree/Bohr^2, multiply by (10^(-21) x N x a0^2)/(4.184 x 627.51) = 0.0642)


           FORCE MATRIX IN MILLIDYNES/ANGSTROM


                  C  1       C  2       C  3       C  4       C  5       C  6
 ------------------------------------------------------------------------------
     C    1  14.089113
     C    2   3.180678  14.391527
     C    3   0.509828   3.536860  14.497917
     C    4   0.044015   0.615996   3.825353  14.326965
     C    5   3.517336   0.696545   0.034720   0.005356  14.647258
     C    6   3.940981   0.555005   0.126410   0.004848   0.596641  14.766516
     C    7   0.008445   0.049507   0.623942   4.455031   0.001179   0.000761
     C    8   0.844636   4.457106   0.625221   0.046290   1.188424   0.028399
     C    9   0.081371   0.679676   4.697285   0.670507   0.002183   0.938443
     C   10   0.868494   1.138169   0.040771   0.003123   4.797071   0.029351
     C   11   0.711366   0.080432   0.897741   0.054090   0.049526   5.020520
     H   12   4.314378   0.421101   0.025062   0.003318   0.423184   0.422878
     H   13   0.419677   4.221727   0.439360   0.061482   0.023894   0.030487
     H   14   0.010890   0.437441   4.122967   0.431933   0.001437   0.022703
     H   15   0.002286   0.057845   0.438079   4.419877   0.000856   0.001278
     H   16   0.001034   0.018408   0.449533   4.453261   0.000371   0.000479
     H   17   0.445169   0.029913   0.002349   0.000527   4.485192   0.066128
     H   18   0.432945   0.025745   0.003642   0.000821   4.514378   0.028381
     H   19   0.456156   0.010071   0.023789   0.001472   0.042936   4.365914
     H   20   0.433849   0.045251   0.005140   0.000574   0.013640   4.504136
     H   21   0.001583   0.008300   0.050238   0.448748   0.000385   0.000236
     H   22   0.000380   0.001628   0.018124   0.464677   0.000223   0.000243
     H   23   0.000469   0.001959   0.023854   0.463463   0.000205   0.000222
     H   24   0.042859   0.113313   0.014951   0.000703   0.412956   0.003421
     H   25   0.040982   0.413974   0.012497   0.015601   0.114988   0.003185
     H   26   0.034109   0.010430   0.117661   0.008490   0.006194   0.429012
     H   27   0.010220   0.033943   0.435852   0.046838   0.001377   0.118449


                  C  7       C  8       C  9       C 10       C 11       H 12
 ------------------------------------------------------------------------------
     C    7  14.348275
     C    8   0.002302  18.374804
     C    9   0.050111   0.046742  18.274784
     C   10   0.001227  10.630327   0.007655  18.425868
     C   11   0.002710   0.003259  10.653315   0.005280  18.234415
     H   12   0.000815   0.029820   0.004165   0.028628   0.012074   4.750041
     H   13   0.002238   0.403665   0.008726   0.036709   0.004370   0.020725
     H   14   0.042600   0.043513   0.391500   0.003827   0.037302   0.001091
     H   15   0.434467   0.018862   0.048899   0.001021   0.009501   0.000323
     H   16   0.438490   0.002308   0.032662   0.000978   0.003143   0.000220
     H   17   0.000282   0.039024   0.000852   0.429915   0.002697   0.024538
     H   18   0.000287   0.037590   0.000981   0.428762   0.005075   0.028622
     H   19   0.000343   0.001249   0.033371   0.001873   0.410240   0.042640
     H   20   0.000173   0.004096   0.051420   0.001285   0.441433   0.037555
     H   21   4.747422   0.000522   0.002741   0.000643   0.000702   0.000233
     H   22   4.703110   0.000620   0.016353   0.000534   0.001040   0.000078
     H   23   4.723185   0.000525   0.002327   0.000312   0.000588   0.000099
     H   24   0.000297   0.449574   0.002463   5.016405   0.001323   0.003244
     H   25   0.001805   4.984864   0.001814   0.448103   0.001471   0.003227
     H   26   0.000609   0.001256   0.447226   0.000998   4.888750   0.001149
     H   27   0.017178   0.006635   4.831970   0.001738   0.444377   0.000621


                  H 13       H 14       H 15       H 16       H 17       H 18
 ------------------------------------------------------------------------------
     H   13   4.678720
     H   14   0.038430   4.593033
     H   15   0.019547   0.016948   5.036450
     H   16   0.020014   0.041873   0.568364   5.073504
     H   17   0.003167   0.000513   0.000205   0.000132   5.107224
     H   18   0.001305   0.000497   0.000196   0.000127   0.572278   5.117536
     H   19   0.001286   0.012513   0.000300   0.000480   0.028883   0.001881
     H   20   0.004082   0.001294   0.000207   0.000251   0.007252   0.000603
     H   21   0.000539   0.002304   0.031409   0.030805   0.000112   0.000103
     H   22   0.000473   0.002625   0.047474   0.023294   0.000104   0.000074
     H   23   0.000486   0.026583   0.026399   0.047979   0.000086   0.000045
     H   24   0.014590   0.000794   0.000437   0.000144   0.015708   0.014190
     H   25   0.013328   0.004510   0.019574   0.000962   0.015292   0.015828
     H   26   0.000453   0.012972   0.001737   0.000607   0.000597   0.000779
     H   27   0.001001   0.015824   0.002494   0.021472   0.000152   0.000221


                  H 19       H 20       H 21       H 22       H 23       H 24
 ------------------------------------------------------------------------------
     H   19   4.970087
     H   20   0.563940   5.095802
     H   21   0.000136   0.000142   5.486048
     H   22   0.000185   0.000126   0.573910   5.446484
     H   23   0.000185   0.000091   0.573172   0.576701   5.465163
     H   24   0.000501   0.000404   0.000121   0.000088   0.000151   5.412588
     H   25   0.000513   0.001011   0.000460   0.000627   0.000416   0.047870
     H   26   0.017359   0.033997   0.000198   0.000428   0.000263   0.000366
     H   27   0.013724   0.008030   0.001283   0.020072   0.001061   0.000534


                  H 25       H 26       H 27
 ------------------------------------------
     H   25   5.382046
     H   26   0.000298   5.265221
     H   27   0.000615   0.064079   5.215831


          HEAT OF FORMATION =       7.252366 KCALS/MOLE

          ZERO POINT ENERGY     150.593 KCAL/MOL


           NORMAL COORDINATE ANALYSIS (Total motion = 1 Angstrom)


   Root No.       1         2         3         4         5         6         7         8

                 1 A       2 A       3 A       4 A       5 A       6 A       7 A       8 A   

                  67.2      93.8     129.6     186.6     216.6     245.7     331.5     351.1
  
           1    0.0084   -0.0027    0.0014    0.0022   -0.0003    0.0080   -0.0039    0.0029
           2   -0.0034    0.0052   -0.0098    0.0020   -0.0108    0.0034   -0.0114    0.0001
           3    0.0126   -0.0044    0.0038   -0.0022    0.0155   -0.0099    0.0092    0.0008
           4    0.0082   -0.0021    0.0008    0.0032    0.0008    0.0096    0.0008   -0.0031
           5    0.0030   -0.0053    0.0045   -0.0069   -0.0274   -0.0036   -0.0072    0.0027
           6   -0.0184    0.0009   -0.0033   -0.0059    0.0258   -0.0211    0.0139   -0.0039
           7    0.0085    0.0018    0.0019    0.0073    0.0075    0.0127    0.0022   -0.0133
           8    0.0031   -0.0069    0.0039   -0.0087   -0.0315   -0.0043    0.0031    0.0053
           9   -0.0088   -0.0146   -0.0214   -0.0034    0.0154    0.0035   -0.0167   -0.0284
          10    0.0029    0.0080   -0.0049    0.0053    0.0073    0.0034    0.0026   -0.0319
          11   -0.0020   -0.0057   -0.0017    0.0062   -0.0062    0.0235    0.0301   -0.0133
          12    0.0095   -0.0365    0.0040    0.0064    0.0167    0.0437   -0.0019    0.0114
          13   -0.0103   -0.0058    0.0036   -0.0083   -0.0011   -0.0121   -0.0142    0.0090
          14   -0.0290    0.0103    0.0154    0.0086    0.0080    0.0113    0.0077   -0.0071
          15    0.0385   -0.0069   -0.0170   -0.0032    0.0007   -0.0084   -0.0001    0.0039
          16    0.0042    0.0067   -0.0295    0.0070    0.0064    0.0040    0.0080    0.0295
          17   -0.0069    0.0098   -0.0211    0.0043   -0.0075    0.0017   -0.0114    0.0116
          18   -0.0084   -0.0014    0.0500    0.0021    0.0032    0.0038   -0.0158    0.0012
          19    0.0078   -0.0208    0.0137   -0.0158   -0.0349   -0.0063    0.0365   -0.0380
          20    0.0051    0.0353   -0.0094    0.0201    0.0145    0.0173    0.0133   -0.0170
          21    0.0439    0.0370    0.0204    0.0038   -0.0102   -0.0055    0.0057    0.0029
          22   -0.0137   -0.0036    0.0045   -0.0069   -0.0015   -0.0100   -0.0113    0.0076
          23    0.0195   -0.0260   -0.0069   -0.0135   -0.0019   -0.0180   -0.0218    0.0007
          24   -0.0358    0.0140    0.0051   -0.0049    0.0076   -0.0190    0.0204    0.0003
          25    0.0028    0.0136    0.0020    0.0104    0.0122    0.0056   -0.0062    0.0152
          26    0.0073   -0.0067    0.0226   -0.0085   -0.0014   -0.0054   -0.0026    0.0273
          27   -0.0189   -0.0036   -0.0436    0.0006   -0.0167   -0.0003   -0.0166   -0.0264
          28   -0.0239   -0.0052    0.0063   -0.0122   -0.0034   -0.0189   -0.0159    0.0097
          29    0.0013   -0.0185   -0.0002   -0.0080    0.0424   -0.0308    0.0262    0.0021
          30   -0.0049    0.0108   -0.0025   -0.0007   -0.0224    0.0039   -0.0100   -0.0032
          31    0.0029    0.0134    0.0010    0.0108    0.0135    0.0063   -0.0075    0.0138
          32    0.0051    0.0015    0.0049   -0.0024    0.0147   -0.0031   -0.0284   -0.0100
          33   -0.0204    0.0022   -0.0034    0.0052   -0.0287    0.0048    0.0108    0.0392
          34    0.0268   -0.0080    0.0174    0.0030   -0.0139    0.0183   -0.0116   -0.0038
          35    0.0175    0.0048   -0.0446    0.0013   -0.0114   -0.0014   -0.0078    0.0066
          36    0.0294   -0.0066   -0.0068   -0.0023    0.0097   -0.0083    0.0074    0.0014
          37    0.0253   -0.0072    0.0044    0.0032   -0.0018    0.0114    0.0042    0.0010
          38   -0.0115    0.0062    0.0160   -0.0083   -0.0341   -0.0134    0.0150    0.0140
          39   -0.0339    0.0099    0.0026   -0.0068    0.0214   -0.0274    0.0252    0.0016
          40    0.0230   -0.0128    0.0189    0.0114    0.0106    0.0308    0.0015   -0.0020
          41    0.0045   -0.0094   -0.0120   -0.0082   -0.0534   -0.0018   -0.0155   -0.0125
          42   -0.0086   -0.0150   -0.0274   -0.0031    0.0055    0.0042   -0.0227   -0.0352
          43    0.0097    0.0192   -0.0022    0.0224    0.0247    0.0207    0.0072   -0.0224
          44    0.0066    0.0329   -0.0053    0.0097   -0.0018    0.0046    0.0209   -0.0239
          45   -0.0002   -0.0998    0.0136    0.0185    0.0271    0.1000    0.0209    0.0425
          46   -0.0125    0.0228   -0.0269   -0.0028    0.0160   -0.0171   -0.0160   -0.0633
          47   -0.0215   -0.0753   -0.0013    0.0155    0.0110    0.0807    0.0474    0.0071
          48    0.0072   -0.0477    0.0051    0.0083    0.0187    0.0533    0.0021    0.0163
          49   -0.0538    0.0154    0.0278    0.0015   -0.0236    0.0163   -0.0279   -0.0034
          50   -0.0574    0.0228    0.0395    0.0190    0.0090    0.0331    0.0137   -0.0170
          51    0.0593   -0.0181   -0.0226   -0.0051    0.0231   -0.0202    0.0172    0.0092
          52    0.0306   -0.0303   -0.0221   -0.0230    0.0230   -0.0512   -0.0030    0.0250
          53   -0.0423    0.0235    0.0225    0.0169   -0.0115    0.0347   -0.0036   -0.0145
          54    0.0698   -0.0116   -0.0401   -0.0053   -0.0117   -0.0103   -0.0115    0.0106
          55    0.0036    0.0105   -0.1107    0.0088   -0.0070   -0.0049    0.0617    0.0907
          56   -0.0220    0.0123   -0.0177    0.0080   -0.0263    0.0104   -0.0108    0.0266
          57   -0.0139   -0.0003    0.0464    0.0035   -0.0049    0.0065   -0.0131    0.0099
          58    0.0044    0.0062   -0.0124    0.0068    0.0094    0.0058   -0.0034    0.0173
          59   -0.0061    0.0168   -0.0455    0.0074   -0.0011   -0.0040    0.0012    0.0301
          60   -0.0075   -0.0026    0.1235    0.0016    0.0185    0.0111   -0.0663   -0.0538
          61    0.0033   -0.0119    0.0061   -0.0635   -0.0194    0.0176    0.0317   -0.0338
          62   -0.0018    0.0273   -0.0199    0.1266    0.0405    0.0019   -0.0213   -0.0135
          63    0.0560    0.0072    0.0418    0.1790   -0.0525   -0.0839    0.0138   -0.0106
          64    0.0024   -0.0246    0.0140   -0.1500   -0.0396    0.0395    0.0627   -0.0348
          65   -0.0033   -0.0049   -0.0050    0.0413    0.0030    0.0195    0.0241   -0.0166
          66    0.0559    0.1141    0.0120   -0.1605    0.0089    0.0319    0.0071    0.0060
          67    0.0221   -0.0484    0.0374    0.1460   -0.0826   -0.0844    0.0506   -0.0536
          68    0.0259    0.1167   -0.0096   -0.0954    0.0187    0.0255    0.0175   -0.0197
          69    0.0473    0.0486    0.0209   -0.0103   -0.0106   -0.0059    0.0069    0.0020
          70   -0.0403   -0.0061    0.0093   -0.0187   -0.0058   -0.0303   -0.0177    0.0105
          71    0.0057   -0.0300   -0.0041   -0.0132    0.0892   -0.0600    0.0604    0.0071
          72   -0.0079    0.0186    0.0001    0.0028   -0.0540    0.0235   -0.0331   -0.0064
          73   -0.0199   -0.0032    0.0061   -0.0086   -0.0009   -0.0140   -0.0114    0.0095
          74    0.0430   -0.0457   -0.0178   -0.0239   -0.0061   -0.0293   -0.0565    0.0044
          75   -0.0687    0.0245    0.0155   -0.0060    0.0115   -0.0277    0.0358    0.0056
          76    0.0019    0.0192    0.0159    0.0151    0.0187    0.0095   -0.0135    0.0127
          77    0.0108    0.0005    0.0211   -0.0031    0.0458   -0.0032   -0.0611   -0.0533
          78   -0.0280    0.0090   -0.0065    0.0103   -0.0596    0.0082    0.0424    0.0875
          79    0.0000    0.0210    0.0079    0.0126    0.0143    0.0040   -0.0097    0.0340
          80    0.0148   -0.0156    0.0560   -0.0125    0.0132   -0.0023    0.0041    0.0459
          81   -0.0243   -0.0005   -0.0833    0.0033   -0.0337   -0.0015   -0.0208   -0.0621


   Root No.       9        10        11        12        13        14        15        16

                 9 A      10 A      11 A      12 A      13 A      14 A      15 A      16 A   

                 391.2     421.7     460.4     513.8     545.1     680.8     735.2     744.2
  
           1    0.0303   -0.0224   -0.0075    0.0095    0.0006   -0.0241    0.0229    0.0054
           2   -0.0131   -0.0271   -0.0207    0.0046   -0.0200   -0.0142   -0.0019    0.0004
           3    0.0266    0.0074   -0.0105   -0.0172    0.0022    0.0337   -0.0295    0.0188
           4    0.0239   -0.0188   -0.0118    0.0081   -0.0023   -0.0175    0.0217   -0.0037
           5   -0.0107    0.0043   -0.0148    0.0128    0.0390    0.0157    0.0001   -0.0031
           6   -0.0005    0.0179   -0.0015   -0.0087   -0.0119   -0.0238    0.0187    0.0170
           7   -0.0170    0.0080   -0.0231    0.0158    0.0092    0.0109    0.0083    0.0040
           8    0.0074   -0.0016    0.0042    0.0154    0.0367    0.0019    0.0022    0.0130
           9    0.0066    0.0170    0.0170    0.0362   -0.0195   -0.0154   -0.0214   -0.0027
          10   -0.0171    0.0165   -0.0180    0.0295   -0.0056    0.0228    0.0122    0.0067
          11   -0.0048   -0.0021    0.0236   -0.0216   -0.0083   -0.0110   -0.0087   -0.0033
          12   -0.0103   -0.0002   -0.0066    0.0067    0.0068    0.0064   -0.0009    0.0045
          13    0.0028   -0.0150   -0.0039   -0.0070   -0.0154    0.0133   -0.0256    0.0238
          14    0.0337   -0.0043   -0.0308   -0.0054   -0.0044   -0.0038   -0.0183   -0.0093
          15    0.0040   -0.0195   -0.0184   -0.0048   -0.0067    0.0012   -0.0181    0.0026
          16    0.0251    0.0139    0.0285   -0.0016    0.0116   -0.0042    0.0213   -0.0049
          17   -0.0177   -0.0175    0.0015   -0.0063   -0.0264    0.0052    0.0008    0.0093
          18   -0.0040   -0.0045    0.0199   -0.0026   -0.0038    0.0209    0.0136   -0.0067
          19   -0.0062    0.0062    0.0155   -0.0046   -0.0169    0.0054    0.0004    0.0010
          20   -0.0124    0.0072    0.0077   -0.0025   -0.0088    0.0032   -0.0035   -0.0010
          21    0.0013   -0.0023    0.0024   -0.0053    0.0007   -0.0009    0.0007    0.0002
          22    0.0044   -0.0162   -0.0098   -0.0071   -0.0101    0.0016   -0.0101   -0.0259
          23   -0.0068    0.0447   -0.0204   -0.0226   -0.0020   -0.0057    0.0074   -0.0137
          24   -0.0132   -0.0034   -0.0036    0.0045    0.0208   -0.0049    0.0192    0.0026
          25   -0.0184    0.0118    0.0118   -0.0131    0.0201   -0.0156   -0.0210   -0.0008
          26    0.0120    0.0197    0.0277    0.0390   -0.0003   -0.0181   -0.0161    0.0215
          27    0.0070   -0.0102    0.0256   -0.0043    0.0260   -0.0071   -0.0104   -0.0057
          28   -0.0092   -0.0008   -0.0011   -0.0108   -0.0079    0.0100   -0.0079   -0.0004
          29   -0.0018   -0.0146   -0.0141    0.0014    0.0138   -0.0039    0.0004   -0.0279
          30    0.0048    0.0166   -0.0250   -0.0118    0.0027   -0.0156    0.0158   -0.0292
          31   -0.0179    0.0110    0.0143   -0.0169    0.0234   -0.0189   -0.0233   -0.0018
          32    0.0135   -0.0166    0.0361   -0.0088   -0.0109    0.0266    0.0299    0.0140
          33   -0.0097   -0.0010    0.0042    0.0136   -0.0275    0.0110    0.0168   -0.0089
          34    0.0380   -0.0381   -0.0208    0.0203    0.0231   -0.0153    0.0267   -0.0136
          35   -0.0172   -0.0409   -0.0332    0.0013   -0.0389   -0.0287   -0.0260    0.0121
          36    0.0263   -0.0062   -0.0215   -0.0142    0.0010    0.0285   -0.0399    0.0172
          37    0.0512   -0.0119   -0.0087   -0.0030    0.0084    0.0007    0.0166    0.0138
          38   -0.0172   -0.0092   -0.0155    0.0097    0.0776    0.0248    0.0356    0.0107
          39   -0.0149    0.0060   -0.0036   -0.0054    0.0090   -0.0251    0.0427    0.0180
          40   -0.0313    0.0134   -0.0470    0.0363    0.0154    0.0419    0.0171    0.0168
          41    0.0128   -0.0142    0.0086    0.0256    0.0682    0.0223   -0.0091   -0.0109
          42    0.0088    0.0109    0.0194    0.0387   -0.0062   -0.0079   -0.0252   -0.0109
          43   -0.0285    0.0125   -0.0261    0.0066   -0.0090    0.0306    0.0226   -0.0006
          44   -0.0014    0.0045    0.0213   -0.0052   -0.0175   -0.0128   -0.0166   -0.0027
          45   -0.0303   -0.0170   -0.0108   -0.0503    0.0221    0.0196    0.0261   -0.0045
          46   -0.0091    0.0344   -0.0116    0.0769   -0.0261    0.0163   -0.0093    0.0119
          47   -0.0238   -0.0120    0.0219   -0.0617   -0.0010    0.0001    0.0100   -0.0126
          48   -0.0135   -0.0031   -0.0067   -0.0033    0.0092    0.0078    0.0033    0.0025
          49    0.0477    0.0414   -0.0267   -0.0394   -0.0215    0.0225   -0.0281    0.0667
          50    0.0916    0.0370   -0.0460   -0.0280    0.0028    0.0153   -0.0310    0.0348
          51    0.0012   -0.0449   -0.0058    0.0107    0.0041    0.0069   -0.0248   -0.0070
          52   -0.0597   -0.0717    0.0249    0.0231   -0.0113    0.0156   -0.0316   -0.0243
          53    0.0590    0.0158   -0.0461   -0.0156   -0.0127   -0.0182   -0.0070    0.0141
          54   -0.0334   -0.0615   -0.0108    0.0196   -0.0215   -0.0354    0.0039   -0.0191
          55    0.0623    0.0607    0.0287    0.0062   -0.0163    0.1155    0.0259   -0.0455
          56   -0.0350   -0.0259   -0.0029    0.0135   -0.0522   -0.0211    0.0274   -0.0167
          57   -0.0097   -0.0060    0.0181    0.0050   -0.0149    0.0162    0.0239   -0.0174
          58    0.0169    0.0048    0.0294   -0.0043    0.0182   -0.0268    0.0207    0.0027
          59   -0.0277    0.0152    0.0151   -0.0243   -0.0160    0.0553   -0.0432    0.0040
          60   -0.0450   -0.0411    0.0259   -0.0178    0.0298   -0.0810   -0.0011    0.0293
          61   -0.0106    0.0073    0.0076    0.0028   -0.0127    0.0125    0.0042    0.0049
          62   -0.0232    0.0195   -0.0290    0.0427    0.0072    0.0398    0.0231    0.0171
          63    0.0123   -0.0027    0.0197   -0.0189   -0.0107   -0.0149   -0.0058   -0.0089
          64   -0.0033   -0.0034    0.0411   -0.0366   -0.0269   -0.0195   -0.0229   -0.0107
          65   -0.0103    0.0034    0.0216   -0.0156   -0.0134   -0.0096   -0.0177   -0.0053
          66   -0.0005   -0.0033   -0.0028   -0.0077    0.0014    0.0029    0.0088   -0.0019
          67    0.0064    0.0043    0.0392   -0.0250   -0.0321   -0.0137   -0.0114   -0.0113
          68   -0.0102    0.0067    0.0079   -0.0091   -0.0128    0.0042    0.0042   -0.0064
          69    0.0019   -0.0025    0.0033   -0.0072   -0.0005   -0.0013    0.0016   -0.0011
          70   -0.0293    0.0237    0.0091   -0.0124    0.0073    0.0073    0.0299   -0.0044
          71   -0.0130   -0.0420   -0.0017    0.0038    0.0142   -0.0208    0.0595    0.0598
          72    0.0123    0.0351   -0.0336   -0.0136    0.0025   -0.0043   -0.0240   -0.0889
          73   -0.0014   -0.0159   -0.0070   -0.0081   -0.0080    0.0108   -0.0202   -0.0258
          74   -0.0179    0.1081   -0.0296   -0.0793   -0.0521   -0.0410    0.0820    0.0679
          75   -0.0287   -0.0323    0.0104    0.0269    0.0507    0.0441   -0.0517   -0.0336
          76   -0.0381    0.0011    0.0030   -0.0357    0.0083   -0.0005   -0.0205   -0.0096
          77    0.0227   -0.0242    0.0706   -0.0263   -0.0111    0.0720    0.0534   -0.0936
          78   -0.0417   -0.0023   -0.0476    0.0157   -0.0420   -0.0235   -0.0079    0.1097
          79   -0.0196    0.0056    0.0263   -0.0291    0.0010   -0.0051   -0.0067   -0.0132
          80    0.0176    0.0527    0.0368    0.0968   -0.0425   -0.0348   -0.0527   -0.0729
          81    0.0012   -0.0403    0.0032   -0.0524    0.0869    0.0019    0.0161    0.1054


   Root No.      17        18        19        20        21        22        23        24

                17 A      18 A      19 A      20 A      21 A      22 A      23 A      24 A   

                 778.4     792.2     829.8     890.1     894.2     930.5     956.6     977.3
  
           1   -0.0161   -0.0202   -0.0055   -0.0122   -0.0064   -0.0108   -0.0005   -0.0070
           2   -0.0022   -0.0191   -0.0024    0.0009   -0.0064   -0.0070    0.0057   -0.0060
           3   -0.0023   -0.0022    0.0009   -0.0001    0.0117    0.0054   -0.0147    0.0020
           4    0.0003    0.0085   -0.0007    0.0077    0.0521   -0.0053   -0.0031   -0.0008
           5    0.0015   -0.0157   -0.0074   -0.0075   -0.0127   -0.0117   -0.0089    0.0014
           6   -0.0211   -0.0165   -0.0002    0.0073    0.0299    0.0046    0.0110    0.0016
           7    0.0003   -0.0031   -0.0030    0.0032    0.0105   -0.0098   -0.0018    0.0125
           8    0.0064   -0.0012   -0.0010    0.0112    0.0208    0.0091    0.0043    0.0045
           9    0.0013    0.0052    0.0024   -0.0033   -0.0072   -0.0232   -0.0068    0.0033
          10   -0.0004    0.0021    0.0161    0.0004   -0.0025    0.0121    0.0018   -0.0040
          11    0.0001    0.0015   -0.0178    0.0005    0.0036   -0.0058   -0.0008    0.0030
          12    0.0010    0.0079   -0.0285    0.0008   -0.0023    0.0070    0.0003    0.0024
          13   -0.0077   -0.0296   -0.0021    0.0054   -0.0061    0.0029    0.0058    0.0036
          14   -0.0144   -0.0096    0.0010    0.0358   -0.0253    0.0041   -0.0046   -0.0054
          15    0.0152   -0.0017    0.0018   -0.0145   -0.0135    0.0040    0.0120    0.0064
          16   -0.0129    0.0010   -0.0020   -0.0159   -0.0396    0.0177   -0.0075    0.0130
          17    0.0039    0.0065    0.0002   -0.0092    0.0239    0.0049   -0.0089    0.0056
          18   -0.0028    0.0016   -0.0049    0.0143   -0.0057   -0.0163    0.0083   -0.0067
          19   -0.0006    0.0025    0.0068   -0.0001   -0.0072    0.0162    0.0068   -0.0132
          20    0.0003    0.0017   -0.0037   -0.0018   -0.0090    0.0021    0.0002   -0.0012
          21    0.0000    0.0004   -0.0068    0.0012    0.0031    0.0098    0.0036   -0.0099
          22    0.0258    0.0413    0.0085    0.0094   -0.0077    0.0064    0.0030    0.0049
          23   -0.0280   -0.0039   -0.0019   -0.0250    0.0053   -0.0068    0.0107   -0.0127
          24    0.0023   -0.0125   -0.0060    0.0013   -0.0052   -0.0038   -0.0135    0.0004
          25    0.0059   -0.0026   -0.0007    0.0054    0.0067   -0.0058    0.0056   -0.0049
          26    0.0003    0.0198    0.0189    0.0126   -0.0004    0.0003    0.0281    0.0019
          27    0.0129   -0.0137    0.0125    0.0023    0.0095    0.0132   -0.0088   -0.0095
          28    0.0035    0.0028    0.0005   -0.0023   -0.0054   -0.0001   -0.0013   -0.0019
          29   -0.0024    0.0243    0.0039   -0.0076    0.0049    0.0064   -0.0001    0.0114
          30    0.0199    0.0304    0.0030    0.0057   -0.0079   -0.0029    0.0003   -0.0076
          31    0.0060   -0.0026   -0.0028    0.0046    0.0057   -0.0055    0.0022   -0.0037
          32   -0.0118    0.0246    0.0022   -0.0076   -0.0057   -0.0015   -0.0200   -0.0083
          33    0.0032   -0.0079   -0.0013   -0.0090    0.0024    0.0101    0.0101    0.0122
          34    0.0019   -0.0129   -0.0128   -0.0389   -0.0299   -0.0615   -0.0220   -0.0395
          35    0.0166   -0.0242    0.0043   -0.0534    0.0022    0.0230    0.0157    0.0205
          36    0.0130   -0.0030    0.0015   -0.0359    0.0035    0.0018   -0.0167    0.0031
          37   -0.0170    0.0080   -0.0018   -0.0031    0.1210    0.0023   -0.0313   -0.0184
          38    0.0227   -0.0360   -0.0175    0.0166   -0.0097    0.0121   -0.0239    0.0352
          39   -0.0017   -0.0298   -0.0064    0.0251    0.0038    0.0149    0.0118    0.0288
          40   -0.0022    0.0144   -0.0353   -0.0030   -0.0262   -0.0355   -0.0086    0.0832
          41    0.0413   -0.0178    0.0037    0.0076    0.0250    0.0116   -0.0571   -0.0039
          42    0.0149   -0.0015    0.0063   -0.0040   -0.0039   -0.0199   -0.0301   -0.0022
          43   -0.0030   -0.0043    0.0272   -0.0050   -0.0058    0.0260    0.0025   -0.0248
          44   -0.0001    0.0174   -0.0962   -0.0011    0.0014    0.0059   -0.0006   -0.0012
          45   -0.0011   -0.0318    0.1465   -0.0019   -0.0024   -0.0005    0.0010   -0.0126
          46   -0.0007    0.0259   -0.0442   -0.0050   -0.0220   -0.0304   -0.0176    0.0464
          47   -0.0020   -0.0347    0.1570   -0.0057   -0.0031   -0.0406   -0.0126    0.0136
          48    0.0006    0.0003    0.0050    0.0001   -0.0020    0.0020   -0.0010    0.0022
          49    0.0712   -0.0213   -0.0013   -0.0926    0.0183   -0.0024    0.0418    0.0135
          50    0.0324   -0.0087    0.0013   -0.0592    0.0039    0.0135    0.0028    0.0319
          51   -0.0298   -0.0106    0.0009    0.0133   -0.0161    0.0157   -0.0182    0.0234
          52   -0.0900   -0.0309   -0.0013    0.1181   -0.0188    0.0147   -0.0366    0.0008
          53    0.0221   -0.0242   -0.0024   -0.0101   -0.0406   -0.0128    0.0286   -0.0245
          54   -0.0268   -0.0402   -0.0055    0.0566   -0.0765   -0.0217    0.0305   -0.0507
          55    0.0079   -0.0117   -0.0224    0.0641    0.0002   -0.0759    0.0324   -0.0348
          56    0.0159   -0.0213   -0.0045   -0.0299    0.0282    0.0114    0.0499    0.0403
          57    0.0023   -0.0086   -0.0075    0.0095   -0.0022   -0.0176    0.0317    0.0047
          58   -0.0173    0.0043    0.0010   -0.0321   -0.0498    0.0357   -0.0173    0.0231
          59    0.0296    0.0276   -0.0023    0.0374    0.0812   -0.0169   -0.0257   -0.0054
          60   -0.0177    0.0212    0.0117   -0.0523   -0.0405    0.0688   -0.0383    0.0406
          61    0.0000    0.0063   -0.0042    0.0024   -0.0063    0.0416    0.0161   -0.0329
          62    0.0018    0.0049    0.0420    0.0084   -0.0065    0.0934    0.0368   -0.0720
          63   -0.0015   -0.0109    0.0381   -0.0052   -0.0009   -0.0514   -0.0185    0.0377
          64   -0.0001    0.0095   -0.0822   -0.0065   -0.0105   -0.0182   -0.0118    0.0124
          65    0.0012    0.0112   -0.0823   -0.0034   -0.0089    0.0039   -0.0031   -0.0040
          66   -0.0013   -0.0136    0.0772   -0.0015    0.0001   -0.0250   -0.0069    0.0189
          67   -0.0020   -0.0080    0.0393   -0.0093   -0.0161   -0.0609   -0.0230    0.0491
          68   -0.0016   -0.0188    0.1173   -0.0076   -0.0182   -0.0581   -0.0191    0.0485
          69   -0.0004   -0.0034    0.0149   -0.0001    0.0014   -0.0024   -0.0004   -0.0001
          70   -0.0274   -0.0071   -0.0097   -0.0379    0.0308   -0.0232   -0.0320   -0.0263
          71    0.1881    0.0061   -0.0096   -0.0253   -0.0480   -0.0443    0.0165   -0.0580
          72   -0.1090    0.0424    0.0120    0.0171    0.0267    0.0311   -0.0112    0.0387
          73    0.0150    0.0341    0.0077   -0.0074   -0.0258    0.0046    0.0059   -0.0034
          74    0.0789   -0.0555   -0.0141    0.1137   -0.0755    0.0246   -0.0679    0.0319
          75   -0.0858   -0.0170   -0.0029   -0.1218   -0.0353   -0.0244    0.0338   -0.0493
          76    0.0105   -0.0060   -0.0244    0.0050    0.0441   -0.0375   -0.0130   -0.0103
          77    0.0425   -0.0858   -0.0291    0.0026    0.0404    0.0071    0.0673    0.0391
          78   -0.0554    0.1183    0.0144   -0.0204   -0.0115   -0.0315   -0.1073   -0.0493
          79    0.0044   -0.0019   -0.0155   -0.0144   -0.0034    0.0038   -0.0161   -0.0203
          80    0.0634   -0.0847    0.0276   -0.0165    0.0392    0.0373   -0.0753   -0.0250
          81   -0.0525    0.0969    0.0163    0.0503   -0.0226   -0.0350    0.1198    0.0320


   Root No.      25        26        27        28        29        30        31        32

                25 A      26 A      27 A      28 A      29 A      30 A      31 A      32 A   

                 994.4    1005.4    1022.2    1051.5    1058.9    1071.3    1072.1    1082.0
  
           1    0.0160    0.0019   -0.0050   -0.0076   -0.0037    0.0055    0.0035   -0.0002
           2    0.0033   -0.0047    0.0025    0.0125   -0.0042   -0.0098   -0.0027   -0.0151
           3   -0.0038   -0.0211    0.0013    0.0035   -0.0103    0.0012   -0.0003   -0.0049
           4   -0.0077    0.0009    0.0010    0.0032   -0.0001    0.0008    0.0048    0.0004
           5    0.0004    0.0059    0.0006   -0.0125   -0.0105   -0.0105    0.0102   -0.0053
           6   -0.0087    0.0165    0.0006    0.0023    0.0002    0.0108   -0.0019    0.0006
           7   -0.0086   -0.0019    0.0174    0.0096    0.0105    0.0050   -0.0082   -0.0099
           8   -0.0084   -0.0008   -0.0082    0.0096    0.0106    0.0057   -0.0100    0.0023
           9    0.0031    0.0019   -0.0103   -0.0085    0.0045   -0.0089    0.0187   -0.0037
          10    0.0011    0.0001    0.0162   -0.0029    0.0019   -0.0004    0.0077    0.0072
          11   -0.0028    0.0007   -0.0144    0.0040    0.0002    0.0027   -0.0039   -0.0043
          12   -0.0018    0.0009   -0.0174    0.0029   -0.0073    0.0033   -0.0109    0.0073
          13   -0.0118    0.0175    0.0009   -0.0114   -0.0004   -0.0247   -0.0012   -0.0017
          14   -0.0149   -0.0093   -0.0004   -0.0065   -0.0012    0.0071   -0.0003    0.0046
          15    0.0049    0.0177   -0.0003    0.0010    0.0125    0.0004    0.0001    0.0085
          16   -0.0193   -0.0048   -0.0042    0.0079    0.0106   -0.0065    0.0098   -0.0124
          17   -0.0021   -0.0060   -0.0043   -0.0051    0.0008    0.0088    0.0117    0.0013
          18    0.0020    0.0082   -0.0006    0.0115    0.0170   -0.0002   -0.0036   -0.0192
          19    0.0062    0.0009   -0.0248   -0.0006   -0.0044   -0.0012   -0.0032   -0.0048
          20    0.0031   -0.0001    0.0109   -0.0030   -0.0005   -0.0027    0.0013    0.0013
          21    0.0041    0.0011    0.0074   -0.0036    0.0038   -0.0030    0.0097   -0.0029
          22    0.0029    0.0063    0.0009    0.0042   -0.0007    0.0175    0.0007    0.0026
          23   -0.0181    0.0019    0.0004   -0.0080   -0.0016    0.0088   -0.0001   -0.0013
          24    0.0148   -0.0169   -0.0027    0.0018    0.0056   -0.0224   -0.0018    0.0025
          25    0.0083    0.0009    0.0006   -0.0046   -0.0052   -0.0015   -0.0093    0.0053
          26    0.0106   -0.0135    0.0153   -0.0032   -0.0105    0.0002    0.0023    0.0070
          27    0.0031    0.0068    0.0221    0.0060   -0.0134    0.0143   -0.0270   -0.0026
          28    0.0031   -0.0090   -0.0008    0.0061    0.0031    0.0153    0.0008    0.0029
          29    0.0210    0.0124    0.0012    0.0150    0.0003   -0.0273   -0.0022    0.0013
          30   -0.0198   -0.0058    0.0004   -0.0211   -0.0068   -0.0113   -0.0043   -0.0083
          31    0.0045    0.0014   -0.0071   -0.0019    0.0016   -0.0008   -0.0028   -0.0004
          32    0.0019    0.0159    0.0097   -0.0025   -0.0036   -0.0007   -0.0187    0.0064
          33   -0.0027   -0.0130    0.0034   -0.0019   -0.0231   -0.0049    0.0093    0.0162
          34    0.1074   -0.0253   -0.0122   -0.0159   -0.0782    0.0171    0.0525   -0.0299
          35    0.0345   -0.0607    0.0020    0.0449    0.0034   -0.0114   -0.0381   -0.0760
          36    0.0445   -0.0574   -0.0013    0.0170   -0.0330    0.0050   -0.0006   -0.0450
          37   -0.0392   -0.0902   -0.0099   -0.0082    0.0148   -0.0502   -0.0137    0.0755
          38    0.0129    0.1159   -0.0027   -0.0273   -0.0516    0.0743    0.0624    0.0093
          39    0.0127    0.1194    0.0024   -0.0030   -0.0314    0.0831    0.0383   -0.0199
          40   -0.0389   -0.0201    0.0169    0.0456   -0.0386    0.0479   -0.1039   -0.0129
          41   -0.0132    0.0094   -0.0382    0.0033    0.1269   -0.0570    0.0429    0.0568
          42    0.0022    0.0067   -0.0210   -0.0119    0.0511   -0.0341    0.0421    0.0184
          43    0.0164   -0.0124    0.1555   -0.0208    0.0186   -0.0054    0.0439    0.0198
          44    0.0001   -0.0045    0.0250    0.0026    0.0005    0.0070   -0.0026    0.0027
          45    0.0093   -0.0010    0.0477   -0.0139    0.0100   -0.0114    0.0253    0.0061
          46   -0.0190    0.0064   -0.0836    0.0016   -0.0399    0.0107   -0.0129    0.0491
          47   -0.0041    0.0038   -0.0028   -0.0102    0.0036   -0.0088    0.0282    0.0057
          48   -0.0011    0.0013   -0.0104    0.0000   -0.0049    0.0007   -0.0043    0.0076
          49   -0.0002    0.0708    0.0100    0.0380   -0.0058   -0.1180   -0.0084   -0.0102
          50    0.0491    0.0057   -0.0112   -0.0684    0.0361    0.0683    0.0036   -0.0050
          51    0.0390   -0.0243   -0.0171   -0.0921    0.0447    0.1323    0.0096    0.0084
          52   -0.0508   -0.0324    0.0000   -0.0893   -0.0267   -0.0478   -0.0114   -0.0420
          53   -0.0069    0.0207    0.0011    0.0913    0.0158    0.0269    0.0102    0.0521
          54   -0.0413    0.0164    0.0022    0.1351    0.0164    0.0220    0.0125    0.0748
          55    0.0275    0.0341   -0.0063    0.0173    0.0390   -0.0011   -0.0091   -0.0404
          56    0.0233   -0.0129   -0.0189   -0.0911    0.1225    0.0174   -0.0655   -0.0180
          57    0.0132    0.0070   -0.0063   -0.0200    0.0645    0.0032   -0.0335   -0.0286
          58   -0.0312   -0.0118   -0.0076    0.0094    0.0094   -0.0067    0.0236   -0.0134
          59   -0.0317    0.0009   -0.0245    0.0653   -0.0058    0.0483    0.1476   -0.0424
          60   -0.0605   -0.0268   -0.0152    0.0326    0.0072    0.0073    0.0788   -0.0296
          61    0.0141    0.0023   -0.0354   -0.0031   -0.0033   -0.0041    0.0012   -0.0110
          62    0.0271    0.0068   -0.1259    0.0000   -0.0135   -0.0058   -0.0125   -0.0256
          63   -0.0152   -0.0017    0.0134    0.0038   -0.0037    0.0051   -0.0066    0.0130
          64    0.0023   -0.0025    0.1083   -0.0139    0.0101   -0.0079    0.0239    0.0140
          65    0.0085   -0.0007    0.0931   -0.0149    0.0116   -0.0106    0.0257    0.0068
          66   -0.0104   -0.0002   -0.0443    0.0086   -0.0089    0.0069   -0.0170    0.0034
          67   -0.0171   -0.0039    0.0107    0.0056   -0.0116    0.0070   -0.0198    0.0195
          68   -0.0193   -0.0029   -0.0598    0.0144   -0.0230    0.0114   -0.0429    0.0151
          69   -0.0001    0.0007   -0.0035   -0.0008   -0.0001   -0.0006    0.0025    0.0000
          70    0.0443   -0.1084   -0.0127    0.0628   -0.0018    0.0508    0.0107   -0.0349
          71   -0.0980   -0.0387   -0.0006   -0.0516   -0.0134    0.0175   -0.0026   -0.0140
          72    0.0609    0.0273    0.0014    0.0240    0.0030   -0.0420   -0.0043    0.0022
          73    0.0086   -0.0097    0.0017    0.0098    0.0178    0.0461   -0.0031    0.0301
          74    0.1025   -0.0584   -0.0040    0.0245    0.0408    0.0031   -0.0072    0.0532
          75   -0.0212   -0.0428    0.0032    0.0039    0.0513    0.0759   -0.0116    0.0735
          76    0.0157    0.0182   -0.0635   -0.0250    0.0143   -0.0122    0.0292    0.0339
          77    0.0016   -0.0383   -0.0280   -0.0162   -0.0332   -0.0117    0.0392    0.0443
          78    0.0084    0.0668   -0.0074   -0.0082    0.0236   -0.0022   -0.0256    0.0063
          79    0.0214    0.0169   -0.0114   -0.0365   -0.0747   -0.0323   -0.0346    0.0825
          80   -0.0130    0.0263    0.0378    0.0305    0.0182    0.0423   -0.0397   -0.0421
          81    0.0178   -0.0489    0.0085   -0.0032    0.0137   -0.0042    0.0372   -0.0144


   Root No.      33        34        35        36        37        38        39        40

                33 A      34 A      35 A      36 A      37 A      38 A      39 A      40 A   

                1085.6    1109.4    1113.1    1128.6    1136.5    1142.9    1155.6    1165.7
  
           1   -0.0066   -0.0082    0.0041   -0.0009   -0.0043   -0.0045   -0.0014    0.0063
           2    0.0068   -0.0060   -0.0050    0.0022   -0.0139   -0.0053   -0.0075   -0.0005
           3    0.0174    0.0002   -0.0045   -0.0052    0.0191    0.0078    0.0046   -0.0012
           4    0.0005    0.0017   -0.0016   -0.0025   -0.0054   -0.0019   -0.0122   -0.0082
           5   -0.0058    0.0144   -0.0032    0.0060    0.0036    0.0053   -0.0255    0.0067
           6    0.0053   -0.0110   -0.0004   -0.0027    0.0006   -0.0038    0.0057    0.0017
           7   -0.0042   -0.0161    0.0027    0.0178    0.0069    0.0075    0.0049   -0.0088
           8    0.0005   -0.0123    0.0001    0.0097    0.0000   -0.0057    0.0142    0.0171
           9    0.0025   -0.0009    0.0026    0.0055    0.0128    0.0068   -0.0264   -0.0108
          10    0.0055    0.0073   -0.0120    0.0058   -0.0080   -0.0004    0.0152    0.0131
          11   -0.0040    0.0027   -0.0197    0.0239   -0.0022    0.0215    0.0063   -0.0207
          12    0.0017    0.0034    0.0004   -0.0204   -0.0177    0.0110    0.0108    0.0204
          13   -0.0115    0.0055    0.0070    0.0015   -0.0044    0.0006    0.0055   -0.0008
          14    0.0038    0.0027    0.0024    0.0000    0.0030    0.0024    0.0054   -0.0018
          15   -0.0135    0.0090    0.0101    0.0080   -0.0082    0.0002    0.0020   -0.0025
          16    0.0016    0.0029   -0.0041   -0.0002    0.0028    0.0019   -0.0022    0.0043
          17   -0.0110    0.0023    0.0018   -0.0063    0.0111    0.0030    0.0120   -0.0025
          18    0.0000    0.0029   -0.0069   -0.0050   -0.0126   -0.0085   -0.0077    0.0002
          19   -0.0042   -0.0021    0.0090   -0.0096    0.0025    0.0028   -0.0100   -0.0028
          20    0.0032   -0.0053    0.0212   -0.0197    0.0046   -0.0213   -0.0059    0.0166
          21    0.0019    0.0034   -0.0073    0.0192    0.0109   -0.0179    0.0005   -0.0100
          22    0.0070   -0.0053   -0.0055    0.0007    0.0050    0.0001   -0.0050    0.0037
          23    0.0024   -0.0030    0.0014   -0.0038   -0.0028   -0.0017    0.0053   -0.0031
          24   -0.0137    0.0055    0.0041    0.0020   -0.0034   -0.0012   -0.0005    0.0000
          25    0.0047    0.0001    0.0002    0.0011   -0.0014    0.0005    0.0018   -0.0053
          26    0.0003    0.0016    0.0026   -0.0042   -0.0033    0.0012    0.0021   -0.0051
          27   -0.0110    0.0050   -0.0006   -0.0014   -0.0012   -0.0035    0.0038    0.0032
          28    0.0047    0.0013    0.0000    0.0016    0.0019   -0.0002   -0.0026    0.0010
          29   -0.0079    0.0053    0.0021    0.0000    0.0010    0.0007    0.0016    0.0015
          30   -0.0016   -0.0022    0.0025   -0.0013   -0.0029   -0.0007    0.0061    0.0006
          31    0.0017    0.0010   -0.0010   -0.0015    0.0012    0.0006    0.0000    0.0005
          32    0.0028   -0.0029    0.0015    0.0077   -0.0005    0.0020    0.0009   -0.0031
          33    0.0028   -0.0114    0.0064    0.0109   -0.0002    0.0050    0.0006   -0.0045
          34   -0.0422   -0.0356   -0.0220   -0.0665    0.0593    0.0073    0.1463   -0.0304
          35    0.1208   -0.0447   -0.0633   -0.0081   -0.0556   -0.0342   -0.0910    0.0285
          36    0.0609   -0.0282   -0.0420   -0.0337    0.0237   -0.0010    0.0195   -0.0005
          37   -0.0299    0.0768   -0.0486   -0.0590    0.0184   -0.0247   -0.1126    0.0068
          38    0.0722    0.0550   -0.0420   -0.0647    0.0336    0.0140   -0.0811   -0.0270
          39    0.0648   -0.0163   -0.0052   -0.0256    0.0104    0.0101    0.0105   -0.0262
          40   -0.0494   -0.0378    0.0686   -0.0130    0.0642   -0.0426   -0.0502   -0.1280
          41    0.1024   -0.0793    0.0482   -0.0401   -0.0379   -0.0036    0.0777   -0.0942
          42    0.0442   -0.0267    0.0199   -0.0144   -0.0040    0.0096    0.0002   -0.0504
          43   -0.0004    0.0202   -0.0342   -0.0204   -0.0422    0.1294   -0.0076   -0.0243
          44   -0.0110    0.0127   -0.0399    0.0051   -0.0340    0.1123    0.0047   -0.0402
          45    0.0102   -0.0028    0.0171   -0.0098    0.0088   -0.0295   -0.0096    0.0173
          46    0.0283    0.0740   -0.0896    0.0414   -0.0311   -0.1136    0.0968    0.0426
          47    0.0152    0.0294   -0.0502    0.0819    0.0301   -0.0754    0.0216   -0.0418
          48    0.0043    0.0049   -0.0012   -0.0133   -0.0121    0.0009    0.0093    0.0167
          49   -0.0252    0.0079   -0.0063   -0.0148    0.0042    0.0029    0.0223   -0.0058
          50   -0.0264    0.0099    0.0370    0.0391   -0.0563   -0.0122   -0.0188    0.0028
          51   -0.0222    0.0134    0.0484    0.0506   -0.0584   -0.0122   -0.0293    0.0052
          52    0.0001   -0.0177   -0.0111   -0.0169   -0.0034   -0.0006    0.0284   -0.0074
          53    0.0097    0.0338    0.0167    0.0054    0.0254    0.0104   -0.0057    0.0044
          54    0.0201    0.0547    0.0190   -0.0065    0.0550    0.0203    0.0074    0.0037
          55   -0.0079    0.0065   -0.0131   -0.0133   -0.0254   -0.0186   -0.0116    0.0081
          56    0.0106    0.0936   -0.0236   -0.0772    0.0901    0.0140    0.0496   -0.0164
          57    0.0079    0.0375   -0.0174   -0.0330    0.0166   -0.0054    0.0060   -0.0047
          58   -0.0026    0.0037   -0.0036   -0.0017    0.0086    0.0045    0.0014    0.0070
          59   -0.1037    0.0078    0.0038   -0.0523   -0.0581   -0.0507    0.0042   -0.0223
          60   -0.0316    0.0084   -0.0046   -0.0192   -0.0042   -0.0089    0.0034    0.0025
          61   -0.0062   -0.0023    0.0107   -0.0019    0.0132   -0.0088   -0.0171   -0.0147
          62   -0.0184   -0.0085    0.0238   -0.0095    0.0210   -0.0017   -0.0392   -0.0347
          63    0.0046    0.0057   -0.0122   -0.0069   -0.0214    0.0211    0.0164    0.0193
          64    0.0186   -0.0004    0.0271   -0.0242    0.0095   -0.0642    0.0021    0.0407
          65    0.0171   -0.0048    0.0339   -0.0163    0.0227   -0.0817   -0.0045    0.0328
          66   -0.0056    0.0037   -0.0153   -0.0025   -0.0198    0.0422    0.0079   -0.0033
          67    0.0046   -0.0019    0.0209   -0.0596   -0.0309    0.0192    0.0071    0.0455
          68   -0.0055   -0.0092    0.0314   -0.0818   -0.0422    0.0535   -0.0041    0.0427
          69    0.0009    0.0033   -0.0065    0.0090    0.0023   -0.0055    0.0020   -0.0040
          70    0.0728    0.1205    0.1168    0.0505   -0.0201    0.0285    0.0357   -0.0068
          71    0.0099   -0.0008    0.0051    0.0007   -0.0039    0.0007    0.0049    0.0003
          72   -0.0140    0.0035    0.0022   -0.0011   -0.0003   -0.0005    0.0048    0.0012
          73   -0.0104   -0.0338   -0.0372   -0.0103    0.0055   -0.0083   -0.0175   -0.0031
[...]
 TRAVEL      0.1707        C  7 --  H 21          +16.0% ( 35.0%)    23.2%
 RED. MASS   0.3931        C  4 --  C  7           +5.8% ( 21.2%)     7.9%
 EFF. MASS   1.6393

 VIBRATION   56   56A       ATOM PAIR        ENERGY CONTRIBUTION    RADIAL
 FREQ.      1427.99        C  4 --  C  7          +21.0% ( 58.1%)   100.0%
 T-DIPOLE    0.0414        C  7 --  H 23          +14.9% ( 48.9%)     3.6%
 TRAVEL      0.0946        C  7 --  H 22          +14.7% ( 48.6%)     3.6%
 RED. MASS   0.9977        C  7 --  H 21          +13.2% ( 46.0%)     3.9%
 EFF. MASS   5.2770        C  4 --  H 15          +12.2% ( 44.3%)     3.2%
                           C  4 --  H 16          +12.2% ( 44.3%)     3.2%

 VIBRATION   57   57A       ATOM PAIR        ENERGY CONTRIBUTION    RADIAL
 FREQ.      1440.15        C  6 --  C 11          +16.2% ( 61.8%)    98.4%
 T-DIPOLE    0.0941        C  3 --  C  9          +10.8% ( 50.5%)    98.5%
 TRAVEL      0.0692        C  1 --  C  6           +9.2% ( 46.6%)    37.8%
 RED. MASS   1.5340        C  6 --  H 20           +8.5% ( 44.8%)     2.3%
 EFF. MASS   9.7793

 VIBRATION   58   58A       ATOM PAIR        ENERGY CONTRIBUTION    RADIAL
 FREQ.      1834.21        C  8 --  C 10          +45.8% (100.1%)   100.0%
 T-DIPOLE    0.0911        C  2 --  C  8          +13.9% ( 55.2%)    25.5%
 TRAVEL      0.0556        C  5 --  C 10          +13.9% ( 55.1%)    26.2%
 RED. MASS   5.3878        C  8 --  H 25          +13.0% ( 53.3%)     9.8%
 EFF. MASS  11.8850        C 10 --  H 24          +12.9% ( 53.2%)     9.5%

 VIBRATION   59   59A       ATOM PAIR        ENERGY CONTRIBUTION    RADIAL
 FREQ.      1868.16        C  9 --  C 11          +44.6% ( 98.6%)   100.0%
 T-DIPOLE    0.1166        C  3 --  C  9          +14.2% ( 55.7%)    43.5%
 TRAVEL      0.0552        C  6 --  C 11          +14.0% ( 55.2%)    44.2%
 RED. MASS   5.4143        C  9 --  H 27          +13.2% ( 53.7%)     5.7%
 EFF. MASS  11.8661        C 11 --  H 26          +12.9% ( 53.1%)     5.5%

 VIBRATION   60   60A       ATOM PAIR        ENERGY CONTRIBUTION    RADIAL
 FREQ.      2847.21        C  3 --  H 14          +95.1% ( 99.0%)   100.0%
 T-DIPOLE    0.0799        C  2 --  H 13           +1.7% ( 13.3%)    99.7%
 TRAVEL      0.1284        C  2 --  C  3           +1.0% ( 10.3%)     9.1%
 RED. MASS   0.8948        C  3 --  C  4           +1.0% ( 10.0%)     9.5%
 EFF. MASS   1.4363

 VIBRATION   61   61A       ATOM PAIR        ENERGY CONTRIBUTION    RADIAL
 FREQ.      2876.23        C  2 --  H 13          +91.8% ( 97.3%)   100.0%
 T-DIPOLE    0.0771        C  1 --  H 12           +3.4% ( 18.8%)   100.0%
 TRAVEL      0.1274        C  3 --  H 14           +1.6% ( 13.0%)    99.7%
 RED. MASS   0.8363        C  1 --  C  2           +1.1% ( 10.4%)     4.7%
 EFF. MASS   1.4452

 VIBRATION   62   62A       ATOM PAIR        ENERGY CONTRIBUTION    RADIAL
 FREQ.      2900.49        C  1 --  H 12          +91.2% ( 97.1%)   100.0%
 T-DIPOLE    0.0658        C  2 --  H 13           +3.3% ( 18.4%)   100.0%
 TRAVEL      0.1265        C  6 --  H 19           +1.1% ( 10.8%)    96.6%
 RED. MASS   0.8277        C  1 --  C  6           +1.1% ( 10.4%)     6.9%
 EFF. MASS   1.4517

 VIBRATION   63   63A       ATOM PAIR        ENERGY CONTRIBUTION    RADIAL
 FREQ.      2943.14        C  6 --  H 19          +68.5% ( 85.6%)    98.3%
 T-DIPOLE    0.0452        C  6 --  H 20          +27.6% ( 54.4%)    92.8%
 TRAVEL      0.1226        C  1 --  H 12           +1.5% ( 12.7%)    99.8%
 RED. MASS   0.5822        C  6 --  C 11           +1.1% ( 10.9%)     0.3%
 EFF. MASS   1.5243

 VIBRATION   64   64A       ATOM PAIR        ENERGY CONTRIBUTION    RADIAL
 FREQ.      2948.25        C  4 --  H 15          +55.4% ( 77.3%)    97.2%
 T-DIPOLE    0.0219        C  4 --  H 16          +41.8% ( 67.1%)    95.6%
 TRAVEL      0.1217        C  4 --  C  7           +1.2% ( 11.3%)     0.0%
 RED. MASS   0.5232        C  3 --  C  4           +1.2% ( 11.2%)     0.1%
 EFF. MASS   1.5438

 VIBRATION   65   65A       ATOM PAIR        ENERGY CONTRIBUTION    RADIAL
 FREQ.      2970.66        C  5 --  H 17          +52.3% ( 75.0%)    97.1%
 T-DIPOLE    0.0476        C  5 --  H 18          +45.0% ( 69.6%)    96.1%
 TRAVEL      0.1215        C  5 --  C 10           +1.1% ( 11.0%)     0.0%
 RED. MASS   0.5150        C  1 --  C  5           +1.1% ( 10.9%)     0.0%
 EFF. MASS   1.5375

 VIBRATION   66   66A       ATOM PAIR        ENERGY CONTRIBUTION    RADIAL
 FREQ.      3028.20        C  4 --  H 16          +56.5% ( 74.1%)    98.4%
 T-DIPOLE    0.0409        C  4 --  H 15          +41.3% ( 63.4%)    96.7%
 TRAVEL      0.1321        C  4 --  C  7           +0.6% (  7.8%)    25.3%
 RED. MASS   0.4849        C  3 --  C  4           +0.6% (  7.6%)    28.6%
 EFF. MASS   1.2755

 VIBRATION   67   67A       ATOM PAIR        ENERGY CONTRIBUTION    RADIAL
 FREQ.      3028.73        C  6 --  H 20          +71.2% ( 83.4%)    99.4%
 T-DIPOLE    0.0644        C  6 --  H 19          +26.6% ( 51.0%)    92.6%
 TRAVEL      0.1311        C  6 --  C 11           +0.7% (  8.2%)    23.0%
 RED. MASS   0.5610        C  1 --  C  6           +0.7% (  8.2%)    27.6%
 EFF. MASS   1.2950

 VIBRATION   68   68A       ATOM PAIR        ENERGY CONTRIBUTION    RADIAL
 FREQ.      3049.82        C  5 --  H 18          +53.1% ( 71.9%)    98.0%
 T-DIPOLE    0.0913        C  5 --  H 17          +45.3% ( 66.3%)    97.0%
 TRAVEL      0.1313        C  1 --  C  5           +0.7% (  8.2%)    37.6%
 RED. MASS   0.4847        C  5 --  C 10           +0.7% (  8.2%)    31.0%
 EFF. MASS   1.2823

 VIBRATION   69   69A       ATOM PAIR        ENERGY CONTRIBUTION    RADIAL
 FREQ.      3055.23        C  9 --  H 27          +78.9% ( 90.2%)   100.0%
 T-DIPOLE    0.3209        C 11 --  H 26          +17.2% ( 42.2%)    99.9%
 TRAVEL      0.1223        C  9 --  C 11           +1.2% ( 11.1%)     8.3%
 RED. MASS   0.6415        C  3 --  C  9           +1.1% ( 10.8%)    18.6%
 EFF. MASS   1.4753

 VIBRATION   70   70A       ATOM PAIR        ENERGY CONTRIBUTION    RADIAL
 FREQ.      3074.68        C  7 --  H 22          +59.7% ( 79.7%)    98.5%
 T-DIPOLE    0.0625        C  7 --  H 23          +32.7% ( 58.9%)    94.0%
 TRAVEL      0.1209        C  7 --  H 21           +3.5% ( 19.4%)    44.2%
 RED. MASS   0.4903        C 11 --  H 26           +2.6% ( 16.8%)   100.0%
 EFF. MASS   1.5008

 VIBRATION   71   71A       ATOM PAIR        ENERGY CONTRIBUTION    RADIAL
 FREQ.      3081.56        C 11 --  H 26          +73.6% ( 87.1%)   100.0%
 T-DIPOLE    0.3033        C  9 --  H 27          +16.7% ( 41.6%)    99.8%
 TRAVEL      0.1177        C  7 --  H 23           +3.8% ( 19.9%)    98.8%
 RED. MASS   0.5724        C  9 --  C 11           +1.9% ( 14.0%)    84.4%
 EFF. MASS   1.5808

 VIBRATION   72   72A       ATOM PAIR        ENERGY CONTRIBUTION    RADIAL
 FREQ.      3082.77        C  7 --  H 21          +56.8% ( 77.7%)    98.5%
 T-DIPOLE    0.0595        C  7 --  H 23          +29.9% ( 56.4%)    92.9%
 TRAVEL      0.1205        C  7 --  H 22           +8.1% ( 29.3%)    68.8%
 RED. MASS   0.4451        C 11 --  H 26           +2.6% ( 16.6%)    99.9%
 EFF. MASS   1.5062

 VIBRATION   73   73A       ATOM PAIR        ENERGY CONTRIBUTION    RADIAL
 FREQ.      3108.54        C  8 --  H 25          +69.2% ( 84.5%)   100.0%
 T-DIPOLE    0.3648        C 10 --  H 24          +28.2% ( 53.9%)   100.0%
 TRAVEL      0.1215        C  8 --  C 10           +1.2% ( 11.0%)     4.5%
 RED. MASS   0.5476        C  2 --  C  8           +1.1% ( 10.5%)    24.3%
 EFF. MASS   1.4704

 VIBRATION   74   74A       ATOM PAIR        ENERGY CONTRIBUTION    RADIAL
 FREQ.      3129.70        C 10 --  H 24          +68.2% ( 84.1%)    99.9%
 T-DIPOLE    0.3502        C  8 --  H 25          +27.4% ( 53.3%)    99.8%
 TRAVEL      0.1145        C  8 --  C 10           +2.4% ( 15.9%)    94.9%
 RED. MASS   0.5493        C  5 --  C 10           +1.3% ( 11.5%)    21.7%
 EFF. MASS   1.6426

 VIBRATION   75   75A       ATOM PAIR        ENERGY CONTRIBUTION    RADIAL
 FREQ.      3179.16        C  7 --  H 21          +37.5% ( 58.9%)    97.7%
 T-DIPOLE    0.0162        C  7 --  H 23          +32.5% ( 54.9%)    97.0%
 TRAVEL      0.1366        C  7 --  H 22          +29.7% ( 52.4%)    96.4%
 RED. MASS   0.3294        C  4 --  C  7           +0.3% (  5.1%)    99.2%
 EFF. MASS   1.1375

 SYMMETRY NUMBER FOR POINT-GROUP C1  =  1


          SYSTEM IS A GROUND STATE


    NULL



          MOLECULE IS NOT LINEAR

          THERE ARE 75 GENUINE VIBRATIONS IN THIS SYSTEM
          THIS THERMODYNAMICS CALCULATION IS LIMITED TO
          MOLECULES WHICH HAVE NO INTERNAL ROTATIONS




                    CALCULATED THERMODYNAMIC PROPERTIES
                                          *
   TEMP. (K)   PARTITION FUNCTION   H.O.F.    ENTHALPY  HEAT CAPACITY ENTROPY
                                   KCAL/MOL   CAL/MOLE    CAL/K/MOL  CAL/K/MOL


 298.00  VIB.     0.3046D+03                  4539.4316    34.7459    26.5981
         ROT.     0.8462D+06                   888.2813     2.9808    30.1032
         INT.     0.2578D+09                  5427.7129    37.7267    56.7013
         TRA.     0.1745D+28                  1480.4688     4.9680    40.8894
         TOT.                        7.252    6908.1817    42.6948    97.5906

 200.00  VIB.     0.2747D+02                  1861.0563    20.4404    15.8887
         ROT.     0.4652D+06                   596.1620     2.9808    28.9145
         INT.     0.1278D+08                  2457.2182    23.4212    44.8032
         TRA.     0.9595D+27                   993.6033     4.9680    38.9082
         TOT.                        3.795    3450.8215    28.3892    83.7115

 210.00  VIB.     0.3475D+02                  2071.8977    21.7354    16.9172
         ROT.     0.5006D+06                   625.9700     2.9808    29.0599
         INT.     0.1740D+08                  2697.8678    24.7162    45.9771
         TRA.     0.1032D+28                  1043.2834     4.9680    39.1506
         TOT.                        4.085    3741.1512    29.6843    85.1277

 220.00  VIB.     0.4407D+02                  2295.9142    23.0752    17.9591
         ROT.     0.5368D+06                   655.7781     2.9808    29.1986
         INT.     0.2365D+08                  2951.6923    26.0561    47.1577
         TRA.     0.1107D+28                  1092.9636     4.9680    39.3817
         TOT.                        4.389    4044.6559    31.0241    86.5394

 230.00  VIB.     0.5602D+02                  2533.5474    24.4585    19.0152
         ROT.     0.5738D+06                   685.5862     2.9808    29.3311
         INT.     0.3214D+08                  3219.1337    27.4393    48.3463
         TRA.     0.1183D+28                  1142.6437     4.9680    39.6026
         TOT.                        4.706    4361.7774    32.4073    87.9488

 240.00  VIB.     0.7136D+02                  2785.2199    25.8826    20.0861
         ROT.     0.6116D+06                   715.3943     2.9808    29.4580
         INT.     0.4364D+08                  3500.6143    28.8634    49.5440
         TRA.     0.1261D+28                  1192.3239     4.9680    39.8140
         TOT.                        5.037    4692.9382    33.8314    89.3580

 250.00  VIB.     0.9113D+02                  3051.3249    27.3443    21.1721
         ROT.     0.6502D+06                   745.2024     2.9808    29.5796
         INT.     0.5925D+08                  3796.5273    30.3251    50.7518
         TRA.     0.1341D+28                  1242.0041     4.9680    40.0168
         TOT.                        5.383    5038.5314    35.2932    90.7686

 260.00  VIB.     0.1166D+03                  3332.2184    28.8396    22.2736
         ROT.     0.6896D+06                   775.0105     2.9808    29.6966
         INT.     0.8044D+08                  4107.2290    31.8204    51.9702
         TRA.     0.1422D+28                  1291.6842     4.9680    40.2117
         TOT.                        5.743    5398.9132    36.7884    92.1819

 270.00  VIB.     0.1497D+03                  3628.2139    30.3639    23.3906
         ROT.     0.7298D+06                   804.8186     2.9808    29.8091
         INT.     0.1092D+09                  4433.0325    33.3447    53.1996
         TRA.     0.1505D+28                  1341.3644     4.9680    40.3992
         TOT.                        6.119    5774.3969    38.3128    93.5988

 280.00  VIB.     0.1925D+03                  3939.5783    31.9126    24.5227
         ROT.     0.7707D+06                   834.6267     2.9808    29.9175
         INT.     0.1484D+09                  4774.2050    34.8934    54.4402
         TRA.     0.1589D+28                  1391.0445     4.9680    40.5798
         TOT.                        6.509    6165.2496    39.8614    95.0200

 290.00  VIB.     0.2482D+03                  4266.5305    33.4807    25.6699
         ROT.     0.8123D+06                   864.4348     2.9808    30.0221
         INT.     0.2016D+09                  5130.9653    36.4615    55.6920
         TRA.     0.1675D+28                  1440.7247     4.9680    40.7542
         TOT.                        6.916    6571.6900    41.4295    96.4461

 300.00  VIB.     0.3207D+03                  4609.2409    35.0634    26.8316
         ROT.     0.8547D+06                   894.2429     2.9808    30.1231
         INT.     0.2741D+09                  5503.4838    38.0442    56.9547
         TRA.     0.1763D+28                  1490.4049     4.9680    40.9226
         TOT.                        7.338    6993.8887    43.0122    97.8773

 310.00  VIB.     0.4155D+03                  4967.8319    36.6561    28.0073
         ROT.     0.8978D+06                   924.0510     2.9808    30.2209
         INT.     0.3731D+09                  5891.8829    39.6369    58.2281
         TRA.     0.1851D+28                  1540.0850     4.9680    41.0855
         TOT.                        7.776    7431.9679    44.6049    99.3136

 320.00  VIB.     0.5396D+03                  5342.3801    38.2541    29.1963
         ROT.     0.9416D+06                   953.8591     2.9808    30.3155
         INT.     0.5081D+09                  6296.2393    41.2349    59.5118
         TRA.     0.1942D+28                  1589.7652     4.9680    41.2432
         TOT.                        8.230    7886.0045    46.2030   100.7550

 330.00  VIB.     0.7025D+03                  5732.9187    39.8534    30.3979
         ROT.     0.9861D+06                   983.6672     2.9808    30.4072
         INT.     0.6927D+09                  6716.5859    42.8342    60.8051
         TRA.     0.2034D+28                  1639.4454     4.9680    41.3961
         TOT.                        8.700    8356.0313    47.8023   102.2012

 340.00  VIB.     0.9166D+03                  6139.4400    41.4501    31.6114
         ROT.     0.1031D+07                  1013.4753     2.9808    30.4962
         INT.     0.9453D+09                  7152.9153    44.4309    62.1076
         TRA.     0.2127D+28                  1689.1255     4.9680    41.5444
         TOT.                        9.186    8842.0408    49.3989   103.6520

 350.00  VIB.     0.1199D+04                  6561.8993    43.0405    32.8359
         ROT.     0.1077D+07                  1043.2834     2.9808    30.5826
         INT.     0.1291D+10                  7605.1827    46.0213    63.4185
         TRA.     0.2221D+28                  1738.8057     4.9680    41.6884
         TOT.                        9.688    9343.9884    50.9893   105.1069

 360.00  VIB.     0.1572D+04                  7000.2181    44.6215    34.0705
         ROT.     0.1124D+07                  1073.0915     2.9808    30.6666
         INT.     0.1766D+10                  8073.3096    47.6023    64.7371
         TRA.     0.2317D+28                  1788.4859     4.9680    41.8284
         TOT.                       10.206    9861.7955    52.5703   106.5655

 370.00  VIB.     0.2065D+04                  7454.2876    46.1902    35.3145
         ROT.     0.1171D+07                  1102.8996     2.9808    30.7483
         INT.     0.2417D+10                  8557.1872    49.1710    66.0628
         TRA.     0.2414D+28                  1838.1660     4.9680    41.9645
         TOT.                       10.740   10395.3532    54.1390   108.0273

 380.00  VIB.     0.2718D+04                  7923.9723    47.7441    36.5670
         ROT.     0.1218D+07                  1132.7077     2.9808    30.8277
         INT.     0.3312D+10                  9056.6800    50.7249    67.3948
         TRA.     0.2513D+28                  1887.8462     4.9680    42.0970
         TOT.                       11.289   10944.5262    55.6929   109.4917

 390.00  VIB.     0.3587D+04                  8409.1133    49.2811    37.8271
         ROT.     0.1267D+07                  1162.5158     2.9808    30.9052
         INT.     0.4544D+10                  9571.6291    52.2619    68.7323
         TRA.     0.2613D+28                  1937.5263     4.9680    42.2260
         TOT.                       11.853   11509.1555    57.2299   110.9583

 400.00  VIB.     0.4742D+04                  8909.5319    50.7993    39.0940
         ROT.     0.1316D+07                  1192.3239     2.9808    30.9806
         INT.     0.6240D+10                 10101.8558    53.7801    70.0746
         TRA.     0.2714D+28                  1987.2065     4.9680    42.3518
         TOT.                       12.433   12089.0623    58.7482   112.4264

   *: NOTE: HEATS OF FORMATION ARE RELATIVE TO THE
            ELEMENTS IN THEIR STANDARD STATE AT 298K
              (=  Standard Enthalpy of Formation).

            Hvib:  Zero-point energy is not included.
                   frequencies of less than zero cm-1 are not included.
            Hrot = (3/2)RT
            Htra = (3/2)RT + pV = (5/2)RT

            Heat capacity is Cp, not Cv

           For more information, see: HTTP://OpenMOPAC.net/Manual/thermochemistry.html


           FORCE CONSTANT IN CARTESIAN COORDINATES (Millidynes/A)

    ATOM   CHEMICAL       X               Y               Z
   NUMBER   SYMBOL  FORCE CONSTANT  FORCE CONSTANT  FORCE CONSTANT

      1       C        7.455741        8.378423        8.458481
      2       C        7.667722        8.294200        8.846521
      3       C        8.660307        8.193523        8.201205
      4       C        8.028650        8.529275        8.246009
      5       C        9.625195        7.971283        7.624866
      6       C        9.037032        8.211503        8.240554
      7       C        8.423546        8.216503        8.209627
      8       C       14.561914        5.121809        7.767062
      9       C       15.381475        6.407728        5.567743
     10       C       12.044679        5.862037        9.636771
     11       C       15.196805        6.638524        5.579369
     12       H        1.089371        1.380501        3.582857
     13       H        1.120943        1.650871        3.198670
     14       H        0.718349        1.188286        3.974602
     15       H        1.527137        3.380906        1.488280
     16       H        0.744865        0.782165        4.891963
     17       H        2.188591        1.752612        2.473195
     18       H        1.644199        3.592804        1.138961
     19       H        0.690161        1.212926        4.330344
     20       H        4.736039        0.735592        0.930733
     21       H        4.888391        0.761546        1.143479
     22       H        1.421475        3.808037        1.521162
     23       H        0.696099        0.787838        5.296855
     24       H        0.711597        1.921852        3.791273
     25       H        4.917396        0.532502        0.937866
     26       H        2.092171        2.372310        1.842698
     27       H        1.882411        2.323937        2.074745



 TOTAL CPU TIME:             4.68 SECONDS

 == MOPAC DONE ==
