 *******************************************************************************
 ** Site#: 14399           For non-commercial use only        Version 13.159M **
 *******************************************************************************
 ** Cite this work as: MOPAC2012, James J. P. Stewart, Stewart Computational  **
 ** Chemistry, Version 13.159M web: HTTP://OpenMOPAC.net  Days remaining:   6 **
 *******************************************************************************
 **                                                                           **
 **                                MOPAC2012                                  **
 **                                                                           **
 *******************************************************************************

                            PM3 CALCULATION RESULTS


 *******************************************************************************
 *  CALCULATION DONE:                                Mon Jun  2 11:10:42 2014  *
 *  PM3      - The PM3 Hamiltonian to be used
 *  PRECISE  - CRITERIA TO BE INCREASED BY 100 TIMES
 *  NOSYM    - POINT-GROUP SYMMETRY SET TO C1
 *  T=       - A TIME OF 172800.0 SECONDS REQUESTED
 *  DUMP=N   - RESTART FILE WRITTEN EVERY  7200.000 SECONDS
 *******************************************************************************
pm3  precise nosym
 InChI=1S/C10H14/c1-2-4-8-7-9-5-3-6-10(8)9/h2-3,6,8-10H,1,4-5,7H2

   ATOM   CHEMICAL          X               Y               Z
  NUMBER   SYMBOL      (ANGSTROMS)     (ANGSTROMS)     (ANGSTROMS)
 
     1       C         -1.52120000  *   0.65910000  *  -0.49080000  *
     2       C          0.12220000  *  -0.75860000  *  -0.38760000  *
     3       C         -0.18910000  *   0.56620000  *   0.31180000  *
     4       C         -1.17000000  *  -0.68210000  *  -1.13880000  *
     5       C         -2.65160000  *   0.66550000  *   0.54550000  *
     6       C          1.37650000  *  -0.72590000  *  -1.27070000  *
     7       C         -0.63590000  *   0.44430000  *   1.72980000  *
     8       C         -1.95410000  *   0.50220000  *   1.85230000  *
     9       C          2.62580000  *  -0.71730000  *  -0.43550000  *
    10       C          3.51430000  *   0.27840000  *  -0.47660000  *
    11       H         -1.54460000  *   1.50960000  *  -1.21250000  *
    12       H          0.13680000  *  -1.63790000  *   0.30220000  *
    13       H          0.50010000  *   1.42330000  *   0.12620000  *
    14       H         -1.86520000  *  -1.51390000  *  -0.87630000  *
    15       H         -1.07030000  *  -0.58930000  *  -2.24610000  *
    16       H         -3.39340000  *  -0.14930000  *   0.38370000  *
    17       H         -3.18240000  *   1.64470000  *   0.54030000  *
    18       H          1.34010000  *   0.13990000  *  -1.97470000  *
    19       H          1.39930000  *  -1.64450000  *  -1.90050000  *
    20       H         -2.46790000  *   0.44030000  *   2.80950000  *
    21       H          0.04200000  *   0.31970000  *   2.57160000  *
    22       H          2.81050000  *  -1.55790000  *   0.23240000  *
    23       H          4.40390000  *   0.24070000  *   0.14930000  *
    24       H          3.37410000  *   1.14290000  *  -1.12330000  *
 


          CARTESIAN COORDINATES 

    NO.       ATOM         X         Y         Z

     1         C       -1.5212    0.6591   -0.4908
     2         C        0.1222   -0.7586   -0.3876
     3         C       -0.1891    0.5662    0.3118
     4         C       -1.1700   -0.6821   -1.1388
     5         C       -2.6516    0.6655    0.5455
     6         C        1.3765   -0.7259   -1.2707
     7         C       -0.6359    0.4443    1.7298
     8         C       -1.9541    0.5022    1.8523
     9         C        2.6258   -0.7173   -0.4355
    10         C        3.5143    0.2784   -0.4766
    11         H       -1.5446    1.5096   -1.2125
    12         H        0.1368   -1.6379    0.3022
    13         H        0.5001    1.4233    0.1262
    14         H       -1.8652   -1.5139   -0.8763
    15         H       -1.0703   -0.5893   -2.2461
    16         H       -3.3934   -0.1493    0.3837
    17         H       -3.1824    1.6447    0.5403
    18         H        1.3401    0.1399   -1.9747
    19         H        1.3993   -1.6445   -1.9005
    20         H       -2.4679    0.4403    2.8095
    21         H        0.0420    0.3197    2.5716
    22         H        2.8105   -1.5579    0.2324
    23         H        4.4039    0.2407    0.1493
    24         H        3.3741    1.1429   -1.1233

  H: (PM3): J. J. P. STEWART, J. COMP. CHEM. 10, 209 (1989).
  C: (PM3): J. J. P. STEWART, J. COMP. CHEM. 10, 209 (1989).

           Empirical Formula: C10 H14  =    24 atoms



      MOLECULAR POINT GROUP   :   C1  


      RHF CALCULATION, NO. OF DOUBLY OCCUPIED LEVELS =   27

      Geometry optimization using EF

          DIAGONAL MATRIX USED AS START HESSIAN

 CYCLE:     1 TIME:   0.011 TIME LEFT:  2.00D  GRAD.:    98.059 HEAT: 33.59953
 CYCLE:     2 TIME:   0.025 TIME LEFT:  2.00D  GRAD.:    42.966 HEAT: 31.47911
 CYCLE:     3 TIME:   0.019 TIME LEFT:  2.00D  GRAD.:    37.943 HEAT: 30.89355
 CYCLE:     4 TIME:   0.008 TIME LEFT:  2.00D  GRAD.:    46.011 HEAT: 30.54898
 CYCLE:     5 TIME:   0.008 TIME LEFT:  2.00D  GRAD.:    39.159 HEAT: 30.05122
 CYCLE:     6 TIME:   0.015 TIME LEFT:  2.00D  GRAD.:    41.755 HEAT: 29.87445
 CYCLE:     7 TIME:   0.019 TIME LEFT:  2.00D  GRAD.:    20.314 HEAT: 29.57191
 CYCLE:     8 TIME:   0.008 TIME LEFT:  2.00D  GRAD.:    20.883 HEAT: 29.50705
 CYCLE:     9 TIME:   0.012 TIME LEFT:  2.00D  GRAD.:    19.789 HEAT: 29.40265
 CYCLE:    10 TIME:   0.015 TIME LEFT:  2.00D  GRAD.:    19.747 HEAT: 29.36459
 CYCLE:    11 TIME:   0.008 TIME LEFT:  2.00D  GRAD.:    16.211 HEAT: 29.32887
 CYCLE:    12 TIME:   0.008 TIME LEFT:  2.00D  GRAD.:    17.987 HEAT: 29.31909
 CYCLE:    13 TIME:   0.015 TIME LEFT:  2.00D  GRAD.:     6.069 HEAT: 29.24324
 CYCLE:    14 TIME:   0.018 TIME LEFT:  2.00D  GRAD.:     5.712 HEAT: 29.23426
 CYCLE:    15 TIME:   0.009 TIME LEFT:  2.00D  GRAD.:     5.684 HEAT: 29.22691
 CYCLE:    16 TIME:   0.008 TIME LEFT:  2.00D  GRAD.:     5.121 HEAT: 29.21908
 CYCLE:    17 TIME:   0.008 TIME LEFT:  2.00D  GRAD.:     5.841 HEAT: 29.21759
 CYCLE:    18 TIME:   0.008 TIME LEFT:  2.00D  GRAD.:     3.932 HEAT: 29.20821
 CYCLE:    19 TIME:   0.008 TIME LEFT:  2.00D  GRAD.:     4.773 HEAT: 29.20652
 CYCLE:    20 TIME:   0.014 TIME LEFT:  2.00D  GRAD.:     3.265 HEAT: 29.20166
 CYCLE:    21 TIME:   0.008 TIME LEFT:  2.00D  GRAD.:     3.471 HEAT: 29.20091
 CYCLE:    22 TIME:   0.008 TIME LEFT:  2.00D  GRAD.:     2.171 HEAT: 29.19652
 CYCLE:    23 TIME:   0.008 TIME LEFT:  2.00D  GRAD.:     3.006 HEAT: 29.19564
 CYCLE:    24 TIME:   0.008 TIME LEFT:  2.00D  GRAD.:     2.087 HEAT: 29.19210
 CYCLE:    25 TIME:   0.008 TIME LEFT:  2.00D  GRAD.:     2.614 HEAT: 29.18931
 CYCLE:    26 TIME:   0.008 TIME LEFT:  2.00D  GRAD.:     1.921 HEAT: 29.18561
 CYCLE:    27 TIME:   0.008 TIME LEFT:  2.00D  GRAD.:     2.894 HEAT: 29.18360
 CYCLE:    28 TIME:   0.008 TIME LEFT:  2.00D  GRAD.:     2.926 HEAT: 29.18216
 CYCLE:    29 TIME:   0.008 TIME LEFT:  2.00D  GRAD.:     3.011 HEAT: 29.18046
 CYCLE:    30 TIME:   0.008 TIME LEFT:  2.00D  GRAD.:     1.904 HEAT: 29.17766
 CYCLE:    31 TIME:   0.008 TIME LEFT:  2.00D  GRAD.:     1.775 HEAT: 29.17582
 CYCLE:    32 TIME:   0.008 TIME LEFT:  2.00D  GRAD.:     1.343 HEAT: 29.17332
 CYCLE:    33 TIME:   0.008 TIME LEFT:  2.00D  GRAD.:     2.092 HEAT: 29.17135
 CYCLE:    34 TIME:   0.008 TIME LEFT:  2.00D  GRAD.:     1.485 HEAT: 29.16961
 CYCLE:    35 TIME:   0.008 TIME LEFT:  2.00D  GRAD.:     1.358 HEAT: 29.16840
 CYCLE:    36 TIME:   0.008 TIME LEFT:  2.00D  GRAD.:     1.027 HEAT: 29.16686
 CYCLE:    37 TIME:   0.008 TIME LEFT:  2.00D  GRAD.:     1.373 HEAT: 29.16367
 CYCLE:    38 TIME:   0.008 TIME LEFT:  2.00D  GRAD.:     1.422 HEAT: 29.16166
 CYCLE:    39 TIME:   0.008 TIME LEFT:  2.00D  GRAD.:     1.140 HEAT: 29.15934
 CYCLE:    40 TIME:   0.008 TIME LEFT:  2.00D  GRAD.:     1.228 HEAT: 29.15624
 CYCLE:    41 TIME:   0.008 TIME LEFT:  2.00D  GRAD.:     1.294 HEAT: 29.15373
 CYCLE:    42 TIME:   0.008 TIME LEFT:  2.00D  GRAD.:     1.095 HEAT: 29.15102
 CYCLE:    43 TIME:   0.008 TIME LEFT:  2.00D  GRAD.:     0.936 HEAT: 29.14828
 CYCLE:    44 TIME:   0.008 TIME LEFT:  2.00D  GRAD.:     1.005 HEAT: 29.14588
 CYCLE:    45 TIME:   0.008 TIME LEFT:  2.00D  GRAD.:     1.179 HEAT: 29.14324
 CYCLE:    46 TIME:   0.008 TIME LEFT:  2.00D  GRAD.:     1.290 HEAT: 29.13976
 CYCLE:    47 TIME:   0.008 TIME LEFT:  2.00D  GRAD.:     1.365 HEAT: 29.13524
 CYCLE:    48 TIME:   0.008 TIME LEFT:  2.00D  GRAD.:     1.378 HEAT: 29.12996
 CYCLE:    49 TIME:   0.008 TIME LEFT:  2.00D  GRAD.:     1.375 HEAT: 29.12493
 CYCLE:    50 TIME:   0.008 TIME LEFT:  2.00D  GRAD.:     1.311 HEAT: 29.12049
 CYCLE:    51 TIME:   0.008 TIME LEFT:  2.00D  GRAD.:     1.208 HEAT: 29.11683
 CYCLE:    52 TIME:   0.012 TIME LEFT:  2.00D  GRAD.:     1.066 HEAT: 29.11372
 CYCLE:    53 TIME:   0.009 TIME LEFT:  2.00D  GRAD.:     0.974 HEAT: 29.11112
 CYCLE:    54 TIME:   0.008 TIME LEFT:  2.00D  GRAD.:     0.963 HEAT: 29.10848
 CYCLE:    55 TIME:   0.008 TIME LEFT:  2.00D  GRAD.:     1.021 HEAT: 29.10572
 CYCLE:    56 TIME:   0.008 TIME LEFT:  2.00D  GRAD.:     1.005 HEAT: 29.10303
 CYCLE:    57 TIME:   0.008 TIME LEFT:  2.00D  GRAD.:     0.862 HEAT: 29.10083
 CYCLE:    58 TIME:   0.008 TIME LEFT:  2.00D  GRAD.:     0.790 HEAT: 29.09896
 CYCLE:    59 TIME:   0.008 TIME LEFT:  2.00D  GRAD.:     0.732 HEAT: 29.09731
 CYCLE:    60 TIME:   0.008 TIME LEFT:  2.00D  GRAD.:     0.712 HEAT: 29.09578
 CYCLE:    61 TIME:   0.008 TIME LEFT:  2.00D  GRAD.:     0.691 HEAT: 29.09457
 CYCLE:    62 TIME:   0.008 TIME LEFT:  2.00D  GRAD.:     0.628 HEAT: 29.09342
 CYCLE:    63 TIME:   0.008 TIME LEFT:  2.00D  GRAD.:     0.668 HEAT: 29.09223
 CYCLE:    64 TIME:   0.008 TIME LEFT:  2.00D  GRAD.:     0.761 HEAT: 29.09064
 CYCLE:    65 TIME:   0.008 TIME LEFT:  2.00D  GRAD.:     0.790 HEAT: 29.08905
 CYCLE:    66 TIME:   0.008 TIME LEFT:  2.00D  GRAD.:     0.829 HEAT: 29.08713
 CYCLE:    67 TIME:   0.008 TIME LEFT:  2.00D  GRAD.:     0.728 HEAT: 29.08609
 CYCLE:    68 TIME:   0.008 TIME LEFT:  2.00D  GRAD.:     0.704 HEAT: 29.08407
 CYCLE:    69 TIME:   0.008 TIME LEFT:  2.00D  GRAD.:     0.525 HEAT: 29.08339
 CYCLE:    70 TIME:   0.008 TIME LEFT:  2.00D  GRAD.:     0.519 HEAT: 29.08212
 CYCLE:    71 TIME:   0.008 TIME LEFT:  2.00D  GRAD.:     0.446 HEAT: 29.08162
 CYCLE:    72 TIME:   0.008 TIME LEFT:  2.00D  GRAD.:     0.493 HEAT: 29.08043
 CYCLE:    73 TIME:   0.008 TIME LEFT:  2.00D  GRAD.:     0.621 HEAT: 29.07977
 CYCLE:    74 TIME:   0.008 TIME LEFT:  2.00D  GRAD.:     0.744 HEAT: 29.07850
 CYCLE:    75 TIME:   0.008 TIME LEFT:  2.00D  GRAD.:     0.786 HEAT: 29.07708
 CYCLE:    76 TIME:   0.008 TIME LEFT:  2.00D  GRAD.:     0.728 HEAT: 29.07530
 CYCLE:    77 TIME:   0.008 TIME LEFT:  2.00D  GRAD.:     0.669 HEAT: 29.07375
 CYCLE:    78 TIME:   0.008 TIME LEFT:  2.00D  GRAD.:     0.627 HEAT: 29.07257
 CYCLE:    79 TIME:   0.008 TIME LEFT:  2.00D  GRAD.:     0.581 HEAT: 29.07155
 CYCLE:    80 TIME:   0.008 TIME LEFT:  2.00D  GRAD.:     0.526 HEAT: 29.07063
 CYCLE:    81 TIME:   0.008 TIME LEFT:  2.00D  GRAD.:     0.443 HEAT: 29.06986
 CYCLE:    82 TIME:   0.008 TIME LEFT:  2.00D  GRAD.:     0.394 HEAT: 29.06936
 CYCLE:    83 TIME:   0.008 TIME LEFT:  2.00D  GRAD.:     0.335 HEAT: 29.06897
 CYCLE:    84 TIME:   0.008 TIME LEFT:  2.00D  GRAD.:     0.323 HEAT: 29.06865
 CYCLE:    85 TIME:   0.008 TIME LEFT:  2.00D  GRAD.:     0.257 HEAT: 29.06838
 CYCLE:    86 TIME:   0.008 TIME LEFT:  2.00D  GRAD.:     0.177 HEAT: 29.06825
 CYCLE:    87 TIME:   0.008 TIME LEFT:  2.00D  GRAD.:     0.154 HEAT: 29.06818
 CYCLE:    88 TIME:   0.008 TIME LEFT:  2.00D  GRAD.:     0.141 HEAT: 29.06814
 CYCLE:    89 TIME:   0.008 TIME LEFT:  2.00D  GRAD.:     0.149 HEAT: 29.06810
 CYCLE:    90 TIME:   0.008 TIME LEFT:  2.00D  GRAD.:     0.137 HEAT: 29.06801
 CYCLE:    91 TIME:   0.008 TIME LEFT:  2.00D  GRAD.:     0.141 HEAT: 29.06795
 CYCLE:    92 TIME:   0.008 TIME LEFT:  2.00D  GRAD.:     0.156 HEAT: 29.06788
 CYCLE:    93 TIME:   0.008 TIME LEFT:  2.00D  GRAD.:     0.190 HEAT: 29.06777
 CYCLE:    94 TIME:   0.008 TIME LEFT:  2.00D  GRAD.:     0.268 HEAT: 29.06760
 CYCLE:    95 TIME:   0.008 TIME LEFT:  2.00D  GRAD.:     0.263 HEAT: 29.06742
 CYCLE:    96 TIME:   0.008 TIME LEFT:  2.00D  GRAD.:     0.524 HEAT: 29.06731
 CYCLE:    97 TIME:   0.008 TIME LEFT:  2.00D  GRAD.:     0.432 HEAT: 29.06680
 CYCLE:    98 TIME:   0.008 TIME LEFT:  2.00D  GRAD.:     0.347 HEAT: 29.06654
 CYCLE:    99 TIME:   0.008 TIME LEFT:  2.00D  GRAD.:     0.314 HEAT: 29.06544
 CYCLE:   100 TIME:   0.008 TIME LEFT:  2.00D  GRAD.:     0.294 HEAT: 29.06512
 CYCLE:   101 TIME:   0.008 TIME LEFT:  2.00D  GRAD.:     0.396 HEAT: 29.06481
 CYCLE:   102 TIME:   0.007 TIME LEFT:  2.00D  GRAD.:     0.237 HEAT: 29.06467
 CYCLE:   103 TIME:   0.008 TIME LEFT:  2.00D  GRAD.:     0.327 HEAT: 29.06449
 CYCLE:   104 TIME:   0.008 TIME LEFT:  2.00D  GRAD.:     0.220 HEAT: 29.06441
 CYCLE:   105 TIME:   0.008 TIME LEFT:  2.00D  GRAD.:     0.140 HEAT: 29.06436
 CYCLE:   106 TIME:   0.007 TIME LEFT:  2.00D  GRAD.:     0.074 HEAT: 29.06434
 CYCLE:   107 TIME:   0.008 TIME LEFT:  2.00D  GRAD.:     0.076 HEAT: 29.06433
 CYCLE:   108 TIME:   0.008 TIME LEFT:  2.00D  GRAD.:     0.047 HEAT: 29.06432

     RMS GRADIENT =  0.04714  IS LESS THAN CUTOFF =  0.05000



 -------------------------------------------------------------------------------
pm3  precise nosym
 InChI=1S/C10H14/c1-2-4-8-7-9-5-3-6-10(8)9/h2-3,6,8-10H,1,4-5,7H2



     GEOMETRY OPTIMISED USING EIGENVECTOR FOLLOWING (EF).     
     SCF FIELD WAS ACHIEVED                                   


                              PM3 CALCULATION
                                                       MOPAC2012 (Version: 13.159M)
                                                       Mon Jun  2 11:10:43 2014
                                                       No. of days left =   6




          FINAL HEAT OF FORMATION =         29.06432 KCAL/MOL =     121.60513 KJ/MOL


          TOTAL ENERGY            =      -1399.80131 EV
          ELECTRONIC ENERGY       =      -7890.73893 EV  POINT GROUP:     C1  
          CORE-CORE REPULSION     =       6490.93762 EV
          COSMO AREA              =        187.83 SQUARE ANGSTROMS
          COSMO VOLUME            =        194.43 CUBIC ANGSTROMS

          GRADIENT NORM           =          0.04714
          IONIZATION POTENTIAL    =          9.590800 EV
          HOMO LUMO ENERGIES (EV) =         -9.591  1.085
          NO. OF FILLED LEVELS    =         27
          MOLECULAR WEIGHT        =        134.221

          MOLECULAR DIMENSIONS (Angstroms)

            Atom       Atom       Distance
            H    23    H    16     7.92439
            H    20    H    15     5.10931
            H    11    H    22     3.51071


          SCF CALCULATIONS        =        118
          COMPUTATION TIME        =          0.952 SECONDS




   ATOM   CHEMICAL          X               Y               Z
  NUMBER   SYMBOL      (ANGSTROMS)     (ANGSTROMS)     (ANGSTROMS)
 
     1       C         -1.57586648  *   0.66187633  *  -0.48536359  *
     2       C          0.14893918  *  -0.70247621  *  -0.36988974  *
     3       C         -0.23587931  *   0.63482189  *   0.32048362  *
     4       C         -1.17914828  *  -0.66383789  *  -1.16999872  *
     5       C         -2.69546498  *   0.58070909  *   0.55413635  *
     6       C          1.39526225  *  -0.64780019  *  -1.23043112  *
     7       C         -0.65364688  *   0.50926000  *   1.74843051  *
     8       C         -1.98735204  *   0.48760849  *   1.87283987  *
     9       C          2.63501116  *  -0.71427986  *  -0.40907511  *
    10       C          3.64765971  *   0.13222401  *  -0.55392013  *
    11       H         -1.70539798  *   1.50912322  *  -1.18287297  *
    12       H          0.20815213  *  -1.55472327  *   0.34001892  *
    13       H          0.47015004  *   1.46896466  *   0.15189515  *
    14       H         -1.85564563  *  -1.51018529  *  -0.97562808  *
    15       H         -1.05248145  *  -0.59034717  *  -2.26128429  *
    16       H         -3.35413057  *  -0.29329349  *   0.39342048  *
    17       H         -3.34960682  *   1.47142805  *   0.52646520  *
    18       H          1.38418751  *   0.26029639  *  -1.86736907  *
    19       H          1.39216274  *  -1.50749804  *  -1.93118649  *
    20       H         -2.54782753  *   0.41246625  *   2.80440691  *
    21       H          0.07922708  *   0.44781234  *   2.55201528  *
    22       H          2.67421851  *  -1.51971878  *   0.33468966  *
    23       H          4.55415420  *   0.06726324  *   0.03986229  *
    24       H          3.64585446  *   0.94686099  *  -1.27316276  *

           Empirical Formula: C10 H14  =    24 atoms



      MOLECULAR POINT GROUP   :   C1  


                  EIGENVALUES  
 -42.48328 -35.95279 -31.86368 -28.61503 -26.41848 -23.95240 -21.32823 -19.91439
 -18.95588 -18.00584 -17.61910 -16.56297 -15.59192 -15.45123 -14.79922 -14.23792
 -13.74884 -13.40192 -13.27863 -12.40354 -12.29777 -12.15841 -11.99403 -11.51957
 -11.28738 -10.16085  -9.59080   1.08463   1.16453   3.17888   3.26237   3.47990
   3.55415   3.59625   3.62728   3.83312   3.89889   3.96335   3.97129   4.09684
   4.16854   4.22168   4.32519   4.44336   4.57311   4.67807   4.81846   4.84600
   5.24546   5.52377   5.63199   5.72593   5.89706   6.01747


              NET ATOMIC CHARGES AND DIPOLE CONTRIBUTIONS

  ATOM NO.   TYPE          CHARGE      No. of ELECS.   s-Pop       p-Pop       
    1          C          -0.100617        4.1006     1.19739     2.90323
    2          C          -0.081030        4.0810     1.19165     2.88938
    3          C          -0.064875        4.0649     1.18935     2.87552
    4          C          -0.105515        4.1055     1.17747     2.92805
    5          C          -0.057009        4.0570     1.15312     2.90389
    6          C          -0.062137        4.0621     1.14909     2.91305
    7          C          -0.144728        4.1447     1.19994     2.94479
    8          C          -0.149922        4.1499     1.20447     2.94545
    9          C          -0.134351        4.1344     1.19532     2.93903
   10          C          -0.168848        4.1688     1.18270     2.98615
   11          H           0.076548        0.9235     0.92345
   12          H           0.077263        0.9227     0.92274
   13          H           0.086762        0.9132     0.91324
   14          H           0.059951        0.9400     0.94005
   15          H           0.057411        0.9426     0.94259
   16          H           0.060620        0.9394     0.93938
   17          H           0.055234        0.9448     0.94477
   18          H           0.057404        0.9426     0.94260
   19          H           0.057663        0.9423     0.94234
   20          H           0.108827        0.8912     0.89117
   21          H           0.113275        0.8867     0.88672
   22          H           0.097316        0.9027     0.90268
   23          H           0.079264        0.9207     0.92074
   24          H           0.081493        0.9185     0.91851
 DIPOLE           X         Y         Z       TOTAL
 POINT-CHG.    -0.231    -0.128    -0.182     0.321
 HYBRID         0.012    -0.018     0.033     0.040
 SUM           -0.219    -0.146    -0.148     0.302


          ATOMIC ORBITAL ELECTRON POPULATIONS

    Atom      s        px        py        pz   
    1  C   1.19739   0.95182   0.97879   0.97261
    2  C   1.19165   0.93759   0.97762   0.97417
    3  C   1.18935   0.97113   0.97511   0.92929
    4  C   1.17747   0.97017   0.97125   0.98663
    5  C   1.15312   0.96223   1.01093   0.93073
    6  C   1.14909   0.92965   1.01824   0.96516
    7  C   1.19994   0.96298   1.01352   0.96828
    8  C   1.20447   0.95948   1.00944   0.97653
    9  C   1.19532   0.95896   0.98866   0.99141
   10  C   1.18270   0.98087   0.99123   1.01405
   11  H   0.92345
   12  H   0.92274
   13  H   0.91324
   14  H   0.94005
   15  H   0.94259
   16  H   0.93938
   17  H   0.94477
   18  H   0.94260
   19  H   0.94234
   20  H   0.89117
   21  H   0.88672
   22  H   0.90268
   23  H   0.92074
   24  H   0.91851
 *******************************************************************************
 ** Site#: 14399           For non-commercial use only        Version 13.159M **
 *******************************************************************************
 ** Cite this work as: MOPAC2012, James J. P. Stewart, Stewart Computational  **
 ** Chemistry, Version 13.159M web: HTTP://OpenMOPAC.net  Days remaining:   6 **
 *******************************************************************************
 **                                                                           **
 **                                MOPAC2012                                  **
 **                                                                           **
 *******************************************************************************

                            PM3 CALCULATION RESULTS


 *******************************************************************************
 *  CALCULATION DONE:                                Mon Jun  2 11:10:43 2014  *
 *  PM3      - The PM3 Hamiltonian to be used
 *  OLDGEO   - PREVIOUS GEOMETRY TO BE USED
 *  PRECISE  - CRITERIA TO BE INCREASED BY 100 TIMES
 *  NOSYM    - POINT-GROUP SYMMETRY SET TO C1
 *  T=       - A TIME OF 172800.0 SECONDS REQUESTED
 *  DUMP=N   - RESTART FILE WRITTEN EVERY  7200.000 SECONDS
 *  THERMO   - THERMODYNAMIC QUANTITIES TO BE CALCULATED
 *******************************************************************************
oldgeo thermo nosym precise  pm3

   ATOM   CHEMICAL          X               Y               Z
  NUMBER   SYMBOL      (ANGSTROMS)     (ANGSTROMS)     (ANGSTROMS)
 
     1       C         -1.57586648  *   0.66187633  *  -0.48536359  *
     2       C          0.14893918  *  -0.70247621  *  -0.36988974  *
     3       C         -0.23587931  *   0.63482189  *   0.32048362  *
     4       C         -1.17914828  *  -0.66383789  *  -1.16999872  *
     5       C         -2.69546498  *   0.58070909  *   0.55413635  *
     6       C          1.39526225  *  -0.64780019  *  -1.23043112  *
     7       C         -0.65364688  *   0.50926000  *   1.74843051  *
     8       C         -1.98735204  *   0.48760849  *   1.87283987  *
     9       C          2.63501116  *  -0.71427986  *  -0.40907511  *
    10       C          3.64765971  *   0.13222401  *  -0.55392013  *
    11       H         -1.70539798  *   1.50912322  *  -1.18287297  *
    12       H          0.20815213  *  -1.55472327  *   0.34001892  *
    13       H          0.47015004  *   1.46896466  *   0.15189515  *
    14       H         -1.85564563  *  -1.51018529  *  -0.97562808  *
    15       H         -1.05248145  *  -0.59034717  *  -2.26128429  *
    16       H         -3.35413057  *  -0.29329349  *   0.39342048  *
    17       H         -3.34960682  *   1.47142805  *   0.52646520  *
    18       H          1.38418751  *   0.26029639  *  -1.86736907  *
    19       H          1.39216274  *  -1.50749804  *  -1.93118649  *
    20       H         -2.54782753  *   0.41246625  *   2.80440691  *
    21       H          0.07922708  *   0.44781234  *   2.55201528  *
    22       H          2.67421851  *  -1.51971878  *   0.33468966  *
    23       H          4.55415420  *   0.06726324  *   0.03986229  *
    24       H          3.64585446  *   0.94686099  *  -1.27316276  *
 


          CARTESIAN COORDINATES 

    NO.       ATOM         X         Y         Z

     1         C       -1.5759    0.6619   -0.4854
     2         C        0.1489   -0.7025   -0.3699
     3         C       -0.2359    0.6348    0.3205
     4         C       -1.1791   -0.6638   -1.1700
     5         C       -2.6955    0.5807    0.5541
     6         C        1.3953   -0.6478   -1.2304
     7         C       -0.6536    0.5093    1.7484
     8         C       -1.9874    0.4876    1.8728
     9         C        2.6350   -0.7143   -0.4091
    10         C        3.6477    0.1322   -0.5539
    11         H       -1.7054    1.5091   -1.1829
    12         H        0.2082   -1.5547    0.3400
    13         H        0.4702    1.4690    0.1519
    14         H       -1.8556   -1.5102   -0.9756
    15         H       -1.0525   -0.5903   -2.2613
    16         H       -3.3541   -0.2933    0.3934
    17         H       -3.3496    1.4714    0.5265
    18         H        1.3842    0.2603   -1.8674
    19         H        1.3922   -1.5075   -1.9312
    20         H       -2.5478    0.4125    2.8044
    21         H        0.0792    0.4478    2.5520
    22         H        2.6742   -1.5197    0.3347
    23         H        4.5542    0.0673    0.0399
    24         H        3.6459    0.9469   -1.2732

  H: (PM3): J. J. P. STEWART, J. COMP. CHEM. 10, 209 (1989).
  C: (PM3): J. J. P. STEWART, J. COMP. CHEM. 10, 209 (1989).

           Empirical Formula: C10 H14  =    24 atoms



      MOLECULAR POINT GROUP   :   C1  


      RHF CALCULATION, NO. OF DOUBLY OCCUPIED LEVELS =   27



          HEAT OF FORMATION =      29.064325 KCALS/MOLE


          INTERNAL COORDINATE DERIVATIVES

   NUMBER  ATOM       BOND         ANGLE      DIHEDRAL

     1       C     -0.002313    -0.002972     0.004358
     2       C     -0.000798    -0.002713     0.002677
     3       C     -0.002042    -0.004928     0.005340
     4       C     -0.000065    -0.002178     0.003615
     5       C      0.004196     0.001493     0.001041
     6       C     -0.000248     0.000736     0.002160
     7       C      0.004170     0.001540    -0.003302
     8       C      0.001626    -0.000537     0.003850
     9       C      0.008940     0.003222    -0.002485
    10       C     -0.011220    -0.009559    -0.002462
    11       H      0.003727    -0.002128    -0.000745
    12       H     -0.009309    -0.006156     0.007425
    13       H      0.002564    -0.004279     0.002316
    14       H     -0.006544    -0.004263     0.001388
    15       H      0.011976     0.005043    -0.005158
    16       H     -0.003218     0.002941     0.002501
    17       H      0.008894     0.004997    -0.003705
    18       H      0.011419     0.013331    -0.010591
    19       H     -0.010543     0.002833    -0.003908
    20       H     -0.007532    -0.003051     0.004214
    21       H     -0.003376     0.008473    -0.005911
    22       H      0.001607     0.000520    -0.008239
    23       H     -0.012054    -0.001800     0.001887
    24       H      0.010143    -0.000565     0.003735


          GRADIENT NORM =   0.04738


          TIME FOR SCF CALCULATION =    0.01

          TIME FOR DERIVATIVES     =    0.01

          MOLECULAR WEIGHT =  134.22



          ROTATIONAL CONSTANTS IN CM(-1)

          A =    0.09914405   B =    0.02705739   C =    0.02340510



           PRINCIPAL MOMENTS OF INERTIA IN UNITS OF 10**(-40)*GRAM-CM**2

          A =      282.3445   B =     1034.5702   C =     1196.0119


          ORIENTATION OF MOLECULE IN FORCE CALCULATION

    NO.       ATOM         X         Y         Z

     1          C      -1.6246   -0.6077    0.0062
     2          C       0.5776   -0.6077    0.0062
     3          C      -0.5161    0.4954    0.0062
     4          C      -0.5285   -1.6949   -0.0008
     5          C      -2.3967   -0.4305    1.3151
     6          C       1.4747   -0.6253   -1.2151
     7          C      -0.6907    1.2096    1.3058
     8          C      -1.7153    0.7105    2.0099
     9          C       2.5300    0.4219   -1.1385
    10          C       2.7910    1.2631   -2.1321
    11          H      -2.2876   -0.6292   -0.8776
    12          H       1.1892   -0.6109    0.9335
    13          H      -0.4888    1.1820   -0.8602
    14          H      -0.5238   -2.3586    0.8773
    15          H      -0.5320   -2.3365   -0.8957
    16          H      -2.3796   -1.3438    1.9389
    17          H      -3.4624   -0.1963    1.1371
    18          H       0.8700   -0.5187   -2.1389
    19          H       1.9682   -1.6157   -1.2905
    20          H      -2.0589    1.0573    2.9843
    21          H      -0.0365    2.0309    1.5956
    22          H       3.0987    0.4611   -0.2012
    23          H       3.5724    2.0144   -2.0727
    24          H       2.2472    1.2620   -3.0729


    FIRST DERIVATIVES WILL BE USED IN THE CALCULATION OF SECOND DERIVATIVES

          ESTIMATED TIME TO COMPLETE CALCULATION =        3.26 SECONDS

    FOR POINT-GROUP C1   THERE ARE   1 UNIQUE SYMMETRY FUNCTIONS.

 STEP:   1 TIME =     0.04 SECS, INTEGRAL =      0.04 TIME LEFT: 172799.95
 STEP:   2 TIME =     0.04 SECS, INTEGRAL =      0.07 TIME LEFT: 172799.92
 STEP:   3 TIME =     0.04 SECS, INTEGRAL =      0.11 TIME LEFT: 172799.88
 STEP:   4 TIME =     0.04 SECS, INTEGRAL =      0.14 TIME LEFT: 172799.84
 STEP:   5 TIME =     0.04 SECS, INTEGRAL =      0.18 TIME LEFT: 172799.81
 STEP:   6 TIME =     0.04 SECS, INTEGRAL =      0.22 TIME LEFT: 172799.77
 STEP:   7 TIME =     0.04 SECS, INTEGRAL =      0.25 TIME LEFT: 172799.74
 STEP:   8 TIME =     0.04 SECS, INTEGRAL =      0.29 TIME LEFT: 172799.70
 STEP:   9 TIME =     0.04 SECS, INTEGRAL =      0.32 TIME LEFT: 172799.67
 STEP:  10 TIME =     0.04 SECS, INTEGRAL =      0.36 TIME LEFT: 172799.63
 STEP:  11 TIME =     0.03 SECS, INTEGRAL =      0.39 TIME LEFT: 172799.59
 STEP:  12 TIME =     0.03 SECS, INTEGRAL =      0.43 TIME LEFT: 172799.56
 STEP:  13 TIME =     0.04 SECS, INTEGRAL =      0.46 TIME LEFT: 172799.52
 STEP:  14 TIME =     0.04 SECS, INTEGRAL =      0.50 TIME LEFT: 172799.49
 STEP:  15 TIME =     0.04 SECS, INTEGRAL =      0.53 TIME LEFT: 172799.45
 STEP:  16 TIME =     0.04 SECS, INTEGRAL =      0.58 TIME LEFT: 172799.41
 STEP:  17 TIME =     0.04 SECS, INTEGRAL =      0.61 TIME LEFT: 172799.38
 STEP:  18 TIME =     0.04 SECS, INTEGRAL =      0.65 TIME LEFT: 172799.34
 STEP:  19 TIME =     0.04 SECS, INTEGRAL =      0.69 TIME LEFT: 172799.30
 STEP:  20 TIME =     0.04 SECS, INTEGRAL =      0.72 TIME LEFT: 172799.27
 STEP:  21 TIME =     0.04 SECS, INTEGRAL =      0.76 TIME LEFT: 172799.23
 STEP:  22 TIME =     0.04 SECS, INTEGRAL =      0.79 TIME LEFT: 172799.20
 STEP:  23 TIME =     0.04 SECS, INTEGRAL =      0.83 TIME LEFT: 172799.16
 STEP:  24 TIME =     0.04 SECS, INTEGRAL =      0.86 TIME LEFT: 172799.12
 STEP:  25 TIME =     0.04 SECS, INTEGRAL =      0.90 TIME LEFT: 172799.09
 STEP:  26 TIME =     0.04 SECS, INTEGRAL =      0.94 TIME LEFT: 172799.05
 STEP:  27 TIME =     0.04 SECS, INTEGRAL =      0.97 TIME LEFT: 172799.02
 STEP:  28 TIME =     0.04 SECS, INTEGRAL =      1.01 TIME LEFT: 172798.98
 STEP:  29 TIME =     0.04 SECS, INTEGRAL =      1.04 TIME LEFT: 172798.94
 STEP:  30 TIME =     0.04 SECS, INTEGRAL =      1.08 TIME LEFT: 172798.91
 STEP:  31 TIME =     0.04 SECS, INTEGRAL =      1.12 TIME LEFT: 172798.87
 STEP:  32 TIME =     0.04 SECS, INTEGRAL =      1.15 TIME LEFT: 172798.84
 STEP:  33 TIME =     0.04 SECS, INTEGRAL =      1.19 TIME LEFT: 172798.80
 STEP:  34 TIME =     0.04 SECS, INTEGRAL =      1.22 TIME LEFT: 172798.76
 STEP:  35 TIME =     0.04 SECS, INTEGRAL =      1.26 TIME LEFT: 172798.73
 STEP:  36 TIME =     0.04 SECS, INTEGRAL =      1.30 TIME LEFT: 172798.69
 STEP:  37 TIME =     0.04 SECS, INTEGRAL =      1.33 TIME LEFT: 172798.66
 STEP:  38 TIME =     0.04 SECS, INTEGRAL =      1.37 TIME LEFT: 172798.62
 STEP:  39 TIME =     0.03 SECS, INTEGRAL =      1.40 TIME LEFT: 172798.58
 STEP:  40 TIME =     0.04 SECS, INTEGRAL =      1.44 TIME LEFT: 172798.55
 STEP:  41 TIME =     0.04 SECS, INTEGRAL =      1.48 TIME LEFT: 172798.51
 STEP:  42 TIME =     0.04 SECS, INTEGRAL =      1.51 TIME LEFT: 172798.48
 STEP:  43 TIME =     0.04 SECS, INTEGRAL =      1.55 TIME LEFT: 172798.44
 STEP:  44 TIME =     0.04 SECS, INTEGRAL =      1.58 TIME LEFT: 172798.40
 STEP:  45 TIME =     0.03 SECS, INTEGRAL =      1.62 TIME LEFT: 172798.37
 STEP:  46 TIME =     0.04 SECS, INTEGRAL =      1.65 TIME LEFT: 172798.33
 STEP:  47 TIME =     0.04 SECS, INTEGRAL =      1.69 TIME LEFT: 172798.30
 STEP:  48 TIME =     0.04 SECS, INTEGRAL =      1.73 TIME LEFT: 172798.26
 STEP:  49 TIME =     0.03 SECS, INTEGRAL =      1.76 TIME LEFT: 172798.23
 STEP:  50 TIME =     0.04 SECS, INTEGRAL =      1.80 TIME LEFT: 172798.19
 STEP:  51 TIME =     0.04 SECS, INTEGRAL =      1.83 TIME LEFT: 172798.15
 STEP:  52 TIME =     0.04 SECS, INTEGRAL =      1.87 TIME LEFT: 172798.12
 STEP:  53 TIME =     0.04 SECS, INTEGRAL =      1.91 TIME LEFT: 172798.08
 STEP:  54 TIME =     0.04 SECS, INTEGRAL =      1.95 TIME LEFT: 172798.04
 STEP:  55 TIME =     0.04 SECS, INTEGRAL =      1.98 TIME LEFT: 172798.01
 STEP:  56 TIME =     0.04 SECS, INTEGRAL =      2.02 TIME LEFT: 172797.97
 STEP:  57 TIME =     0.04 SECS, INTEGRAL =      2.05 TIME LEFT: 172797.93
 STEP:  58 TIME =     0.04 SECS, INTEGRAL =      2.09 TIME LEFT: 172797.90
 STEP:  59 TIME =     0.04 SECS, INTEGRAL =      2.13 TIME LEFT: 172797.86
 STEP:  60 TIME =     0.03 SECS, INTEGRAL =      2.16 TIME LEFT: 172797.83
 STEP:  61 TIME =     0.04 SECS, INTEGRAL =      2.20 TIME LEFT: 172797.79
 STEP:  62 TIME =     0.04 SECS, INTEGRAL =      2.23 TIME LEFT: 172797.76
 STEP:  63 TIME =     0.04 SECS, INTEGRAL =      2.27 TIME LEFT: 172797.72
 STEP:  64 TIME =     0.04 SECS, INTEGRAL =      2.31 TIME LEFT: 172797.68
 STEP:  65 TIME =     0.04 SECS, INTEGRAL =      2.34 TIME LEFT: 172797.64
 STEP:  66 TIME =     0.04 SECS, INTEGRAL =      2.38 TIME LEFT: 172797.61
 STEP:  67 TIME =     0.04 SECS, INTEGRAL =      2.42 TIME LEFT: 172797.57
 STEP:  68 TIME =     0.04 SECS, INTEGRAL =      2.45 TIME LEFT: 172797.54
 STEP:  69 TIME =     0.04 SECS, INTEGRAL =      2.49 TIME LEFT: 172797.50
 STEP:  70 TIME =     0.04 SECS, INTEGRAL =      2.52 TIME LEFT: 172797.47
 STEP:  71 TIME =     0.04 SECS, INTEGRAL =      2.56 TIME LEFT: 172797.43
 STEP:  72 TIME =     0.04 SECS, INTEGRAL =      2.60 TIME LEFT: 172797.39

(To convert to Hartree/Bohr^2, multiply by (10^(-21) x N x a0^2)/(4.184 x 627.51) = 0.0642)


           FORCE MATRIX IN MILLIDYNES/ANGSTROM


                  C  1       C  2       C  3       C  4       C  5       C  6
 ------------------------------------------------------------------------------
     C    1  14.497531
     C    2   1.764989  14.392504
     C    3   3.007856   3.236468  14.847572
     C    4   3.581967   3.390294   1.800831  14.345670
     C    5   3.876286   0.047021   0.705699   0.507930  14.676196
     C    6   0.039030   4.256464   0.536609   0.545256   0.002017  14.782961
     C    7   0.834486   0.552319   4.767211   0.046457   1.124565   0.035004
     C    8   0.902040   0.042670   1.190014   0.030629   4.576335   0.006027
     C    9   0.005310   0.694931   0.023513   0.050251   0.001403   4.949859
     C   10   0.001304   0.042666   0.003654   0.007850   0.000956   0.834799
     H   11   4.589223   0.027962   0.418786   0.426917   0.425327   0.003404
     H   12   0.027040   4.419683   0.436880   0.425824   0.003161   0.431308
     H   13   0.409726   0.437225   4.551699   0.028275   0.031097   0.025734
     H   14   0.450763   0.440788   0.030194   4.678889   0.024107   0.032808
     H   15   0.444156   0.452157   0.028478   4.669511   0.034876   0.031443
     H   16   0.444290   0.001940   0.033539   0.031657   4.494236   0.000672
     H   17   0.438348   0.005159   0.023351   0.033304   4.522804   0.000670
     H   18   0.002321   0.446364   0.025352   0.019305   0.000627   4.420332
     H   19   0.002920   0.438406   0.046302   0.020017   0.000407   4.411983
     H   20   0.042571   0.016433   0.114214   0.003509   0.410950   0.002008
     H   21   0.041346   0.006462   0.416415   0.002647   0.113031   0.001286
     H   22   0.000727   0.028434   0.002746   0.001861   0.000431   0.432249
     H   23   0.000498   0.017442   0.000743   0.002901   0.000236   0.134749
     H   24   0.000352   0.010360   0.000628   0.002330   0.000371   0.095863


                  C  7       C  8       C  9       C 10       H 11       H 12
 ------------------------------------------------------------------------------
     C    7  18.321749
     C    8  10.474080  18.236179
     C    9   0.003669   0.002898  18.185271
     C   10   0.002731   0.001567  11.083833  18.044036
     H   11   0.034283   0.033750   0.000779   0.000646   5.091018
     H   12   0.027227   0.004799   0.040340   0.002361   0.001379   4.924783
     H   13   0.418123   0.039808   0.004738   0.003333   0.015307   0.026482
     H   14   0.003858   0.002057   0.006028   0.001259   0.029146   0.026764
     H   15   0.001350   0.002043   0.002423   0.001067   0.027252   0.030955
     H   16   0.038499   0.431829   0.000629   0.000318   0.020397   0.000641
     H   17   0.037705   0.429160   0.000341   0.000397   0.032620   0.000699
     H   18   0.001095   0.000865   0.458646   0.048242   0.000864   0.041180
     H   19   0.006835   0.001346   0.411142   0.033872   0.000618   0.023053
     H   20   0.447188   5.013867   0.000810   0.000279   0.004043   0.000919
     H   21   5.028151   0.448982   0.001662   0.001287   0.003683   0.003606
     H   22   0.000978   0.000803   4.784705   0.453444   0.000290   0.027449
     H   23   0.000950   0.001015   0.462231   5.109986   0.000186   0.000599
     H   24   0.001713   0.000636   0.490011   5.072160   0.000184   0.000544


                  H 13       H 14       H 15       H 16       H 17       H 18
 ------------------------------------------------------------------------------
     H   13   5.063791
     H   14   0.001146   5.301247
     H   15   0.002766   0.549212   5.294621
     H   16   0.004448   0.028856   0.002545   5.107776
     H   17   0.001111   0.002578   0.003629   0.566122   5.124560
     H   18   0.022624   0.001182   0.014553   0.000214   0.000188   5.030863
     H   19   0.003088   0.002079   0.013096   0.000137   0.000149   0.560815
     H   20   0.012788   0.000746   0.000677   0.014177   0.014802   0.000187
     H   21   0.013775   0.000658   0.000679   0.014818   0.015709   0.000544
     H   22   0.001005   0.000387   0.000679   0.000123   0.000276   0.038927
     H   23   0.000639   0.000428   0.000217   0.000162   0.000161   0.003077
     H   24   0.000734   0.000304   0.000354   0.000244   0.000216   0.028971


                  H 19       H 20       H 21       H 22       H 23       H 24
 ------------------------------------------------------------------------------
     H   19   5.002230
     H   20   0.000595   5.409127
     H   21   0.000431   0.046606   5.422528
     H   22   0.018157   0.000338   0.000680   5.158267
     H   23   0.017096   0.000224   0.000362   0.077829   5.499069
     H   24   0.011377   0.000199   0.000393   0.116113   0.422790   5.469183


          HEAT OF FORMATION =      29.064325 KCALS/MOLE

          ZERO POINT ENERGY     132.774 KCAL/MOL


           NORMAL COORDINATE ANALYSIS (Total motion = 1 Angstrom)


   Root No.       1         2         3         4         5         6         7         8

                 1 A       2 A       3 A       4 A       5 A       6 A       7 A       8 A   

                  61.0      77.9     125.4     200.0     233.7     327.1     373.9     438.7
  
           1   -0.0112   -0.0102   -0.0106   -0.0009    0.0148   -0.0189   -0.0006    0.0002
           2   -0.0143   -0.0104    0.0054    0.0142    0.0000   -0.0170   -0.0120   -0.0074
           3    0.0155    0.0077   -0.0019   -0.0056    0.0111    0.0247   -0.0061    0.0010
           4   -0.0111   -0.0108   -0.0110   -0.0010    0.0129   -0.0041   -0.0020   -0.0027
           5    0.0216   -0.0125   -0.0103    0.0186   -0.0292   -0.0062   -0.0119    0.0245
           6   -0.0144   -0.0157    0.0009    0.0076    0.0047   -0.0172    0.0320   -0.0227
           7   -0.0291   -0.0097   -0.0031   -0.0041    0.0282   -0.0169    0.0004   -0.0124
           8    0.0039   -0.0111   -0.0023    0.0187   -0.0143   -0.0203   -0.0145    0.0065
           9   -0.0070   -0.0266   -0.0042    0.0049    0.0313    0.0036   -0.0010   -0.0093
          10    0.0063   -0.0113   -0.0187   -0.0004   -0.0015   -0.0091   -0.0027    0.0197
          11    0.0038   -0.0114   -0.0023    0.0178   -0.0155   -0.0105   -0.0158    0.0094
          12    0.0012   -0.0121   -0.0327   -0.0293   -0.0210   -0.0107   -0.0108   -0.0067
          13    0.0076    0.0234    0.0132    0.0151    0.0107   -0.0317    0.0014    0.0021
          14   -0.0219    0.0008   -0.0061   -0.0240   -0.0066    0.0204    0.0080   -0.0005
          15    0.0278    0.0267    0.0145    0.0093    0.0100    0.0161   -0.0078    0.0011
          16   -0.0198    0.0025    0.0174    0.0160   -0.0114    0.0367   -0.0197   -0.0012
          17    0.0288   -0.0131   -0.0010   -0.0112    0.0054    0.0048    0.0438    0.0115
          18   -0.0210   -0.0054    0.0232    0.0208   -0.0162    0.0066    0.0239   -0.0103
          19   -0.0230    0.0086    0.0049   -0.0234   -0.0044    0.0051    0.0058    0.0276
          20    0.0098    0.0159    0.0025    0.0161    0.0094   -0.0208    0.0047   -0.0264
          21   -0.0094   -0.0396   -0.0062    0.0048    0.0133    0.0077   -0.0158    0.0139
          22   -0.0038    0.0265    0.0141   -0.0123   -0.0422   -0.0151    0.0176   -0.0115
          23   -0.0037    0.0214   -0.0006   -0.0063    0.0423    0.0175   -0.0016    0.0171
          24    0.0090   -0.0099    0.0048    0.0057   -0.0181    0.0054   -0.0047   -0.0131
          25    0.0137    0.0000   -0.0209    0.0310   -0.0096    0.0398    0.0172    0.0068
          26   -0.0063   -0.0118    0.0379   -0.0263    0.0027    0.0095    0.0078   -0.0037
          27   -0.0024    0.0186    0.0214   -0.0079   -0.0065   -0.0162    0.0145    0.0371
          28    0.0654   -0.0190    0.0118   -0.0197    0.0047    0.0128   -0.0110   -0.0268
          29   -0.0201    0.0309   -0.0200   -0.0107    0.0046    0.0192   -0.0112   -0.0285
          30   -0.0004    0.0500   -0.0190   -0.0084   -0.0012   -0.0173   -0.0104    0.0091
          31   -0.0258   -0.0333   -0.0264   -0.0109    0.0145   -0.0266   -0.0012   -0.0034
          32   -0.0284   -0.0157    0.0222    0.0304    0.0307   -0.0225   -0.0110   -0.0239
          33    0.0268    0.0252    0.0096    0.0017    0.0102    0.0296   -0.0058    0.0042
          34   -0.0041   -0.0186   -0.0312   -0.0159    0.0235   -0.0139   -0.0120    0.0006
          35    0.0341   -0.0084   -0.0260    0.0138   -0.0647   -0.0081   -0.0256    0.0432
          36   -0.0187   -0.0102    0.0144    0.0169   -0.0037   -0.0099    0.0369   -0.0232
          37   -0.0531   -0.0189    0.0028    0.0015    0.0414   -0.0401    0.0122   -0.0431
          38   -0.0014   -0.0300   -0.0069    0.0190   -0.0115   -0.0192   -0.0277    0.0255
          39   -0.0120   -0.0419   -0.0076    0.0055    0.0323    0.0038   -0.0119    0.0054
          40    0.0292   -0.0024   -0.0247   -0.0050   -0.0081    0.0117   -0.0208    0.0449
          41    0.0038   -0.0197   -0.0309   -0.0111   -0.0412   -0.0245   -0.0413    0.0126
          42    0.0011   -0.0185   -0.0543   -0.0512   -0.0406   -0.0223   -0.0307   -0.0047
          43    0.0045   -0.0213   -0.0224    0.0056   -0.0138   -0.0268    0.0134    0.0211
          44    0.0037   -0.0027    0.0267    0.0454    0.0105    0.0075    0.0107    0.0069
          45    0.0012   -0.0183   -0.0536   -0.0497   -0.0399   -0.0235   -0.0305   -0.0051
          46    0.0375    0.0541    0.0369    0.0630    0.0697   -0.0635   -0.0270    0.0375
          47   -0.0175    0.0115   -0.0072   -0.0280    0.0125    0.0315    0.0080    0.0133
          48    0.0335    0.0416    0.0124    0.0028    0.0373    0.0318   -0.0080    0.0214
          49   -0.0003    0.0151    0.0069    0.0023   -0.0042   -0.0231    0.0089   -0.0063
          50   -0.0454   -0.0177   -0.0186   -0.0653   -0.0762    0.0452    0.0380   -0.0393
          51    0.0449    0.0526    0.0369    0.0328    0.0106   -0.0057   -0.0153    0.0046
          52   -0.0224    0.0149    0.0345    0.0244   -0.0312    0.0567   -0.0498    0.0112
          53    0.0696   -0.0081   -0.0426   -0.0289    0.0356   -0.0217    0.1108    0.0446
          54   -0.0145   -0.0128    0.0072    0.0129   -0.0001   -0.0090    0.0490   -0.0157
          55   -0.0486    0.0021    0.0556    0.0038   -0.0140    0.0507   -0.0483   -0.0253
          56    0.0164   -0.0132    0.0155   -0.0201    0.0075    0.0089    0.0357    0.0011
          57   -0.0493   -0.0031    0.0556    0.0516   -0.0598    0.0388   -0.0534   -0.0257
          58    0.0041    0.0423    0.0218   -0.0204   -0.0960   -0.0142    0.0309   -0.0313
          59   -0.0029    0.0381    0.0003   -0.0123    0.0889    0.0406   -0.0082    0.0417
          60    0.0116   -0.0102    0.0072    0.0051   -0.0535   -0.0025    0.0021   -0.0289
          61   -0.0335    0.0074    0.0034   -0.0447   -0.0132    0.0339    0.0054    0.0797
          62    0.0235    0.0275    0.0069    0.0331    0.0154   -0.0442    0.0104   -0.0783
          63   -0.0247   -0.0695   -0.0154    0.0047    0.0158    0.0092   -0.0315    0.0434
          64   -0.0044    0.0129   -0.0757    0.0800   -0.0176    0.0732    0.0645   -0.0074
          65   -0.0216   -0.0462    0.1148   -0.0515   -0.0017   -0.0036   -0.0224    0.0111
          66    0.0094    0.0124    0.0513   -0.0371   -0.0013   -0.0362   -0.0143    0.0435
          67    0.0898   -0.0238   -0.0102   -0.0126    0.0082    0.0211    0.0243   -0.0537
          68   -0.0466    0.0342    0.0034   -0.0157    0.0001    0.0125   -0.0431    0.0017
          69    0.0136    0.0714   -0.0265   -0.0410    0.0102   -0.0380   -0.0782   -0.0398
          70    0.0863   -0.0312    0.0630   -0.0739    0.0149   -0.0211   -0.0778   -0.0449
          71   -0.0056    0.0664   -0.0967    0.0086    0.0111    0.0359   -0.0004   -0.0911
          72   -0.0125    0.0570   -0.0484    0.0226   -0.0070    0.0020    0.0273    0.0186


   Root No.       9        10        11        12        13        14        15        16

                 9 A      10 A      11 A      12 A      13 A      14 A      15 A      16 A   

                 450.4     499.8     618.4     661.4     741.1     773.2     818.3     865.3
  
           1   -0.0171    0.0005   -0.0124    0.0045   -0.0045   -0.0167    0.0474    0.0032
           2    0.0172   -0.0156    0.0066   -0.0209    0.0110    0.0015    0.0184    0.0055
           3   -0.0205   -0.0035    0.0028   -0.0295   -0.0354   -0.0234    0.0229   -0.0018
           4   -0.0117   -0.0054    0.0142   -0.0302    0.0246    0.0075   -0.0179   -0.0082
           5   -0.0076    0.0222    0.0029   -0.0019   -0.0116    0.0100   -0.0042    0.0084
           6    0.0070    0.0297    0.0272   -0.0087    0.0112    0.0039   -0.0085   -0.0061
           7    0.0017   -0.0145    0.0022   -0.0283   -0.0126   -0.0025    0.0122    0.0207
           8   -0.0004    0.0010   -0.0065    0.0017   -0.0207   -0.0199    0.0293   -0.0110
           9   -0.0113   -0.0042   -0.0074    0.0185   -0.0182    0.0013   -0.0467    0.0042
          10   -0.0305    0.0198   -0.0039   -0.0064    0.0180    0.0034   -0.0119    0.0103
          11    0.0048    0.0010    0.0155   -0.0365    0.0055    0.0172   -0.0214   -0.0107
          12    0.0307   -0.0170    0.0022   -0.0031   -0.0055   -0.0065    0.0070   -0.0099
          13    0.0118    0.0042   -0.0141    0.0375    0.0136    0.0160    0.0265   -0.0147
          14   -0.0187    0.0038   -0.0031    0.0141    0.0377   -0.0015   -0.0017    0.0078
          15    0.0007   -0.0049    0.0087   -0.0241    0.0030    0.0093    0.0107    0.0070
          16    0.0005   -0.0214    0.0017   -0.0019    0.0094   -0.0013   -0.0076   -0.0260
          17    0.0106   -0.0087   -0.0012    0.0052   -0.0098    0.0013    0.0055    0.0308
          18    0.0146    0.0239    0.0051    0.0087   -0.0086    0.0004    0.0165    0.0003
          19    0.0205    0.0220    0.0010    0.0021   -0.0410    0.0104   -0.0208   -0.0045
          20   -0.0225   -0.0132   -0.0127    0.0233   -0.0282   -0.0341   -0.0330   -0.0143
          21    0.0001    0.0054   -0.0122    0.0278   -0.0084    0.0060   -0.0117   -0.0109
          22   -0.0036    0.0011    0.0000    0.0033   -0.0211    0.0113   -0.0170   -0.0019
          23    0.0011    0.0116   -0.0041    0.0172    0.0237   -0.0066   -0.0010    0.0016
          24   -0.0187   -0.0099   -0.0068    0.0195    0.0534    0.0226    0.0207    0.0029
          25    0.0087   -0.0282    0.0248    0.0210   -0.0074   -0.0027    0.0017    0.0003
          26    0.0102   -0.0070   -0.0185   -0.0096    0.0037   -0.0012   -0.0006   -0.0038
          27   -0.0083   -0.0244   -0.0179   -0.0106    0.0032    0.0001   -0.0029    0.0003
          28    0.0105    0.0120   -0.0006    0.0021   -0.0011   -0.0012    0.0004    0.0016
          29    0.0115    0.0096    0.0096    0.0070   -0.0018   -0.0016    0.0017   -0.0036
          30   -0.0087    0.0012   -0.0031   -0.0040    0.0011    0.0012   -0.0028    0.0041
          31   -0.0161   -0.0037   -0.0194    0.0143   -0.0184   -0.0332    0.0291    0.0178
          32    0.0254   -0.0320    0.0087   -0.0347   -0.0148    0.0044    0.0098    0.0436
          33   -0.0198   -0.0001    0.0082   -0.0365   -0.0232   -0.0102    0.0360   -0.0123
          34   -0.0144   -0.0192    0.0077   -0.0415    0.0282    0.0127   -0.0549    0.0112
          35   -0.0051    0.0435    0.0063   -0.0031    0.0049    0.0220    0.0156   -0.0095
          36    0.0092    0.0386    0.0301   -0.0010    0.0075    0.0010    0.0159   -0.0174
          37    0.0200   -0.0252    0.0132   -0.0444    0.0309    0.0043    0.0221    0.0688
          38    0.0091    0.0016   -0.0173    0.0213   -0.0156    0.0055    0.0422   -0.0049
          39   -0.0028   -0.0034   -0.0157    0.0338   -0.0130    0.0214   -0.0364    0.0090
          40   -0.0529    0.0171   -0.0232   -0.0110   -0.0201   -0.0180   -0.0026    0.0351
          41    0.0543   -0.0457   -0.0105    0.0036    0.0192    0.0491   -0.0488    0.0215
          42    0.0703   -0.0541   -0.0185    0.0293    0.0049    0.0181   -0.0142    0.0149
          43   -0.0249    0.0503    0.0078    0.0135    0.0578    0.0395   -0.0722    0.0153
          44   -0.0459    0.0476    0.0444   -0.0835   -0.0064   -0.0089    0.0003   -0.0421
          45    0.0692   -0.0526   -0.0193    0.0318    0.0033    0.0136   -0.0095    0.0141
          46    0.1047    0.0125    0.0014    0.0438    0.0956   -0.0552   -0.0595    0.0218
          47   -0.0163    0.0148   -0.0029    0.0169    0.0319   -0.0277   -0.0141    0.0108
          48    0.0059    0.0109    0.0093   -0.0204   -0.0066   -0.0312   -0.0090    0.0113
          49   -0.0126    0.0030   -0.0187    0.0386   -0.0029    0.0340    0.0505   -0.0239
          50   -0.0968   -0.0064   -0.0132    0.0128   -0.0218    0.0917    0.0455   -0.0226
          51    0.0547   -0.0094    0.0245   -0.0276    0.0398    0.0151   -0.0798    0.0280
          52    0.0003   -0.0310   -0.0370    0.0109   -0.0139   -0.0033   -0.0113    0.0212
          53    0.0040   -0.0586    0.0701    0.0129    0.0130   -0.0046    0.0213   -0.0818
          54    0.0142    0.0252    0.0369    0.0015    0.0086    0.0012    0.0200   -0.0407
          55    0.0084   -0.0097   -0.0610   -0.0276    0.0189   -0.0031   -0.0241    0.0137
          56    0.0144   -0.0073   -0.0258   -0.0087   -0.0011   -0.0003   -0.0016    0.0380
          57    0.0169    0.0701   -0.0586    0.0251   -0.0563    0.0079    0.0101    0.1350
          58   -0.0165   -0.0048    0.0196   -0.0308    0.0556   -0.1524   -0.0499    0.0517
          59    0.0179    0.0194    0.0028   -0.0131   -0.0292    0.1831    0.0585   -0.0003
          60   -0.0293   -0.0150   -0.0024    0.0182    0.0994   -0.1025   -0.0120    0.0224
          61    0.0500    0.0678    0.0155    0.0101    0.0302   -0.1126   -0.0027   -0.0227
          62   -0.0535   -0.0555   -0.0263    0.0229   -0.0825    0.1074   -0.0604    0.0073
          63    0.0214    0.0216   -0.0063    0.0102   -0.0164   -0.1177    0.0233   -0.0308
          64    0.0366   -0.0167   -0.0228    0.0063   -0.0097   -0.0037    0.0137    0.0400
          65   -0.0072   -0.0228    0.0387    0.0147    0.0029   -0.0018    0.0007   -0.0730
          66   -0.0244   -0.0289    0.0084   -0.0029    0.0047    0.0009   -0.0103   -0.0207
          67    0.0392    0.0479   -0.1363   -0.0765    0.0288    0.0021   -0.0115   -0.0465
          68   -0.0167   -0.0304    0.1446    0.0859   -0.0318   -0.0053    0.0131    0.0445
          69   -0.0217    0.0520    0.0797    0.0363   -0.0136    0.0048    0.0166    0.0136
          70   -0.0137    0.0328    0.0994    0.0506   -0.0181    0.0005    0.0178    0.0256
          71    0.0424    0.0748   -0.0828   -0.0444    0.0173    0.0017    0.0024   -0.0586
          72    0.0053   -0.0096   -0.0605   -0.0321    0.0108    0.0004   -0.0126   -0.0099


   Root No.      17        18        19        20        21        22        23        24

                17 A      18 A      19 A      20 A      21 A      22 A      23 A      24 A   

                 892.9     901.8     934.4     942.0     958.7     970.9     985.9     996.9
  
           1   -0.0022   -0.0042    0.0005    0.0139   -0.0134   -0.0034   -0.0050    0.0114
           2   -0.0039   -0.0069    0.0033    0.0131   -0.0159    0.0175    0.0019    0.0049
           3   -0.0057   -0.0048    0.0057    0.0115   -0.0048   -0.0045    0.0106    0.0016
           4   -0.0002    0.0116    0.0094    0.0105   -0.0015   -0.0061    0.0033    0.0070
           5   -0.0019    0.0014   -0.0091    0.0118    0.0017   -0.0080   -0.0154   -0.0138
           6   -0.0072    0.0118   -0.0054   -0.0024   -0.0029   -0.0003   -0.0025    0.0077
           7    0.0062   -0.0045   -0.0114   -0.0118    0.0161   -0.0090   -0.0037   -0.0143
           8    0.0049   -0.0080   -0.0033   -0.0292    0.0016    0.0003   -0.0017    0.0167
           9    0.0027    0.0067   -0.0001    0.0160   -0.0026    0.0031   -0.0027   -0.0113
          10    0.0120   -0.0127   -0.0014   -0.0104   -0.0093    0.0165    0.0098    0.0040
          11    0.0042    0.0163    0.0121    0.0053    0.0101   -0.0210    0.0229   -0.0006
          12   -0.0330    0.0003    0.0048    0.0008    0.0134    0.0107   -0.0069   -0.0055
          13   -0.0035    0.0257    0.0048    0.0090    0.0135   -0.0164    0.0049   -0.0105
          14   -0.0126   -0.0189    0.0013   -0.0067    0.0053   -0.0020    0.0096    0.0006
          15    0.0203    0.0065   -0.0100   -0.0119   -0.0023    0.0032   -0.0154    0.0042
          16    0.0068   -0.0084    0.0131   -0.0005    0.0011    0.0026   -0.0097    0.0005
          17    0.0004    0.0051    0.0068    0.0127    0.0224    0.0061    0.0029    0.0139
          18    0.0194   -0.0167    0.0064    0.0021   -0.0045   -0.0052    0.0127   -0.0056
          19   -0.0054   -0.0117    0.0026    0.0000   -0.0047   -0.0126   -0.0037    0.0077
          20    0.0079    0.0140    0.0026   -0.0060   -0.0003    0.0251    0.0039   -0.0019
          21   -0.0056   -0.0067    0.0037   -0.0081    0.0017   -0.0095   -0.0010    0.0066
          22   -0.0031   -0.0042    0.0008   -0.0020   -0.0038    0.0160    0.0041    0.0024
          23    0.0038    0.0051   -0.0004    0.0077   -0.0016   -0.0116   -0.0068   -0.0028
          24   -0.0057   -0.0025    0.0012    0.0026   -0.0022    0.0101    0.0058    0.0005
          25   -0.0045   -0.0002   -0.0218    0.0057    0.0078    0.0028   -0.0004   -0.0012
          26   -0.0043    0.0029    0.0123   -0.0093   -0.0102   -0.0029   -0.0033   -0.0071
          27   -0.0023    0.0018    0.0115   -0.0018    0.0009    0.0009   -0.0054   -0.0035
          28   -0.0098    0.0078   -0.0215   -0.0072   -0.0130   -0.0038    0.0120    0.0106
          29   -0.0069    0.0041   -0.0103   -0.0112   -0.0197   -0.0076    0.0008   -0.0186
          30   -0.0049    0.0062   -0.0026   -0.0039   -0.0086   -0.0036    0.0013   -0.0045
          31   -0.0191   -0.0327   -0.0014    0.0368   -0.0415    0.0324   -0.0221    0.0122
          32    0.0325   -0.0021   -0.0143    0.1041   -0.1022    0.0574   -0.0682   -0.0040
          33    0.0075    0.0159    0.0063   -0.0107    0.0193   -0.0316    0.0245    0.0011
          34   -0.0212    0.0354    0.0118    0.0234    0.0242    0.0021   -0.0076   -0.0159
          35   -0.0461   -0.0162   -0.0143    0.0226   -0.0254    0.0152   -0.1018   -0.0424
          36    0.0078   -0.0050   -0.0073   -0.0104   -0.0198   -0.0060    0.0058    0.0215
          37    0.0200    0.0006   -0.0586   -0.0928    0.0839    0.0107   -0.0126   -0.0774
          38    0.0078   -0.0333   -0.0146   -0.0551    0.0056   -0.0126   -0.0352    0.0104
          39    0.0051   -0.0130   -0.0102   -0.0091    0.0038   -0.0075   -0.0291   -0.0177
          40    0.0266   -0.0684    0.0151   -0.0011   -0.0084    0.0254    0.1469   -0.0780
          41    0.1212    0.0237    0.0029    0.0151   -0.0289   -0.0567    0.0497    0.0141
          42    0.0602    0.0064   -0.0026    0.0073   -0.0174   -0.0176    0.0141    0.0077
          43    0.0301    0.0153   -0.0404   -0.0625   -0.0052    0.0387   -0.1128    0.0537
          44   -0.1150    0.0139    0.0262    0.0081    0.0515    0.0089    0.0002   -0.0221
          45    0.0571    0.0024   -0.0052    0.0010   -0.0182   -0.0121    0.0111    0.0099
          46   -0.0688   -0.0812    0.0156   -0.0032    0.0075    0.0088    0.0423   -0.0017
          47   -0.0015   -0.0210   -0.0055   -0.0185    0.0154   -0.0663   -0.0151    0.0239
          48    0.0356    0.0025   -0.0196   -0.0295    0.0126   -0.0904   -0.0515    0.0389
          49    0.0109    0.0527    0.0028    0.0135    0.0169   -0.0266   -0.0028   -0.0141
          50    0.0420    0.0713   -0.0129   -0.0258    0.0300    0.0236   -0.0070   -0.0370
          51   -0.0037   -0.0497   -0.0153   -0.0632    0.0091    0.0990    0.0119   -0.0232
          52   -0.0084   -0.0012    0.0049    0.0217    0.0552    0.0232   -0.0428   -0.0360
          53    0.0482   -0.0626    0.0256    0.0032    0.0054    0.0019   -0.0238   -0.0428
          54    0.0336   -0.0276    0.0138   -0.0127   -0.0409   -0.0189    0.0314    0.0128
          55   -0.0228    0.0358    0.0673   -0.0164    0.0209    0.0286    0.0048    0.1320
          56   -0.0108    0.0222    0.0379    0.0015    0.0285    0.0188    0.0093    0.0813
          57   -0.0188    0.0309   -0.0440    0.0424    0.0405   -0.0029    0.0176   -0.0345
          58    0.0266   -0.0197   -0.0206    0.0204   -0.0151   -0.0644   -0.0570    0.0028
          59    0.0069   -0.0026   -0.0135   -0.0185   -0.0265    0.0952   -0.0008    0.0132
          60    0.0040   -0.0054   -0.0019    0.0188    0.0030   -0.0562   -0.0179   -0.0048
          61    0.0357    0.0879    0.0029    0.0359   -0.0158    0.0925    0.0174   -0.0283
          62   -0.0401   -0.0844    0.0081   -0.0104   -0.0051   -0.0788   -0.0164    0.0287
          63    0.0388    0.0472   -0.0131   -0.0780    0.0397    0.0491    0.0076    0.0014
          64   -0.0017    0.0130    0.1579   -0.0430   -0.0241   -0.0025   -0.0257   -0.0299
          65    0.0324   -0.0569   -0.1307    0.0635    0.0580    0.0136   -0.0031   -0.0202
          66   -0.0052   -0.0038   -0.0910    0.0251    0.0179    0.0036    0.0099    0.0151
          67    0.0114   -0.0171    0.0038   -0.0025   -0.0158   -0.0096   -0.0252   -0.0648
          68   -0.0329    0.0327   -0.0436   -0.0202   -0.0247   -0.0045    0.0407    0.0542
          69    0.0636   -0.0482    0.1013    0.0579    0.1069    0.0384   -0.0237    0.0492
          70    0.0249   -0.0118    0.1375   -0.0147    0.0013    0.0000   -0.0407   -0.0623
          71    0.0563   -0.0647   -0.0339    0.0699    0.0975    0.0336   -0.0060    0.0477
          72   -0.0234    0.0163   -0.0919    0.0017   -0.0146   -0.0051    0.0309    0.0380


   Root No.      25        26        27        28        29        30        31        32

                25 A      26 A      27 A      28 A      29 A      30 A      31 A      32 A   

                1028.6    1035.0    1046.9    1059.7    1078.6    1084.8    1103.6    1131.2
  
           1   -0.0097   -0.0068    0.0012   -0.0030   -0.0129   -0.0019   -0.0151    0.0069
           2    0.0072    0.0028   -0.0134   -0.0140    0.0111   -0.0003   -0.0039   -0.0080
           3   -0.0067    0.0030   -0.0030   -0.0067    0.0062   -0.0112   -0.0162   -0.0195
           4   -0.0124    0.0063    0.0010    0.0081   -0.0215   -0.0044   -0.0099    0.0067
           5   -0.0085    0.0109    0.0114    0.0164   -0.0113   -0.0096   -0.0054    0.0036
           6   -0.0052    0.0004   -0.0041    0.0043   -0.0005   -0.0052    0.0005    0.0082
           7   -0.0057    0.0094    0.0073    0.0055   -0.0079   -0.0120   -0.0005   -0.0041
           8    0.0005   -0.0138   -0.0031   -0.0014   -0.0047    0.0007   -0.0056    0.0099
           9    0.0064   -0.0058    0.0090    0.0080   -0.0043    0.0110   -0.0027   -0.0131
          10    0.0102   -0.0028   -0.0116   -0.0163    0.0148    0.0094    0.0025   -0.0052
          11    0.0021   -0.0155    0.0044   -0.0075    0.0043    0.0083    0.0076    0.0030
          12    0.0118   -0.0052   -0.0028   -0.0046    0.0059    0.0174    0.0111   -0.0010
          13    0.0076    0.0138   -0.0075   -0.0031    0.0026    0.0150    0.0072   -0.0107
          14   -0.0207    0.0140    0.0009   -0.0021   -0.0031    0.0089   -0.0085   -0.0141
          15    0.0063    0.0007   -0.0043   -0.0014   -0.0032    0.0059    0.0011    0.0196
          16    0.0022    0.0027    0.0031    0.0079    0.0009   -0.0023   -0.0005    0.0027
          17   -0.0065   -0.0027   -0.0144    0.0066   -0.0007   -0.0015   -0.0005    0.0023
          18    0.0041    0.0009    0.0025   -0.0027   -0.0022    0.0060   -0.0003   -0.0069
          19    0.0084    0.0005   -0.0098   -0.0069    0.0056   -0.0140    0.0016    0.0112
          20   -0.0079   -0.0006    0.0066    0.0031    0.0065   -0.0112   -0.0017    0.0034
          21    0.0017    0.0061   -0.0083   -0.0062    0.0057   -0.0167    0.0070    0.0159
          22   -0.0158   -0.0083    0.0141    0.0067    0.0043    0.0013    0.0022   -0.0068
          23    0.0260   -0.0075   -0.0091   -0.0021   -0.0032   -0.0182    0.0072    0.0114
          24   -0.0094   -0.0153    0.0138    0.0047    0.0078   -0.0180    0.0057    0.0067
          25   -0.0068   -0.0084   -0.0167    0.0045    0.0031    0.0016    0.0013   -0.0011
          26    0.0062    0.0059    0.0204   -0.0125   -0.0037   -0.0015   -0.0013    0.0022
          27    0.0025    0.0028    0.0117   -0.0082   -0.0024   -0.0012   -0.0008    0.0014
          28    0.0137    0.0103    0.0217   -0.0090   -0.0019    0.0003   -0.0005   -0.0007
          29   -0.0098   -0.0096   -0.0165    0.0034    0.0024    0.0021    0.0011   -0.0013
          30   -0.0064   -0.0038   -0.0122    0.0077    0.0003    0.0007   -0.0001   -0.0020
          31   -0.0035   -0.0443    0.0289    0.0173   -0.0369    0.0533    0.0346    0.1521
          32    0.0031    0.0793   -0.0176   -0.0095    0.0768    0.1007    0.0657   -0.0280
          33   -0.0108    0.0297   -0.0245   -0.0229    0.0224   -0.0558   -0.0579   -0.1302
          34   -0.0172   -0.0062    0.0171   -0.0264   -0.0432    0.0205   -0.0129   -0.0204
          35    0.0122    0.1189    0.0361    0.0946    0.0287   -0.0945   -0.0003   -0.0207
          36   -0.0014    0.0095   -0.0147    0.0279    0.0142   -0.0217    0.0028    0.0257
          37    0.0484   -0.0155    0.0407    0.0538    0.1229   -0.0643   -0.0106    0.0300
          38    0.0658   -0.0507    0.0158    0.0610   -0.0435    0.0996   -0.0992   -0.0811
          39    0.0607   -0.0365    0.0252    0.0599   -0.0316    0.0889   -0.0781   -0.0865
          40    0.0667    0.0287   -0.0077    0.0517    0.0533    0.0534    0.0893    0.0183
          41   -0.0287    0.0007    0.0082    0.0028   -0.0019   -0.0317   -0.0161   -0.0046
          42   -0.0128    0.0064   -0.0006    0.0024    0.0005   -0.0146   -0.0087   -0.0075
          43   -0.0033   -0.0263   -0.0289   -0.1088    0.0618    0.0003   -0.0086   -0.0835
          44    0.0332   -0.0269    0.0044   -0.0164    0.0186    0.0545    0.0386    0.0034
          45   -0.0117    0.0048   -0.0029    0.0031   -0.0042   -0.0170   -0.0118   -0.0021
          46   -0.0540    0.0200    0.0106    0.0012   -0.0195    0.0129   -0.0211   -0.0385
          47   -0.0799    0.0194    0.0432    0.0159    0.0463    0.1005    0.0071    0.0116
          48   -0.0809    0.0075    0.0578    0.0247    0.0692    0.1359    0.0218    0.0583
          49    0.0205    0.0149   -0.0108   -0.0032    0.0073    0.0269    0.0183   -0.0062
          50    0.0505    0.0763   -0.0605   -0.0145   -0.0551    0.0778   -0.0257    0.0459
          51    0.0147    0.0742   -0.0601   -0.0142   -0.1074    0.0342   -0.0846    0.0751
          52   -0.0153   -0.0258    0.0117   -0.0652    0.0152   -0.0056    0.0101    0.0230
          53    0.0076   -0.0003    0.0252   -0.0262    0.0096    0.0000    0.0051    0.0008
          54    0.0168    0.0193    0.0005    0.0419   -0.0113    0.0090   -0.0072   -0.0209
          55    0.0327    0.0167   -0.0583    0.1094    0.0375    0.0040    0.0151   -0.0192
          56    0.0124    0.0071   -0.0440    0.0628    0.0202    0.0012    0.0086   -0.0099
          57   -0.0382   -0.0259   -0.0086   -0.0569   -0.0320    0.0067   -0.0145    0.0063
          58    0.0869   -0.0544   -0.0079    0.0191   -0.0904   -0.0185    0.1278   -0.0612
          59   -0.0272   -0.0853    0.0608    0.0409   -0.0652   -0.0228    0.1248   -0.0669
          60    0.0451   -0.0032   -0.0190   -0.0065   -0.0029   -0.0241    0.0078    0.0176
          61    0.0082   -0.0476    0.0384    0.0254    0.0428   -0.0060   -0.1043    0.0270
          62    0.0196    0.0115   -0.0302   -0.0194    0.0029   -0.0266    0.0239    0.0174
          63   -0.0730    0.0755   -0.0111   -0.0135   -0.0666    0.0031    0.1711   -0.0556
          64    0.0203    0.0142    0.0630   -0.0463   -0.0094    0.0016   -0.0020   -0.0081
          65   -0.0195   -0.0220   -0.0308   -0.0057    0.0012    0.0092    0.0008   -0.0205
          66   -0.0129   -0.0095   -0.0348    0.0230    0.0048   -0.0017    0.0010    0.0065
          67   -0.0480   -0.0375   -0.0711    0.0251    0.0054    0.0027    0.0014   -0.0017
          68    0.0525    0.0380    0.0774   -0.0327   -0.0046    0.0003   -0.0006   -0.0008
          69    0.0176    0.0183    0.0297   -0.0029   -0.0060   -0.0061   -0.0033    0.0038
          70   -0.0423   -0.0356   -0.0600    0.0141    0.0065    0.0029    0.0030   -0.0007
          71    0.0341    0.0247    0.0633   -0.0337   -0.0049   -0.0041   -0.0013    0.0055
          72    0.0257    0.0227    0.0345   -0.0050   -0.0048   -0.0009   -0.0022   -0.0021


   Root No.      33        34        35        36        37        38        39        40

                33 A      34 A      35 A      36 A      37 A      38 A      39 A      40 A   

                1137.6    1151.2    1166.5    1186.9    1203.2    1210.9    1228.5    1240.7
  
           1   -0.0001    0.0039    0.0194    0.0120    0.0119   -0.0044    0.0065   -0.0032
           2    0.0209    0.0107    0.0258   -0.0063   -0.0031   -0.0026    0.0338    0.0422
           3   -0.0181   -0.0020    0.0092    0.0187    0.0109   -0.0065   -0.0219    0.0028
           4    0.0225    0.0142   -0.0163   -0.0150   -0.0045   -0.0019   -0.0103   -0.0017
           5   -0.0288    0.0004   -0.0313    0.0102    0.0198   -0.0157    0.0131    0.0225
           6    0.0043    0.0352   -0.0167    0.0208   -0.0013    0.0203   -0.0056    0.0148
           7   -0.0296   -0.0283   -0.0146   -0.0171   -0.0300    0.0251    0.0174   -0.0082
           8    0.0054    0.0054   -0.0288    0.0062    0.0069    0.0093    0.0056   -0.0174
           9   -0.0127    0.0003    0.0194    0.0122    0.0054   -0.0025    0.0198    0.0057
          10    0.0151    0.0084    0.0177   -0.0042   -0.0029   -0.0080    0.0019   -0.0275
          11   -0.0128   -0.0134    0.0266    0.0073   -0.0067    0.0021   -0.0159   -0.0177
          12   -0.0049   -0.0037   -0.0074   -0.0104   -0.0039   -0.0063    0.0070   -0.0086
          13   -0.0069    0.0019    0.0049    0.0069    0.0034   -0.0024    0.0011    0.0048
          14   -0.0079    0.0023    0.0044    0.0072    0.0038   -0.0022   -0.0088    0.0084
          15    0.0107   -0.0021    0.0047   -0.0092   -0.0066    0.0015   -0.0050    0.0252
          16   -0.0194    0.0140   -0.0026   -0.0169    0.0102   -0.0114    0.0028    0.0045
          17    0.0003    0.0047    0.0049   -0.0176    0.0001    0.0006   -0.0034   -0.0054
          18    0.0019   -0.0256    0.0092   -0.0274    0.0236    0.0023    0.0007   -0.0046
          19    0.0082    0.0021   -0.0048   -0.0024    0.0013   -0.0025   -0.0088    0.0036
          20    0.0096   -0.0040    0.0004   -0.0124   -0.0070    0.0003    0.0015   -0.0052
          21    0.0104    0.0013   -0.0051   -0.0028    0.0033   -0.0016    0.0156   -0.0154
          22    0.0021    0.0005    0.0005   -0.0036   -0.0031   -0.0010   -0.0139    0.0058
          23    0.0006   -0.0061   -0.0119   -0.0081   -0.0061    0.0018   -0.0196   -0.0011
          24   -0.0032   -0.0108   -0.0157   -0.0104   -0.0089    0.0057   -0.0078   -0.0102
          25    0.0111   -0.0046   -0.0034    0.0158   -0.0213   -0.0184    0.0028    0.0018
          26    0.0022    0.0060   -0.0057    0.0068   -0.0143   -0.0174    0.0025    0.0027
          27    0.0074    0.0026   -0.0063    0.0158   -0.0175   -0.0130    0.0020    0.0025
          28   -0.0012   -0.0024    0.0012   -0.0010    0.0066    0.0078   -0.0009   -0.0009
          29   -0.0003   -0.0027    0.0030   -0.0028    0.0018    0.0009    0.0001   -0.0005
          30    0.0026   -0.0080    0.0005    0.0022    0.0096    0.0149   -0.0022   -0.0020
          31   -0.0472   -0.0640    0.0809    0.0383    0.0118   -0.0116   -0.0853    0.0680
          32   -0.0263    0.0175   -0.1306    0.0078    0.0204   -0.0186   -0.0944   -0.1298
          33    0.0177    0.0490   -0.0324   -0.0007    0.0106   -0.0007    0.0515   -0.0468
          34    0.1394   -0.0670   -0.0882   -0.0447    0.1384    0.0047   -0.0055    0.0559
          35    0.0902   -0.0346    0.1433   -0.0303   -0.0506    0.0678   -0.0110   -0.0379
          36   -0.0738    0.0898    0.0329    0.0386   -0.0983    0.0182   -0.0091   -0.0242
          37    0.0308    0.0365    0.0361    0.0683    0.1201   -0.1133   -0.0597   -0.0110
          38    0.0359    0.0422   -0.0198   -0.0357   -0.0474    0.0268   -0.0975    0.0129
          39    0.0143    0.0333    0.0299   -0.0182   -0.0345    0.0078   -0.0669    0.0289
          40    0.0038    0.0309   -0.0885    0.0047   -0.0413    0.0718    0.0364    0.1131
          41   -0.0118    0.0006    0.0511    0.0329    0.0023    0.0186   -0.0409   -0.0148
          42   -0.0055    0.0087    0.0103    0.0108    0.0032    0.0060   -0.0129   -0.0079
          43   -0.1007   -0.0899   -0.0137    0.0058   -0.0212    0.0060    0.0022    0.0953
          44   -0.0155   -0.0364    0.0276   -0.0217   -0.0138   -0.0090   -0.0071   -0.0435
          45   -0.0034    0.0154   -0.0077    0.0113    0.0019    0.0021   -0.0002    0.0090
          46   -0.0396    0.0030    0.0182    0.0413    0.0258   -0.0096   -0.0048   -0.0128
          47    0.0175    0.0119    0.0172    0.0043    0.0046    0.0023    0.0584   -0.0210
          48    0.0480    0.0105    0.0220   -0.0156   -0.0069    0.0087    0.0903   -0.0185
          49   -0.0038    0.0031    0.0100    0.0084    0.0042   -0.0032    0.0082    0.0138
          50   -0.0210    0.0029    0.0322    0.0394    0.0282   -0.0056    0.0467   -0.0319
          51   -0.0339   -0.0098    0.0206    0.0350    0.0277   -0.0007    0.0261   -0.0808
          52   -0.0393    0.1166    0.0359   -0.0261    0.0697    0.1564   -0.0259    0.0017
          53   -0.0503    0.0261    0.0386   -0.0801    0.0891    0.0842   -0.0102   -0.0079
          54    0.0101   -0.0898   -0.0120   -0.0315   -0.0042   -0.0978    0.0181   -0.0031
          55   -0.0300   -0.0498    0.0033    0.0337    0.0571    0.0562    0.0082    0.0135
          56   -0.0097   -0.0318    0.0082    0.0090    0.0290    0.0366    0.0010    0.0003
          57    0.0488    0.0207    0.0134   -0.0597   -0.0399   -0.0162   -0.0200   -0.0291
          58    0.0002    0.0353    0.0278    0.0369    0.0329   -0.0106    0.0826   -0.0493
          59    0.0002    0.0284    0.0120    0.0285    0.0276   -0.0068    0.0730   -0.0585
          60   -0.0035   -0.0120   -0.0158   -0.0106   -0.0094    0.0060   -0.0075   -0.0098
          61   -0.0116   -0.0175   -0.0192   -0.0067   -0.0090    0.0191    0.0655   -0.0348
          62    0.0222    0.0079   -0.0072   -0.0055    0.0042   -0.0069   -0.0137   -0.0004
          63    0.0207    0.0098    0.0438   -0.0169   -0.0083   -0.0276   -0.1084    0.0533
          64    0.0623   -0.0471   -0.0254    0.1232   -0.0230    0.0587   -0.0070   -0.0056
          65    0.0961   -0.0931   -0.0209    0.1468   -0.0065    0.1011   -0.0132   -0.0134
          66   -0.0276    0.0327    0.0076   -0.0567   -0.0174   -0.0677    0.0090    0.0081
          67    0.0043   -0.0050   -0.0012    0.0023   -0.0028   -0.0054    0.0008    0.0004
          68   -0.0053   -0.0014    0.0066   -0.0041    0.0122    0.0182   -0.0020   -0.0019
          69    0.0102    0.0036   -0.0156    0.0095   -0.0250   -0.0388    0.0039    0.0021
          70    0.0116   -0.0019   -0.0012    0.0189   -0.0241   -0.0142    0.0026    0.0019
          71    0.0081    0.0181   -0.0087    0.0236   -0.0410   -0.0361    0.0058    0.0071
          72   -0.0037   -0.0094    0.0011   -0.0082    0.0266    0.0267   -0.0041   -0.0037


   Root No.      41        42        43        44        45        46        47        48

                41 A      42 A      43 A      44 A      45 A      46 A      47 A      48 A   

                1241.8    1284.5    1319.8    1340.7    1359.2    1387.5    1401.6    1409.1
  
           1    0.0011    0.0057    0.0434    0.0352    0.0174    0.0052    0.0056    0.0204
           2   -0.0147   -0.0012   -0.0047   -0.0076   -0.0331   -0.0013    0.0010   -0.0049
           3    0.0156    0.0088   -0.0184   -0.0201   -0.0369   -0.0063   -0.0015   -0.0185
           4   -0.0081    0.0241    0.0137   -0.0233    0.0026   -0.0137   -0.0079   -0.0015
           5   -0.0295   -0.0174    0.0068    0.0005   -0.0112   -0.0099    0.0077   -0.0064
           6    0.0169   -0.0076   -0.0132    0.0079   -0.0076    0.0082    0.0090   -0.0051
           7    0.0000   -0.0158   -0.0146   -0.0011   -0.0036   -0.0060    0.0037   -0.0058
           8    0.0235    0.0042   -0.0244   -0.0093    0.0194    0.0292   -0.0131    0.0167
           9    0.0005   -0.0070   -0.0111    0.0046    0.0168    0.0360   -0.0136    0.0266
          10   -0.0203   -0.0317   -0.0281   -0.0051   -0.0049    0.0006    0.0022   -0.0051
          11    0.0104    0.0025    0.0067    0.0077    0.0093    0.0016   -0.0031    0.0125
          12   -0.0132    0.0013    0.0072    0.0019    0.0074    0.0004   -0.0020    0.0051
          13    0.0037    0.0010   -0.0112   -0.0066    0.0045    0.0114   -0.0153   -0.0348
          14    0.0006   -0.0038   -0.0044    0.0028    0.0614    0.0047   -0.0101   -0.0236
          15   -0.0112   -0.0088   -0.0013    0.0045    0.0763   -0.0097    0.0053    0.0087
          16   -0.0102    0.0191   -0.0125   -0.0064    0.0032    0.0221   -0.0164    0.0068
          17   -0.0074    0.0185   -0.0045   -0.0068    0.0023   -0.0001   -0.0339    0.0084
          18    0.0027   -0.0083    0.0069    0.0050   -0.0023   -0.0263   -0.0235    0.0037
          19   -0.0033   -0.0006    0.0039    0.0026   -0.0049    0.0003    0.0022    0.0064
          20   -0.0060    0.0048    0.0110   -0.0014    0.0019   -0.0234    0.0080   -0.0131
          21    0.0021    0.0119    0.0087   -0.0068    0.0139   -0.0295    0.0075   -0.0260
          22   -0.0050   -0.0049    0.0027    0.0057   -0.0155    0.0104   -0.0009    0.0142
          23   -0.0041   -0.0056    0.0039    0.0065   -0.0404    0.0130    0.0006    0.0206
          24   -0.0008   -0.0026    0.0035    0.0030   -0.0369    0.0034    0.0025    0.0101
          25    0.0204   -0.0128   -0.0022    0.0131   -0.0026   -0.0075    0.0131   -0.0040
          26    0.0097   -0.0008   -0.0094    0.0144   -0.0024   -0.0037    0.0111   -0.0031
          27    0.0129   -0.0135    0.0089   -0.0046   -0.0002   -0.0004    0.0060   -0.0018
          28   -0.0063    0.0027   -0.0012    0.0011   -0.0001   -0.0008    0.0004   -0.0001
          29    0.0042   -0.0026   -0.0033    0.0086   -0.0015   -0.0052    0.0064   -0.0020
          30   -0.0166    0.0075    0.0046   -0.0125    0.0022    0.0060   -0.0112    0.0033
          31    0.0330    0.0140   -0.0525   -0.0472   -0.0244   -0.0204   -0.0040   -0.0551
          32    0.0163    0.0058    0.0146    0.0087    0.0487   -0.0103    0.0017    0.0024
          33   -0.0091    0.0017    0.0532    0.0425   -0.0069    0.0143    0.0056    0.0386
          34    0.1035   -0.0325   -0.0365    0.0222   -0.0194    0.0099    0.0061   -0.0094
          35    0.1012    0.0291   -0.0245    0.0012    0.0233    0.0297   -0.0222    0.0225
          36   -0.0566    0.0292    0.0191   -0.0230    0.0066   -0.0080   -0.0004   -0.0003
          37   -0.0155    0.0387    0.0324   -0.0123    0.0003   -0.0032   -0.0027    0.0001
          38    0.0003    0.0062    0.0132   -0.0043   -0.0464   -0.0508    0.0159   -0.0342
          39   -0.0176   -0.0029    0.0205    0.0083   -0.0350   -0.0278    0.0084   -0.0138
          40    0.0751    0.0811    0.0634    0.0256    0.0118    0.0124   -0.0016    0.0117
          41    0.0400   -0.0012    0.0195    0.0388   -0.0032   -0.0120    0.0324   -0.0571
          42    0.0093   -0.0019    0.0132    0.0223   -0.0017   -0.0084    0.0225   -0.0420
          43    0.0688    0.1113    0.0570   -0.0093   -0.0166   -0.0055   -0.0121    0.0006
          44   -0.0105    0.0033    0.0506    0.0485    0.0282   -0.0111    0.0247   -0.0404
          45    0.0008   -0.0006   -0.0228   -0.0252   -0.0074    0.0080   -0.0188    0.0377
          46    0.0316    0.0209   -0.0435   -0.0596    0.0331   -0.1196    0.0954    0.1649
          47    0.0069    0.0128    0.0066   -0.0038   -0.0795    0.0061   -0.0037   -0.0092
          48   -0.0041    0.0131    0.0197    0.0024   -0.1322    0.0092   -0.0001    0.0012
          49    0.0063    0.0053   -0.0287   -0.0293    0.0116   -0.0312    0.0197    0.0275
          50    0.0320    0.0298   -0.0198   -0.0453   -0.0646   -0.0866    0.0741    0.1296
          51    0.0234    0.0171    0.0680    0.0541   -0.1239    0.0744   -0.0502   -0.0845
          52    0.0213   -0.0411    0.0051    0.0300   -0.0172   -0.0734   -0.0480    0.0033
          53   -0.0128    0.0001    0.0245   -0.0385    0.0178    0.0893    0.1946   -0.0373
          54   -0.0172    0.0295    0.0002   -0.0270    0.0147    0.0574    0.0422   -0.0026
          55    0.0032   -0.0591    0.0306   -0.0064   -0.0006    0.0222    0.1072   -0.0235
          56   -0.0016   -0.0254    0.0181   -0.0052   -0.0003   -0.0009    0.0322   -0.0078
          57   -0.0067    0.0681    0.0115   -0.0660    0.0315    0.1187    0.1640   -0.0280
          58    0.0256    0.0330   -0.0007   -0.0226    0.0193   -0.0350    0.0012   -0.0501
          59    0.0264    0.0321    0.0024   -0.0200   -0.0067   -0.0309    0.0030   -0.0404
          60   -0.0013   -0.0030    0.0037    0.0030   -0.0384    0.0021    0.0033    0.0100
[...]
 TRAVEL      0.0739        C  5 --  H 16          +15.5% ( 61.2%)     0.1%
 RED. MASS   2.6919        C  5 --  H 17          +14.8% ( 59.7%)     0.0%
 EFF. MASS   9.0798

 VIBRATION   46   46A       ATOM PAIR        ENERGY CONTRIBUTION    RADIAL
 FREQ.      1387.50        C  3 --  C  7          +16.3% ( 55.4%)    96.9%
 T-DIPOLE    0.0433        C  3 --  H 13           +8.4% ( 39.7%)     1.4%
 TRAVEL      0.0881        C  6 --  H 18           +8.3% ( 39.6%)     2.1%
 RED. MASS   0.7657        C  2 --  C  3           +7.5% ( 37.5%)    21.1%
 EFF. MASS   6.2661

 VIBRATION   47   47A       ATOM PAIR        ENERGY CONTRIBUTION    RADIAL
 FREQ.      1401.63        C  6 --  H 18          +22.8% ( 54.9%)     5.3%
 T-DIPOLE    0.0851        C  6 --  H 19          +21.6% ( 53.4%)     5.4%
 TRAVEL      0.1107        C  6 --  C  9          +11.5% ( 39.0%)    77.7%
 RED. MASS   0.4766        C  2 --  C  6           +8.8% ( 34.0%)    16.3%
 EFF. MASS   3.9249

 VIBRATION   48   48A       ATOM PAIR        ENERGY CONTRIBUTION    RADIAL
 FREQ.      1409.10        C  5 --  H 16          +13.4% ( 49.3%)     5.8%
 T-DIPOLE    0.0270        C  5 --  H 17          +12.2% ( 46.9%)     7.9%
 TRAVEL      0.0893        C  5 --  C  8          +10.3% ( 43.2%)    73.4%
 RED. MASS   0.5961        C  1 --  C  5           +9.4% ( 41.3%)    58.0%
 EFF. MASS   5.9957

 VIBRATION   49   49A       ATOM PAIR        ENERGY CONTRIBUTION    RADIAL
 FREQ.      1415.61        C  4 --  H 14          +17.1% ( 50.8%)     2.8%
 T-DIPOLE    0.0331        C  4 --  H 15          +15.5% ( 48.4%)     4.2%
 TRAVEL      0.1056        C  2 --  C  6          +11.3% ( 41.3%)    74.3%
 RED. MASS   0.4898        C  6 --  C  9           +8.0% ( 34.7%)    88.4%
 EFF. MASS   4.2718

 VIBRATION   50   50A       ATOM PAIR        ENERGY CONTRIBUTION    RADIAL
 FREQ.      1447.19        C  2 --  C  6          +12.2% ( 56.4%)    82.4%
 T-DIPOLE    0.0194        C  2 --  C  3          +10.9% ( 53.2%)    51.8%
 TRAVEL      0.0728        C  2 --  C  4           +9.2% ( 49.0%)    76.7%
 RED. MASS   1.3704        C  2 --  H 12           +7.9% ( 45.3%)     0.0%
 EFF. MASS   8.7951

 VIBRATION   51   51A       ATOM PAIR        ENERGY CONTRIBUTION    RADIAL
 FREQ.      1819.78        C  7 --  C  8          +45.8% (100.1%)   100.0%
 T-DIPOLE    0.1168        C  5 --  C  8          +14.0% ( 55.4%)    26.0%
 TRAVEL      0.0558        C  3 --  C  7          +13.8% ( 55.0%)    25.5%
 RED. MASS   5.3928        C  8 --  H 20          +13.0% ( 53.4%)     9.7%
 EFF. MASS  11.8806        C  7 --  H 21          +12.8% ( 53.0%)     9.8%

 VIBRATION   52   52A       ATOM PAIR        ENERGY CONTRIBUTION    RADIAL
 FREQ.      1861.34        C  9 --  C 10          +45.3% ( 99.3%)    98.9%
 T-DIPOLE    0.2337        C  6 --  C  9          +16.7% ( 60.3%)    54.6%
 TRAVEL      0.0554        C  9 --  H 22          +15.4% ( 58.0%)     3.9%
 RED. MASS   5.2991        C 10 --  H 24          +11.0% ( 48.9%)    11.0%
 EFF. MASS  11.7912        C 10 --  H 23          +10.8% ( 48.4%)    12.9%

 VIBRATION   53   53A       ATOM PAIR        ENERGY CONTRIBUTION    RADIAL
 FREQ.      2939.36        C  6 --  H 19          +44.3% ( 69.1%)    96.6%
 T-DIPOLE    0.0420        C  6 --  H 18          +41.8% ( 67.1%)    96.3%
 TRAVEL      0.1221        C  2 --  H 12          +11.0% ( 34.4%)   100.0%
 RED. MASS   0.4152        C  2 --  C  6           +1.2% ( 11.4%)     0.9%
 EFF. MASS   1.5388

 VIBRATION   54   54A       ATOM PAIR        ENERGY CONTRIBUTION    RADIAL
 FREQ.      2952.34        C  2 --  H 12          +83.4% ( 93.4%)   100.0%
 T-DIPOLE    0.1013        C  6 --  H 19           +6.8% ( 26.6%)    97.3%
 TRAVEL      0.1254        C  6 --  H 18           +5.1% ( 23.0%)    96.0%
 RED. MASS   0.7164        C  2 --  C  6           +1.0% ( 10.1%)    19.6%
 EFF. MASS   1.4531

 VIBRATION   55   55A       ATOM PAIR        ENERGY CONTRIBUTION    RADIAL
 FREQ.      2973.42        C  5 --  H 16          +51.1% ( 74.2%)    97.0%
 T-DIPOLE    0.0370        C  5 --  H 17          +44.6% ( 69.3%)    96.2%
 TRAVEL      0.1213        C  1 --  H 11           +1.9% ( 14.3%)    99.8%
 RED. MASS   0.4997        C  1 --  C  5           +1.2% ( 11.2%)     0.4%
 EFF. MASS   1.5415

 VIBRATION   56   56A       ATOM PAIR        ENERGY CONTRIBUTION    RADIAL
 FREQ.      2998.53        C  3 --  H 13          +83.9% ( 93.8%)   100.0%
 T-DIPOLE    0.1321        C  1 --  H 11          +10.6% ( 33.3%)   100.0%
 TRAVEL      0.1243        C  1 --  C  3           +1.1% ( 10.9%)     5.7%
 RED. MASS   0.7299        C  3 --  C  4           +1.0% ( 10.2%)    41.3%
 EFF. MASS   1.4553

 VIBRATION   57   57A       ATOM PAIR        ENERGY CONTRIBUTION    RADIAL
 FREQ.      3007.33        C  1 --  H 11          +79.3% ( 91.2%)   100.0%
 T-DIPOLE    0.1425        C  3 --  H 13          +10.7% ( 33.5%)   100.0%
 TRAVEL      0.1241        C  4 --  H 15           +2.2% ( 15.0%)    97.0%
 RED. MASS   0.6555        C  4 --  H 14           +1.5% ( 12.7%)    95.3%
 EFF. MASS   1.4566

 VIBRATION   58   58A       ATOM PAIR        ENERGY CONTRIBUTION    RADIAL
 FREQ.      3018.17        C  6 --  H 18          +51.1% ( 70.4%)    97.9%
 T-DIPOLE    0.0555        C  6 --  H 19          +47.0% ( 67.6%)    97.5%
 TRAVEL      0.1323        C  6 --  C  9           +0.6% (  7.9%)    31.0%
 RED. MASS   0.4788        C  2 --  C  6           +0.6% (  7.7%)    29.8%
 EFF. MASS   1.2764

 VIBRATION   59   59A       ATOM PAIR        ENERGY CONTRIBUTION    RADIAL
 FREQ.      3033.60        C  4 --  H 15          +47.4% ( 71.6%)    97.0%
 T-DIPOLE    0.1018        C  4 --  H 14          +44.9% ( 69.7%)    96.7%
 TRAVEL      0.1202        C  1 --  H 11           +3.1% ( 18.4%)    99.9%
 RED. MASS   0.4720        C  3 --  C  4           +1.1% ( 10.9%)     0.0%
 EFF. MASS   1.5373

 VIBRATION   60   60A       ATOM PAIR        ENERGY CONTRIBUTION    RADIAL
 FREQ.      3041.07        C  9 --  H 22          +95.8% ( 99.3%)   100.0%
 T-DIPOLE    0.2297        C  9 --  C 10           +1.4% ( 12.0%)    30.6%
 TRAVEL      0.1216        C  6 --  C  9           +1.3% ( 11.6%)    14.1%
 RED. MASS   0.9029        C 10 --  H 23           +0.9% (  9.5%)    95.3%
 EFF. MASS   1.4997

 VIBRATION   61   61A       ATOM PAIR        ENERGY CONTRIBUTION    RADIAL
 FREQ.      3050.49        C  5 --  H 17          +53.0% ( 71.9%)    98.0%
 T-DIPOLE    0.0911        C  5 --  H 16          +44.4% ( 65.7%)    96.9%
 TRAVEL      0.1311        C  1 --  C  5           +0.7% (  8.2%)    42.7%
 RED. MASS   0.4761        C  5 --  C  8           +0.7% (  8.2%)    30.8%
 EFF. MASS   1.2861

 VIBRATION   62   62A       ATOM PAIR        ENERGY CONTRIBUTION    RADIAL
 FREQ.      3097.58        C  4 --  H 14          +50.8% ( 70.7%)    97.4%
 T-DIPOLE    0.0729        C  4 --  H 15          +47.1% ( 68.0%)    96.9%
 TRAVEL      0.1303        C  3 --  C  4           +0.7% (  8.3%)    99.9%
 RED. MASS   0.4838        C  1 --  C  4           +0.7% (  8.2%)    49.8%
 EFF. MASS   1.2824

 VIBRATION   63   63A       ATOM PAIR        ENERGY CONTRIBUTION    RADIAL
 FREQ.      3115.08        C  8 --  H 20          +60.6% ( 79.0%)   100.0%
 T-DIPOLE    0.3673        C  7 --  H 21          +36.8% ( 61.6%)   100.0%
 TRAVEL      0.1215        C  7 --  C  8           +1.1% ( 10.8%)     1.3%
 RED. MASS   0.4927        C  5 --  C  8           +0.9% (  9.7%)    25.9%
 EFF. MASS   1.4656

 VIBRATION   64   64A       ATOM PAIR        ENERGY CONTRIBUTION    RADIAL
 FREQ.      3134.41        C  7 --  H 21          +59.6% ( 78.6%)    99.9%
 T-DIPOLE    0.3440        C  8 --  H 20          +35.9% ( 61.1%)    99.9%
 TRAVEL      0.1144        C  7 --  C  8           +2.4% ( 15.9%)    98.4%
 RED. MASS   0.4939        C  3 --  C  7           +1.1% ( 10.8%)    20.7%
 EFF. MASS   1.6439

 VIBRATION   65   65A       ATOM PAIR        ENERGY CONTRIBUTION    RADIAL
 FREQ.      3135.72        C 10 --  H 24          +91.2% ( 97.2%)    99.8%
 T-DIPOLE    0.1874        C 10 --  H 23           +7.4% ( 27.7%)    73.2%
 TRAVEL      0.1181        C  9 --  C 10           +1.3% ( 11.7%)    21.1%
 RED. MASS   0.8447
 EFF. MASS   1.5406

 VIBRATION   66   66A       ATOM PAIR        ENERGY CONTRIBUTION    RADIAL
 FREQ.      3148.17        C 10 --  H 23          +91.2% ( 96.1%)    99.6%
 T-DIPOLE    0.2577        C 10 --  H 24           +6.4% ( 25.4%)    45.3%
 TRAVEL      0.1210        C  9 --  C 10           +1.6% ( 12.7%)    74.4%
 RED. MASS   0.8097        C  9 --  H 22           +0.8% (  8.7%)    94.6%
 EFF. MASS   1.4631

 SYMMETRY NUMBER FOR POINT-GROUP C1  =  1


          SYSTEM IS A GROUND STATE


    NULL



          MOLECULE IS NOT LINEAR

          THERE ARE 66 GENUINE VIBRATIONS IN THIS SYSTEM
          THIS THERMODYNAMICS CALCULATION IS LIMITED TO
          MOLECULES WHICH HAVE NO INTERNAL ROTATIONS




                    CALCULATED THERMODYNAMIC PROPERTIES
                                          *
   TEMP. (K)   PARTITION FUNCTION   H.O.F.    ENTHALPY  HEAT CAPACITY ENTROPY
                                   KCAL/MOL   CAL/MOLE    CAL/K/MOL  CAL/K/MOL


 298.00  VIB.     0.1983D+03                  3917.9704    30.0799    23.6598
         ROT.     0.6668D+06                   888.2813     2.9808    29.6297
         INT.     0.1322D+09                  4806.2518    33.0607    53.2894
         TRA.     0.1503D+28                  1480.4688     4.9680    40.5931
         TOT.                       29.064    6286.7206    38.0287    93.8825

 200.00  VIB.     0.2473D+02                  1623.8870    17.2735    14.4944
         ROT.     0.3666D+06                   596.1620     2.9808    28.4410
         INT.     0.9066D+07                  2220.0489    20.2543    42.9354
         TRA.     0.8266D+27                   993.6033     4.9680    38.6119
         TOT.                       25.991    3213.6522    25.2223    81.5473

 210.00  VIB.     0.3036D+02                  1802.2608    18.4094    15.3645
         ROT.     0.3944D+06                   625.9700     2.9808    28.5864
         INT.     0.1197D+08                  2428.2308    21.3902    43.9509
         TRA.     0.8893D+27                  1043.2834     4.9680    38.8543
         TOT.                       26.249    3471.5142    26.3582    82.8052

 220.00  VIB.     0.3731D+02                  1992.2355    19.5934    16.2480
         ROT.     0.4229D+06                   655.7781     2.9808    28.7251
         INT.     0.1578D+08                  2648.0137    22.5742    44.9731
         TRA.     0.9536D+27                  1092.9636     4.9680    39.0854
         TOT.                       26.519    3740.9772    27.5422    84.0585

 230.00  VIB.     0.4594D+02                  2194.2818    20.8232    17.1460
         ROT.     0.4521D+06                   685.5862     2.9808    28.8576
         INT.     0.2077D+08                  2879.8681    23.8040    46.0035
         TRA.     0.1019D+28                  1142.6437     4.9680    39.3063
         TOT.                       26.800    4022.5118    28.7720    85.3098

 240.00  VIB.     0.5665D+02                  2408.8415    22.0955    18.0589
         ROT.     0.4819D+06                   715.3943     2.9808    28.9844
         INT.     0.2730D+08                  3124.2359    25.0763    47.0434
         TRA.     0.1087D+28                  1192.3239     4.9680    39.5177
         TOT.                       27.094    4316.5598    30.0443    86.5611

 250.00  VIB.     0.6998D+02                  2636.3193    23.4061    18.9873
         ROT.     0.5123D+06                   745.2024     2.9808    29.1061
         INT.     0.3585D+08                  3381.5218    26.3869    48.0935
         TRA.     0.1155D+28                  1242.0041     4.9680    39.7205
         TOT.                       27.401    4623.5258    31.3549    87.8140

 260.00  VIB.     0.8661D+02                  2877.0763    24.7505    19.9314
         ROT.     0.5434D+06                   775.0105     2.9808    29.2230
         INT.     0.4706D+08                  3652.0869    27.7313    49.1545
         TRA.     0.1225D+28                  1291.6842     4.9680    39.9154
         TOT.                       27.721    4943.7711    32.6994    89.0698

 270.00  VIB.     0.1074D+03                  3131.4261    26.1238    20.8912
         ROT.     0.5750D+06                   804.8186     2.9808    29.3355
         INT.     0.6176D+08                  3936.2447    29.1046    50.2267
         TRA.     0.1297D+28                  1341.3644     4.9680    40.1029
         TOT.                       28.055    5277.6091    34.0727    90.3296

 280.00  VIB.     0.1335D+03                  3399.6324    27.5210    21.8665
         ROT.     0.6073D+06                   834.6267     2.9808    29.4439
         INT.     0.8104D+08                  4234.2591    30.5018    51.3104
         TRA.     0.1369D+28                  1391.0445     4.9680    40.2835
         TOT.                       28.403    5625.3037    35.4698    91.5939

 290.00  VIB.     0.1662D+03                  3681.9083    28.9369    22.8568
         ROT.     0.6401D+06                   864.4348     2.9808    29.5485
         INT.     0.1064D+09                  4546.3431    31.9177    52.4054
         TRA.     0.1443D+28                  1440.7247     4.9680    40.4579
         TOT.                       28.765    5987.0678    36.8857    92.8633

 300.00  VIB.     0.2073D+03                  3978.4170    30.3667    23.8619
         ROT.     0.6735D+06                   894.2429     2.9808    29.6496
         INT.     0.1396D+09                  4872.6600    33.3476    53.5115
         TRA.     0.1518D+28                  1490.4049     4.9680    40.6263
         TOT.                       29.141    6363.0648    38.3156    94.1378

 310.00  VIB.     0.2593D+03                  4289.2738    31.8058    24.8811
         ROT.     0.7075D+06                   924.0510     2.9808    29.7473
         INT.     0.1834D+09                  5213.3248    34.7866    54.6284
         TRA.     0.1595D+28                  1540.0850     4.9680    40.7892
         TOT.                       29.531    6753.4098    39.7546    95.4176

 320.00  VIB.     0.3249D+03                  4614.5478    33.2495    25.9137
         ROT.     0.7420D+06                   953.8591     2.9808    29.8420
         INT.     0.2411D+09                  5568.4069    36.2303    55.7556
         TRA.     0.1673D+28                  1589.7652     4.9680    40.9469
         TOT.                       29.936    7158.1721    41.1983    96.7026

 330.00  VIB.     0.4081D+03                  4954.2658    34.6939    26.9589
         ROT.     0.7770D+06                   983.6672     2.9808    29.9337
         INT.     0.3171D+09                  5937.9330    37.6747    56.8926
         TRA.     0.1752D+28                  1639.4454     4.9680    41.0998
         TOT.                       30.355    7577.3784    42.6427    97.9924

 340.00  VIB.     0.5136D+03                  5308.4149    36.1351    28.0161
         ROT.     0.8126D+06                  1013.4753     2.9808    30.0227
         INT.     0.4174D+09                  6321.8902    39.1159    58.0387
         TRA.     0.1832D+28                  1689.1255     4.9680    41.2481
         TOT.                       30.789    8011.0158    44.0840    99.2869

 350.00  VIB.     0.6478D+03                  5676.9468    37.5699    29.0842
         ROT.     0.8487D+06                  1043.2834     2.9808    30.1091
         INT.     0.5498D+09                  6720.2302    40.5507    59.1933
         TRA.     0.1914D+28                  1738.8057     4.9680    41.3921
         TOT.                       31.237    8459.0359    45.5187   100.5855

 360.00  VIB.     0.8188D+03                  6059.7809    38.9951    30.1626
         ROT.     0.8853D+06                  1073.0915     2.9808    30.1931
         INT.     0.7249D+09                  7132.8724    41.9759    60.3557
         TRA.     0.1996D+28                  1788.4859     4.9680    41.5321
         TOT.                       31.699    8921.3583    46.9439   101.8878

 370.00  VIB.     0.1037D+04                  6456.8082    40.4081    31.2503
         ROT.     0.9225D+06                  1102.8996     2.9808    30.2747
         INT.     0.9567D+09                  7559.7078    43.3889    61.5251
         TRA.     0.2080D+28                  1838.1660     4.9680    41.6682
         TOT.                       32.175    9397.8738    48.3569   103.1933

 380.00  VIB.     0.1316D+04                  6867.8949    41.8066    32.3466
         ROT.     0.9601D+06                  1132.7077     2.9808    30.3542
         INT.     0.1264D+10                  8000.6027    44.7874    62.7008
         TRA.     0.2165D+28                  1887.8462     4.9680    41.8007
         TOT.                       32.666    9888.4488    49.7555   104.5015

 390.00  VIB.     0.1674D+04                  7292.8858    43.1886    33.4504
         ROT.     0.9983D+06                  1162.5158     2.9808    30.4317
         INT.     0.1671D+10                  8455.4016    46.1694    63.8821
         TRA.     0.2251D+28                  1937.5263     4.9680    41.9297
         TOT.                       33.171   10392.9279    51.1375   105.8118

 400.00  VIB.     0.2133D+04                  7731.6071    44.5525    34.5611
         ROT.     0.1037D+07                  1192.3239     2.9808    30.5071
         INT.     0.2211D+10                  8923.9310    47.5333    65.0682
         TRA.     0.2338D+28                  1987.2065     4.9680    42.0555
         TOT.                       33.689   10911.1375    52.5013   107.1237

   *: NOTE: HEATS OF FORMATION ARE RELATIVE TO THE
            ELEMENTS IN THEIR STANDARD STATE AT 298K
              (=  Standard Enthalpy of Formation).

            Hvib:  Zero-point energy is not included.
                   frequencies of less than zero cm-1 are not included.
            Hrot = (3/2)RT
            Htra = (3/2)RT + pV = (5/2)RT

            Heat capacity is Cp, not Cv

           For more information, see: HTTP://OpenMOPAC.net/Manual/thermochemistry.html


           FORCE CONSTANT IN CARTESIAN COORDINATES (Millidynes/A)

    ATOM   CHEMICAL       X               Y               Z
   NUMBER   SYMBOL  FORCE CONSTANT  FORCE CONSTANT  FORCE CONSTANT

      1       C        9.299035        6.465269        8.907446
      2       C        9.681789        6.146606        8.695027
      3       C        6.261467        9.263168        9.651594
      4       C        5.954186        9.748176        8.676704
      5       C        9.029773        8.555749        7.709511
      6       C        8.684634        8.506129        8.378426
      7       C       10.403812        8.296365        8.846382
      8       C        9.651713        6.774952       10.854258
      9       C        6.545039        8.840264       11.775409
     10       C        6.295325        8.723657       11.505839
     11       H        2.309391        0.649469        3.430851
     12       H        2.036147        0.663405        3.568617
     13       H        0.649902        2.397994        3.281024
     14       H        0.673166        2.313432        3.628996
     15       H        0.681740        2.206302        3.727900
     16       H        0.693768        3.621252        2.061143
     17       H        4.677466        0.875461        0.833575
     18       H        2.021831        0.772794        3.591599
     19       H        1.552175        4.007679        0.684472
     20       H        1.027717        1.043992        4.351267
     21       H        2.237131        3.207929        0.973315
     22       H        1.781561        0.600966        3.845718
     23       H        3.016197        2.808619        0.663674
     24       H        1.742312        0.553392        4.176589



 TOTAL CPU TIME:             3.58 SECONDS

 == MOPAC DONE ==
