 *******************************************************************************
 ** Site#: 14399           For non-commercial use only        Version 13.159M **
 *******************************************************************************
 ** Cite this work as: MOPAC2012, James J. P. Stewart, Stewart Computational  **
 ** Chemistry, Version 13.159M web: HTTP://OpenMOPAC.net  Days remaining:   6 **
 *******************************************************************************
 **                                                                           **
 **                                MOPAC2012                                  **
 **                                                                           **
 *******************************************************************************

                            PM3 CALCULATION RESULTS


 *******************************************************************************
 *  CALCULATION DONE:                                Mon Jun  2 14:11:37 2014  *
 *  PM3      - The PM3 Hamiltonian to be used
 *  PRECISE  - CRITERIA TO BE INCREASED BY 100 TIMES
 *  NOSYM    - POINT-GROUP SYMMETRY SET TO C1
 *  T=       - A TIME OF 172800.0 SECONDS REQUESTED
 *  DUMP=N   - RESTART FILE WRITTEN EVERY  7200.000 SECONDS
 *******************************************************************************
pm3  precise nosym
 InChI=1S/C8H14O/c1-4-7-6(3)9-8(7)5-2/h5-8H,2,4H2,1,3H3

   ATOM   CHEMICAL          X               Y               Z
  NUMBER   SYMBOL      (ANGSTROMS)     (ANGSTROMS)     (ANGSTROMS)
 
     1       C         -0.08400000  *  -0.16530000  *  -0.03970000  *
     2       C         -0.65070000  *   1.02810000  *   0.79840000  *
     3       C          1.19010000  *   0.16300000  *   0.73330000  *
     4       C         -0.69320000  *  -1.53520000  *   0.27600000  *
     5       C         -1.14590000  *   2.20850000  *  -0.03070000  *
     6       C         -2.07060000  *  -1.70610000  *  -0.35380000  *
     7       C          2.36150000  *   0.54460000  *  -0.12890000  *
     8       C          3.00680000  *  -0.35730000  *  -0.87160000  *
     9       O          0.64040000  *   1.29440000  *   1.38480000  *
    10       H         -0.01660000  *   0.04020000  *  -1.13570000  *
    11       H         -1.38710000  *   0.73780000  *   1.58570000  *
    12       H         -0.77490000  *  -1.70300000  *   1.37560000  *
    13       H         -0.01700000  *  -2.32340000  *  -0.12830000  *
    14       H          1.48840000  *  -0.59900000  *   1.49340000  *
    15       H         -2.01680000  *  -1.60040000  *  -1.46140000  *
    16       H         -2.46860000  *  -2.72000000  *  -0.12200000  *
    17       H         -2.78720000  *  -0.95350000  *   0.04680000  *
    18       H         -0.37400000  *   2.54660000  *  -0.75950000  *
    19       H         -1.39290000  *   3.06170000  *   0.64030000  *
    20       H         -2.06480000  *   1.91720000  *  -0.58760000  *
    21       H          2.70130000  *   1.57950000  *  -0.14260000  *
    22       H          2.70150000  *  -1.40260000  *  -0.88290000  *
    23       H          3.85460000  *  -0.05580000  *  -1.48360000  *
 


          CARTESIAN COORDINATES 

    NO.       ATOM         X         Y         Z

     1         C       -0.0840   -0.1653   -0.0397
     2         C       -0.6507    1.0281    0.7984
     3         C        1.1901    0.1630    0.7333
     4         C       -0.6932   -1.5352    0.2760
     5         C       -1.1459    2.2085   -0.0307
     6         C       -2.0706   -1.7061   -0.3538
     7         C        2.3615    0.5446   -0.1289
     8         C        3.0068   -0.3573   -0.8716
     9         O        0.6404    1.2944    1.3848
    10         H       -0.0166    0.0402   -1.1357
    11         H       -1.3871    0.7378    1.5857
    12         H       -0.7749   -1.7030    1.3756
    13         H       -0.0170   -2.3234   -0.1283
    14         H        1.4884   -0.5990    1.4934
    15         H       -2.0168   -1.6004   -1.4614
    16         H       -2.4686   -2.7200   -0.1220
    17         H       -2.7872   -0.9535    0.0468
    18         H       -0.3740    2.5466   -0.7595
    19         H       -1.3929    3.0617    0.6403
    20         H       -2.0648    1.9172   -0.5876
    21         H        2.7013    1.5795   -0.1426
    22         H        2.7015   -1.4026   -0.8829
    23         H        3.8546   -0.0558   -1.4836

  H: (PM3): J. J. P. STEWART, J. COMP. CHEM. 10, 209 (1989).
  C: (PM3): J. J. P. STEWART, J. COMP. CHEM. 10, 209 (1989).
  O: (PM3): J. J. P. STEWART, J. COMP. CHEM. 10, 209 (1989).

           Empirical Formula: C8 H14 O  =    23 atoms



      MOLECULAR POINT GROUP   :   C1  


      RHF CALCULATION, NO. OF DOUBLY OCCUPIED LEVELS =   26

      Geometry optimization using EF

          DIAGONAL MATRIX USED AS START HESSIAN

 CYCLE:     1 TIME:   0.008 TIME LEFT:  2.00D  GRAD.:   103.610 HEAT:-23.15332
 CYCLE:     2 TIME:   0.014 TIME LEFT:  2.00D  GRAD.:   106.835 HEAT:-24.48753
 CYCLE:     3 TIME:   0.013 TIME LEFT:  2.00D  GRAD.:    74.227 HEAT:-26.13418
 CYCLE:     4 TIME:   0.013 TIME LEFT:  2.00D  GRAD.:    30.248 HEAT:-26.98410
 CYCLE:     5 TIME:   0.007 TIME LEFT:  2.00D  GRAD.:    32.275 HEAT:-27.12196
 CYCLE:     6 TIME:   0.007 TIME LEFT:  2.00D  GRAD.:    30.041 HEAT:-27.34983
 CYCLE:     7 TIME:   0.014 TIME LEFT:  2.00D  GRAD.:    14.521 HEAT:-27.57346
 CYCLE:     8 TIME:   0.013 TIME LEFT:  2.00D  GRAD.:     9.446 HEAT:-27.65054
 CYCLE:     9 TIME:   0.007 TIME LEFT:  2.00D  GRAD.:    10.701 HEAT:-27.72122
 CYCLE:    10 TIME:   0.007 TIME LEFT:  2.00D  GRAD.:    11.093 HEAT:-27.78674
 CYCLE:    11 TIME:   0.013 TIME LEFT:  2.00D  GRAD.:    11.356 HEAT:-27.80814
 CYCLE:    12 TIME:   0.007 TIME LEFT:  2.00D  GRAD.:    12.517 HEAT:-27.81580
 CYCLE:    13 TIME:   0.007 TIME LEFT:  2.00D  GRAD.:    12.595 HEAT:-27.82414
 CYCLE:    14 TIME:   0.012 TIME LEFT:  2.00D  GRAD.:     4.832 HEAT:-27.86375
 CYCLE:    15 TIME:   0.012 TIME LEFT:  2.00D  GRAD.:     3.549 HEAT:-27.87032
 CYCLE:    16 TIME:   0.007 TIME LEFT:  2.00D  GRAD.:     3.624 HEAT:-27.87585
 CYCLE:    17 TIME:   0.007 TIME LEFT:  2.00D  GRAD.:     4.105 HEAT:-27.88150
 CYCLE:    18 TIME:   0.007 TIME LEFT:  2.00D  GRAD.:     4.977 HEAT:-27.88414
 CYCLE:    19 TIME:   0.007 TIME LEFT:  2.00D  GRAD.:     4.746 HEAT:-27.88717
 CYCLE:    20 TIME:   0.007 TIME LEFT:  2.00D  GRAD.:     3.786 HEAT:-27.89076
 CYCLE:    21 TIME:   0.007 TIME LEFT:  2.00D  GRAD.:     2.121 HEAT:-27.89447
 CYCLE:    22 TIME:   0.007 TIME LEFT:  2.00D  GRAD.:     3.287 HEAT:-27.89420
 CYCLE:    23 TIME:   0.007 TIME LEFT:  2.00D  GRAD.:     2.135 HEAT:-27.89718
 CYCLE:    24 TIME:   0.007 TIME LEFT:  2.00D  GRAD.:     2.329 HEAT:-27.89831
 CYCLE:    25 TIME:   0.007 TIME LEFT:  2.00D  GRAD.:     1.714 HEAT:-27.90056
 CYCLE:    26 TIME:   0.007 TIME LEFT:  2.00D  GRAD.:     1.855 HEAT:-27.90260
 CYCLE:    27 TIME:   0.007 TIME LEFT:  2.00D  GRAD.:     1.663 HEAT:-27.90473
 CYCLE:    28 TIME:   0.007 TIME LEFT:  2.00D  GRAD.:     1.195 HEAT:-27.90658
 CYCLE:    29 TIME:   0.007 TIME LEFT:  2.00D  GRAD.:     1.135 HEAT:-27.90749
 CYCLE:    30 TIME:   0.007 TIME LEFT:  2.00D  GRAD.:     1.035 HEAT:-27.90878
 CYCLE:    31 TIME:   0.007 TIME LEFT:  2.00D  GRAD.:     1.212 HEAT:-27.91063
 CYCLE:    32 TIME:   0.007 TIME LEFT:  2.00D  GRAD.:     0.936 HEAT:-27.91204
 CYCLE:    33 TIME:   0.007 TIME LEFT:  2.00D  GRAD.:     1.225 HEAT:-27.91428
 CYCLE:    34 TIME:   0.007 TIME LEFT:  2.00D  GRAD.:     1.513 HEAT:-27.91635
 CYCLE:    35 TIME:   0.007 TIME LEFT:  2.00D  GRAD.:     1.233 HEAT:-27.91836
 CYCLE:    36 TIME:   0.007 TIME LEFT:  2.00D  GRAD.:     0.983 HEAT:-27.92016
 CYCLE:    37 TIME:   0.007 TIME LEFT:  2.00D  GRAD.:     0.865 HEAT:-27.92140
 CYCLE:    38 TIME:   0.007 TIME LEFT:  2.00D  GRAD.:     0.671 HEAT:-27.92211
 CYCLE:    39 TIME:   0.007 TIME LEFT:  2.00D  GRAD.:     0.493 HEAT:-27.92248
 CYCLE:    40 TIME:   0.007 TIME LEFT:  2.00D  GRAD.:     0.350 HEAT:-27.92273
 CYCLE:    41 TIME:   0.007 TIME LEFT:  2.00D  GRAD.:     0.437 HEAT:-27.92327
 CYCLE:    42 TIME:   0.007 TIME LEFT:  2.00D  GRAD.:     0.506 HEAT:-27.92356
 CYCLE:    43 TIME:   0.007 TIME LEFT:  2.00D  GRAD.:     0.400 HEAT:-27.92386
 CYCLE:    44 TIME:   0.007 TIME LEFT:  2.00D  GRAD.:     0.441 HEAT:-27.92423
 CYCLE:    45 TIME:   0.007 TIME LEFT:  2.00D  GRAD.:     0.615 HEAT:-27.92488
 CYCLE:    46 TIME:   0.007 TIME LEFT:  2.00D  GRAD.:     0.672 HEAT:-27.92548
 CYCLE:    47 TIME:   0.007 TIME LEFT:  2.00D  GRAD.:     0.636 HEAT:-27.92633
 CYCLE:    48 TIME:   0.007 TIME LEFT:  2.00D  GRAD.:     0.557 HEAT:-27.92699
 CYCLE:    49 TIME:   0.007 TIME LEFT:  2.00D  GRAD.:     0.526 HEAT:-27.92781
 CYCLE:    50 TIME:   0.007 TIME LEFT:  2.00D  GRAD.:     0.514 HEAT:-27.92848
 CYCLE:    51 TIME:   0.007 TIME LEFT:  2.00D  GRAD.:     0.382 HEAT:-27.92883
 CYCLE:    52 TIME:   0.007 TIME LEFT:  2.00D  GRAD.:     0.327 HEAT:-27.92918
 CYCLE:    53 TIME:   0.007 TIME LEFT:  2.00D  GRAD.:     0.254 HEAT:-27.92931
 CYCLE:    54 TIME:   0.007 TIME LEFT:  2.00D  GRAD.:     0.223 HEAT:-27.92942
 CYCLE:    55 TIME:   0.007 TIME LEFT:  2.00D  GRAD.:     0.203 HEAT:-27.92951
 CYCLE:    56 TIME:   0.007 TIME LEFT:  2.00D  GRAD.:     0.235 HEAT:-27.92963
 CYCLE:    57 TIME:   0.007 TIME LEFT:  2.00D  GRAD.:     0.195 HEAT:-27.92971
 CYCLE:    58 TIME:   0.007 TIME LEFT:  2.00D  GRAD.:     0.194 HEAT:-27.92980
 CYCLE:    59 TIME:   0.007 TIME LEFT:  2.00D  GRAD.:     0.164 HEAT:-27.92985
 CYCLE:    60 TIME:   0.007 TIME LEFT:  2.00D  GRAD.:     0.306 HEAT:-27.92994
 CYCLE:    61 TIME:   0.007 TIME LEFT:  2.00D  GRAD.:     0.179 HEAT:-27.93003
 CYCLE:    62 TIME:   0.007 TIME LEFT:  2.00D  GRAD.:     0.177 HEAT:-27.93016
 CYCLE:    63 TIME:   0.007 TIME LEFT:  2.00D  GRAD.:     0.185 HEAT:-27.93023
 CYCLE:    64 TIME:   0.007 TIME LEFT:  2.00D  GRAD.:     0.264 HEAT:-27.93049
 CYCLE:    65 TIME:   0.007 TIME LEFT:  2.00D  GRAD.:     0.272 HEAT:-27.93064
 CYCLE:    66 TIME:   0.008 TIME LEFT:  2.00D  GRAD.:     0.308 HEAT:-27.93109
 CYCLE:    67 TIME:   0.007 TIME LEFT:  2.00D  GRAD.:     0.278 HEAT:-27.93123
 CYCLE:    68 TIME:   0.007 TIME LEFT:  2.00D  GRAD.:     0.395 HEAT:-27.93175
 CYCLE:    69 TIME:   0.007 TIME LEFT:  2.00D  GRAD.:     0.326 HEAT:-27.93193
 CYCLE:    70 TIME:   0.007 TIME LEFT:  2.00D  GRAD.:     0.193 HEAT:-27.93217
 CYCLE:    71 TIME:   0.007 TIME LEFT:  2.00D  GRAD.:     0.120 HEAT:-27.93222
 CYCLE:    72 TIME:   0.007 TIME LEFT:  2.00D  GRAD.:     0.105 HEAT:-27.93224
 CYCLE:    73 TIME:   0.007 TIME LEFT:  2.00D  GRAD.:     0.122 HEAT:-27.93228
 CYCLE:    74 TIME:   0.006 TIME LEFT:  2.00D  GRAD.:     0.102 HEAT:-27.93230
 CYCLE:    75 TIME:   0.007 TIME LEFT:  2.00D  GRAD.:     0.119 HEAT:-27.93234
 CYCLE:    76 TIME:   0.007 TIME LEFT:  2.00D  GRAD.:     0.143 HEAT:-27.93237
 CYCLE:    77 TIME:   0.007 TIME LEFT:  2.00D  GRAD.:     0.209 HEAT:-27.93250
 CYCLE:    78 TIME:   0.007 TIME LEFT:  2.00D  GRAD.:     0.251 HEAT:-27.93263
 CYCLE:    79 TIME:   0.007 TIME LEFT:  2.00D  GRAD.:     0.249 HEAT:-27.93284
 CYCLE:    80 TIME:   0.007 TIME LEFT:  2.00D  GRAD.:     0.198 HEAT:-27.93296
 CYCLE:    81 TIME:   0.007 TIME LEFT:  2.00D  GRAD.:     0.210 HEAT:-27.93311
 CYCLE:    82 TIME:   0.007 TIME LEFT:  2.00D  GRAD.:     0.167 HEAT:-27.93317
 CYCLE:    83 TIME:   0.007 TIME LEFT:  2.00D  GRAD.:     0.244 HEAT:-27.93329
 CYCLE:    84 TIME:   0.007 TIME LEFT:  2.00D  GRAD.:     0.172 HEAT:-27.93335
 CYCLE:    85 TIME:   0.007 TIME LEFT:  2.00D  GRAD.:     0.145 HEAT:-27.93344
 CYCLE:    86 TIME:   0.007 TIME LEFT:  2.00D  GRAD.:     0.162 HEAT:-27.93356
 CYCLE:    87 TIME:   0.007 TIME LEFT:  2.00D  GRAD.:     0.265 HEAT:-27.93393
 CYCLE:    88 TIME:   0.007 TIME LEFT:  2.00D  GRAD.:     0.444 HEAT:-27.93438
 CYCLE:    89 TIME:   0.007 TIME LEFT:  2.00D  GRAD.:     0.397 HEAT:-27.93465
 CYCLE:    90 TIME:   0.007 TIME LEFT:  2.00D  GRAD.:     0.791 HEAT:-27.93535
 CYCLE:    91 TIME:   0.007 TIME LEFT:  2.00D  GRAD.:     0.737 HEAT:-27.93584
 CYCLE:    92 TIME:   0.007 TIME LEFT:  2.00D  GRAD.:     0.565 HEAT:-27.93649
 CYCLE:    93 TIME:   0.008 TIME LEFT:  2.00D  GRAD.:     2.252 HEAT:-27.93656
 CYCLE:    94 TIME:   0.007 TIME LEFT:  2.00D  GRAD.:     0.406 HEAT:-27.93793
 CYCLE:    95 TIME:   0.007 TIME LEFT:  2.00D  GRAD.:     0.251 HEAT:-27.93849
 CYCLE:    96 TIME:   0.007 TIME LEFT:  2.00D  GRAD.:     0.847 HEAT:-27.93886
 CYCLE:    97 TIME:   0.007 TIME LEFT:  2.00D  GRAD.:     0.372 HEAT:-27.93910
 CYCLE:    98 TIME:   0.007 TIME LEFT:  2.00D  GRAD.:     0.220 HEAT:-27.93946
 CYCLE:    99 TIME:   0.007 TIME LEFT:  2.00D  GRAD.:     0.212 HEAT:-27.93969
 CYCLE:   100 TIME:   0.007 TIME LEFT:  2.00D  GRAD.:     0.392 HEAT:-27.93995
 CYCLE:   101 TIME:   0.007 TIME LEFT:  2.00D  GRAD.:     0.195 HEAT:-27.94010
 CYCLE:   102 TIME:   0.007 TIME LEFT:  2.00D  GRAD.:     0.269 HEAT:-27.94031
 CYCLE:   103 TIME:   0.007 TIME LEFT:  2.00D  GRAD.:     0.255 HEAT:-27.94046
 CYCLE:   104 TIME:   0.007 TIME LEFT:  2.00D  GRAD.:     0.494 HEAT:-27.94062
 CYCLE:   105 TIME:   0.007 TIME LEFT:  2.00D  GRAD.:     0.212 HEAT:-27.94077
 CYCLE:   106 TIME:   0.007 TIME LEFT:  2.00D  GRAD.:     0.182 HEAT:-27.94085
 CYCLE:   107 TIME:   0.007 TIME LEFT:  2.00D  GRAD.:     0.387 HEAT:-27.94114
 CYCLE:   108 TIME:   0.007 TIME LEFT:  2.00D  GRAD.:     0.315 HEAT:-27.94141
 CYCLE:   109 TIME:   0.007 TIME LEFT:  2.00D  GRAD.:     3.155 HEAT:-27.93822
 CYCLE:   110 TIME:   0.007 TIME LEFT:  2.00D  GRAD.:     0.378 HEAT:-27.94237
 CYCLE:   111 TIME:   0.007 TIME LEFT:  2.00D  GRAD.:     0.348 HEAT:-27.94291
 CYCLE:   112 TIME:   0.007 TIME LEFT:  2.00D  GRAD.:     1.701 HEAT:-27.94400
 CYCLE:   113 TIME:   0.007 TIME LEFT:  2.00D  GRAD.:     0.437 HEAT:-27.94490
 CYCLE:   114 TIME:   0.007 TIME LEFT:  2.00D  GRAD.:     0.404 HEAT:-27.94596
 CYCLE:   115 TIME:   0.007 TIME LEFT:  2.00D  GRAD.:     1.324 HEAT:-27.94827
 CYCLE:   116 TIME:   0.007 TIME LEFT:  2.00D  GRAD.:     0.529 HEAT:-27.94960
 CYCLE:   117 TIME:   0.007 TIME LEFT:  2.00D  GRAD.:     0.925 HEAT:-27.95020
 CYCLE:   118 TIME:   0.007 TIME LEFT:  2.00D  GRAD.:     0.384 HEAT:-27.95062
 CYCLE:   119 TIME:   0.007 TIME LEFT:  2.00D  GRAD.:     0.200 HEAT:-27.95082
 CYCLE:   120 TIME:   0.007 TIME LEFT:  2.00D  GRAD.:     0.224 HEAT:-27.95099
 CYCLE:   121 TIME:   0.007 TIME LEFT:  2.00D  GRAD.:     0.161 HEAT:-27.95104
 CYCLE:   122 TIME:   0.007 TIME LEFT:  2.00D  GRAD.:     0.131 HEAT:-27.95110
 CYCLE:   123 TIME:   0.007 TIME LEFT:  2.00D  GRAD.:     0.078 HEAT:-27.95112
 CYCLE:   124 TIME:   0.007 TIME LEFT:  2.00D  GRAD.:     0.065 HEAT:-27.95115
 CYCLE:   125 TIME:   0.006 TIME LEFT:  2.00D  GRAD.:     0.054 HEAT:-27.95115
 CYCLE:   126 TIME:   0.007 TIME LEFT:  2.00D  GRAD.:     0.200 HEAT:-27.95113
 CYCLE:   127 TIME:   0.007 TIME LEFT:  2.00D  GRAD.:     0.062 HEAT:-27.95116
 CYCLE:   128 TIME:   0.007 TIME LEFT:  2.00D  GRAD.:     0.049 HEAT:-27.95117

     RMS GRADIENT =  0.04886  IS LESS THAN CUTOFF =  0.05000



 -------------------------------------------------------------------------------
pm3  precise nosym
 InChI=1S/C8H14O/c1-4-7-6(3)9-8(7)5-2/h5-8H,2,4H2,1,3H3



     GEOMETRY OPTIMISED USING EIGENVECTOR FOLLOWING (EF).     
     SCF FIELD WAS ACHIEVED                                   


                              PM3 CALCULATION
                                                       MOPAC2012 (Version: 13.159M)
                                                       Mon Jun  2 14:11:38 2014
                                                       No. of days left =   6




          FINAL HEAT OF FORMATION =        -27.95117 KCAL/MOL =    -116.94768 KJ/MOL


          TOTAL ENERGY            =      -1456.91784 EV
          ELECTRONIC ENERGY       =      -7595.74871 EV  POINT GROUP:     C1  
          CORE-CORE REPULSION     =       6138.83087 EV
          COSMO AREA              =        181.95 SQUARE ANGSTROMS
          COSMO VOLUME            =        187.09 CUBIC ANGSTROMS

          GRADIENT NORM           =          0.04886
          IONIZATION POTENTIAL    =         10.264425 EV
          HOMO LUMO ENERGIES (EV) =        -10.264  0.931
          NO. OF FILLED LEVELS    =         26
          MOLECULAR WEIGHT        =        126.198

          MOLECULAR DIMENSIONS (Angstroms)

            Atom       Atom       Distance
            H    23    H    19     6.52072
            H    21    H    16     6.19061
            H    15    H    14     3.39330


          SCF CALCULATIONS        =        137
          COMPUTATION TIME        =          0.951 SECONDS




   ATOM   CHEMICAL          X               Y               Z
  NUMBER   SYMBOL      (ANGSTROMS)     (ANGSTROMS)     (ANGSTROMS)
 
     1       C         -0.13145127  *  -0.17012694  *  -0.02763105  *
     2       C         -0.67692559  *   1.02594065  *   0.80702177  *
     3       C          1.23277289  *   0.11994034  *   0.66933545  *
     4       C         -0.73430018  *  -1.52335298  *   0.27038894  *
     5       C         -1.16781029  *   2.21335836  *   0.01484603  *
     6       C         -2.10239576  *  -1.67243961  *  -0.35679440  *
     7       C          2.33038375  *   0.53772892  *  -0.24724512  *
     8       C          3.17537648  *  -0.34001007  *  -0.77514424  *
     9       O          0.64239123  *   1.23990705  *   1.39251565  *
    10       H         -0.12398457  *   0.01813620  *  -1.12253291  *
    11       H         -1.39476911  *   0.74482043  *   1.60727518  *
    12       H         -0.79908638  *  -1.68227613  *   1.36590827  *
    13       H         -0.05189421  *  -2.31115701  *  -0.10583128  *
    14       H          1.56678039  *  -0.65469367  *   1.39250775  *
    15       H         -2.05972603  *  -1.58784985  *  -1.45083985  *
    16       H         -2.54469659  *  -2.64809949  *  -0.11927335  *
    17       H         -2.79443486  *  -0.89886302  *   0.00332280  *
    18       H         -0.45184396  *   2.52148369  *  -0.75896564  *
    19       H         -1.34096740  *   3.08063096  *   0.66459549  *
    20       H         -2.11479961  *   1.96941965  *  -0.48332250  *
    21       H          2.40284489  *   1.61019376  *  -0.46702981  *
    22       H          3.13194836  *  -1.40592084  *  -0.56791254  *
    23       H          3.97237879  *  -0.05048360  *  -1.45301565  *

           Empirical Formula: C8 H14 O  =    23 atoms



      MOLECULAR POINT GROUP   :   C1  


                  EIGENVALUES  
 -41.75302 -34.61422 -33.52384 -30.79252 -27.23425 -23.65918 -22.05474 -19.76732
 -19.67505 -17.40820 -17.18404 -16.28733 -15.51656 -15.07115 -14.58815 -14.35782
 -13.81051 -13.71352 -13.23549 -12.70305 -12.43444 -12.16633 -12.08457 -11.47519
 -10.79460 -10.26443   0.93097   2.78794   2.91105   3.04109   3.47364   3.50985
   3.66897   3.74350   3.84190   3.87929   3.93079   4.04189   4.09174   4.27685
   4.30049   4.47458   4.57958   4.64126   4.72677   4.98001   5.01803   5.24013
   5.53462   5.76526


              NET ATOMIC CHARGES AND DIPOLE CONTRIBUTIONS

  ATOM NO.   TYPE          CHARGE      No. of ELECS.   s-Pop       p-Pop       
    1          C          -0.147847        4.1478     1.20862     2.93923
    2          C           0.067065        3.9329     1.18785     2.74509
    3          C           0.095427        3.9046     1.17739     2.72718
    4          C          -0.085876        4.0859     1.15547     2.93040
    5          C          -0.127000        4.1270     1.14071     2.98629
    6          C          -0.110214        4.1102     1.13797     2.97224
    7          C          -0.152948        4.1529     1.19922     2.95373
    8          C          -0.152603        4.1526     1.18117     2.97143
    9          O          -0.269266        6.2693     1.88460     4.38467
   10          H           0.090764        0.9092     0.90924
   11          H           0.069202        0.9308     0.93080
   12          H           0.055201        0.9448     0.94480
   13          H           0.052706        0.9473     0.94729
   14          H           0.074994        0.9250     0.92501
   15          H           0.039452        0.9605     0.96055
   16          H           0.040264        0.9597     0.95974
   17          H           0.039978        0.9600     0.96002
   18          H           0.049095        0.9509     0.95091
   19          H           0.051623        0.9484     0.94838
   20          H           0.045286        0.9547     0.95471
   21          H           0.113502        0.8865     0.88650
   22          H           0.080001        0.9200     0.92000
   23          H           0.081196        0.9188     0.91880
 DIPOLE           X         Y         Z       TOTAL
 POINT-CHG.    -0.735    -0.972    -0.971     1.558
 HYBRID        -0.058    -0.113    -0.227     0.260
 SUM           -0.794    -1.085    -1.198     1.801


          ATOMIC ORBITAL ELECTRON POPULATIONS

    Atom      s        px        py        pz   
    1  C   1.20862   0.96208   0.96447   1.01269
    2  C   1.18785   0.87705   0.93194   0.93610
    3  C   1.17739   0.91284   0.89752   0.91682
    4  C   1.15547   0.96799   0.95485   1.00756
    5  C   1.14071   1.00621   0.97894   1.00114
    6  C   1.13797   0.96160   1.00997   1.00067
    7  C   1.19922   0.96902   0.99994   0.98476
    8  C   1.18117   0.98203   0.98755   1.00185
    9  O   1.88460   1.22035   1.51396   1.65037
   10  H   0.90924
   11  H   0.93080
   12  H   0.94480
   13  H   0.94729
   14  H   0.92501
   15  H   0.96055
   16  H   0.95974
   17  H   0.96002
   18  H   0.95091
   19  H   0.94838
   20  H   0.95471
   21  H   0.88650
   22  H   0.92000
   23  H   0.91880
 *******************************************************************************
 ** Site#: 14399           For non-commercial use only        Version 13.159M **
 *******************************************************************************
 ** Cite this work as: MOPAC2012, James J. P. Stewart, Stewart Computational  **
 ** Chemistry, Version 13.159M web: HTTP://OpenMOPAC.net  Days remaining:   6 **
 *******************************************************************************
 **                                                                           **
 **                                MOPAC2012                                  **
 **                                                                           **
 *******************************************************************************

                            PM3 CALCULATION RESULTS


 *******************************************************************************
 *  CALCULATION DONE:                                Mon Jun  2 14:11:38 2014  *
 *  PM3      - The PM3 Hamiltonian to be used
 *  OLDGEO   - PREVIOUS GEOMETRY TO BE USED
 *  PRECISE  - CRITERIA TO BE INCREASED BY 100 TIMES
 *  NOSYM    - POINT-GROUP SYMMETRY SET TO C1
 *  T=       - A TIME OF 172800.0 SECONDS REQUESTED
 *  DUMP=N   - RESTART FILE WRITTEN EVERY  7200.000 SECONDS
 *  THERMO   - THERMODYNAMIC QUANTITIES TO BE CALCULATED
 *******************************************************************************
oldgeo thermo nosym precise  pm3

   ATOM   CHEMICAL          X               Y               Z
  NUMBER   SYMBOL      (ANGSTROMS)     (ANGSTROMS)     (ANGSTROMS)
 
     1       C         -0.13145127  *  -0.17012694  *  -0.02763105  *
     2       C         -0.67692559  *   1.02594065  *   0.80702177  *
     3       C          1.23277289  *   0.11994034  *   0.66933545  *
     4       C         -0.73430018  *  -1.52335298  *   0.27038894  *
     5       C         -1.16781029  *   2.21335836  *   0.01484603  *
     6       C         -2.10239576  *  -1.67243961  *  -0.35679440  *
     7       C          2.33038375  *   0.53772892  *  -0.24724512  *
     8       C          3.17537648  *  -0.34001007  *  -0.77514424  *
     9       O          0.64239123  *   1.23990705  *   1.39251565  *
    10       H         -0.12398457  *   0.01813620  *  -1.12253291  *
    11       H         -1.39476911  *   0.74482043  *   1.60727518  *
    12       H         -0.79908638  *  -1.68227613  *   1.36590827  *
    13       H         -0.05189421  *  -2.31115701  *  -0.10583128  *
    14       H          1.56678039  *  -0.65469367  *   1.39250775  *
    15       H         -2.05972603  *  -1.58784985  *  -1.45083985  *
    16       H         -2.54469659  *  -2.64809949  *  -0.11927335  *
    17       H         -2.79443486  *  -0.89886302  *   0.00332280  *
    18       H         -0.45184396  *   2.52148369  *  -0.75896564  *
    19       H         -1.34096740  *   3.08063096  *   0.66459549  *
    20       H         -2.11479961  *   1.96941965  *  -0.48332250  *
    21       H          2.40284489  *   1.61019376  *  -0.46702981  *
    22       H          3.13194836  *  -1.40592084  *  -0.56791254  *
    23       H          3.97237879  *  -0.05048360  *  -1.45301565  *
 


          CARTESIAN COORDINATES 

    NO.       ATOM         X         Y         Z

     1         C       -0.1315   -0.1701   -0.0276
     2         C       -0.6769    1.0259    0.8070
     3         C        1.2328    0.1199    0.6693
     4         C       -0.7343   -1.5234    0.2704
     5         C       -1.1678    2.2134    0.0148
     6         C       -2.1024   -1.6724   -0.3568
     7         C        2.3304    0.5377   -0.2472
     8         C        3.1754   -0.3400   -0.7751
     9         O        0.6424    1.2399    1.3925
    10         H       -0.1240    0.0181   -1.1225
    11         H       -1.3948    0.7448    1.6073
    12         H       -0.7991   -1.6823    1.3659
    13         H       -0.0519   -2.3112   -0.1058
    14         H        1.5668   -0.6547    1.3925
    15         H       -2.0597   -1.5878   -1.4508
    16         H       -2.5447   -2.6481   -0.1193
    17         H       -2.7944   -0.8989    0.0033
    18         H       -0.4518    2.5215   -0.7590
    19         H       -1.3410    3.0806    0.6646
    20         H       -2.1148    1.9694   -0.4833
    21         H        2.4028    1.6102   -0.4670
    22         H        3.1319   -1.4059   -0.5679
    23         H        3.9724   -0.0505   -1.4530

  H: (PM3): J. J. P. STEWART, J. COMP. CHEM. 10, 209 (1989).
  C: (PM3): J. J. P. STEWART, J. COMP. CHEM. 10, 209 (1989).
  O: (PM3): J. J. P. STEWART, J. COMP. CHEM. 10, 209 (1989).

           Empirical Formula: C8 H14 O  =    23 atoms



      MOLECULAR POINT GROUP   :   C1  


      RHF CALCULATION, NO. OF DOUBLY OCCUPIED LEVELS =   26



          HEAT OF FORMATION =     -27.951165 KCALS/MOLE


          INTERNAL COORDINATE DERIVATIVES

   NUMBER  ATOM       BOND         ANGLE      DIHEDRAL

     1       C     -0.000687     0.002450    -0.000198
     2       C      0.001659     0.000997     0.004457
     3       C      0.000613    -0.001770     0.004778
     4       C     -0.001300     0.005070     0.002133
     5       C      0.003210    -0.008046     0.000443
     6       C      0.001219     0.000229     0.004689
     7       C     -0.008374     0.003620     0.008189
     8       C      0.015375     0.002080    -0.000508
     9       O      0.001239     0.000027     0.001771
    10       H     -0.000460     0.005296     0.002891
    11       H     -0.005624     0.003728    -0.002261
    12       H     -0.006426     0.004333    -0.002526
    13       H     -0.003481     0.006792    -0.000854
    14       H     -0.000500    -0.004533    -0.000745
    15       H      0.009118    -0.005707     0.000008
    16       H      0.002914     0.001467     0.005227
    17       H     -0.000486    -0.003253    -0.000596
    18       H      0.002809    -0.020804    -0.007038
    19       H     -0.003115     0.006894     0.004963
    20       H      0.010945    -0.012519    -0.006998
    21       H     -0.009281     0.010619    -0.004629
    22       H     -0.004994    -0.005568    -0.008984
    23       H     -0.004373     0.008598    -0.004210


          GRADIENT NORM =   0.04845


          TIME FOR SCF CALCULATION =    0.00

          TIME FOR DERIVATIVES     =    0.00

          MOLECULAR WEIGHT =  126.20



          ROTATIONAL CONSTANTS IN CM(-1)

          A =    0.06480112   B =    0.04169809   C =    0.02987978



           PRINCIPAL MOMENTS OF INERTIA IN UNITS OF 10**(-40)*GRAM-CM**2

          A =      431.9798   B =      671.3203   C =      936.8468


          ORIENTATION OF MOLECULE IN FORCE CALCULATION

    NO.       ATOM         X         Y         Z

     1          C      -0.2471   -0.4744   -0.1349
     2          C       1.3101   -0.4744   -0.1349
     3          C      -0.1286    1.0802   -0.1349
     4          C      -0.9156   -1.0714   -1.3516
     5          C       1.9695   -1.0890    1.0758
     6          C      -0.8870   -2.5830   -1.3156
     7          C      -0.6835    1.7527    1.0731
     8          C      -1.9366    2.1893    1.1192
     9          O       1.3261    0.9845   -0.1112
    10          H      -0.6920   -0.8897    0.7946
    11          H       1.7746   -0.8334   -1.0784
    12          H      -0.4278   -0.7039   -2.2771
    13          H      -1.9614   -0.7085   -1.4009
    14          H      -0.4530    1.5777   -1.0740
    15          H      -1.4234   -2.9794   -0.4432
    16          H      -1.3542   -3.0111   -2.2115
    17          H       0.1426   -2.9630   -1.2657
    18          H       1.5406   -0.7175    2.0162
    19          H       3.0446   -0.8698    1.0972
    20          H       1.8468   -2.1795    1.0597
    21          H      -0.0029    1.8660    1.9262
    22          H      -2.6291    2.0980    0.2866
    23          H      -2.3568    2.6708    1.9968


    FIRST DERIVATIVES WILL BE USED IN THE CALCULATION OF SECOND DERIVATIVES

          ESTIMATED TIME TO COMPLETE CALCULATION =        2.64 SECONDS

    FOR POINT-GROUP C1   THERE ARE   1 UNIQUE SYMMETRY FUNCTIONS.

 STEP:   1 TIME =     0.03 SECS, INTEGRAL =      0.03 TIME LEFT: 172799.96
 STEP:   2 TIME =     0.03 SECS, INTEGRAL =      0.06 TIME LEFT: 172799.93
 STEP:   3 TIME =     0.03 SECS, INTEGRAL =      0.09 TIME LEFT: 172799.90
 STEP:   4 TIME =     0.03 SECS, INTEGRAL =      0.13 TIME LEFT: 172799.86
 STEP:   5 TIME =     0.03 SECS, INTEGRAL =      0.16 TIME LEFT: 172799.83
 STEP:   6 TIME =     0.03 SECS, INTEGRAL =      0.19 TIME LEFT: 172799.80
 STEP:   7 TIME =     0.03 SECS, INTEGRAL =      0.22 TIME LEFT: 172799.77
 STEP:   8 TIME =     0.03 SECS, INTEGRAL =      0.25 TIME LEFT: 172799.74
 STEP:   9 TIME =     0.03 SECS, INTEGRAL =      0.28 TIME LEFT: 172799.71
 STEP:  10 TIME =     0.03 SECS, INTEGRAL =      0.31 TIME LEFT: 172799.68
 STEP:  11 TIME =     0.03 SECS, INTEGRAL =      0.34 TIME LEFT: 172799.65
 STEP:  12 TIME =     0.03 SECS, INTEGRAL =      0.37 TIME LEFT: 172799.62
 STEP:  13 TIME =     0.03 SECS, INTEGRAL =      0.40 TIME LEFT: 172799.59
 STEP:  14 TIME =     0.03 SECS, INTEGRAL =      0.43 TIME LEFT: 172799.56
 STEP:  15 TIME =     0.03 SECS, INTEGRAL =      0.46 TIME LEFT: 172799.53
 STEP:  16 TIME =     0.03 SECS, INTEGRAL =      0.49 TIME LEFT: 172799.50
 STEP:  17 TIME =     0.03 SECS, INTEGRAL =      0.52 TIME LEFT: 172799.47
 STEP:  18 TIME =     0.03 SECS, INTEGRAL =      0.55 TIME LEFT: 172799.44
 STEP:  19 TIME =     0.03 SECS, INTEGRAL =      0.58 TIME LEFT: 172799.41
 STEP:  20 TIME =     0.03 SECS, INTEGRAL =      0.62 TIME LEFT: 172799.37
 STEP:  21 TIME =     0.03 SECS, INTEGRAL =      0.65 TIME LEFT: 172799.34
 STEP:  22 TIME =     0.03 SECS, INTEGRAL =      0.68 TIME LEFT: 172799.31
 STEP:  23 TIME =     0.03 SECS, INTEGRAL =      0.71 TIME LEFT: 172799.28
 STEP:  24 TIME =     0.03 SECS, INTEGRAL =      0.74 TIME LEFT: 172799.25
 STEP:  25 TIME =     0.03 SECS, INTEGRAL =      0.77 TIME LEFT: 172799.22
 STEP:  26 TIME =     0.03 SECS, INTEGRAL =      0.80 TIME LEFT: 172799.19
 STEP:  27 TIME =     0.03 SECS, INTEGRAL =      0.83 TIME LEFT: 172799.16
 STEP:  28 TIME =     0.03 SECS, INTEGRAL =      0.86 TIME LEFT: 172799.13
 STEP:  29 TIME =     0.03 SECS, INTEGRAL =      0.89 TIME LEFT: 172799.10
 STEP:  30 TIME =     0.03 SECS, INTEGRAL =      0.92 TIME LEFT: 172799.07
 STEP:  31 TIME =     0.03 SECS, INTEGRAL =      0.95 TIME LEFT: 172799.04
 STEP:  32 TIME =     0.03 SECS, INTEGRAL =      0.98 TIME LEFT: 172799.01
 STEP:  33 TIME =     0.03 SECS, INTEGRAL =      1.01 TIME LEFT: 172798.98
 STEP:  34 TIME =     0.03 SECS, INTEGRAL =      1.04 TIME LEFT: 172798.95
 STEP:  35 TIME =     0.03 SECS, INTEGRAL =      1.08 TIME LEFT: 172798.91
 STEP:  36 TIME =     0.03 SECS, INTEGRAL =      1.11 TIME LEFT: 172798.88
 STEP:  37 TIME =     0.03 SECS, INTEGRAL =      1.14 TIME LEFT: 172798.85
 STEP:  38 TIME =     0.03 SECS, INTEGRAL =      1.17 TIME LEFT: 172798.82
 STEP:  39 TIME =     0.03 SECS, INTEGRAL =      1.21 TIME LEFT: 172798.78
 STEP:  40 TIME =     0.03 SECS, INTEGRAL =      1.24 TIME LEFT: 172798.75
 STEP:  41 TIME =     0.03 SECS, INTEGRAL =      1.27 TIME LEFT: 172798.72
 STEP:  42 TIME =     0.03 SECS, INTEGRAL =      1.30 TIME LEFT: 172798.69
 STEP:  43 TIME =     0.03 SECS, INTEGRAL =      1.33 TIME LEFT: 172798.66
 STEP:  44 TIME =     0.03 SECS, INTEGRAL =      1.36 TIME LEFT: 172798.63
 STEP:  45 TIME =     0.03 SECS, INTEGRAL =      1.39 TIME LEFT: 172798.60
 STEP:  46 TIME =     0.03 SECS, INTEGRAL =      1.42 TIME LEFT: 172798.57
 STEP:  47 TIME =     0.03 SECS, INTEGRAL =      1.45 TIME LEFT: 172798.54
 STEP:  48 TIME =     0.03 SECS, INTEGRAL =      1.48 TIME LEFT: 172798.51
 STEP:  49 TIME =     0.03 SECS, INTEGRAL =      1.51 TIME LEFT: 172798.48
 STEP:  50 TIME =     0.03 SECS, INTEGRAL =      1.54 TIME LEFT: 172798.45
 STEP:  51 TIME =     0.03 SECS, INTEGRAL =      1.57 TIME LEFT: 172798.42
 STEP:  52 TIME =     0.03 SECS, INTEGRAL =      1.60 TIME LEFT: 172798.39
 STEP:  53 TIME =     0.03 SECS, INTEGRAL =      1.63 TIME LEFT: 172798.36
 STEP:  54 TIME =     0.03 SECS, INTEGRAL =      1.66 TIME LEFT: 172798.33
 STEP:  55 TIME =     0.03 SECS, INTEGRAL =      1.69 TIME LEFT: 172798.30
 STEP:  56 TIME =     0.03 SECS, INTEGRAL =      1.72 TIME LEFT: 172798.27
 STEP:  57 TIME =     0.03 SECS, INTEGRAL =      1.75 TIME LEFT: 172798.24
 STEP:  58 TIME =     0.03 SECS, INTEGRAL =      1.78 TIME LEFT: 172798.21
 STEP:  59 TIME =     0.03 SECS, INTEGRAL =      1.81 TIME LEFT: 172798.18
 STEP:  60 TIME =     0.03 SECS, INTEGRAL =      1.84 TIME LEFT: 172798.15
 STEP:  61 TIME =     0.03 SECS, INTEGRAL =      1.87 TIME LEFT: 172798.12
 STEP:  62 TIME =     0.03 SECS, INTEGRAL =      1.91 TIME LEFT: 172798.09
 STEP:  63 TIME =     0.03 SECS, INTEGRAL =      1.94 TIME LEFT: 172798.05
 STEP:  64 TIME =     0.03 SECS, INTEGRAL =      1.97 TIME LEFT: 172798.02
 STEP:  65 TIME =     0.03 SECS, INTEGRAL =      2.00 TIME LEFT: 172797.99
 STEP:  66 TIME =     0.03 SECS, INTEGRAL =      2.03 TIME LEFT: 172797.96
 STEP:  67 TIME =     0.03 SECS, INTEGRAL =      2.06 TIME LEFT: 172797.93
 STEP:  68 TIME =     0.03 SECS, INTEGRAL =      2.09 TIME LEFT: 172797.90
 STEP:  69 TIME =     0.03 SECS, INTEGRAL =      2.12 TIME LEFT: 172797.87

(To convert to Hartree/Bohr^2, multiply by (10^(-21) x N x a0^2)/(4.184 x 627.51) = 0.0642)


           FORCE MATRIX IN MILLIDYNES/ANGSTROM


                  C  1       C  2       C  3       C  4       C  5       C  6
 ------------------------------------------------------------------------------
     C    1  14.387909
     C    2   3.153908  14.513401
     C    3   3.064253   2.293264  14.816636
     C    4   4.396737   0.517226   0.521767  14.518739
     C    5   0.516742   4.462749   0.070877   0.037787  14.491730
     C    6   0.673643   0.029875   0.049033   4.462708   0.002900  14.375660
     C    7   0.545042   0.072146   4.837839   0.035196   0.007637   0.008072
     C    8   0.025928   0.009651   0.838360   0.003594   0.001694   0.001543
     O    9   2.073994   4.007502   4.037676   0.059830   0.722848   0.007480
     H   10   4.422399   0.434171   0.431993   0.428504   0.026101   0.031126
     H   11   0.423875   4.358871   0.056486   0.023579   0.421426   0.006307
     H   12   0.451355   0.026149   0.023461   4.436071   0.001579   0.436548
     H   13   0.433204   0.045954   0.020116   4.459545   0.007087   0.440392
     H   14   0.425755   0.057075   4.354573   0.024688   0.012901   0.002429
     H   15   0.023066   0.003290   0.001988   0.464440   0.000761   4.727181
     H   16   0.052655   0.002996   0.008114   0.450432   0.000369   4.760108
     H   17   0.021160   0.007380   0.002618   0.463095   0.002579   4.712196
     H   18   0.019207   0.481860   0.006340   0.001479   4.731414   0.000476
     H   19   0.046855   0.461840   0.006929   0.006481   4.764110   0.000432
     H   20   0.010592   0.436332   0.010359   0.001998   4.751743   0.001805
     H   21   0.015525   0.007522   0.464048   0.002014   0.002915   0.000848
     H   22   0.012970   0.001813   0.103473   0.003005   0.000420   0.000939
     H   23   0.017004   0.004088   0.139713   0.002148   0.000636   0.000582


                  C  7       C  8       O  9       H 10       H 11       H 12
 ------------------------------------------------------------------------------
     C    7  18.242130
     C    8  11.071353  18.035821
     O    9   0.752407   0.061199   8.869094
     H   10   0.024023   0.004531   0.040919   4.936681
     H   11   0.012457   0.002218   0.340317   0.030353   4.761915
     H   12   0.001295   0.000385   0.002800   0.042140   0.022910   5.048924
     H   13   0.002237   0.001029   0.005222   0.025429   0.002598   0.568204
     H   14   0.425245   0.033891   0.337492   0.030463   0.002138   0.016426
     H   15   0.000834   0.000368   0.001415   0.020972   0.000504   0.047977
     H   16   0.001795   0.000524   0.001979   0.002058   0.000438   0.031110
     H   17   0.000725   0.000345   0.002439   0.002262   0.007164   0.023542
     H   18   0.002142   0.000744   0.027492   0.019727   0.044082   0.000479
     H   19   0.001461   0.000464   0.019867   0.002936   0.026734   0.000439
     H   20   0.001503   0.000710   0.058255   0.004133   0.026943   0.000314
     H   21   4.804125   0.451576   0.052977   0.003213   0.001431   0.000451
     H   22   0.492443   5.071500   0.006794   0.000911   0.000286   0.000237
     H   23   0.463630   5.111426   0.011619   0.001295   0.000641   0.000120


                  H 13       H 14       H 15       H 16       H 17       H 18
 ------------------------------------------------------------------------------
     H   13   5.062727
     H   14   0.006408   4.749347
     H   15   0.024965   0.000493   5.468542
     H   16   0.027841   0.000552   0.572395   5.492714
     H   17   0.048902   0.000406   0.575789   0.569591   5.445380
     H   18   0.000484   0.000781   0.000203   0.000160   0.000280   5.464940
     H   19   0.001395   0.001121   0.000144   0.000117   0.000226   0.574130
     H   20   0.000421   0.002229   0.000548   0.000285   0.006854   0.562620
     H   21   0.000392   0.028930   0.000220   0.000230   0.000137   0.006060
     H   22   0.002781   0.016299   0.000143   0.000218   0.000184   0.000258
     H   23   0.000485   0.008688   0.000159   0.000156   0.000149   0.000210


                  H 19       H 20       H 21       H 22       H 23
 ------------------------------------------------------------------
     H   19   5.488546
     H   20   0.561343   5.463124
     H   21   0.000686   0.000556   5.174371
     H   22   0.000127   0.000208   0.121930   5.463092
     H   23   0.000195   0.000149   0.083185   0.422272   5.495310


          HEAT OF FORMATION =     -27.951165 KCALS/MOLE

          ZERO POINT ENERGY     125.959 KCAL/MOL


           NORMAL COORDINATE ANALYSIS (Total motion = 1 Angstrom)


   Root No.       1         2         3         4         5         6         7         8

                 1 A       2 A       3 A       4 A       5 A       6 A       7 A       8 A   

                  34.8      68.9      80.3     143.4     149.0     182.1     217.6     313.1
  
           1   -0.0023   -0.0167   -0.0070    0.0026   -0.0093    0.0020   -0.0030    0.0276
           2   -0.0155    0.0002    0.0070   -0.0091    0.0084    0.0130   -0.0134   -0.0074
           3    0.0021    0.0024    0.0133    0.0101   -0.0100   -0.0206    0.0026   -0.0163
           4   -0.0021   -0.0167   -0.0072    0.0033   -0.0095    0.0008   -0.0029    0.0280
           5    0.0021   -0.0112   -0.0047   -0.0072    0.0018    0.0088    0.0009    0.0251
           6   -0.0048    0.0071   -0.0039    0.0082   -0.0050   -0.0067    0.0073   -0.0105
           7   -0.0197   -0.0052    0.0046    0.0017   -0.0033    0.0053   -0.0180    0.0038
           8   -0.0140   -0.0003    0.0060   -0.0085    0.0080    0.0122   -0.0096   -0.0016
           9    0.0118   -0.0096    0.0064    0.0019   -0.0047   -0.0086    0.0054   -0.0085
          10    0.0004   -0.0122   -0.0251   -0.0101    0.0079    0.0064    0.0304   -0.0204
          11   -0.0150   -0.0030    0.0030    0.0050   -0.0072   -0.0048   -0.0149   -0.0247
          12    0.0003    0.0012    0.0256    0.0097   -0.0117   -0.0130   -0.0180    0.0180
          13    0.0096   -0.0294    0.0057    0.0166   -0.0152   -0.0271    0.0135   -0.0242
          14    0.0056    0.0174   -0.0358    0.0160   -0.0156   -0.0097   -0.0084    0.0005
          15   -0.0093    0.0291   -0.0273    0.0133   -0.0115   -0.0010   -0.0071    0.0067
          16    0.0235    0.0415    0.0381   -0.0167    0.0179    0.0069   -0.0058   -0.0173
          17   -0.0149   -0.0026    0.0034    0.0050   -0.0071   -0.0048   -0.0159   -0.0273
          18   -0.0130   -0.0255   -0.0022   -0.0217    0.0210    0.0260   -0.0137   -0.0198
          19   -0.0164    0.0226   -0.0054    0.0020    0.0058   -0.0006    0.0005    0.0016
          20   -0.0336    0.0103    0.0248    0.0020    0.0088   -0.0140    0.0363    0.0032
          21    0.0245   -0.0023   -0.0092   -0.0043   -0.0004    0.0039   -0.0108   -0.0125
          22    0.0219    0.0203   -0.0122    0.0006    0.0058    0.0028   -0.0020    0.0043
          23    0.0800    0.0001    0.0069   -0.0014    0.0065   -0.0053    0.0252    0.0064
          24   -0.0090    0.0298   -0.0219   -0.0102    0.0176    0.0078    0.0217    0.0113
          25   -0.0184   -0.0056    0.0038    0.0009   -0.0032    0.0056   -0.0168    0.0062
          26    0.0021   -0.0110   -0.0053   -0.0067    0.0009    0.0087   -0.0004    0.0247
          27    0.0008   -0.0310    0.0216   -0.0039    0.0020    0.0042    0.0165    0.0226
          28    0.0064   -0.0243    0.0019    0.0038   -0.0174   -0.0031   -0.0094    0.0539
          29   -0.0271    0.0082    0.0146   -0.0086    0.0117    0.0179   -0.0222   -0.0112
          30    0.0009    0.0021    0.0210    0.0106   -0.0123   -0.0196   -0.0056   -0.0039
          31   -0.0019   -0.0145   -0.0234    0.0023   -0.0073    0.0122   -0.0018    0.0552
          32    0.0107   -0.0403    0.0097   -0.0146    0.0086    0.0153    0.0147    0.0528
          33   -0.0079    0.0195   -0.0177    0.0106   -0.0069   -0.0033    0.0019   -0.0059
          34   -0.0097   -0.0363   -0.0708   -0.0216    0.0222    0.0071    0.0718   -0.0752
          35    0.0003    0.0291    0.0387    0.0195   -0.0213   -0.0254   -0.0315   -0.0086
          36    0.0011    0.0011    0.0156    0.0093   -0.0097   -0.0203   -0.0032   -0.0039
          37   -0.0053   -0.0253   -0.0411   -0.0101    0.0074    0.0064    0.0397   -0.0279
          38   -0.0307   -0.0384   -0.0378    0.0089   -0.0132   -0.0059    0.0061   -0.0357
          39    0.0084    0.0203    0.0675    0.0300   -0.0365   -0.0209   -0.0599    0.0810
          40   -0.0323   -0.0166    0.0192   -0.0011    0.0004    0.0123   -0.0184    0.0088
          41   -0.0113   -0.0017    0.0007   -0.0153    0.0132    0.0257   -0.0234   -0.0077
          42    0.0177   -0.0062   -0.0018   -0.0010   -0.0029   -0.0032   -0.0023   -0.0133
          43    0.0344    0.0743    0.0884    0.0390   -0.0557    0.1330    0.0315   -0.0399
          44   -0.0307   -0.0364   -0.0338   -0.0097    0.0067    0.0213    0.0005   -0.0548
          45   -0.0135   -0.0208    0.0117    0.0058   -0.0180    0.1157    0.0168   -0.0466
          46    0.0250    0.0373    0.0209   -0.0795    0.1016   -0.1250   -0.0672    0.0058
          47   -0.0142   -0.0033    0.0001    0.0267   -0.0308   -0.0297   -0.0057    0.0000
          48   -0.0141   -0.0230    0.0083    0.0005   -0.0111    0.1068    0.0132   -0.0456
          49    0.0295    0.0559    0.0557   -0.0160    0.0173    0.0129   -0.0137   -0.0188
          50    0.0001    0.0323    0.0447   -0.0027    0.0036   -0.0065   -0.0439   -0.0285
          51   -0.0221   -0.0544   -0.0487   -0.0991    0.1211   -0.1128   -0.0701   -0.0058
          52    0.0092   -0.0285    0.0207   -0.0865   -0.0922   -0.0525    0.0379   -0.0555
          53   -0.0014    0.0529   -0.0567   -0.0920   -0.1122   -0.0276   -0.0059   -0.0022
          54   -0.0067    0.0156   -0.0125    0.0090   -0.0085   -0.0054    0.0027   -0.0059
          55    0.0073   -0.0266    0.0072   -0.0146   -0.0351   -0.0282    0.0168   -0.0207
          56    0.0173    0.0039   -0.0422    0.1638    0.0762   -0.0082   -0.0220   -0.0248
          57   -0.0130    0.0269   -0.0369    0.0847    0.0537    0.0313   -0.0295    0.0559
          58    0.0214   -0.0437   -0.0004    0.1687    0.0797   -0.0249    0.0002   -0.0500
          59    0.0043    0.0186   -0.0349    0.0002   -0.0253   -0.0097   -0.0070    0.0035
          60   -0.0118    0.0630   -0.0524   -0.0487   -0.0859   -0.0237   -0.0074   -0.0126
          61   -0.0467    0.0466   -0.0080    0.0019    0.0163   -0.0075    0.0330    0.0134
          62   -0.1483    0.0271    0.0565    0.0138    0.0138   -0.0468    0.1033    0.0159
          63    0.0640   -0.0235   -0.0116   -0.0060   -0.0092    0.0139   -0.0449   -0.0226
          64    0.0529   -0.0039   -0.0095    0.0016   -0.0071    0.0085   -0.0430   -0.0179
          65    0.1963   -0.0165   -0.0247   -0.0135    0.0033    0.0276   -0.0348    0.0000
          66   -0.0475    0.0518   -0.0207   -0.0098    0.0288   -0.0004    0.0627    0.0309
          67    0.0248    0.0428   -0.0211   -0.0019    0.0191    0.0002    0.0375    0.0298
          68    0.0653    0.0077    0.0221    0.0075    0.0081   -0.0298    0.0763    0.0172
          69    0.0004    0.0364   -0.0345   -0.0163    0.0231    0.0201    0.0129    0.0178


   Root No.       9        10        11        12        13        14        15        16

                 9 A      10 A      11 A      12 A      13 A      14 A      15 A      16 A   

                 353.8     387.0     418.3     484.9     542.5     637.8     760.2     816.7
  
           1   -0.0181   -0.0100    0.0216    0.0094   -0.0050   -0.0104   -0.0246    0.0078
           2    0.0114   -0.0050   -0.0231    0.0120   -0.0093    0.0228   -0.0242   -0.0106
           3   -0.0281   -0.0232   -0.0164   -0.0036    0.0358    0.0033    0.0234    0.0015
           4   -0.0134   -0.0078    0.0238    0.0038   -0.0143   -0.0126   -0.0074   -0.0247
           5   -0.0111   -0.0037   -0.0130   -0.0279   -0.0061    0.0052    0.0276    0.0040
           6    0.0146   -0.0254   -0.0177   -0.0304   -0.0378    0.0061    0.0168    0.0148
           7    0.0095    0.0063   -0.0082    0.0316    0.0015    0.0122    0.0259    0.0054
           8    0.0113   -0.0027   -0.0322    0.0215   -0.0134    0.0037   -0.0252   -0.0064
           9   -0.0307    0.0387    0.0061    0.0264   -0.0124   -0.0082    0.0258    0.0084
          10   -0.0276   -0.0158   -0.0153    0.0105    0.0249    0.0059   -0.0299    0.0284
          11   -0.0058   -0.0116    0.0279   -0.0133    0.0078   -0.0018   -0.0014    0.0012
          12   -0.0183   -0.0230   -0.0170    0.0063    0.0276    0.0129   -0.0195   -0.0140
          13    0.0343   -0.0097   -0.0017   -0.0069   -0.0317   -0.0045   -0.0059   -0.0149
          14    0.0198    0.0323    0.0022    0.0106    0.0294    0.0042    0.0121    0.0068
          15    0.0061   -0.0086    0.0074   -0.0055   -0.0296   -0.0059   -0.0058   -0.0074
          16   -0.0021    0.0001    0.0101   -0.0025    0.0055   -0.0001   -0.0050    0.0068
          17   -0.0062   -0.0147    0.0339   -0.0188    0.0119   -0.0025   -0.0053    0.0010
          18    0.0012    0.0026    0.0236   -0.0075    0.0018   -0.0017   -0.0046   -0.0016
          19   -0.0035    0.0238   -0.0178   -0.0422    0.0071   -0.0218   -0.0025    0.0001
          20   -0.0091    0.0135   -0.0067    0.0247   -0.0098   -0.0619   -0.0022   -0.0009
          21   -0.0264    0.0401   -0.0130    0.0072   -0.0264    0.0076   -0.0157   -0.0045
          22    0.0029    0.0144   -0.0106   -0.0477    0.0114    0.0013   -0.0019    0.0004
          23    0.0010   -0.0063    0.0133    0.0243   -0.0078    0.0037   -0.0013   -0.0010
          24    0.0178   -0.0233    0.0097    0.0254   -0.0023   -0.0034   -0.0043   -0.0028
          25    0.0065   -0.0001   -0.0033    0.0420   -0.0005    0.0205    0.0373    0.0108
          26   -0.0136   -0.0070   -0.0129   -0.0288   -0.0107    0.0073    0.0222    0.0068
          27    0.0472    0.0241    0.0031   -0.0201    0.0376   -0.0036   -0.0086   -0.0013
          28   -0.0391   -0.0040    0.0405    0.0139    0.0129   -0.0307   -0.0296   -0.0146
          29    0.0357   -0.0275   -0.0560    0.0173   -0.0027    0.0561   -0.0556   -0.0347
          30   -0.0268   -0.0301   -0.0211    0.0010    0.0467    0.0095    0.0052   -0.0191
          31   -0.0170   -0.0028    0.0443   -0.0109   -0.0394   -0.0335   -0.0291   -0.0480
          32   -0.0079    0.0066   -0.0038   -0.0597    0.0067   -0.0126    0.0243   -0.0214
          33    0.0108   -0.0258   -0.0098   -0.0254   -0.0549    0.0017    0.0078    0.0114
          34   -0.0494   -0.0237   -0.0436    0.0120    0.0743    0.0194    0.0402   -0.1129
          35   -0.0072   -0.0189    0.0329   -0.0197    0.0099   -0.0056   -0.0218    0.0836
          36   -0.0297   -0.0293   -0.0289    0.0044    0.0523    0.0178    0.0083   -0.0512
          37   -0.0347   -0.0193   -0.0168    0.0105    0.0348    0.0061   -0.0173   -0.0077
          38   -0.0239   -0.0227    0.0284   -0.0149    0.0288   -0.0037    0.0185   -0.0723
          39   -0.0043   -0.0225    0.0192    0.0012   -0.0165   -0.0052   -0.0996    0.1339
          40    0.0575    0.0082   -0.0114    0.0591    0.0164    0.0347    0.0223   -0.0065
          41    0.0276    0.0215   -0.0398    0.0409   -0.0429    0.0457   -0.0673   -0.0235
          42   -0.0370    0.0501    0.0019    0.0281   -0.0334    0.0078    0.0050    0.0034
          43    0.0013    0.0056    0.0209   -0.0105    0.0002   -0.0046    0.0263   -0.0405
          44   -0.0035   -0.0044    0.0558   -0.0262    0.0006   -0.0159   -0.0118    0.0974
          45    0.0046    0.0108    0.0410   -0.0162   -0.0069   -0.0111    0.0114    0.0166
          46    0.0113    0.0053    0.0217   -0.0071   -0.0050   -0.0046    0.0207   -0.0355
          47   -0.0296   -0.0395   -0.0143    0.0029    0.0450    0.0224   -0.0655   -0.0012
          48    0.0056    0.0119    0.0420   -0.0161   -0.0088   -0.0120    0.0119    0.0217
          49    0.0052    0.0048    0.0210   -0.0089   -0.0013   -0.0043    0.0203   -0.0331
          50    0.0148   -0.0011    0.0639   -0.0362   -0.0080   -0.0145    0.0601   -0.0958
          51    0.0126    0.0102    0.0415   -0.0131   -0.0114   -0.0113    0.0049    0.0274
          52    0.0686   -0.0196   -0.0257   -0.0304   -0.0621    0.0078    0.0122    0.0274
          53    0.0410    0.0645    0.0226    0.0458    0.0675   -0.0026   -0.0268   -0.0156
          54    0.0131   -0.0249   -0.0110   -0.0291   -0.0565    0.0020    0.0168    0.0194
          55    0.0311   -0.0132   -0.0020   -0.0115   -0.0366   -0.0052   -0.0016   -0.0174
          56    0.0461    0.0509    0.0002    0.0324    0.0494    0.0105   -0.0102    0.0275
          57   -0.0489   -0.0110    0.0332    0.0057   -0.0117   -0.0232   -0.0136   -0.0665
          58    0.0606    0.0059   -0.0047    0.0123   -0.0201    0.0012   -0.0295    0.0035
          59    0.0172    0.0309    0.0024    0.0086    0.0287    0.0038    0.0148    0.0051
          60    0.0460    0.0336    0.0269    0.0415    0.0128   -0.0111   -0.0629   -0.0253
          61    0.0007    0.0205   -0.0009   -0.0709    0.0109    0.0019   -0.0192   -0.0035
          62   -0.0437    0.0667    0.0345    0.0182   -0.0342    0.0067    0.0149    0.0104
          63   -0.0234    0.0339   -0.0311    0.0312   -0.0249   -0.0200   -0.0041   -0.0029
          64   -0.0214    0.0522   -0.0512   -0.0639   -0.0028   -0.0745   -0.0357   -0.0112
          65    0.0492   -0.0856   -0.0182    0.0656    0.0287   -0.1573    0.0450    0.0167
          66    0.0337   -0.0473    0.0475    0.0351    0.0063    0.0779    0.0202    0.0055
          67    0.0351   -0.0352    0.0391   -0.0358    0.0325    0.1158    0.0400    0.0157
          68   -0.0345    0.0479    0.0695   -0.0121   -0.0399    0.2701   -0.0332   -0.0131
          69    0.0532   -0.0779    0.0035    0.0530    0.0254   -0.0943    0.0345    0.0116


   Root No.      17        18        19        20        21        22        23        24

                17 A      18 A      19 A      20 A      21 A      22 A      23 A      24 A   

                 901.6     914.3     920.1     931.9     965.6     985.7     998.8    1019.6
  
           1   -0.0279   -0.0058   -0.0012   -0.0051    0.0085   -0.0155   -0.0015   -0.0038
           2    0.0065    0.0168    0.0019    0.0088   -0.0216   -0.0079   -0.0139   -0.0035
           3    0.0168   -0.0053    0.0149    0.0029    0.0163   -0.0067   -0.0024    0.0045
           4    0.0222    0.0030    0.0015    0.0044   -0.0042    0.0020   -0.0054   -0.0080
           5    0.0090   -0.0129   -0.0147    0.0030   -0.0039    0.0053   -0.0075    0.0116
           6   -0.0076   -0.0088   -0.0100   -0.0001    0.0006    0.0008    0.0048    0.0149
           7    0.0015    0.0049    0.0004   -0.0137    0.0165    0.0097    0.0163   -0.0028
           8   -0.0010   -0.0059   -0.0005   -0.0149    0.0178   -0.0129   -0.0065    0.0028
           9    0.0027    0.0216   -0.0059   -0.0204   -0.0087    0.0028    0.0031   -0.0008
          10    0.0004    0.0005   -0.0046   -0.0014   -0.0011   -0.0072    0.0093    0.0167
          11    0.0000    0.0009    0.0000   -0.0011   -0.0002   -0.0012   -0.0001   -0.0001
          12   -0.0081    0.0026   -0.0101   -0.0014   -0.0014    0.0037   -0.0044   -0.0046
          13    0.0232    0.0062    0.0070    0.0041   -0.0069   -0.0073    0.0128    0.0045
          14    0.0077   -0.0195   -0.0259    0.0028   -0.0072   -0.0135    0.0040   -0.0098
          15   -0.0001    0.0037    0.0013   -0.0027   -0.0006    0.0020   -0.0065   -0.0097
          16    0.0059    0.0028   -0.0013    0.0008   -0.0067    0.0132   -0.0020   -0.0110
          17   -0.0026   -0.0013   -0.0052    0.0017   -0.0063    0.0097    0.0039   -0.0017
          18   -0.0077    0.0033   -0.0095   -0.0022   -0.0175    0.0141    0.0135    0.0021
          19    0.0007   -0.0002    0.0023   -0.0141   -0.0041   -0.0026   -0.0020    0.0010
          20    0.0003   -0.0197    0.0117   -0.0235   -0.0085    0.0004   -0.0004    0.0026
          21   -0.0016   -0.0002   -0.0031    0.0111    0.0027   -0.0052   -0.0040    0.0010
          22    0.0005    0.0044   -0.0004   -0.0070   -0.0021   -0.0002    0.0007   -0.0028
          23   -0.0017   -0.0138    0.0050    0.0051   -0.0039    0.0073    0.0050   -0.0058
          24   -0.0028   -0.0232    0.0064    0.0289    0.0090    0.0104    0.0084    0.0001
          25   -0.0072   -0.0129    0.0091    0.0284   -0.0203    0.0002   -0.0161    0.0103
          26   -0.0154    0.0241    0.0355    0.0014    0.0056    0.0059    0.0192   -0.0158
          27   -0.0015   -0.0012    0.0041    0.0054   -0.0056   -0.0083   -0.0019   -0.0059
          28   -0.0489   -0.0243   -0.0072   -0.0275    0.0465   -0.0155   -0.0628   -0.0816
          29    0.0403    0.0284    0.0152    0.0419   -0.0107   -0.0246   -0.0275    0.0129
          30    0.0205   -0.0085    0.0173    0.0071    0.0395   -0.0144   -0.0384   -0.0256
          31    0.0125   -0.0131   -0.0583   -0.0342    0.0207    0.0669   -0.0787    0.0104
          32    0.0488   -0.0179   -0.0518   -0.0355    0.0436    0.1125   -0.0801    0.1755
          33   -0.0249   -0.0141   -0.0258   -0.0056   -0.0039   -0.0036   -0.0063   -0.0330
          34   -0.0193   -0.0003   -0.0069   -0.0029    0.0169    0.0146   -0.0332   -0.0432
          35    0.0700   -0.0029    0.0211    0.0043    0.0431    0.0135   -0.0404   -0.0323
          36    0.0111    0.0005   -0.0025   -0.0002    0.0262    0.0204   -0.0430   -0.0480
          37   -0.0292   -0.0061   -0.0112   -0.0072    0.0082   -0.0263    0.0192    0.0327
          38   -0.0811   -0.0194   -0.0200   -0.0177    0.0246   -0.0604    0.0371    0.0602
          39   -0.0123   -0.0109   -0.0179   -0.0098    0.0092   -0.0490    0.0491    0.0886
          40    0.0404   -0.0223   -0.0623   -0.0600    0.1389    0.0837    0.1274   -0.0440
          41    0.0198    0.0255   -0.0663   -0.0582    0.0766   -0.0053    0.0188   -0.0175
          42    0.0014    0.0468   -0.0215   -0.0299   -0.0150   -0.0164   -0.0181    0.0017
          43   -0.0247   -0.0077   -0.0012   -0.0041    0.0132   -0.0247    0.0061    0.0188
          44    0.0821   -0.0114    0.0437    0.0163    0.0651   -0.0082   -0.0691   -0.0478
          45    0.0148   -0.0080    0.0142    0.0018    0.0293   -0.0175   -0.0168   -0.0019
          46   -0.0254   -0.0067   -0.0003   -0.0039    0.0124   -0.0251    0.0072    0.0201
          47   -0.0240    0.0303   -0.0601   -0.0018   -0.1234    0.1148    0.0611   -0.0216
          48    0.0190   -0.0079    0.0171    0.0019    0.0317   -0.0186   -0.0196   -0.0039
          49   -0.0221   -0.0065   -0.0020   -0.0034    0.0092   -0.0188    0.0070    0.0162
          50   -0.0691   -0.0262   -0.0036   -0.0082    0.0402   -0.0743    0.0217    0.0670
          51    0.0194   -0.0077    0.0162    0.0024    0.0310   -0.0180   -0.0193   -0.0033
          52   -0.0589   -0.0203   -0.0401   -0.0168    0.0057    0.0171   -0.0459   -0.0458
          53    0.0112    0.0363    0.0568    0.0053    0.0117    0.0199    0.0111    0.0578
          54   -0.0371   -0.0287   -0.0498   -0.0128   -0.0020    0.0001   -0.0349   -0.0568
          55    0.0341   -0.0002   -0.0023    0.0061   -0.0123   -0.0154    0.0180   -0.0013
          56   -0.0703    0.0132    0.0183   -0.0130    0.0251    0.0404   -0.0396    0.0127
          57    0.1283    0.0163    0.0294    0.0261   -0.0298   -0.0488    0.0709    0.0263
          58   -0.0568    0.0428    0.0536   -0.0136    0.0251    0.0508   -0.0361    0.0187
          59    0.0162   -0.0240   -0.0317    0.0047   -0.0107   -0.0194    0.0086   -0.0104
          60   -0.0364    0.0911    0.1242   -0.0090    0.0362    0.0677   -0.0213    0.0655
          61   -0.0081    0.0169   -0.0217    0.0980    0.0170    0.0051   -0.0007   -0.0029
          62   -0.0152    0.1541   -0.0974    0.1548    0.0546   -0.0150   -0.0015   -0.0042
          63    0.0075   -0.0364    0.0305   -0.1027   -0.0222   -0.0092   -0.0045    0.0049
          64   -0.0134   -0.0536    0.0056    0.1355    0.0370    0.0317    0.0260   -0.0018
          65   -0.0028    0.1369   -0.0741    0.0740    0.0393   -0.0311   -0.0193    0.0236
          66    0.0094    0.0120    0.0091   -0.1014   -0.0285   -0.0130   -0.0104   -0.0040
          67    0.0175    0.1169   -0.0330   -0.1362   -0.0145   -0.0529   -0.0356    0.0137
          68    0.0024   -0.0437    0.0165    0.0262    0.0354   -0.0036   -0.0011    0.0221
          69    0.0034    0.0489   -0.0161   -0.0466   -0.0188   -0.0094   -0.0060   -0.0070


   Root No.      25        26        27        28        29        30        31        32

                25 A      26 A      27 A      28 A      29 A      30 A      31 A      32 A   

                1026.6    1060.2    1109.5    1121.3    1126.2    1133.2    1151.4    1175.9
  
           1   -0.0006   -0.0009   -0.0180    0.0055    0.0014    0.0042   -0.0027    0.0142
           2   -0.0070    0.0176    0.0413   -0.0033   -0.0162    0.0019   -0.0207   -0.0075
           3    0.0001   -0.0034    0.0042   -0.0087   -0.0036   -0.0158   -0.0129    0.0346
           4   -0.0027    0.0227    0.0111   -0.0070    0.0064    0.0052   -0.0076    0.0096
           5   -0.0011   -0.0136    0.0167   -0.0089   -0.0081    0.0190   -0.0095   -0.0039
           6   -0.0032   -0.0038   -0.0155    0.0077    0.0158    0.0322   -0.0226    0.0123
           7    0.0028    0.0135   -0.0245    0.0123    0.0056   -0.0279    0.0059    0.0064
           8    0.0115   -0.0327   -0.0203    0.0013    0.0091   -0.0188   -0.0073    0.0065
           9   -0.0018    0.0137    0.0251   -0.0002   -0.0087    0.0110    0.0104    0.0098
          10   -0.0058    0.0076    0.0125   -0.0348    0.0052   -0.0084    0.0028   -0.0088
          11    0.0006   -0.0025    0.0273    0.0335    0.0214   -0.0177   -0.0128    0.0100
          12   -0.0041    0.0045   -0.0057    0.0099   -0.0047    0.0212    0.0134   -0.0338
          13    0.0032   -0.0150   -0.0025    0.0030   -0.0022   -0.0014    0.0037   -0.0072
          14    0.0007    0.0075   -0.0071    0.0038    0.0026   -0.0061    0.0032    0.0014
          15    0.0033   -0.0039    0.0129   -0.0049   -0.0212   -0.0296    0.0225   -0.0098
          16    0.0060   -0.0070   -0.0077    0.0381   -0.0125    0.0068    0.0000    0.0041
          17    0.0028   -0.0002   -0.0300   -0.0356   -0.0227    0.0162    0.0087   -0.0048
          18    0.0079   -0.0078    0.0031   -0.0064    0.0164   -0.0140   -0.0031    0.0099
          19    0.0104    0.0024   -0.0018   -0.0008    0.0001    0.0027   -0.0005   -0.0034
          20    0.0294    0.0106    0.0019   -0.0021   -0.0003    0.0116    0.0040   -0.0031
          21   -0.0065   -0.0049   -0.0191   -0.0032   -0.0034   -0.0065   -0.0264   -0.0165
          22   -0.0172   -0.0031    0.0007    0.0005   -0.0005   -0.0032   -0.0010   -0.0009
          23   -0.0526   -0.0070   -0.0046    0.0017    0.0010   -0.0062   -0.0011    0.0008
          24    0.0174    0.0086    0.0023    0.0033    0.0020   -0.0025    0.0082    0.0027
          25   -0.0009   -0.0165    0.0039   -0.0048    0.0015    0.0120    0.0058   -0.0069
          26    0.0015    0.0073   -0.0061    0.0020    0.0042   -0.0052    0.0119   -0.0033
          27    0.0017   -0.0010   -0.0024   -0.0004    0.0029   -0.0020    0.0018    0.0008
          28    0.0317   -0.1322    0.0532   -0.0443   -0.0785   -0.0119   -0.0763    0.0570
          29   -0.0597    0.1820   -0.0748    0.0066   -0.0311   -0.0063    0.0289    0.1030
          30   -0.0090    0.0079   -0.0138   -0.0282   -0.0503   -0.0251   -0.0256    0.1065
          31   -0.0104    0.0910   -0.0281    0.0177    0.0960    0.0228   -0.0594    0.0167
          32   -0.0223   -0.0224   -0.0218    0.0277   -0.0563   -0.0916    0.0555   -0.0042
          33    0.0005    0.0325   -0.0204    0.0071    0.0772    0.0812   -0.0730    0.0166
          34   -0.0005   -0.0096   -0.0188    0.0219    0.0368    0.0319    0.0314   -0.0727
          35   -0.0063   -0.0106    0.0597   -0.0273    0.2047   -0.0626    0.0239   -0.0651
          36   -0.0046   -0.0072   -0.0088    0.0152    0.0850    0.0258    0.0432   -0.0984
          37   -0.0133    0.0099    0.0172    0.0430   -0.0139    0.0020    0.0128   -0.0172
          38   -0.0238    0.0086    0.0466    0.2612   -0.0342    0.0083    0.0170   -0.0132
          39   -0.0294    0.0323    0.0390    0.0276   -0.0192    0.0019    0.0235   -0.0464
          40   -0.0178    0.0337    0.0892   -0.0393   -0.0733    0.0502   -0.0874   -0.0529
          41   -0.0372   -0.0771    0.0220   -0.0251    0.0551    0.1047    0.1539    0.0934
          42   -0.0218   -0.0165    0.0103    0.0016    0.0408    0.0534    0.1283    0.0778
          43   -0.0097    0.0089    0.0130   -0.0258    0.0147   -0.0084    0.0007   -0.0056
          44   -0.0150    0.0124   -0.0773    0.0524   -0.1076    0.0954    0.0353   -0.0515
          45   -0.0101    0.0074   -0.0054   -0.0032   -0.0053    0.0137    0.0096   -0.0188
          46   -0.0097    0.0093    0.0133   -0.0262    0.0126   -0.0098   -0.0013    0.0002
          47    0.0538   -0.0432   -0.0571   -0.0191   -0.0090   -0.0127    0.0025    0.0403
          48   -0.0097    0.0052    0.0045    0.0184   -0.0029    0.0099    0.0025   -0.0130
          49   -0.0073    0.0070    0.0013   -0.0272    0.0029   -0.0005    0.0047   -0.0071
          50   -0.0334    0.0378   -0.0101   -0.2064    0.0134    0.0022    0.0234   -0.0387
          51   -0.0106    0.0074   -0.0028    0.0133   -0.0093    0.0154    0.0079   -0.0190
          52    0.0016    0.0341    0.0324   -0.0153   -0.0335   -0.0597    0.0394   -0.0133
          53   -0.0083   -0.0196   -0.0178    0.0070    0.0326    0.0657   -0.0464    0.0178
          54    0.0062    0.0263    0.0329   -0.0146   -0.0479   -0.0832    0.0577   -0.0191
          55    0.0051   -0.0161   -0.0036    0.0043   -0.0044   -0.0086    0.0095   -0.0114
          56   -0.0109    0.0264    0.0082   -0.0075    0.0111    0.0245   -0.0234    0.0207
          57    0.0137   -0.0750   -0.0160    0.0121   -0.0113   -0.0029    0.0108   -0.0255
          58   -0.0058    0.0012    0.0289   -0.0153   -0.0109    0.0047   -0.0009   -0.0068
          59    0.0014    0.0061   -0.0108    0.0060    0.0038   -0.0061    0.0030    0.0023
          60   -0.0077   -0.0372    0.0288   -0.0159   -0.0099    0.0330   -0.0164   -0.0101
          61   -0.0331   -0.0288    0.0726   -0.0149   -0.0077    0.0487    0.0247    0.0514
          62   -0.0677   -0.0266   -0.0757    0.0102    0.0050   -0.0615   -0.0508   -0.0419
          63    0.0412    0.0249   -0.0671    0.0060    0.0016   -0.0326   -0.0398   -0.0547
          64    0.0491    0.0190    0.0289    0.0074    0.0026    0.0005    0.0308    0.0171
          65    0.1833    0.0216   -0.0006   -0.0048   -0.0014    0.0169   -0.0030   -0.0087
          66   -0.0631   -0.0129   -0.0220   -0.0020   -0.0009   -0.0084   -0.0196   -0.0122
          67    0.0814   -0.0061   -0.0005   -0.0110   -0.0107    0.0119   -0.0275   -0.0113
          68    0.2101    0.0302    0.0062    0.0023    0.0044    0.0057    0.0138    0.0039
          69   -0.0792   -0.0130   -0.0062   -0.0025   -0.0047   -0.0024   -0.0138   -0.0053


   Root No.      33        34        35        36        37        38        39        40

                33 A      34 A      35 A      36 A      37 A      38 A      39 A      40 A   

                1179.5    1181.9    1206.1    1225.1    1278.0    1292.8    1323.0    1364.3
  
           1    0.0069   -0.0442    0.0178   -0.0331   -0.0089    0.0254   -0.0122    0.0221
           2    0.0342   -0.0030   -0.0152   -0.0092   -0.0132   -0.0122    0.0091    0.0168
           3   -0.0135    0.0287   -0.0004   -0.0165   -0.0138    0.0056    0.0037    0.0187
           4   -0.0272    0.0187   -0.0129   -0.0365    0.0133   -0.0280    0.0263   -0.0051
           5   -0.0256   -0.0043   -0.0206   -0.0102    0.0494    0.0055   -0.0281   -0.0092
           6    0.0181   -0.0268   -0.0072   -0.0103   -0.0027   -0.0172    0.0139   -0.0037
           7    0.0315    0.0089   -0.0024   -0.0071    0.0308   -0.0303   -0.0066   -0.0232
           8    0.0028    0.0275    0.0250   -0.0162    0.0295    0.0169    0.0033    0.0130
           9    0.0294   -0.0067    0.0106    0.0000    0.0254    0.0180   -0.0052    0.0164
          10    0.0051    0.0085   -0.0050    0.0080   -0.0045   -0.0024   -0.0045   -0.0083
          11   -0.0004   -0.0082   -0.0009   -0.0180   -0.0245    0.0094   -0.0206   -0.0260
          12    0.0136    0.0025    0.0017   -0.0163   -0.0092    0.0026   -0.0106   -0.0098
          13    0.0097   -0.0027    0.0038    0.0131   -0.0041    0.0048   -0.0004    0.0015
          14    0.0073   -0.0012    0.0052    0.0020   -0.0096    0.0013   -0.0008    0.0011
          15   -0.0098    0.0014    0.0039   -0.0023   -0.0020   -0.0004    0.0072    0.0013
          16   -0.0055    0.0028    0.0009    0.0001    0.0018   -0.0001    0.0020    0.0041
          17    0.0030    0.0097    0.0011    0.0013    0.0021   -0.0001   -0.0022   -0.0193
          18   -0.0089   -0.0065    0.0009    0.0077    0.0045   -0.0005    0.0027    0.0035
          19   -0.0068   -0.0033   -0.0035    0.0026   -0.0087   -0.0139   -0.0125    0.0063
          20   -0.0107   -0.0087    0.0072    0.0059   -0.0094   -0.0020    0.0067   -0.0103
          21   -0.0298   -0.0041    0.0328    0.0058   -0.0139   -0.0145    0.0078   -0.0172
          22    0.0045    0.0009   -0.0208   -0.0022    0.0000    0.0055   -0.0087    0.0162
          23    0.0030    0.0028    0.0004   -0.0014    0.0030   -0.0003    0.0023   -0.0043
          24    0.0109    0.0004   -0.0224   -0.0019    0.0033    0.0037   -0.0015    0.0022
          25   -0.0178    0.0022    0.0033    0.0169   -0.0199    0.0120    0.0038    0.0038
          26    0.0023    0.0069    0.0085    0.0166   -0.0233   -0.0006    0.0081    0.0004
          27   -0.0031    0.0056   -0.0009    0.0004   -0.0005   -0.0008   -0.0009   -0.0006
          28    0.0865   -0.0631   -0.0767    0.1576    0.0078   -0.0688    0.0233   -0.0418
          29   -0.0716   -0.1506    0.0242    0.0969    0.0498    0.0456   -0.0351   -0.0216
          30   -0.0217   -0.0474   -0.0292    0.1280    0.0202   -0.0135    0.0005   -0.0301
          31    0.0522    0.1779    0.0381    0.1323   -0.0569    0.0659   -0.0337    0.0256
          32    0.0616   -0.0743    0.0330   -0.0007   -0.0875   -0.0125    0.0376    0.0112
          33    0.0281    0.0780   -0.0021    0.0733    0.0117    0.0359   -0.0407    0.0036
          34    0.0154   -0.0430    0.0107    0.0154    0.0282   -0.0080    0.0039   -0.0571
          35   -0.0310   -0.1147    0.0141    0.0678    0.0678   -0.0189    0.0429    0.0716
          36    0.0080   -0.0635    0.0156    0.0213    0.0440   -0.0117    0.0181   -0.0035
          37   -0.0138    0.0171   -0.0083    0.0406    0.0210   -0.0145    0.0170    0.0200
          38   -0.0630    0.0266   -0.0136    0.0883    0.0565   -0.0304    0.0488    0.0664
          39   -0.0168    0.0665   -0.0209    0.0942    0.0408   -0.0343    0.0234   -0.0625
          40   -0.0639   -0.0591    0.0395    0.0212   -0.0566    0.0481    0.0005    0.0340
          41   -0.0708    0.0229   -0.0877    0.0023   -0.0970   -0.0158    0.0037   -0.0088
          42    0.0202    0.0115   -0.0617    0.0016   -0.0136   -0.0252   -0.0089   -0.0144
          43    0.0036   -0.0041   -0.0011    0.0011   -0.0054    0.0017   -0.0096   -0.0377
          44    0.0209    0.0362    0.0028   -0.0020    0.0284   -0.0126    0.0316    0.0865
          45    0.0057    0.0019    0.0005    0.0042    0.0094   -0.0041    0.0082    0.0177
          46    0.0024   -0.0056   -0.0017    0.0014   -0.0059    0.0033   -0.0113   -0.0307
          47   -0.0387   -0.0046    0.0057    0.0509    0.0549   -0.0166    0.0501    0.0993
          48    0.0070    0.0048    0.0002   -0.0143   -0.0136    0.0042   -0.0123   -0.0280
          49    0.0016    0.0019   -0.0007    0.0087    0.0105   -0.0050    0.0124    0.0366
          50    0.0235    0.0088   -0.0028    0.0249    0.0300   -0.0156    0.0327    0.0904
          51    0.0063    0.0060    0.0003   -0.0032   -0.0001   -0.0017    0.0003   -0.0080
          52   -0.0362    0.0295    0.0038    0.0005    0.0123    0.0191   -0.0344   -0.0035
          53    0.0180   -0.0186   -0.0141   -0.0090    0.0003   -0.0264    0.0377   -0.0035
          54   -0.0344    0.0215    0.0110   -0.0016    0.0033    0.0192   -0.0282    0.0005
          55    0.0122    0.0004    0.0075    0.0213   -0.0048    0.0135   -0.0135    0.0007
          56   -0.0181   -0.0027   -0.0161   -0.0400    0.0035   -0.0365    0.0497    0.0015
          57    0.0394   -0.0143    0.0119    0.0723    0.0030    0.0513   -0.0720   -0.0025
          58   -0.0357    0.0199   -0.0139   -0.0031    0.0390    0.0181   -0.0457   -0.0098
          59    0.0128   -0.0052    0.0068    0.0017   -0.0159   -0.0035    0.0102    0.0025
          60   -0.0340    0.0066   -0.0246    0.0074    0.0611    0.0345   -0.0767   -0.0068
          61    0.0143    0.0176    0.2650    0.0033    0.0310   -0.0522    0.0056   -0.0326
          62   -0.0221    0.0053   -0.1335   -0.0079   -0.0149    0.0224   -0.0030    0.0155
          63   -0.0454   -0.0228   -0.1553    0.0074   -0.0444    0.0103   -0.0057    0.0090
          64    0.0501    0.0045   -0.0813   -0.0125    0.0401    0.1276    0.0937   -0.0449
          65   -0.0269   -0.0117    0.0287    0.0107   -0.0292   -0.0741   -0.0594    0.0318
          66   -0.0242   -0.0015    0.0232    0.0052   -0.0255   -0.0826   -0.0736    0.0458
          67   -0.0240   -0.0055    0.0290    0.0008    0.0225    0.1250    0.1272   -0.0800
          68    0.0056    0.0006   -0.0086   -0.0010    0.0000   -0.0176   -0.0161    0.0081
          69   -0.0062   -0.0019    0.0072   -0.0001    0.0132    0.0626    0.0675   -0.0481


   Root No.      41        42        43        44        45        46        47        48

                41 A      42 A      43 A      44 A      45 A      46 A      47 A      48 A   

                1388.1    1393.8    1404.5    1405.9    1410.1    1411.0    1425.7    1463.4
  
           1    0.0012    0.0012   -0.0022   -0.0069    0.0067    0.0108    0.0016   -0.0407
           2    0.0085   -0.0026   -0.0006   -0.0102    0.0084    0.0131    0.0101   -0.0391
           3    0.0018    0.0010   -0.0016   -0.0103    0.0082    0.0130    0.0040   -0.0366
           4    0.0008    0.0024    0.0005   -0.0084    0.0042    0.0075    0.0095    0.0457
           5   -0.0007   -0.0047   -0.0002    0.0104   -0.0067   -0.0112   -0.0120   -0.0372
           6    0.0084   -0.0004   -0.0007   -0.0078    0.0055    0.0086    0.0080    0.0313
           7    0.0181   -0.0134   -0.0013    0.0059   -0.0006   -0.0030   -0.0073   -0.0335
           8   -0.0201    0.0135    0.0021   -0.0021   -0.0024   -0.0015    0.0066    0.0440
           9   -0.0183    0.0120    0.0017   -0.0014   -0.0026   -0.0018    0.0065    0.0294
          10    0.0057   -0.0062    0.0022    0.0133   -0.0077   -0.0160   -0.0001    0.0183
          11   -0.0010   -0.0019   -0.0066    0.0064   -0.0016   -0.0058   -0.0461    0.0292
          12    0.0107   -0.0109    0.0054    0.0221   -0.0112   -0.0256    0.0004    0.0275
          13   -0.0212   -0.0155    0.0026   -0.0027   -0.0106   -0.0162   -0.0080   -0.0189
          14    0.0179    0.0007    0.0004   -0.0304    0.0009    0.0012    0.0067    0.0179
          15   -0.0166    0.0218    0.0033    0.0097   -0.0165   -0.0244   -0.0134   -0.0295
          16    0.0013   -0.0009   -0.0240    0.0000   -0.0191    0.0087    0.0012   -0.0009
          17   -0.0138    0.0094    0.0064   -0.0054   -0.0062    0.0038    0.0528   -0.0144
          18    0.0007    0.0002    0.0264   -0.0011   -0.0147    0.0129   -0.0019   -0.0021
          19   -0.0027    0.0016    0.0001   -0.0003    0.0000    0.0000    0.0002   -0.0008
          20    0.0085   -0.0056   -0.0007    0.0013    0.0005   -0.0001   -0.0025   -0.0092
          21    0.0149   -0.0099   -0.0012    0.0020    0.0012    0.0003   -0.0047   -0.0184
          22   -0.0126    0.0086    0.0010   -0.0024   -0.0005    0.0005    0.0043    0.0167
          23    0.0032   -0.0023   -0.0003    0.0007    0.0001   -0.0002   -0.0012   -0.0048
          24   -0.0016    0.0010    0.0001   -0.0001   -0.0002   -0.0001    0.0004    0.0008
          25   -0.0051    0.0034    0.0006   -0.0005   -0.0009   -0.0010    0.0010    0.0126
          26   -0.0012    0.0014    0.0002   -0.0004    0.0003    0.0006    0.0014    0.0110
          27    0.0007   -0.0005   -0.0001    0.0002   -0.0001   -0.0002   -0.0006   -0.0030
          28    0.0098   -0.0040   -0.0015    0.0045   -0.0103   -0.0152   -0.0014    0.0516
          29   -0.0245    0.0105   -0.0057    0.0139   -0.0172   -0.0190   -0.0167    0.0493
          30   -0.0090    0.0043   -0.0032    0.0062   -0.0118   -0.0152   -0.0103    0.0487
          31   -0.0079   -0.0038    0.0030    0.0064   -0.0060   -0.0122   -0.0057   -0.0589
          32    0.0076    0.0012    0.0000   -0.0181    0.0097    0.0156    0.0130    0.0264
          33    0.0023   -0.0059    0.0006    0.0101   -0.0056   -0.0116   -0.0086   -0.0456
          34   -0.0763    0.0614   -0.0341   -0.0946    0.0373    0.1169   -0.0865   -0.0354
          35    0.0280   -0.0171    0.0183    0.0186   -0.0107   -0.0235    0.0927   -0.0337
          36   -0.0285    0.0247   -0.0065   -0.0393    0.0128    0.0490   -0.0011   -0.0288
          37    0.0133   -0.0100    0.0096    0.0159   -0.0100   -0.0205    0.0412    0.0004
          38    0.0285   -0.0182    0.0208    0.0216   -0.0103   -0.0293    0.0912   -0.0224
          39   -0.0805    0.0638   -0.0270   -0.0964    0.0361    0.1163   -0.0760   -0.0269
          40   -0.0201    0.0147    0.0012   -0.0065    0.0013    0.0039    0.0071    0.0181
          41    0.0241   -0.0147   -0.0034   -0.0033    0.0075    0.0083   -0.0077   -0.0464
          42    0.0179   -0.0123   -0.0021    0.0023    0.0019    0.0009   -0.0064   -0.0374
          43   -0.0298    0.0211    0.0175   -0.0168    0.2115   -0.1016    0.0396   -0.0115
          44    0.0458   -0.0273    0.1251    0.0129    0.0154    0.0083   -0.1313    0.0251
          45    0.0039   -0.0003    0.0785   -0.0044    0.1375   -0.0567   -0.0457    0.0065
          46   -0.0122    0.0110    0.3124   -0.0047    0.0662   -0.0034    0.0058   -0.0051
          47    0.0261   -0.0118   -0.0568   -0.0124    0.1121   -0.0314   -0.1007   -0.0015
          48   -0.0089    0.0026   -0.1296    0.0047   -0.0958    0.0255    0.0580   -0.0035
          49    0.0207   -0.0138   -0.0328    0.0078   -0.0341    0.0141   -0.0520    0.0131
          50    0.0499   -0.0335   -0.1013    0.0190   -0.0602    0.0176   -0.1165    0.0308
          51   -0.0157    0.0088   -0.2760   -0.0102    0.1480   -0.1005    0.0289   -0.0022
          52    0.0363   -0.0182   -0.0236    0.1485    0.0912    0.1375    0.0360    0.0506
          53   -0.0124    0.1495   -0.0069    0.1867    0.0090    0.0155   -0.0209   -0.0488
          54    0.0208   -0.0575   -0.0074   -0.0056    0.0343    0.0512    0.0219    0.0361
          55    0.0213    0.0235    0.0023   -0.0296   -0.0109   -0.0170   -0.0030   -0.0072
          56   -0.1423   -0.1390   -0.0042    0.1302    0.0238    0.0373   -0.0070   -0.0188
          57    0.0505   -0.0438   -0.0240    0.1211    0.0910    0.1352    0.0366    0.0411
          58    0.1479    0.1875   -0.0059   -0.0179    0.0055    0.0067    0.0087    0.0162
          59   -0.0112   -0.0183    0.0012   -0.0081   -0.0002    0.0004    0.0022    0.0075
          60    0.0329   -0.1531   -0.0012   -0.1450    0.0125    0.0144    0.0245    0.0440
          61    0.0216   -0.0153   -0.0016    0.0047    0.0002   -0.0017   -0.0064   -0.0213
          62   -0.0102    0.0076    0.0007   -0.0018    0.0000    0.0008    0.0024    0.0087
          63   -0.0009    0.0012   -0.0002   -0.0012    0.0010    0.0013   -0.0007   -0.0062
          64    0.0226   -0.0140   -0.0014    0.0033    0.0006   -0.0008   -0.0044   -0.0105
          65   -0.0163    0.0104    0.0010   -0.0025   -0.0004    0.0006    0.0038    0.0089
          66   -0.0269    0.0173    0.0019   -0.0043   -0.0010    0.0008    0.0067    0.0210
          67    0.0473   -0.0299   -0.0033    0.0065    0.0022   -0.0005   -0.0110   -0.0317
          68   -0.0048    0.0028    0.0004   -0.0003   -0.0004   -0.0003    0.0009    0.0023
          69    0.0304   -0.0196   -0.0022    0.0046    0.0013   -0.0006   -0.0080   -0.0268


[...]
 TRAVEL      0.1415        C  5 --  H 19          +13.2% ( 36.1%)     5.0%
 RED. MASS   0.3015        C  3 --  C  7           +5.1% ( 22.5%)    95.6%
 EFF. MASS   2.4178

 VIBRATION   43   43A       ATOM PAIR        ENERGY CONTRIBUTION    RADIAL
 FREQ.      1404.48        C  6 --  H 16          +46.7% ( 59.5%)     0.9%
 T-DIPOLE    0.0475        C  6 --  H 17          +34.9% ( 51.4%)     3.5%
 TRAVEL      0.1732        C  6 --  H 15           +9.8% ( 27.2%)    44.5%
 RED. MASS   0.4068        C  4 --  C  6           +5.3% ( 20.0%)    12.9%
 EFF. MASS   1.6013

 VIBRATION   44   44A       ATOM PAIR        ENERGY CONTRIBUTION    RADIAL
 FREQ.      1405.93        C  5 --  H 18          +27.7% ( 53.6%)     0.0%
 T-DIPOLE    0.1430        C  5 --  H 19          +17.2% ( 42.1%)     1.3%
 TRAVEL      0.1337        C  5 --  H 20          +11.3% ( 34.2%)    20.9%
 RED. MASS   0.3025        C  4 --  H 12           +8.1% ( 28.9%)     3.4%
 EFF. MASS   2.6847

 VIBRATION   45   45A       ATOM PAIR        ENERGY CONTRIBUTION    RADIAL
 FREQ.      1410.10        C  6 --  H 15          +34.3% ( 54.9%)     0.0%
 T-DIPOLE    0.0958        C  6 --  H 17          +14.8% ( 36.1%)     6.5%
 TRAVEL      0.1527        C  6 --  H 16          +14.1% ( 35.2%)    13.7%
 RED. MASS   0.2732        C  5 --  H 18           +7.1% ( 25.0%)     3.7%
 EFF. MASS   2.0518

 VIBRATION   46   46A       ATOM PAIR        ENERGY CONTRIBUTION    RADIAL
 FREQ.      1411.05        C  5 --  H 18          +13.2% ( 40.7%)     3.5%
 T-DIPOLE    0.1109        C  5 --  H 19          +12.0% ( 38.8%)     4.7%
 TRAVEL      0.1168        C  4 --  H 12          +11.6% ( 38.2%)     3.3%
 RED. MASS   0.2811        C  4 --  H 13          +10.4% ( 36.2%)     4.7%
 EFF. MASS   3.5029

 VIBRATION   47   47A       ATOM PAIR        ENERGY CONTRIBUTION    RADIAL
 FREQ.      1425.69        C  4 --  C  6          +19.1% ( 56.7%)    99.9%
 T-DIPOLE    0.0677        C  6 --  H 15          +14.2% ( 48.9%)     4.1%
 TRAVEL      0.0925        C  6 --  H 17          +13.2% ( 47.2%)     2.9%
 RED. MASS   0.9114        C  6 --  H 16          +12.0% ( 44.9%)     3.8%
 EFF. MASS   5.5325        C  4 --  H 12          +10.5% ( 42.1%)     3.2%
                           C  4 --  H 13          +10.4% ( 41.9%)     3.0%

 VIBRATION   48   48A       ATOM PAIR        ENERGY CONTRIBUTION    RADIAL
 FREQ.      1463.42        C  2 --  C  3          +10.4% ( 55.2%)    99.9%
 T-DIPOLE    0.3700        C  1 --  C  2          +10.4% ( 55.2%)    61.8%
 TRAVEL      0.0671        C  1 --  C  3           +9.9% ( 53.9%)    61.5%
 RED. MASS   1.7231        C  1 --  C  4           +8.7% ( 50.6%)    89.5%
 EFF. MASS  10.2349

 VIBRATION   49   49A       ATOM PAIR        ENERGY CONTRIBUTION    RADIAL
 FREQ.      1858.91        C  7 --  C  8          +45.3% ( 99.5%)    99.0%
 T-DIPOLE    0.1477        C  3 --  C  7          +16.5% ( 60.1%)    51.3%
 TRAVEL      0.0554        C  7 --  H 21          +15.4% ( 58.0%)     4.3%
 RED. MASS   5.3053        C  8 --  H 22          +11.0% ( 49.1%)    10.8%
 EFF. MASS  11.8056        C  8 --  H 23          +10.8% ( 48.6%)    13.1%

 VIBRATION   50   50A       ATOM PAIR        ENERGY CONTRIBUTION    RADIAL
 FREQ.      2904.79        C  3 --  H 14          +75.9% ( 89.1%)   100.0%
 T-DIPOLE    0.0548        C  2 --  H 11          +19.6% ( 45.2%)    99.9%
 TRAVEL      0.1265        C  2 --  C  3           +1.0% ( 10.4%)     4.3%
 RED. MASS   0.6249        C  3 --  C  7           +0.9% (  9.7%)    14.6%
 EFF. MASS   1.4505

 VIBRATION   51   51A       ATOM PAIR        ENERGY CONTRIBUTION    RADIAL
 FREQ.      2908.02        C  2 --  H 11          +75.1% ( 88.8%)   100.0%
 T-DIPOLE    0.0395        C  3 --  H 14          +19.0% ( 44.6%)   100.0%
 TRAVEL      0.1252        C  2 --  C  3           +1.2% ( 11.2%)    78.9%
 RED. MASS   0.6146        C  1 --  H 10           +1.1% ( 10.7%)    99.9%
 EFF. MASS   1.4798

 VIBRATION   52   52A       ATOM PAIR        ENERGY CONTRIBUTION    RADIAL
 FREQ.      2948.16        C  4 --  H 12          +40.1% ( 65.6%)    96.9%
 T-DIPOLE    0.0715        C  4 --  H 13          +33.9% ( 60.3%)    95.9%
 TRAVEL      0.1225        C  1 --  H 10          +22.5% ( 49.1%)   100.0%
 RED. MASS   0.3492        C  1 --  C  4           +1.2% ( 11.4%)     2.0%
 EFF. MASS   1.5252

 VIBRATION   53   53A       ATOM PAIR        ENERGY CONTRIBUTION    RADIAL
 FREQ.      2958.22        C  1 --  H 10          +71.2% ( 86.4%)   100.0%
 T-DIPOLE    0.1690        C  4 --  H 12          +12.8% ( 36.6%)    97.0%
 TRAVEL      0.1250        C  4 --  H 13          +11.7% ( 34.9%)    96.3%
 RED. MASS   0.5507        C  1 --  C  4           +1.0% ( 10.0%)    24.5%
 EFF. MASS   1.4595

 VIBRATION   54   54A       ATOM PAIR        ENERGY CONTRIBUTION    RADIAL
 FREQ.      3030.11        C  4 --  H 13          +53.0% ( 71.8%)    98.1%
 T-DIPOLE    0.0425        C  4 --  H 12          +45.0% ( 66.1%)    97.2%
 TRAVEL      0.1321        C  4 --  C  6           +0.6% (  7.9%)    26.4%
 RED. MASS   0.4811        C  1 --  C  4           +0.6% (  7.7%)    29.5%
 EFF. MASS   1.2761

 VIBRATION   55   55A       ATOM PAIR        ENERGY CONTRIBUTION    RADIAL
 FREQ.      3046.35        C  7 --  H 21          +96.2% ( 99.5%)   100.0%
 T-DIPOLE    0.3295        C  7 --  C  8           +1.4% ( 12.2%)    31.2%
 TRAVEL      0.1213        C  3 --  C  7           +1.4% ( 11.8%)    15.1%
 RED. MASS   0.9108        C  8 --  H 23           +1.0% (  9.9%)    95.6%
 EFF. MASS   1.5048

 VIBRATION   56   56A       ATOM PAIR        ENERGY CONTRIBUTION    RADIAL
 FREQ.      3075.88        C  6 --  H 17          +59.2% ( 79.4%)    98.2%
 T-DIPOLE    0.0124        C  6 --  H 15          +36.9% ( 62.7%)    95.0%
 TRAVEL      0.1208        C  6 --  H 16           +2.1% ( 15.0%)    25.8%
 RED. MASS   0.5148        C  4 --  C  6           +1.0% ( 10.2%)     0.0%
 EFF. MASS   1.5018

 VIBRATION   57   57A       ATOM PAIR        ENERGY CONTRIBUTION    RADIAL
 FREQ.      3081.28        C  5 --  H 18          +66.0% ( 83.9%)    99.0%
 T-DIPOLE    0.0719        C  5 --  H 20          +16.3% ( 41.7%)    84.0%
 TRAVEL      0.1205        C  5 --  H 19          +16.1% ( 41.4%)    83.7%
 RED. MASS   0.5179        C  2 --  C  5           +1.0% ( 10.4%)     0.0%
 EFF. MASS   1.5062

 VIBRATION   58   58A       ATOM PAIR        ENERGY CONTRIBUTION    RADIAL
 FREQ.      3085.24        C  6 --  H 16          +58.8% ( 79.1%)    98.6%
 T-DIPOLE    0.0171        C  6 --  H 15          +29.0% ( 55.5%)    92.0%
 TRAVEL      0.1205        C  6 --  H 17          +10.2% ( 32.9%)    73.9%
 RED. MASS   0.4682        C  4 --  C  6           +1.0% ( 10.3%)     0.0%
 EFF. MASS   1.5042

 VIBRATION   59   59A       ATOM PAIR        ENERGY CONTRIBUTION    RADIAL
 FREQ.      3087.42        C  5 --  H 20          +51.4% ( 74.0%)    97.3%
 T-DIPOLE    0.0805        C  5 --  H 19          +45.8% ( 69.8%)    96.8%
 TRAVEL      0.1203        C  2 --  C  5           +1.0% ( 10.4%)     0.0%
 RED. MASS   0.5044        C  5 --  H 18           +1.0% ( 10.4%)     1.0%
 EFF. MASS   1.5090

 VIBRATION   60   60A       ATOM PAIR        ENERGY CONTRIBUTION    RADIAL
 FREQ.      3134.96        C  8 --  H 22          +93.9% ( 98.5%)    99.9%
 T-DIPOLE    0.1907        C  8 --  H 23           +4.7% ( 22.1%)    62.7%
 TRAVEL      0.1186        C  7 --  C  8           +1.3% ( 11.7%)    26.2%
 RED. MASS   0.8835
 EFF. MASS   1.5287

 VIBRATION   61   61A       ATOM PAIR        ENERGY CONTRIBUTION    RADIAL
 FREQ.      3147.20        C  8 --  H 23          +93.6% ( 97.6%)    99.8%
 T-DIPOLE    0.2631        C  8 --  H 22           +3.9% ( 19.9%)    24.4%
 TRAVEL      0.1205        C  7 --  C  8           +1.6% ( 12.7%)    68.7%
 RED. MASS   0.8512        C  7 --  H 21           +0.8% (  9.2%)    95.4%
 EFF. MASS   1.4767

 VIBRATION   62   62A       ATOM PAIR        ENERGY CONTRIBUTION    RADIAL
 FREQ.      3178.15        C  5 --  H 19          +35.0% ( 57.0%)    97.6%
 T-DIPOLE    0.0834        C  5 --  H 18          +29.5% ( 52.3%)    96.7%
 TRAVEL      0.1366        C  5 --  H 20          +28.5% ( 51.4%)    96.5%
 RED. MASS   0.2878        C  6 --  H 16           +2.6% ( 15.6%)    97.9%
 EFF. MASS   1.1363

 VIBRATION   63   63A       ATOM PAIR        ENERGY CONTRIBUTION    RADIAL
 FREQ.      3179.29        C  6 --  H 16          +35.6% ( 57.4%)    97.8%
 T-DIPOLE    0.0325        C  6 --  H 15          +30.6% ( 53.2%)    97.0%
 TRAVEL      0.1366        C  6 --  H 17          +26.8% ( 49.8%)    96.2%
 RED. MASS   0.2889        C  5 --  H 19           +2.5% ( 15.2%)    97.5%
 EFF. MASS   1.1371

 SYMMETRY NUMBER FOR POINT-GROUP C1  =  1


          SYSTEM IS A GROUND STATE


    NULL



          MOLECULE IS NOT LINEAR

          THERE ARE 63 GENUINE VIBRATIONS IN THIS SYSTEM
          THIS THERMODYNAMICS CALCULATION IS LIMITED TO
          MOLECULES WHICH HAVE NO INTERNAL ROTATIONS




                    CALCULATED THERMODYNAMIC PROPERTIES
                                          *
   TEMP. (K)   PARTITION FUNCTION   H.O.F.    ENTHALPY  HEAT CAPACITY ENTROPY
                                   KCAL/MOL   CAL/MOLE    CAL/K/MOL  CAL/K/MOL


 298.00  VIB.     0.2365D+04                  4817.2319    32.1189    31.6032
         ROT.     0.5880D+06                   888.2813     2.9808    29.3798
         INT.     0.1391D+10                  5705.5132    35.0997    60.9830
         TRA.     0.1371D+28                  1480.4688     4.9680    40.4094
         TOT.                      -27.951    7185.9820    40.0677   101.3924

 200.00  VIB.     0.1589D+03                  2229.7327    21.0917    21.2201
         ROT.     0.3233D+06                   596.1620     2.9808    28.1911
         INT.     0.5136D+08                  2825.8946    24.0725    49.4112
         TRA.     0.7536D+27                   993.6033     4.9680    38.4282
         TOT.                      -31.318    3819.4979    29.0405    87.8395

 210.00  VIB.     0.2102D+03                  2445.6405    22.0949    22.2734
         ROT.     0.3478D+06                   625.9700     2.9808    28.3365
         INT.     0.7311D+08                  3071.6106    25.0757    50.6099
         TRA.     0.8108D+27                  1043.2834     4.9680    38.6706
         TOT.                      -31.022    4114.8940    30.0437    89.2805

 220.00  VIB.     0.2776D+03                  2671.7330    23.1288    23.3249
         ROT.     0.3730D+06                   655.7781     2.9808    28.4752
         INT.     0.1036D+09                  3327.5111    26.1096    51.8002
         TRA.     0.8694D+27                  1092.9636     4.9680    38.9017
         TOT.                      -30.717    4420.4747    31.0776    90.7019

 230.00  VIB.     0.3663D+03                  2908.3199    24.1937    24.3764
         ROT.     0.3987D+06                   685.5862     2.9808    28.6077
         INT.     0.1461D+09                  3593.9062    27.1746    52.9842
         TRA.     0.9293D+27                  1142.6437     4.9680    39.1226
         TOT.                      -30.401    4736.5499    32.1426    92.1067

 240.00  VIB.     0.4829D+03                  3155.7090    25.2890    25.4292
         ROT.     0.4250D+06                   715.3943     2.9808    28.7346
         INT.     0.2052D+09                  3871.1033    28.2698    54.1637
         TRA.     0.9906D+27                  1192.3239     4.9680    39.3340
         TOT.                      -30.074    5063.4272    33.2378    93.4977

 250.00  VIB.     0.6359D+03                  3414.1955    26.4129    26.4842
         ROT.     0.4518D+06                   745.2024     2.9808    28.8563
         INT.     0.2873D+09                  4159.3979    29.3937    55.3405
         TRA.     0.1053D+28                  1242.0041     4.9680    39.5368
         TOT.                      -29.736    5401.4020    34.3617    94.8773

 260.00  VIB.     0.8368D+03                  3684.0546    27.5631    27.5425
         ROT.     0.4792D+06                   775.0105     2.9808    28.9732
         INT.     0.4010D+09                  4459.0651    30.5439    56.5156
         TRA.     0.1117D+28                  1291.6842     4.9680    39.7317
         TOT.                      -29.386    5750.7493    35.5119    96.2473

 270.00  VIB.     0.1101D+04                  3965.5349    28.7366    28.6046
         ROT.     0.5071D+06                   804.8186     2.9808    29.0857
         INT.     0.5581D+09                  4770.3535    31.7174    57.6903
         TRA.     0.1182D+28                  1341.3644     4.9680    39.9191
         TOT.                      -29.025    6111.7179    36.6855    97.6094

 280.00  VIB.     0.1447D+04                  4258.8546    29.9304    29.6712
         ROT.     0.5355D+06                   834.6267     2.9808    29.1941
         INT.     0.7748D+09                  5093.4813    32.9112    58.8653
         TRA.     0.1248D+28                  1391.0445     4.9680    40.0998
         TOT.                      -28.653    6484.5259    37.8792    98.9651

 290.00  VIB.     0.1901D+04                  4564.1981    31.1408    30.7426
         ROT.     0.5645D+06                   864.4348     2.9808    29.2987
         INT.     0.1073D+10                  5428.6330    34.1216    60.0413
         TRA.     0.1316D+28                  1440.7247     4.9680    40.2742
         TOT.                      -28.268    6869.3577    39.0897   100.3154

 300.00  VIB.     0.2498D+04                  4881.7151    32.3645    31.8189
         ROT.     0.5939D+06                   894.2429     2.9808    29.3997
         INT.     0.1484D+10                  5775.9580    35.3453    61.2186
         TRA.     0.1384D+28                  1490.4049     4.9680    40.4426
         TOT.                      -27.871    7266.3629    40.3133   101.6612

 310.00  VIB.     0.3282D+04                  5211.5198    33.5978    32.9002
         ROT.     0.6239D+06                   924.0510     2.9808    29.4975
         INT.     0.2048D+10                  6135.5708    36.5786    62.3977
         TRA.     0.1454D+28                  1540.0850     4.9680    40.6055
         TOT.                      -27.461    7675.6558    41.5466   103.0032

 320.00  VIB.     0.4312D+04                  5553.6915    34.8373    33.9865
         ROT.     0.6543D+06                   953.8591     2.9808    29.5921
         INT.     0.2821D+10                  6507.5506    37.8181    63.5786
         TRA.     0.1525D+28                  1589.7652     4.9680    40.7632
         TOT.                      -27.040    8097.3158    42.7862   104.3418

 330.00  VIB.     0.5665D+04                  5908.2764    36.0799    35.0775
         ROT.     0.6852D+06                   983.6672     2.9808    29.6838
         INT.     0.3882D+10                  6891.9436    39.0607    64.7613
         TRA.     0.1597D+28                  1639.4454     4.9680    40.9161
         TOT.                      -26.606    8531.3890    44.0287   105.6774

 340.00  VIB.     0.7444D+04                  6275.2887    37.3223    36.1730
         ROT.     0.7166D+06                  1013.4753     2.9808    29.7728
         INT.     0.5334D+10                  7288.7640    40.3031    65.9459
         TRA.     0.1670D+28                  1689.1255     4.9680    41.0644
         TOT.                      -26.159    8977.8896    45.2712   107.0103

 350.00  VIB.     0.9783D+04                  6654.7133    38.5619    37.2728
         ROT.     0.7484D+06                  1043.2834     2.9808    29.8592
         INT.     0.7322D+10                  7697.9967    41.5427    67.1320
         TRA.     0.1745D+28                  1738.8057     4.9680    41.2084
         TOT.                      -25.700    9436.8024    46.5107   108.3404

 360.00  VIB.     0.1286D+05                  7046.5080    39.7959    38.3764
         ROT.     0.7807D+06                  1073.0915     2.9808    29.9432
         INT.     0.1004D+11                  8119.5995    42.7767    68.3196
         TRA.     0.1820D+28                  1788.4859     4.9680    41.3484
         TOT.                      -25.229    9908.0853    47.7448   109.6680

 370.00  VIB.     0.1691D+05                  7450.6059    41.0222    39.4836
         ROT.     0.8135D+06                  1102.8996     2.9808    30.0249
         INT.     0.1376D+11                  8553.5055    44.0030    69.5084
         TRA.     0.1896D+28                  1838.1660     4.9680    41.4845
         TOT.                      -24.745   10391.6715    48.9710   110.9929

 380.00  VIB.     0.2224D+05                  7866.9183    42.2385    40.5937
         ROT.     0.8467D+06                  1132.7077     2.9808    30.1044
         INT.     0.1883D+11                  8999.6261    45.2193    70.6981
         TRA.     0.1974D+28                  1887.8462     4.9680    41.6170
         TOT.                      -24.250   10887.4722    50.1874   112.3151

 390.00  VIB.     0.2926D+05                  8295.3374    43.4432    41.7065
         ROT.     0.8803D+06                  1162.5158     2.9808    30.1818
         INT.     0.2576D+11                  9457.8532    46.4240    71.8883
         TRA.     0.2052D+28                  1937.5263     4.9680    41.7460
         TOT.                      -23.742   11395.3796    51.3920   113.6343

 400.00  VIB.     0.3851D+05                  8735.7382    44.6346    42.8214
         ROT.     0.9144D+06                  1192.3239     2.9808    30.2573
         INT.     0.3521D+11                  9928.0621    47.6154    73.0787
         TRA.     0.2131D+28                  1987.2065     4.9680    41.8718
         TOT.                      -23.222   11915.2686    52.5835   114.9505

   *: NOTE: HEATS OF FORMATION ARE RELATIVE TO THE
            ELEMENTS IN THEIR STANDARD STATE AT 298K
              (=  Standard Enthalpy of Formation).

            Hvib:  Zero-point energy is not included.
                   frequencies of less than zero cm-1 are not included.
            Hrot = (3/2)RT
            Htra = (3/2)RT + pV = (5/2)RT

            Heat capacity is Cp, not Cv

           For more information, see: HTTP://OpenMOPAC.net/Manual/thermochemistry.html


           FORCE CONSTANT IN CARTESIAN COORDINATES (Millidynes/A)

    ATOM   CHEMICAL       X               Y               Z
   NUMBER   SYMBOL  FORCE CONSTANT  FORCE CONSTANT  FORCE CONSTANT

      1       C        7.907910        7.755551        8.780615
      2       C        8.183181        7.942021        8.628339
      3       C        8.012438        8.255308        8.921931
      4       C        8.318723        8.476602        8.350464
      5       C        8.359851        8.440771        8.298911
      6       C        8.234339        8.309738        8.352099
      7       C       14.300152        4.637230        8.255996
      8       C       14.101584        4.174751        8.217921
      9       O        6.229308        6.036870        1.233663
     10       H        1.401426        1.296434        3.570025
     11       H        1.446088        0.988895        3.584249
     12       H        1.603023        1.160256        3.625834
     13       H        4.534562        1.136170        0.692581
     14       H        0.908969        1.530757        3.537802
     15       H        1.819809        1.273539        3.685431
     16       H        1.539579        1.367405        3.886272
     17       H        4.850576        1.216024        0.673545
     18       H        1.456602        1.247262        4.063487
     19       H        5.196879        0.868121        0.700662
     20       H        0.720299        5.306656        0.688244
     21       H        2.363992        0.487413        3.379478
     22       H        2.563996        0.446817        3.435445
     23       H        1.352613        1.343100        3.778577



 TOTAL CPU TIME:             3.11 SECONDS

 == MOPAC DONE ==
