 *******************************************************************************
 ** Site#: 14399           For non-commercial use only        Version 13.159M **
 *******************************************************************************
 ** Cite this work as: MOPAC2012, James J. P. Stewart, Stewart Computational  **
 ** Chemistry, Version 13.159M web: HTTP://OpenMOPAC.net  Days remaining:   6 **
 *******************************************************************************
 **                                                                           **
 **                                MOPAC2012                                  **
 **                                                                           **
 *******************************************************************************

                            PM3 CALCULATION RESULTS


 *******************************************************************************
 *  CALCULATION DONE:                                Mon Jun  2 11:12:15 2014  *
 *  PM3      - The PM3 Hamiltonian to be used
 *  PRECISE  - CRITERIA TO BE INCREASED BY 100 TIMES
 *  NOSYM    - POINT-GROUP SYMMETRY SET TO C1
 *  T=       - A TIME OF 172800.0 SECONDS REQUESTED
 *  DUMP=N   - RESTART FILE WRITTEN EVERY  7200.000 SECONDS
 *******************************************************************************
pm3  precise nosym
 InChI=1S/C11H16/c1-3-4-7-10(2)11-8-5-6-9-11/h4-11H,3H2,1-2H3

   ATOM   CHEMICAL          X               Y               Z
  NUMBER   SYMBOL      (ANGSTROMS)     (ANGSTROMS)     (ANGSTROMS)
 
     1       C         -0.68400000  *  -0.67220000  *   0.59680000  *
     2       C         -1.37180000  *  -0.49170000  *  -0.77310000  *
     3       C          3.00390000  *   0.55930000  *   0.89740000  *
     4       C         -0.99090000  *  -2.03150000  *   1.23400000  *
     5       C          3.39570000  *   0.98530000  *  -0.51350000  *
     6       C          0.81340000  *  -0.53920000  *   0.45400000  *
     7       C         -2.87150000  *  -0.47430000  *  -0.69560000  *
     8       C         -1.13640000  *   0.86690000  *  -1.36950000  *
     9       C          1.51750000  *   0.42400000  *   1.06570000  *
    10       C         -3.36620000  *   0.67040000  *  -1.13430000  *
    11       C         -2.27140000  *   1.51700000  *  -1.55880000  *
    12       H         -1.08090000  *   0.10480000  *   1.29520000  *
    13       H         -1.04480000  *  -1.27720000  *  -1.49420000  *
    14       H          3.50600000  *  -0.39990000  *   1.16210000  *
    15       H          3.37610000  *   1.33090000  *   1.61010000  *
    16       H          2.91470000  *   1.95380000  *  -0.78190000  *
    17       H          3.10280000  *   0.21620000  *  -1.26380000  *
    18       H          4.49980000  *   1.11720000  *  -0.57350000  *
    19       H         -2.07540000  *  -2.13800000  *   1.46100000  *
    20       H         -0.45650000  *  -2.14340000  *   2.20570000  *
    21       H         -0.68890000  *  -2.87310000  *   0.56860000  *
    22       H         -3.48960000  *  -1.29410000  *  -0.34450000  *
    23       H         -0.16280000  *   1.27420000  *  -1.62440000  *
    24       H          1.01320000  *   1.13620000  *   1.71810000  *
    25       H          1.32900000  *  -1.25320000  *  -0.18900000  *
    26       H         -4.42120000  *   0.91870000  *  -1.18380000  *
    27       H         -2.36010000  *   2.51320000  *  -1.97940000  *
 


          CARTESIAN COORDINATES 

    NO.       ATOM         X         Y         Z

     1         C       -0.6840   -0.6722    0.5968
     2         C       -1.3718   -0.4917   -0.7731
     3         C        3.0039    0.5593    0.8974
     4         C       -0.9909   -2.0315    1.2340
     5         C        3.3957    0.9853   -0.5135
     6         C        0.8134   -0.5392    0.4540
     7         C       -2.8715   -0.4743   -0.6956
     8         C       -1.1364    0.8669   -1.3695
     9         C        1.5175    0.4240    1.0657
    10         C       -3.3662    0.6704   -1.1343
    11         C       -2.2714    1.5170   -1.5588
    12         H       -1.0809    0.1048    1.2952
    13         H       -1.0448   -1.2772   -1.4942
    14         H        3.5060   -0.3999    1.1621
    15         H        3.3761    1.3309    1.6101
    16         H        2.9147    1.9538   -0.7819
    17         H        3.1028    0.2162   -1.2638
    18         H        4.4998    1.1172   -0.5735
    19         H       -2.0754   -2.1380    1.4610
    20         H       -0.4565   -2.1434    2.2057
    21         H       -0.6889   -2.8731    0.5686
    22         H       -3.4896   -1.2941   -0.3445
    23         H       -0.1628    1.2742   -1.6244
    24         H        1.0132    1.1362    1.7181
    25         H        1.3290   -1.2532   -0.1890
    26         H       -4.4212    0.9187   -1.1838
    27         H       -2.3601    2.5132   -1.9794

  H: (PM3): J. J. P. STEWART, J. COMP. CHEM. 10, 209 (1989).
  C: (PM3): J. J. P. STEWART, J. COMP. CHEM. 10, 209 (1989).

           Empirical Formula: C11 H16  =    27 atoms



      MOLECULAR POINT GROUP   :   C1  


      RHF CALCULATION, NO. OF DOUBLY OCCUPIED LEVELS =   30

      Geometry optimization using EF

          DIAGONAL MATRIX USED AS START HESSIAN

 CYCLE:     1 TIME:   0.018 TIME LEFT:  2.00D  GRAD.:   115.178 HEAT: 33.40725
 CYCLE:     2 TIME:   0.029 TIME LEFT:  2.00D  GRAD.:    71.173 HEAT: 31.52277
 CYCLE:     3 TIME:   0.010 TIME LEFT:  2.00D  GRAD.:    33.018 HEAT: 30.06564
 CYCLE:     4 TIME:   0.020 TIME LEFT:  2.00D  GRAD.:    47.273 HEAT: 29.83553
 CYCLE:     5 TIME:   0.012 TIME LEFT:  2.00D  GRAD.:    36.594 HEAT: 29.50673
 CYCLE:     6 TIME:   0.023 TIME LEFT:  2.00D  GRAD.:    25.499 HEAT: 29.21002
 CYCLE:     7 TIME:   0.020 TIME LEFT:  2.00D  GRAD.:    24.973 HEAT: 29.08964
 CYCLE:     8 TIME:   0.011 TIME LEFT:  2.00D  GRAD.:    28.861 HEAT: 29.01694
 CYCLE:     9 TIME:   0.013 TIME LEFT:  2.00D  GRAD.:    13.756 HEAT: 28.79003
 CYCLE:    10 TIME:   0.019 TIME LEFT:  2.00D  GRAD.:    17.902 HEAT: 28.73707
 CYCLE:    11 TIME:   0.013 TIME LEFT:  2.00D  GRAD.:    19.799 HEAT: 28.69164
 CYCLE:    12 TIME:   0.010 TIME LEFT:  2.00D  GRAD.:    15.282 HEAT: 28.62430
 CYCLE:    13 TIME:   0.020 TIME LEFT:  2.00D  GRAD.:    10.339 HEAT: 28.58485
 CYCLE:    14 TIME:   0.010 TIME LEFT:  2.00D  GRAD.:    12.960 HEAT: 28.58258
 CYCLE:    15 TIME:   0.010 TIME LEFT:  2.00D  GRAD.:     8.103 HEAT: 28.55273
 CYCLE:    16 TIME:   0.019 TIME LEFT:  2.00D  GRAD.:     9.317 HEAT: 28.54860
 CYCLE:    17 TIME:   0.011 TIME LEFT:  2.00D  GRAD.:     6.979 HEAT: 28.53607
 CYCLE:    18 TIME:   0.010 TIME LEFT:  2.00D  GRAD.:     8.214 HEAT: 28.53093
 CYCLE:    19 TIME:   0.010 TIME LEFT:  2.00D  GRAD.:     2.644 HEAT: 28.51281
 CYCLE:    20 TIME:   0.011 TIME LEFT:  2.00D  GRAD.:     5.332 HEAT: 28.51150
 CYCLE:    21 TIME:   0.011 TIME LEFT:  2.00D  GRAD.:     3.816 HEAT: 28.49949
 CYCLE:    22 TIME:   0.011 TIME LEFT:  2.00D  GRAD.:     5.769 HEAT: 28.49602
 CYCLE:    23 TIME:   0.013 TIME LEFT:  2.00D  GRAD.:     2.682 HEAT: 28.48527
 CYCLE:    24 TIME:   0.010 TIME LEFT:  2.00D  GRAD.:     4.564 HEAT: 28.48538
 CYCLE:    25 TIME:   0.011 TIME LEFT:  2.00D  GRAD.:     1.992 HEAT: 28.47725
 CYCLE:    26 TIME:   0.010 TIME LEFT:  2.00D  GRAD.:     3.349 HEAT: 28.47524
 CYCLE:    27 TIME:   0.013 TIME LEFT:  2.00D  GRAD.:     2.539 HEAT: 28.46860
 CYCLE:    28 TIME:   0.010 TIME LEFT:  2.00D  GRAD.:     3.692 HEAT: 28.46181
 CYCLE:    29 TIME:   0.010 TIME LEFT:  2.00D  GRAD.:     2.671 HEAT: 28.45433
 CYCLE:    30 TIME:   0.010 TIME LEFT:  2.00D  GRAD.:     3.769 HEAT: 28.45174
 CYCLE:    31 TIME:   0.010 TIME LEFT:  2.00D  GRAD.:     2.293 HEAT: 28.44649
 CYCLE:    32 TIME:   0.010 TIME LEFT:  2.00D  GRAD.:     1.995 HEAT: 28.44391
 CYCLE:    33 TIME:   0.010 TIME LEFT:  2.00D  GRAD.:     1.463 HEAT: 28.44074
 CYCLE:    34 TIME:   0.012 TIME LEFT:  2.00D  GRAD.:     2.710 HEAT: 28.43754
 CYCLE:    35 TIME:   0.010 TIME LEFT:  2.00D  GRAD.:     2.360 HEAT: 28.43564
 CYCLE:    36 TIME:   0.010 TIME LEFT:  2.00D  GRAD.:     1.571 HEAT: 28.43299
 CYCLE:    37 TIME:   0.012 TIME LEFT:  2.00D  GRAD.:     1.334 HEAT: 28.43070
 CYCLE:    38 TIME:   0.012 TIME LEFT:  2.00D  GRAD.:     1.608 HEAT: 28.42770
 CYCLE:    39 TIME:   0.014 TIME LEFT:  2.00D  GRAD.:     1.354 HEAT: 28.42566
 CYCLE:    40 TIME:   0.011 TIME LEFT:  2.00D  GRAD.:     0.945 HEAT: 28.42427
 CYCLE:    41 TIME:   0.011 TIME LEFT:  2.00D  GRAD.:     1.279 HEAT: 28.42267
 CYCLE:    42 TIME:   0.011 TIME LEFT:  2.00D  GRAD.:     1.212 HEAT: 28.42020
 CYCLE:    43 TIME:   0.010 TIME LEFT:  2.00D  GRAD.:     0.979 HEAT: 28.41787
 CYCLE:    44 TIME:   0.010 TIME LEFT:  2.00D  GRAD.:     1.140 HEAT: 28.41510
 CYCLE:    45 TIME:   0.013 TIME LEFT:  2.00D  GRAD.:     1.477 HEAT: 28.41176
 CYCLE:    46 TIME:   0.011 TIME LEFT:  2.00D  GRAD.:     1.756 HEAT: 28.40685
 CYCLE:    47 TIME:   0.013 TIME LEFT:  2.00D  GRAD.:     1.876 HEAT: 28.39984
 CYCLE:    48 TIME:   0.011 TIME LEFT:  2.00D  GRAD.:     2.191 HEAT: 28.39037
 CYCLE:    49 TIME:   0.012 TIME LEFT:  2.00D  GRAD.:     2.266 HEAT: 28.37942
 CYCLE:    50 TIME:   0.010 TIME LEFT:  2.00D  GRAD.:     2.478 HEAT: 28.36509
 CYCLE:    51 TIME:   0.010 TIME LEFT:  2.00D  GRAD.:     2.522 HEAT: 28.34901
 CYCLE:    52 TIME:   0.010 TIME LEFT:  2.00D  GRAD.:     2.346 HEAT: 28.33273
 CYCLE:    53 TIME:   0.020 TIME LEFT:  2.00D  GRAD.:     2.795 HEAT: 28.32049
 CYCLE:    54 TIME:   0.020 TIME LEFT:  2.00D  GRAD.:     4.116 HEAT: 28.31321
 CYCLE:    55 TIME:   0.010 TIME LEFT:  2.00D  GRAD.:     2.063 HEAT: 28.29885
 CYCLE:    56 TIME:   0.011 TIME LEFT:  2.00D  GRAD.:     1.986 HEAT: 28.28665
 CYCLE:    57 TIME:   0.011 TIME LEFT:  2.00D  GRAD.:     2.591 HEAT: 28.26791
 CYCLE:    58 TIME:   0.011 TIME LEFT:  2.00D  GRAD.:     2.944 HEAT: 28.24559
 CYCLE:    59 TIME:   0.014 TIME LEFT:  2.00D  GRAD.:     3.177 HEAT: 28.20346
 CYCLE:    60 TIME:   0.013 TIME LEFT:  2.00D  GRAD.:     5.286 HEAT: 28.18256
 CYCLE:    61 TIME:   0.023 TIME LEFT:  2.00D  GRAD.:     4.806 HEAT: 28.17789
 CYCLE:    62 TIME:   0.011 TIME LEFT:  2.00D  GRAD.:     3.062 HEAT: 28.14803
 CYCLE:    63 TIME:   0.010 TIME LEFT:  2.00D  GRAD.:     2.946 HEAT: 28.13575
 CYCLE:    64 TIME:   0.010 TIME LEFT:  2.00D  GRAD.:     3.683 HEAT: 28.11564
 CYCLE:    65 TIME:   0.010 TIME LEFT:  2.00D  GRAD.:     2.419 HEAT: 28.10155
 CYCLE:    66 TIME:   0.011 TIME LEFT:  2.00D  GRAD.:     2.918 HEAT: 28.08531
 CYCLE:    67 TIME:   0.012 TIME LEFT:  2.00D  GRAD.:     2.656 HEAT: 28.06253
 CYCLE:    68 TIME:   0.011 TIME LEFT:  2.00D  GRAD.:     2.455 HEAT: 28.04771
 CYCLE:    69 TIME:   0.011 TIME LEFT:  2.00D  GRAD.:     3.374 HEAT: 28.03383
 CYCLE:    70 TIME:   0.012 TIME LEFT:  2.00D  GRAD.:     4.552 HEAT: 28.02142
 CYCLE:    71 TIME:   0.011 TIME LEFT:  2.00D  GRAD.:     2.496 HEAT: 28.00988
 CYCLE:    72 TIME:   0.010 TIME LEFT:  2.00D  GRAD.:     2.104 HEAT: 28.00301
 CYCLE:    73 TIME:   0.013 TIME LEFT:  2.00D  GRAD.:     1.617 HEAT: 27.99605
 CYCLE:    74 TIME:   0.013 TIME LEFT:  2.00D  GRAD.:     1.499 HEAT: 27.99053
 CYCLE:    75 TIME:   0.012 TIME LEFT:  2.00D  GRAD.:     1.587 HEAT: 27.98437
 CYCLE:    76 TIME:   0.013 TIME LEFT:  2.00D  GRAD.:     1.820 HEAT: 27.97760
 CYCLE:    77 TIME:   0.011 TIME LEFT:  2.00D  GRAD.:     1.666 HEAT: 27.97017
 CYCLE:    78 TIME:   0.012 TIME LEFT:  2.00D  GRAD.:     2.625 HEAT: 27.96139
 CYCLE:    79 TIME:   0.010 TIME LEFT:  2.00D  GRAD.:     2.411 HEAT: 27.95064
 CYCLE:    80 TIME:   0.010 TIME LEFT:  2.00D  GRAD.:     2.444 HEAT: 27.93437
 CYCLE:    81 TIME:   0.010 TIME LEFT:  2.00D  GRAD.:     2.291 HEAT: 27.92078
 CYCLE:    82 TIME:   0.013 TIME LEFT:  2.00D  GRAD.:     2.710 HEAT: 27.90319
 CYCLE:    83 TIME:   0.013 TIME LEFT:  2.00D  GRAD.:     2.971 HEAT: 27.88545
 CYCLE:    84 TIME:   0.011 TIME LEFT:  2.00D  GRAD.:     3.611 HEAT: 27.86619
 CYCLE:    85 TIME:   0.010 TIME LEFT:  2.00D  GRAD.:     2.720 HEAT: 27.84677
 CYCLE:    86 TIME:   0.010 TIME LEFT:  2.00D  GRAD.:     2.403 HEAT: 27.82724
 CYCLE:    87 TIME:   0.010 TIME LEFT:  2.00D  GRAD.:     2.044 HEAT: 27.81569
 CYCLE:    88 TIME:   0.011 TIME LEFT:  2.00D  GRAD.:     1.651 HEAT: 27.80619
 CYCLE:    89 TIME:   0.012 TIME LEFT:  2.00D  GRAD.:     1.629 HEAT: 27.80004
 CYCLE:    90 TIME:   0.010 TIME LEFT:  2.00D  GRAD.:     1.360 HEAT: 27.79573
 CYCLE:    91 TIME:   0.011 TIME LEFT:  2.00D  GRAD.:     1.202 HEAT: 27.79265
 CYCLE:    92 TIME:   0.011 TIME LEFT:  2.00D  GRAD.:     0.948 HEAT: 27.78979
 CYCLE:    93 TIME:   0.011 TIME LEFT:  2.00D  GRAD.:     0.791 HEAT: 27.78793
 CYCLE:    94 TIME:   0.011 TIME LEFT:  2.00D  GRAD.:     0.833 HEAT: 27.78633
 CYCLE:    95 TIME:   0.011 TIME LEFT:  2.00D  GRAD.:     0.917 HEAT: 27.78476
 CYCLE:    96 TIME:   0.011 TIME LEFT:  2.00D  GRAD.:     0.958 HEAT: 27.78282
 CYCLE:    97 TIME:   0.014 TIME LEFT:  2.00D  GRAD.:     1.001 HEAT: 27.78059
 CYCLE:    98 TIME:   0.010 TIME LEFT:  2.00D  GRAD.:     1.038 HEAT: 27.77812
 CYCLE:    99 TIME:   0.011 TIME LEFT:  2.00D  GRAD.:     1.272 HEAT: 27.77512
 CYCLE:   100 TIME:   0.012 TIME LEFT:  2.00D  GRAD.:     1.502 HEAT: 27.77111
 CYCLE:   101 TIME:   0.011 TIME LEFT:  2.00D  GRAD.:     1.532 HEAT: 27.76509
 CYCLE:   102 TIME:   0.010 TIME LEFT:  2.00D  GRAD.:     1.353 HEAT: 27.75860
 CYCLE:   103 TIME:   0.012 TIME LEFT:  2.00D  GRAD.:     1.421 HEAT: 27.75351
 CYCLE:   104 TIME:   0.011 TIME LEFT:  2.00D  GRAD.:     1.338 HEAT: 27.74998
 CYCLE:   105 TIME:   0.011 TIME LEFT:  2.00D  GRAD.:     1.645 HEAT: 27.74471
 CYCLE:   106 TIME:   0.012 TIME LEFT:  2.00D  GRAD.:     1.644 HEAT: 27.73951
 CYCLE:   107 TIME:   0.011 TIME LEFT:  2.00D  GRAD.:     1.637 HEAT: 27.73438
 CYCLE:   108 TIME:   0.012 TIME LEFT:  2.00D  GRAD.:     1.690 HEAT: 27.73051
 CYCLE:   109 TIME:   0.011 TIME LEFT:  2.00D  GRAD.:     1.852 HEAT: 27.72620
 CYCLE:   110 TIME:   0.012 TIME LEFT:  2.00D  GRAD.:     2.045 HEAT: 27.72117
 CYCLE:   111 TIME:   0.011 TIME LEFT:  2.00D  GRAD.:     2.262 HEAT: 27.71210
 CYCLE:   112 TIME:   0.012 TIME LEFT:  2.00D  GRAD.:     1.791 HEAT: 27.70665
 CYCLE:   113 TIME:   0.011 TIME LEFT:  2.00D  GRAD.:     2.170 HEAT: 27.69963
 CYCLE:   114 TIME:   0.010 TIME LEFT:  2.00D  GRAD.:     1.611 HEAT: 27.69692
 CYCLE:   115 TIME:   0.011 TIME LEFT:  2.00D  GRAD.:     1.223 HEAT: 27.69347
 CYCLE:   116 TIME:   0.010 TIME LEFT:  2.00D  GRAD.:     2.533 HEAT: 27.69005
 CYCLE:   117 TIME:   0.010 TIME LEFT:  2.00D  GRAD.:     1.636 HEAT: 27.68738
 CYCLE:   118 TIME:   0.012 TIME LEFT:  2.00D  GRAD.:     0.976 HEAT: 27.68523
 CYCLE:   119 TIME:   0.011 TIME LEFT:  2.00D  GRAD.:     1.099 HEAT: 27.67975
 CYCLE:   120 TIME:   0.011 TIME LEFT:  2.00D  GRAD.:     1.609 HEAT: 27.67292
 CYCLE:   121 TIME:   0.012 TIME LEFT:  2.00D  GRAD.:     1.278 HEAT: 27.66930
 CYCLE:   122 TIME:   0.011 TIME LEFT:  2.00D  GRAD.:     2.405 HEAT: 27.66450
 CYCLE:   123 TIME:   0.010 TIME LEFT:  2.00D  GRAD.:     1.690 HEAT: 27.65969
 CYCLE:   124 TIME:   0.013 TIME LEFT:  2.00D  GRAD.:     1.342 HEAT: 27.65551
 CYCLE:   125 TIME:   0.011 TIME LEFT:  2.00D  GRAD.:     1.956 HEAT: 27.65175
 CYCLE:   126 TIME:   0.010 TIME LEFT:  2.00D  GRAD.:     1.323 HEAT: 27.64857
 CYCLE:   127 TIME:   0.012 TIME LEFT:  2.00D  GRAD.:     1.429 HEAT: 27.64581
 CYCLE:   128 TIME:   0.012 TIME LEFT:  2.00D  GRAD.:     1.119 HEAT: 27.64207
 CYCLE:   129 TIME:   0.011 TIME LEFT:  2.00D  GRAD.:     1.239 HEAT: 27.63950
 CYCLE:   130 TIME:   0.011 TIME LEFT:  2.00D  GRAD.:     1.143 HEAT: 27.63756
 CYCLE:   131 TIME:   0.011 TIME LEFT:  2.00D  GRAD.:     1.190 HEAT: 27.63658
 CYCLE:   132 TIME:   0.011 TIME LEFT:  2.00D  GRAD.:     0.600 HEAT: 27.63529
 CYCLE:   133 TIME:   0.011 TIME LEFT:  2.00D  GRAD.:     0.723 HEAT: 27.63439
 CYCLE:   134 TIME:   0.011 TIME LEFT:  2.00D  GRAD.:     0.744 HEAT: 27.63332
 CYCLE:   135 TIME:   0.011 TIME LEFT:  2.00D  GRAD.:     0.771 HEAT: 27.63232
 CYCLE:   136 TIME:   0.012 TIME LEFT:  2.00D  GRAD.:     0.798 HEAT: 27.63109
 CYCLE:   137 TIME:   0.011 TIME LEFT:  2.00D  GRAD.:     0.809 HEAT: 27.62937
 CYCLE:   138 TIME:   0.011 TIME LEFT:  2.00D  GRAD.:     1.093 HEAT: 27.62717
 CYCLE:   139 TIME:   0.011 TIME LEFT:  2.00D  GRAD.:     1.211 HEAT: 27.62462
 CYCLE:   140 TIME:   0.014 TIME LEFT:  2.00D  GRAD.:     3.584 HEAT: 27.62973
 CYCLE:   141 TIME:   0.010 TIME LEFT:  2.00D  GRAD.:     1.799 HEAT: 27.62036
 CYCLE:   142 TIME:   0.013 TIME LEFT:  2.00D  GRAD.:     1.182 HEAT: 27.61813
 CYCLE:   143 TIME:   0.011 TIME LEFT:  2.00D  GRAD.:     0.935 HEAT: 27.61565
 CYCLE:   144 TIME:   0.011 TIME LEFT:  2.00D  GRAD.:     1.077 HEAT: 27.61375
 CYCLE:   145 TIME:   0.011 TIME LEFT:  2.00D  GRAD.:     0.877 HEAT: 27.61173
 CYCLE:   146 TIME:   0.010 TIME LEFT:  2.00D  GRAD.:     0.618 HEAT: 27.61095
 CYCLE:   147 TIME:   0.011 TIME LEFT:  2.00D  GRAD.:     0.608 HEAT: 27.61025
 CYCLE:   148 TIME:   0.011 TIME LEFT:  2.00D  GRAD.:     0.444 HEAT: 27.60987
 CYCLE:   149 TIME:   0.011 TIME LEFT:  2.00D  GRAD.:     0.405 HEAT: 27.60949
 CYCLE:   150 TIME:   0.011 TIME LEFT:  2.00D  GRAD.:     0.397 HEAT: 27.60919
 CYCLE:   151 TIME:   0.011 TIME LEFT:  2.00D  GRAD.:     0.395 HEAT: 27.60890
 CYCLE:   152 TIME:   0.010 TIME LEFT:  2.00D  GRAD.:     0.487 HEAT: 27.60848
 CYCLE:   153 TIME:   0.010 TIME LEFT:  2.00D  GRAD.:     0.488 HEAT: 27.60800
 CYCLE:   154 TIME:   0.011 TIME LEFT:  2.00D  GRAD.:     0.598 HEAT: 27.60731
 CYCLE:   155 TIME:   0.010 TIME LEFT:  2.00D  GRAD.:     0.680 HEAT: 27.60658
 CYCLE:   156 TIME:   0.010 TIME LEFT:  2.00D  GRAD.:     0.882 HEAT: 27.60555
 CYCLE:   157 TIME:   0.011 TIME LEFT:  2.00D  GRAD.:     0.984 HEAT: 27.60423
 CYCLE:   158 TIME:   0.011 TIME LEFT:  2.00D  GRAD.:     0.843 HEAT: 27.60272
 CYCLE:   159 TIME:   0.012 TIME LEFT:  2.00D  GRAD.:     0.833 HEAT: 27.60107
 CYCLE:   160 TIME:   0.012 TIME LEFT:  2.00D  GRAD.:     0.753 HEAT: 27.60000
 CYCLE:   161 TIME:   0.011 TIME LEFT:  2.00D  GRAD.:     0.793 HEAT: 27.59848
 CYCLE:   162 TIME:   0.011 TIME LEFT:  2.00D  GRAD.:     0.653 HEAT: 27.59747
 CYCLE:   163 TIME:   0.012 TIME LEFT:  2.00D  GRAD.:     0.563 HEAT: 27.59650
 CYCLE:   164 TIME:   0.011 TIME LEFT:  2.00D  GRAD.:     0.553 HEAT: 27.59581
 CYCLE:   165 TIME:   0.011 TIME LEFT:  2.00D  GRAD.:     0.539 HEAT: 27.59516
 CYCLE:   166 TIME:   0.010 TIME LEFT:  2.00D  GRAD.:     0.393 HEAT: 27.59475
 CYCLE:   167 TIME:   0.011 TIME LEFT:  2.00D  GRAD.:     0.433 HEAT: 27.59445
 CYCLE:   168 TIME:   0.010 TIME LEFT:  2.00D  GRAD.:     0.380 HEAT: 27.59422
 CYCLE:   169 TIME:   0.010 TIME LEFT:  2.00D  GRAD.:     0.558 HEAT: 27.59379
 CYCLE:   170 TIME:   0.010 TIME LEFT:  2.00D  GRAD.:     0.625 HEAT: 27.59314
 CYCLE:   171 TIME:   0.011 TIME LEFT:  2.00D  GRAD.:     0.661 HEAT: 27.59223
 CYCLE:   172 TIME:   0.011 TIME LEFT:  2.00D  GRAD.:     0.931 HEAT: 27.59115
 CYCLE:   173 TIME:   0.011 TIME LEFT:  2.00D  GRAD.:     0.618 HEAT: 27.59047
 CYCLE:   174 TIME:   0.011 TIME LEFT:  2.00D  GRAD.:     0.543 HEAT: 27.58962
 CYCLE:   175 TIME:   0.011 TIME LEFT:  2.00D  GRAD.:     0.679 HEAT: 27.58835
 CYCLE:   176 TIME:   0.011 TIME LEFT:  2.00D  GRAD.:     0.750 HEAT: 27.58706
 CYCLE:   177 TIME:   0.011 TIME LEFT:  2.00D  GRAD.:     0.813 HEAT: 27.58585
 CYCLE:   178 TIME:   0.010 TIME LEFT:  2.00D  GRAD.:     0.523 HEAT: 27.58508
 CYCLE:   179 TIME:   0.010 TIME LEFT:  2.00D  GRAD.:     0.272 HEAT: 27.58465
 CYCLE:   180 TIME:   0.010 TIME LEFT:  2.00D  GRAD.:     0.169 HEAT: 27.58457
 CYCLE:   181 TIME:   0.010 TIME LEFT:  2.00D  GRAD.:     0.105 HEAT: 27.58453
 CYCLE:   182 TIME:   0.012 TIME LEFT:  2.00D  GRAD.:     0.072 HEAT: 27.58451
 CYCLE:   183 TIME:   0.010 TIME LEFT:  2.00D  GRAD.:     0.051 HEAT: 27.58450
 CYCLE:   184 TIME:   0.010 TIME LEFT:  2.00D  GRAD.:     0.041 HEAT: 27.58450

     RMS GRADIENT =  0.04124  IS LESS THAN CUTOFF =  0.05000



 -------------------------------------------------------------------------------
pm3  precise nosym
 InChI=1S/C11H16/c1-3-4-7-10(2)11-8-5-6-9-11/h4-11H,3H2,1-2H3



     GEOMETRY OPTIMISED USING EIGENVECTOR FOLLOWING (EF).     
     SCF FIELD WAS ACHIEVED                                   


                              PM3 CALCULATION
                                                       MOPAC2012 (Version: 13.159M)
                                                       Mon Jun  2 11:12:17 2014
                                                       No. of days left =   6




          FINAL HEAT OF FORMATION =         27.58450 KCAL/MOL =     115.41354 KJ/MOL


          TOTAL ENERGY            =      -1549.17126 EV
          ELECTRONIC ENERGY       =      -8986.21747 EV  POINT GROUP:     C1  
          CORE-CORE REPULSION     =       7437.04622 EV
          COSMO AREA              =        212.16 SQUARE ANGSTROMS
          COSMO VOLUME            =        220.54 CUBIC ANGSTROMS

          GRADIENT NORM           =          0.04124
          IONIZATION POTENTIAL    =          9.208496 EV
          HOMO LUMO ENERGIES (EV) =         -9.208  0.323
          NO. OF FILLED LEVELS    =         30
          MOLECULAR WEIGHT        =        148.247

          MOLECULAR DIMENSIONS (Angstroms)

            Atom       Atom       Distance
            H    18    H    26     9.15554
            H    27    H    20     6.20210
            H    13    H    16     3.65783


          SCF CALCULATIONS        =        196
          COMPUTATION TIME        =          2.159 SECONDS




   ATOM   CHEMICAL          X               Y               Z
  NUMBER   SYMBOL      (ANGSTROMS)     (ANGSTROMS)     (ANGSTROMS)
 
     1       C         -0.70244767  *  -0.61417423  *   0.61416781  *
     2       C         -1.49106425  *  -0.59863387  *  -0.70052043  *
     3       C          3.07307464  *   0.25281623  *   0.53895609  *
     4       C         -1.05158849  *  -1.83908940  *   1.44895117  *
     5       C          3.56387946  *   1.58816134  *   0.02186510  *
     6       C          0.76751468  *  -0.63292444  *   0.32480082  *
     7       C         -2.97987249  *  -0.42596895  *  -0.50211988  *
     8       C         -1.14760842  *   0.58556589  *  -1.57536971  *
     9       C          1.60888813  *   0.28406255  *   0.80307547  *
    10       C         -3.40797330  *   0.65827750  *  -1.18396343  *
    11       C         -2.26634460  *   1.28910701  *  -1.85218594  *
    12       H         -0.96840610  *   0.30460164  *   1.19273097  *
    13       H         -1.30351447  *  -1.54087543  *  -1.26977920  *
    14       H          3.33460734  *  -0.55107333  *  -0.17809881  *
    15       H          3.59269423  *  -0.00725279  *   1.48311991  *
    16       H          3.35468085  *   2.40029071  *   0.73074131  *
    17       H          3.08291531  *   1.85358749  *  -0.92854197  *
    18       H          4.64753723  *   1.57288745  *  -0.15049801  *
    19       H         -2.11702024  *  -1.85420206  *   1.71432611  *
    20       H         -0.47771773  *  -1.85341764  *   2.38432036  *
    21       H         -0.83180019  *  -2.77242186  *   0.91324598  *
    22       H         -3.57164502  *  -1.10884253  *   0.10446798  *
    23       H         -0.12748287  *   0.78869147  *  -1.89585522  *
    24       H          1.25154123  *   1.11593831  *   1.42408595  *
    25       H          1.12076246  *  -1.46194190  *  -0.30226425  *
    26       H         -4.42548411  *   1.03752763  *  -1.25397973  *
    27       H         -2.35226258  *   2.18381903  *  -2.46539114  *

           Empirical Formula: C11 H16  =    27 atoms



      MOLECULAR POINT GROUP   :   C1  


                  EIGENVALUES  
 -41.20888 -37.14539 -34.07164 -28.80196 -27.15216 -26.22579 -23.23695 -20.78297
 -19.92317 -18.81595 -18.42741 -17.93571 -16.42984 -15.84455 -15.00662 -14.71347
 -14.42031 -13.94345 -13.72972 -13.36592 -13.27016 -13.11338 -12.63113 -12.37042
 -12.20949 -11.96886 -11.74692 -10.98176  -9.88909  -9.20850   0.32282   1.05752
   2.04845   3.15564   3.35034   3.41002   3.60851   3.65650   3.74157   3.86278
   3.87317   3.96934   4.03515   4.12908   4.17577   4.21021   4.32418   4.43076
   4.54602   4.63153   4.71171   4.75843   4.83635   4.88226   4.94464   5.63907
   5.77638   5.84784   5.95693   6.18792


              NET ATOMIC CHARGES AND DIPOLE CONTRIBUTIONS

  ATOM NO.   TYPE          CHARGE      No. of ELECS.   s-Pop       p-Pop       
    1          C          -0.014533        4.0145     1.16084     2.85369
    2          C          -0.032893        4.0329     1.16831     2.86458
    3          C          -0.063121        4.0631     1.14605     2.91708
    4          C          -0.113039        4.1130     1.14221     2.97083
    5          C          -0.105786        4.1058     1.13760     2.96819
    6          C          -0.155661        4.1557     1.19958     2.95608
    7          C          -0.162247        4.1622     1.20978     2.95247
    8          C          -0.153608        4.1536     1.21033     2.94328
    9          C          -0.142621        4.1426     1.19770     2.94493
   10          C          -0.117081        4.1171     1.19242     2.92466
   11          C          -0.123739        4.1237     1.19237     2.93137
   12          H           0.072892        0.9271     0.92711
   13          H           0.091953        0.9080     0.90805
   14          H           0.051169        0.9488     0.94883
   15          H           0.053590        0.9464     0.94641
   16          H           0.038623        0.9614     0.96138
   17          H           0.039623        0.9604     0.96038
   18          H           0.037211        0.9628     0.96279
   19          H           0.042548        0.9575     0.95745
   20          H           0.043493        0.9565     0.95651
   21          H           0.039985        0.9600     0.96001
   22          H           0.118283        0.8817     0.88172
   23          H           0.120947        0.8791     0.87905
   24          H           0.103478        0.8965     0.89652
   25          H           0.103467        0.8965     0.89653
   26          H           0.113221        0.8868     0.88678
   27          H           0.113846        0.8862     0.88615
 DIPOLE           X         Y         Z       TOTAL
 POINT-CHG.     0.429    -0.221     0.270     0.553
 HYBRID        -0.020    -0.055    -0.058     0.082
 SUM            0.410    -0.276     0.211     0.537


          ATOMIC ORBITAL ELECTRON POPULATIONS

    Atom      s        px        py        pz   
    1  C   1.16084   0.92089   0.98936   0.94344
    2  C   1.16831   0.93210   0.97945   0.95303
    3  C   1.14605   0.93770   0.97405   1.00533
    4  C   1.14221   1.00828   0.96965   0.99289
    5  C   1.13760   0.99942   0.96396   1.00481
    6  C   1.19958   0.95510   0.99291   1.00808
    7  C   1.20978   0.96323   0.98509   1.00415
    8  C   1.21033   0.98177   0.96629   0.99522
    9  C   1.19770   0.95808   0.98804   0.99881
   10  C   1.19242   0.97346   0.96581   0.98539
   11  C   1.19237   0.94233   0.98776   1.00128
   12  H   0.92711
   13  H   0.90805
   14  H   0.94883
   15  H   0.94641
   16  H   0.96138
   17  H   0.96038
   18  H   0.96279
   19  H   0.95745
   20  H   0.95651
   21  H   0.96001
   22  H   0.88172
   23  H   0.87905
   24  H   0.89652
   25  H   0.89653
   26  H   0.88678
   27  H   0.88615
 *******************************************************************************
 ** Site#: 14399           For non-commercial use only        Version 13.159M **
 *******************************************************************************
 ** Cite this work as: MOPAC2012, James J. P. Stewart, Stewart Computational  **
 ** Chemistry, Version 13.159M web: HTTP://OpenMOPAC.net  Days remaining:   6 **
 *******************************************************************************
 **                                                                           **
 **                                MOPAC2012                                  **
 **                                                                           **
 *******************************************************************************

                            PM3 CALCULATION RESULTS


 *******************************************************************************
 *  CALCULATION DONE:                                Mon Jun  2 11:12:17 2014  *
 *  PM3      - The PM3 Hamiltonian to be used
 *  OLDGEO   - PREVIOUS GEOMETRY TO BE USED
 *  PRECISE  - CRITERIA TO BE INCREASED BY 100 TIMES
 *  NOSYM    - POINT-GROUP SYMMETRY SET TO C1
 *  T=       - A TIME OF 172800.0 SECONDS REQUESTED
 *  DUMP=N   - RESTART FILE WRITTEN EVERY  7200.000 SECONDS
 *  THERMO   - THERMODYNAMIC QUANTITIES TO BE CALCULATED
 *******************************************************************************
oldgeo thermo nosym precise  pm3

   ATOM   CHEMICAL          X               Y               Z
  NUMBER   SYMBOL      (ANGSTROMS)     (ANGSTROMS)     (ANGSTROMS)
 
     1       C         -0.70244767  *  -0.61417423  *   0.61416781  *
     2       C         -1.49106425  *  -0.59863387  *  -0.70052043  *
     3       C          3.07307464  *   0.25281623  *   0.53895609  *
     4       C         -1.05158849  *  -1.83908940  *   1.44895117  *
     5       C          3.56387946  *   1.58816134  *   0.02186510  *
     6       C          0.76751468  *  -0.63292444  *   0.32480082  *
     7       C         -2.97987249  *  -0.42596895  *  -0.50211988  *
     8       C         -1.14760842  *   0.58556589  *  -1.57536971  *
     9       C          1.60888813  *   0.28406255  *   0.80307547  *
    10       C         -3.40797330  *   0.65827750  *  -1.18396343  *
    11       C         -2.26634460  *   1.28910701  *  -1.85218594  *
    12       H         -0.96840610  *   0.30460164  *   1.19273097  *
    13       H         -1.30351447  *  -1.54087543  *  -1.26977920  *
    14       H          3.33460734  *  -0.55107333  *  -0.17809881  *
    15       H          3.59269423  *  -0.00725279  *   1.48311991  *
    16       H          3.35468085  *   2.40029071  *   0.73074131  *
    17       H          3.08291531  *   1.85358749  *  -0.92854197  *
    18       H          4.64753723  *   1.57288745  *  -0.15049801  *
    19       H         -2.11702024  *  -1.85420206  *   1.71432611  *
    20       H         -0.47771773  *  -1.85341764  *   2.38432036  *
    21       H         -0.83180019  *  -2.77242186  *   0.91324598  *
    22       H         -3.57164502  *  -1.10884253  *   0.10446798  *
    23       H         -0.12748287  *   0.78869147  *  -1.89585522  *
    24       H          1.25154123  *   1.11593831  *   1.42408595  *
    25       H          1.12076246  *  -1.46194190  *  -0.30226425  *
    26       H         -4.42548411  *   1.03752763  *  -1.25397973  *
    27       H         -2.35226258  *   2.18381903  *  -2.46539114  *
 


          CARTESIAN COORDINATES 

    NO.       ATOM         X         Y         Z

     1         C       -0.7024   -0.6142    0.6142
     2         C       -1.4911   -0.5986   -0.7005
     3         C        3.0731    0.2528    0.5390
     4         C       -1.0516   -1.8391    1.4490
     5         C        3.5639    1.5882    0.0219
     6         C        0.7675   -0.6329    0.3248
     7         C       -2.9799   -0.4260   -0.5021
     8         C       -1.1476    0.5856   -1.5754
     9         C        1.6089    0.2841    0.8031
    10         C       -3.4080    0.6583   -1.1840
    11         C       -2.2663    1.2891   -1.8522
    12         H       -0.9684    0.3046    1.1927
    13         H       -1.3035   -1.5409   -1.2698
    14         H        3.3346   -0.5511   -0.1781
    15         H        3.5927   -0.0073    1.4831
    16         H        3.3547    2.4003    0.7307
    17         H        3.0829    1.8536   -0.9285
    18         H        4.6475    1.5729   -0.1505
    19         H       -2.1170   -1.8542    1.7143
    20         H       -0.4777   -1.8534    2.3843
    21         H       -0.8318   -2.7724    0.9132
    22         H       -3.5716   -1.1088    0.1045
    23         H       -0.1275    0.7887   -1.8959
    24         H        1.2515    1.1159    1.4241
    25         H        1.1208   -1.4619   -0.3023
    26         H       -4.4255    1.0375   -1.2540
    27         H       -2.3523    2.1838   -2.4654

  H: (PM3): J. J. P. STEWART, J. COMP. CHEM. 10, 209 (1989).
  C: (PM3): J. J. P. STEWART, J. COMP. CHEM. 10, 209 (1989).

           Empirical Formula: C11 H16  =    27 atoms



      MOLECULAR POINT GROUP   :   C1  


      RHF CALCULATION, NO. OF DOUBLY OCCUPIED LEVELS =   30



          HEAT OF FORMATION =      27.584499 KCALS/MOLE


          INTERNAL COORDINATE DERIVATIVES

   NUMBER  ATOM       BOND         ANGLE      DIHEDRAL

     1       C     -0.001233     0.002173     0.000998
     2       C     -0.001909     0.000850    -0.003202
     3       C     -0.005115    -0.005784     0.000331
     4       C      0.000297     0.002805    -0.002016
     5       C      0.000792     0.001323    -0.000417
     6       C     -0.000048    -0.004552     0.001917
     7       C     -0.004364    -0.002953     0.007668
     8       C     -0.003268     0.004987     0.003437
     9       C     -0.004370     0.001798    -0.003352
    10       C      0.005155     0.004478    -0.002024
    11       C      0.004167    -0.003831    -0.005191
    12       H     -0.001084     0.002588    -0.002656
    13       H      0.001527     0.002186     0.000319
    14       H      0.001096    -0.006269    -0.008096
    15       H      0.017008    -0.011321    -0.002828
    16       H      0.007181     0.004366     0.012459
    17       H     -0.007111     0.000245    -0.005632
    18       H      0.004054    -0.006356    -0.003276
    19       H      0.001385    -0.004257     0.001225
    20       H     -0.006263     0.000092    -0.000023
    21       H      0.001429     0.003614     0.004680
    22       H      0.000170    -0.007372    -0.001703
    23       H      0.001671     0.003252     0.001583
    24       H     -0.006641     0.012539     0.000060
    25       H     -0.002370     0.002824     0.005763
    26       H     -0.000838     0.001862     0.002032
    27       H     -0.001319     0.000713    -0.002056


          GRADIENT NORM =   0.04196


          TIME FOR SCF CALCULATION =    0.01

          TIME FOR DERIVATIVES     =    0.01

          MOLECULAR WEIGHT =  148.25



          ROTATIONAL CONSTANTS IN CM(-1)

          A =    0.06181732   B =    0.01972080   C =    0.01573049



           PRINCIPAL MOMENTS OF INERTIA IN UNITS OF 10**(-40)*GRAM-CM**2

          A =      452.8306   B =     1419.4541   C =     1779.5237


          ORIENTATION OF MOLECULE IN FORCE CALCULATION

    NO.       ATOM         X         Y         Z

     1          C      -0.4599   -0.8884    0.4379
     2          C       1.0732   -0.8884    0.4379
     3          C      -2.3287    2.5057    0.4379
     4          C      -1.0086   -1.9103    1.4248
     5          C      -2.1242    3.5168   -0.6699
     6          C      -0.9681    0.4686    0.8189
     7          C       1.6707   -2.1759   -0.0829
     8          C       1.6588    0.1379   -0.5052
     9          C      -1.8017    1.1692    0.0496
    10          C       2.4866   -1.9108   -1.1259
    11          C       2.4787   -0.4692   -1.3897
    12          H      -0.8099   -1.1551   -0.5897
    13          H       1.4554   -0.6975    1.4697
    14          H      -1.8565    2.8671    1.3734
    15          H      -3.4082    2.4019    0.6679
    16          H      -2.6162    3.2049   -1.6008
    17          H      -1.0591    3.6570   -0.8958
    18          H      -2.5339    4.4965   -0.3935
    19          H      -0.6882   -2.9288    1.1684
    20          H      -2.1060   -1.9005    1.4307
    21          H      -0.6717   -1.7069    2.4502
    22          H       1.4480   -3.1447    0.3603
    23          H       1.4109    1.1952   -0.4324
    24          H      -2.1420    0.7831   -0.9201
    25          H      -0.6205    0.8551    1.7859
    26          H       3.0738   -2.6209   -1.7046
    27          H       3.0578   -0.0038   -2.1846


    FIRST DERIVATIVES WILL BE USED IN THE CALCULATION OF SECOND DERIVATIVES

          ESTIMATED TIME TO COMPLETE CALCULATION =        6.04 SECONDS

    FOR POINT-GROUP C1   THERE ARE   1 UNIQUE SYMMETRY FUNCTIONS.

 STEP:   1 TIME =     0.05 SECS, INTEGRAL =      0.05 TIME LEFT: 172799.93
 STEP:   2 TIME =     0.05 SECS, INTEGRAL =      0.10 TIME LEFT: 172799.89
 STEP:   3 TIME =     0.05 SECS, INTEGRAL =      0.15 TIME LEFT: 172799.84
 STEP:   4 TIME =     0.05 SECS, INTEGRAL =      0.20 TIME LEFT: 172799.79
 STEP:   5 TIME =     0.05 SECS, INTEGRAL =      0.24 TIME LEFT: 172799.74
 STEP:   6 TIME =     0.05 SECS, INTEGRAL =      0.29 TIME LEFT: 172799.69
 STEP:   7 TIME =     0.05 SECS, INTEGRAL =      0.34 TIME LEFT: 172799.64
 STEP:   8 TIME =     0.05 SECS, INTEGRAL =      0.39 TIME LEFT: 172799.59
 STEP:   9 TIME =     0.05 SECS, INTEGRAL =      0.43 TIME LEFT: 172799.55
 STEP:  10 TIME =     0.05 SECS, INTEGRAL =      0.48 TIME LEFT: 172799.50
 STEP:  11 TIME =     0.05 SECS, INTEGRAL =      0.53 TIME LEFT: 172799.45
 STEP:  12 TIME =     0.05 SECS, INTEGRAL =      0.58 TIME LEFT: 172799.40
 STEP:  13 TIME =     0.05 SECS, INTEGRAL =      0.63 TIME LEFT: 172799.35
 STEP:  14 TIME =     0.05 SECS, INTEGRAL =      0.67 TIME LEFT: 172799.31
 STEP:  15 TIME =     0.05 SECS, INTEGRAL =      0.72 TIME LEFT: 172799.26
 STEP:  16 TIME =     0.05 SECS, INTEGRAL =      0.77 TIME LEFT: 172799.21
 STEP:  17 TIME =     0.05 SECS, INTEGRAL =      0.82 TIME LEFT: 172799.16
 STEP:  18 TIME =     0.05 SECS, INTEGRAL =      0.87 TIME LEFT: 172799.11
 STEP:  19 TIME =     0.05 SECS, INTEGRAL =      0.92 TIME LEFT: 172799.06
 STEP:  20 TIME =     0.05 SECS, INTEGRAL =      0.97 TIME LEFT: 172799.01
 STEP:  21 TIME =     0.05 SECS, INTEGRAL =      1.02 TIME LEFT: 172798.96
 STEP:  22 TIME =     0.05 SECS, INTEGRAL =      1.07 TIME LEFT: 172798.91
 STEP:  23 TIME =     0.05 SECS, INTEGRAL =      1.12 TIME LEFT: 172798.86
 STEP:  24 TIME =     0.05 SECS, INTEGRAL =      1.17 TIME LEFT: 172798.82
 STEP:  25 TIME =     0.05 SECS, INTEGRAL =      1.21 TIME LEFT: 172798.77
 STEP:  26 TIME =     0.05 SECS, INTEGRAL =      1.26 TIME LEFT: 172798.72
 STEP:  27 TIME =     0.05 SECS, INTEGRAL =      1.31 TIME LEFT: 172798.67
 STEP:  28 TIME =     0.05 SECS, INTEGRAL =      1.36 TIME LEFT: 172798.62
 STEP:  29 TIME =     0.05 SECS, INTEGRAL =      1.41 TIME LEFT: 172798.57
 STEP:  30 TIME =     0.05 SECS, INTEGRAL =      1.46 TIME LEFT: 172798.53
 STEP:  31 TIME =     0.05 SECS, INTEGRAL =      1.50 TIME LEFT: 172798.48
 STEP:  32 TIME =     0.05 SECS, INTEGRAL =      1.55 TIME LEFT: 172798.43
 STEP:  33 TIME =     0.05 SECS, INTEGRAL =      1.60 TIME LEFT: 172798.38
 STEP:  34 TIME =     0.05 SECS, INTEGRAL =      1.65 TIME LEFT: 172798.33
 STEP:  35 TIME =     0.05 SECS, INTEGRAL =      1.70 TIME LEFT: 172798.28
 STEP:  36 TIME =     0.05 SECS, INTEGRAL =      1.75 TIME LEFT: 172798.24
 STEP:  37 TIME =     0.05 SECS, INTEGRAL =      1.79 TIME LEFT: 172798.19
 STEP:  38 TIME =     0.05 SECS, INTEGRAL =      1.84 TIME LEFT: 172798.14
 STEP:  39 TIME =     0.05 SECS, INTEGRAL =      1.89 TIME LEFT: 172798.09
 STEP:  40 TIME =     0.05 SECS, INTEGRAL =      1.94 TIME LEFT: 172798.04
 STEP:  41 TIME =     0.05 SECS, INTEGRAL =      1.99 TIME LEFT: 172798.00
 STEP:  42 TIME =     0.05 SECS, INTEGRAL =      2.03 TIME LEFT: 172797.95
 STEP:  43 TIME =     0.04 SECS, INTEGRAL =      2.08 TIME LEFT: 172797.90
 STEP:  44 TIME =     0.05 SECS, INTEGRAL =      2.13 TIME LEFT: 172797.85
 STEP:  45 TIME =     0.05 SECS, INTEGRAL =      2.18 TIME LEFT: 172797.80
 STEP:  46 TIME =     0.05 SECS, INTEGRAL =      2.23 TIME LEFT: 172797.75
 STEP:  47 TIME =     0.05 SECS, INTEGRAL =      2.28 TIME LEFT: 172797.71
 STEP:  48 TIME =     0.05 SECS, INTEGRAL =      2.33 TIME LEFT: 172797.66
 STEP:  49 TIME =     0.05 SECS, INTEGRAL =      2.37 TIME LEFT: 172797.61
 STEP:  50 TIME =     0.05 SECS, INTEGRAL =      2.42 TIME LEFT: 172797.56
 STEP:  51 TIME =     0.05 SECS, INTEGRAL =      2.47 TIME LEFT: 172797.51
 STEP:  52 TIME =     0.05 SECS, INTEGRAL =      2.52 TIME LEFT: 172797.46
 STEP:  53 TIME =     0.04 SECS, INTEGRAL =      2.56 TIME LEFT: 172797.42
 STEP:  54 TIME =     0.05 SECS, INTEGRAL =      2.61 TIME LEFT: 172797.37
 STEP:  55 TIME =     0.05 SECS, INTEGRAL =      2.66 TIME LEFT: 172797.32
 STEP:  56 TIME =     0.05 SECS, INTEGRAL =      2.71 TIME LEFT: 172797.28
 STEP:  57 TIME =     0.05 SECS, INTEGRAL =      2.75 TIME LEFT: 172797.23
 STEP:  58 TIME =     0.05 SECS, INTEGRAL =      2.80 TIME LEFT: 172797.18
 STEP:  59 TIME =     0.05 SECS, INTEGRAL =      2.85 TIME LEFT: 172797.13
 STEP:  60 TIME =     0.05 SECS, INTEGRAL =      2.90 TIME LEFT: 172797.08
 STEP:  61 TIME =     0.05 SECS, INTEGRAL =      2.95 TIME LEFT: 172797.03
 STEP:  62 TIME =     0.05 SECS, INTEGRAL =      3.00 TIME LEFT: 172796.98
 STEP:  63 TIME =     0.04 SECS, INTEGRAL =      3.05 TIME LEFT: 172796.93
 STEP:  64 TIME =     0.05 SECS, INTEGRAL =      3.09 TIME LEFT: 172796.89
 STEP:  65 TIME =     0.05 SECS, INTEGRAL =      3.14 TIME LEFT: 172796.84
 STEP:  66 TIME =     0.05 SECS, INTEGRAL =      3.19 TIME LEFT: 172796.79
 STEP:  67 TIME =     0.05 SECS, INTEGRAL =      3.24 TIME LEFT: 172796.74
 STEP:  68 TIME =     0.04 SECS, INTEGRAL =      3.29 TIME LEFT: 172796.69
 STEP:  69 TIME =     0.05 SECS, INTEGRAL =      3.34 TIME LEFT: 172796.64
 STEP:  70 TIME =     0.06 SECS, INTEGRAL =      3.39 TIME LEFT: 172796.59
 STEP:  71 TIME =     0.05 SECS, INTEGRAL =      3.44 TIME LEFT: 172796.54
 STEP:  72 TIME =     0.05 SECS, INTEGRAL =      3.50 TIME LEFT: 172796.49
 STEP:  73 TIME =     0.05 SECS, INTEGRAL =      3.55 TIME LEFT: 172796.44
 STEP:  74 TIME =     0.05 SECS, INTEGRAL =      3.60 TIME LEFT: 172796.38
 STEP:  75 TIME =     0.05 SECS, INTEGRAL =      3.65 TIME LEFT: 172796.33
 STEP:  76 TIME =     0.05 SECS, INTEGRAL =      3.70 TIME LEFT: 172796.28
 STEP:  77 TIME =     0.05 SECS, INTEGRAL =      3.75 TIME LEFT: 172796.23
 STEP:  78 TIME =     0.05 SECS, INTEGRAL =      3.80 TIME LEFT: 172796.19
 STEP:  79 TIME =     0.05 SECS, INTEGRAL =      3.84 TIME LEFT: 172796.14
 STEP:  80 TIME =     0.05 SECS, INTEGRAL =      3.89 TIME LEFT: 172796.09
 STEP:  81 TIME =     0.05 SECS, INTEGRAL =      3.94 TIME LEFT: 172796.04

(To convert to Hartree/Bohr^2, multiply by (10^(-21) x N x a0^2)/(4.184 x 627.51) = 0.0642)


           FORCE MATRIX IN MILLIDYNES/ANGSTROM


                  C  1       C  2       C  3       C  4       C  5       C  6
 ------------------------------------------------------------------------------
     C    1  14.551745
     C    2   3.661554  14.757096
     C    3   0.139274   0.019150  14.695620
     C    4   4.086643   0.632522   0.021715  14.312379
     C    5   0.018567   0.004012   4.405437   0.001653  14.349577
     C    6   4.629124   0.680280   0.823037   0.731781   0.040839  18.164105
     C    7   0.573161   4.096491   0.002609   0.055137   0.001409   0.046090
     C    8   0.580036   4.109277   0.002010   0.048683   0.001542   0.061939
     C    9   0.796275   0.038475   4.963533   0.036522   0.718649  10.724490
     C   10   0.048334   1.203888   0.001366   0.009959   0.000888   0.009159
     C   11   0.048348   1.198537   0.001877   0.009159   0.000749   0.009108
     H   12   4.214838   0.422233   0.002096   0.417027   0.000618   0.442191
     H   13   0.450644   4.211160   0.000818   0.024688   0.000349   0.022410
     H   14   0.002780   0.000468   4.441610   0.001015   0.434608   0.050454
     H   15   0.018728   0.002165   4.427350   0.004018   0.445912   0.032496
     H   16   0.000732   0.000368   0.463700   0.000305   4.728027   0.001869
     H   17   0.000924   0.000270   0.460998   0.000384   4.745838   0.002433
     H   18   0.003011   0.001009   0.448749   0.000235   4.752825   0.006933
     H   19   0.457233   0.020314   0.003685   4.722502   0.000301   0.049744
     H   20   0.451362   0.050698   0.000691   4.758122   0.000308   0.027261
     H   21   0.467376   0.021363   0.000646   4.718334   0.000220   0.025225
     H   22   0.010212   0.402341   0.000377   0.016643   0.000294   0.003475
     H   23   0.012712   0.406962   0.000622   0.002587   0.001072   0.010728
     H   24   0.082007   0.008772   0.429390   0.009901   0.024852   0.468680
     H   25   0.433647   0.020537   0.082517   0.017020   0.008729   4.757266
     H   26   0.015598   0.112487   0.000364   0.000771   0.000278   0.002463
     H   27   0.015303   0.112699   0.000347   0.002647   0.000298   0.001515


                  C  7       C  8       C  9       C 10       C 11       H 12
 ------------------------------------------------------------------------------
     C    7  17.881120
     C    8   1.100396  17.923493
     C    9   0.008645   0.014953  18.205408
     C   10   9.788457   1.581050   0.001959  18.328036
     C   11   1.574745   9.800321   0.002752   5.166251  18.337320
     H   12   0.019587   0.014410   0.055853   0.005608   0.005379   4.684453
     H   13   0.387188   0.385612   0.001903   0.051267   0.051682   0.040546
     H   14   0.000308   0.000445   0.460307   0.000425   0.000513   0.000542
     H   15   0.000448   0.000767   0.409099   0.000472   0.000612   0.000551
     H   16   0.000506   0.000341   0.027169   0.000306   0.000421   0.000224
     H   17   0.000343   0.000538   0.016330   0.000403   0.000451   0.000154
     H   18   0.000520   0.000357   0.052008   0.000476   0.000324   0.000239
     H   19   0.020734   0.001590   0.004994   0.001216   0.000498   0.029890
     H   20   0.004385   0.008534   0.003126   0.001572   0.002086   0.028810
     H   21   0.003616   0.001169   0.001996   0.001137   0.000853   0.043816
     H   22   5.053877   0.042323   0.001003   0.442838   0.100276   0.002405
     H   23   0.042296   5.061183   0.006917   0.100245   0.441355   0.002198
     H   24   0.002365   0.002424   4.760373   0.001074   0.001284   0.029707
     H   25   0.002778   0.005471   0.468298   0.001020   0.001714   0.036443
     H   26   0.446176   0.049212   0.000463   5.070399   0.418780   0.000778
     H   27   0.049321   0.445998   0.001154   0.419781   5.072285   0.000626


                  H 13       H 14       H 15       H 16       H 17       H 18
 ------------------------------------------------------------------------------
     H   13   4.697507
     H   14   0.000226   5.053336
     H   15   0.000240   0.565328   5.025307
     H   16   0.000090   0.047045   0.024082   5.472559
     H   17   0.000087   0.024427   0.048865   0.576642   5.481715
     H   18   0.000115   0.030417   0.028572   0.571783   0.572440   5.489860
     H   19   0.001966   0.000198   0.000812   0.000114   0.000180   0.000078
     H   20   0.002384   0.000155   0.000225   0.000126   0.000146   0.000139
     H   21   0.019368   0.000189   0.000221   0.000081   0.000194   0.000133
     H   22   0.011014   0.000118   0.000120   0.000131   0.000139   0.000060
     H   23   0.011256   0.000506   0.000545   0.000365   0.002049   0.000368
     H   24   0.000570   0.038812   0.018812   0.019133   0.002611   0.001944
     H   25   0.014530   0.029952   0.009401   0.000614   0.000567   0.001650
     H   26   0.014409   0.000117   0.000183   0.000088   0.000064   0.000125
     H   27   0.014138   0.000122   0.000203   0.000146   0.000145   0.000137


                  H 19       H 20       H 21       H 22       H 23       H 24
 ------------------------------------------------------------------------------
     H   19   5.456966
     H   20   0.568333   5.490143
     H   21   0.569500   0.571607   5.460999
     H   22   0.019558   0.001134   0.000727   5.452057
     H   23   0.000714   0.000518   0.000639   0.010233   5.457499
     H   24   0.001787   0.000908   0.000646   0.000478   0.001715   5.139350
     H   25   0.001712   0.002765   0.012168   0.001038   0.002856   0.102465
     H   26   0.000462   0.000170   0.000219   0.041600   0.005332   0.000328
     H   27   0.000189   0.000499   0.000224   0.005301   0.041407   0.000427


                  H 25       H 26       H 27
 ------------------------------------------
     H   25   5.142090
     H   26   0.000288   5.460682
     H   27   0.000473   0.009394   5.463443


          HEAT OF FORMATION =      27.584499 KCALS/MOLE

          ZERO POINT ENERGY     149.062 KCAL/MOL


           NORMAL COORDINATE ANALYSIS (Total motion = 1 Angstrom)


   Root No.       1         2         3         4         5         6         7         8

                 1 A       2 A       3 A       4 A       5 A       6 A       7 A       8 A   

                  43.9      61.0      92.3     124.0     147.0     177.0     189.7     202.0
  
           1   -0.0076    0.0008   -0.0086    0.0017   -0.0199   -0.0049    0.0055   -0.0026
           2   -0.0150   -0.0035   -0.0110   -0.0097   -0.0130    0.0050   -0.0019    0.0097
           3    0.0163    0.0075   -0.0004    0.0080   -0.0042    0.0055   -0.0028    0.0059
           4   -0.0075    0.0008   -0.0083    0.0017   -0.0204   -0.0056    0.0058   -0.0027
           5   -0.0020   -0.0188    0.0078   -0.0068   -0.0109    0.0027    0.0016    0.0144
           6    0.0047    0.0077    0.0006    0.0046   -0.0274   -0.0099    0.0094   -0.0081
           7    0.0064    0.0245    0.0374   -0.0023    0.0111   -0.0074   -0.0021   -0.0140
           8   -0.0074    0.0091    0.0150   -0.0114    0.0068    0.0036   -0.0086    0.0039
           9   -0.0203   -0.0009    0.0061   -0.0182    0.0078   -0.0033   -0.0039   -0.0051
          10    0.0090   -0.0082   -0.0010    0.0112    0.0034    0.0068    0.0010    0.0283
          11   -0.0121    0.0017   -0.0299    0.0007    0.0099   -0.0075    0.0047   -0.0161
          12    0.0284    0.0078   -0.0166    0.0252    0.0340   -0.0006    0.0018   -0.0027
          13    0.0589   -0.0311   -0.0089   -0.0275   -0.0021    0.0000   -0.0008    0.0003
          14   -0.0090   -0.0132    0.0023    0.0359    0.0089   -0.0047    0.0046   -0.0004
          15   -0.0121   -0.0315   -0.0142    0.0214    0.0076   -0.0101    0.0090   -0.0071
          16   -0.0133    0.0126   -0.0127   -0.0065   -0.0094   -0.0056   -0.0006   -0.0224
          17   -0.0150    0.0015   -0.0167   -0.0090   -0.0059    0.0013   -0.0018   -0.0027
          18    0.0084    0.0053    0.0153   -0.0061   -0.0150    0.0200   -0.0152    0.0240
          19   -0.0015   -0.0142    0.0131   -0.0016   -0.0039   -0.0109    0.0047   -0.0243
          20    0.0085   -0.0104    0.0101   -0.0059   -0.0058    0.0001    0.0016    0.0038
          21   -0.0140   -0.0302    0.0206   -0.0020   -0.0199   -0.0096    0.0084   -0.0088
          22   -0.0223    0.0122   -0.0263   -0.0010   -0.0150    0.0020    0.0045    0.0189
          23    0.0132    0.0021    0.0032   -0.0044   -0.0061    0.0004    0.0023    0.0042
          24    0.0120    0.0376   -0.0159    0.0060   -0.0181   -0.0074    0.0094   -0.0051
          25    0.0012    0.0148    0.0229    0.0442   -0.0126    0.0053   -0.0022    0.0024
          26   -0.0136    0.0038    0.0106    0.0132    0.0006    0.0050   -0.0052    0.0074
          27   -0.0060    0.0049    0.0017   -0.0415   -0.0055    0.0113   -0.0168    0.0058
          28   -0.0112   -0.0123    0.0078   -0.0074    0.0362    0.0050   -0.0077   -0.0110
          29    0.0265    0.0107    0.0075   -0.0035    0.0051   -0.0016    0.0005   -0.0100
          30   -0.0170   -0.0234    0.0158   -0.0059    0.0138    0.0024   -0.0015   -0.0014
          31   -0.0240    0.0044   -0.0178   -0.0067    0.0288    0.0145   -0.0076    0.0219
          32    0.0295    0.0186    0.0031   -0.0025    0.0051   -0.0012    0.0008   -0.0087
          33   -0.0007    0.0191   -0.0079   -0.0005    0.0146    0.0049   -0.0006    0.0057
          34   -0.0134   -0.0012   -0.0055   -0.0006   -0.0414   -0.0160    0.0120   -0.0085
          35   -0.0259   -0.0011    0.0000   -0.0247   -0.0333    0.0147   -0.0089    0.0171
          36    0.0211    0.0075   -0.0043    0.0128    0.0091    0.0065   -0.0031    0.0057
          37   -0.0014    0.0030   -0.0116    0.0040   -0.0138    0.0027    0.0007    0.0035
          38   -0.0099   -0.0525    0.0289   -0.0093   -0.0098    0.0013    0.0023    0.0113
          39    0.0039    0.0131   -0.0021    0.0041   -0.0288   -0.0122    0.0109   -0.0096
          40   -0.0196    0.0633    0.0745   -0.0306    0.0361   -0.0227    0.0014   -0.0307
          41   -0.0159    0.0317    0.0264   -0.0232   -0.0008    0.0135   -0.0203    0.0088
          42   -0.0039   -0.0292   -0.0170    0.0008   -0.0017    0.0003   -0.0008    0.0013
          43   -0.0028    0.0351    0.0466   -0.0023    0.0150   -0.0099   -0.0017   -0.0173
          44    0.0082    0.0073    0.0167   -0.0592    0.0191   -0.0027   -0.0075   -0.0001
          45   -0.0566    0.0486    0.0504   -0.0378    0.0319   -0.0177   -0.0018   -0.0227
          46    0.0786   -0.0676   -0.0486    0.0121   -0.0368    0.0547   -0.1171   -0.0541
          47    0.0031   -0.0372   -0.0076    0.0423    0.0245   -0.0396    0.0829    0.0335
          48   -0.0266   -0.0042    0.0101   -0.0016    0.0208   -0.0274    0.0445    0.0104
          49    0.0681   -0.0417   -0.0183   -0.0294   -0.0061    0.0043   -0.0071   -0.0004
          50   -0.0304   -0.0090   -0.0009    0.1005   -0.0112    0.0361   -0.0961   -0.0605
          51    0.0181   -0.0795   -0.0611    0.0529   -0.0240    0.0355   -0.0836   -0.0481
          52    0.0711   -0.0276    0.0035   -0.0861    0.0261   -0.0530    0.1231    0.0675
          53   -0.0013   -0.0106    0.0056    0.0049    0.0155   -0.0172    0.0370    0.0213
          54   -0.0215   -0.0354   -0.0079    0.0452    0.0262   -0.0441    0.0775    0.0150
          55    0.0176   -0.0113    0.0036    0.0150    0.0075   -0.1073   -0.0840    0.0895
          56   -0.0109   -0.0003   -0.0240   -0.0012    0.0052   -0.0192   -0.0086   -0.0004
          57    0.0346    0.0118   -0.0347    0.0376    0.0581   -0.0961   -0.0507    0.0094
          58    0.0089   -0.0081   -0.0010    0.0112    0.0035    0.0082    0.0020    0.0279
          59   -0.0230    0.0065   -0.0357   -0.0049    0.0014    0.0866    0.0782   -0.0767
          60    0.0355    0.0029   -0.0144    0.0311    0.0523    0.1117    0.0738   -0.0282
          61    0.0136   -0.0119    0.0000    0.0156    0.0187    0.1281    0.0811   -0.0062
          62   -0.0004    0.0029   -0.0458    0.0162    0.0419   -0.1002   -0.0498    0.0062
          63    0.0246    0.0088   -0.0139    0.0208    0.0228   -0.0220   -0.0136    0.0043
          64    0.0089   -0.0250    0.0308   -0.0001   -0.0172   -0.0244    0.0103   -0.0498
          65    0.0018   -0.0207    0.0133   -0.0071   -0.0099    0.0002    0.0028    0.0061
          66   -0.0234   -0.0581    0.0365   -0.0038   -0.0357   -0.0164    0.0135   -0.0159
          67   -0.0304    0.0243   -0.0442    0.0013   -0.0378    0.0018    0.0102    0.0373
          68    0.0104    0.0027    0.0002   -0.0043   -0.0104    0.0006    0.0032    0.0085
          69    0.0255    0.0688   -0.0322    0.0115   -0.0320   -0.0122    0.0151   -0.0076
          70    0.0134    0.0083    0.0451    0.1087   -0.0317    0.0227   -0.0015    0.0393
          71   -0.0148    0.0003    0.0316    0.0435    0.0050    0.0048   -0.0006    0.0186
          72   -0.0098    0.0085   -0.0145   -0.0759   -0.0002    0.0047   -0.0184   -0.0119
          73   -0.0263    0.0195   -0.0385   -0.0653    0.0048   -0.0180   -0.0047   -0.0575
          74   -0.0141    0.0029   -0.0404   -0.0309   -0.0018   -0.0091    0.0030   -0.0216
          75    0.0127    0.0022    0.0340    0.0239   -0.0212    0.0280   -0.0154    0.0438
          76   -0.0100   -0.0206    0.0196   -0.0117    0.0658    0.0090   -0.0152   -0.0230
          77    0.0376    0.0210    0.0084   -0.0022    0.0124   -0.0033   -0.0002   -0.0207
          78   -0.0294   -0.0445    0.0268   -0.0119    0.0350    0.0085   -0.0082   -0.0004
          79   -0.0331    0.0088   -0.0273   -0.0101    0.0521    0.0277   -0.0147    0.0432
          80    0.0429    0.0353    0.0002   -0.0004    0.0128   -0.0022    0.0000   -0.0171
          81    0.0005    0.0321   -0.0165   -0.0018    0.0360    0.0139   -0.0063    0.0163


   Root No.       9        10        11        12        13        14        15        16

                 9 A      10 A      11 A      12 A      13 A      14 A      15 A      16 A   

                 244.6     319.6     369.0     403.9     469.2     510.6     529.5     560.8
  
           1   -0.0012   -0.0004   -0.0035    0.0063    0.0190   -0.0170    0.0049   -0.0331
           2   -0.0073    0.0023    0.0026   -0.0055    0.0314   -0.0075    0.0085    0.0282
           3   -0.0126    0.0046    0.0008    0.0373    0.0174   -0.0199   -0.0346    0.0127
           4    0.0005    0.0020   -0.0156    0.0108    0.0133   -0.0160   -0.0030   -0.0285
           5    0.0134   -0.0284    0.0100    0.0107   -0.0050    0.0062   -0.0079   -0.0088
           6    0.0070    0.0070   -0.0020    0.0027    0.0131   -0.0157   -0.0046   -0.0200
           7    0.0222   -0.0199    0.0084    0.0148    0.0141    0.0065    0.0139    0.0117
           8    0.0086    0.0263   -0.0201   -0.0040   -0.0123   -0.0070   -0.0117   -0.0177
           9    0.0071   -0.0149   -0.0106   -0.0295    0.0007   -0.0134   -0.0215   -0.0021
          10    0.0324    0.0296    0.0204   -0.0283    0.0116   -0.0017    0.0172    0.0004
          11   -0.0125   -0.0231   -0.0188   -0.0207    0.0154    0.0032    0.0366   -0.0011
          12    0.0022   -0.0063   -0.0113    0.0066   -0.0128    0.0029   -0.0157   -0.0013
          13    0.0010   -0.0067   -0.0021   -0.0062    0.0032   -0.0019   -0.0016    0.0026
          14    0.0090    0.0326   -0.0018    0.0341   -0.0077    0.0088    0.0148   -0.0132
          15    0.0037   -0.0106    0.0072   -0.0005    0.0071   -0.0019   -0.0029    0.0093
          16   -0.0194    0.0033    0.0541   -0.0033   -0.0212    0.0081   -0.0050   -0.0039
          17   -0.0119    0.0144    0.0218   -0.0026    0.0129   -0.0104   -0.0153    0.0345
          18   -0.0295   -0.0019   -0.0107    0.0176    0.0089    0.0143    0.0316    0.0162
          19   -0.0099    0.0189   -0.0388    0.0023   -0.0216   -0.0154    0.0072    0.0259
          20    0.0072   -0.0208    0.0047    0.0097   -0.0122    0.0073   -0.0094    0.0001
          21    0.0118   -0.0030    0.0021   -0.0056   -0.0206   -0.0051    0.0091    0.0090
          22    0.0165   -0.0121   -0.0291    0.0098   -0.0101    0.0352   -0.0195    0.0092
          23    0.0085   -0.0178    0.0102    0.0029   -0.0058    0.0120   -0.0031   -0.0079
          24    0.0128    0.0157   -0.0079   -0.0151    0.0032    0.0188    0.0005    0.0078
          25   -0.0312   -0.0171    0.0237   -0.0179   -0.0148    0.0065   -0.0042   -0.0005
          26   -0.0085    0.0141   -0.0110   -0.0286   -0.0142   -0.0119   -0.0263   -0.0072
          27   -0.0139    0.0146   -0.0058    0.0048   -0.0235    0.0167    0.0225   -0.0245
          28   -0.0221    0.0158   -0.0159    0.0013    0.0216    0.0189   -0.0134   -0.0026
          29   -0.0045   -0.0015    0.0046   -0.0001    0.0009    0.0041   -0.0024   -0.0029
          30    0.0001   -0.0012    0.0217   -0.0094    0.0166    0.0218   -0.0049   -0.0160
          31    0.0006   -0.0169   -0.0040    0.0180   -0.0175   -0.0255    0.0018    0.0034
          32   -0.0031   -0.0014    0.0054   -0.0004   -0.0030   -0.0049    0.0031   -0.0017
          33    0.0058    0.0008    0.0199   -0.0067   -0.0048   -0.0269    0.0181   -0.0025
          34    0.0065   -0.0058   -0.0166    0.0107    0.0341   -0.0340    0.0064   -0.0721
          35   -0.0242    0.0108    0.0082   -0.0031    0.0448   -0.0044    0.0295    0.0498
          36   -0.0102    0.0044    0.0029    0.0339    0.0072   -0.0141   -0.0400    0.0198
          37   -0.0129    0.0026   -0.0058    0.0320    0.0409   -0.0397   -0.0170   -0.0415
          38    0.0162   -0.0426    0.0155    0.0189   -0.0349   -0.0197    0.0010   -0.0081
          39    0.0113    0.0096   -0.0061   -0.0070    0.0077   -0.0013   -0.0008   -0.0137
          40    0.0734   -0.0392   -0.0078    0.0313    0.0586   -0.0068    0.0197    0.0411
          41   -0.0044    0.0321   -0.0216   -0.0114   -0.0284   -0.0019   -0.0096   -0.0322
          42   -0.0133   -0.0077   -0.0016   -0.0341   -0.0142   -0.0087   -0.0247   -0.0099
          43    0.0295   -0.0252    0.0078    0.0160    0.0216    0.0041    0.0135    0.0184
          44    0.0395    0.0292   -0.0431    0.0104    0.0101   -0.0152   -0.0035   -0.0143
          45    0.0553   -0.0370   -0.0221   -0.0149    0.0436   -0.0263   -0.0182    0.0293
          46    0.0385   -0.0119   -0.0100   -0.0142    0.0056   -0.0077   -0.0088    0.0030
          47   -0.0217    0.0479    0.0157    0.0679   -0.0079    0.0257    0.0427   -0.0094
          48   -0.0058   -0.0127    0.0057   -0.0068    0.0060   -0.0041   -0.0077    0.0079
          49   -0.0006   -0.0055   -0.0045   -0.0122    0.0018   -0.0052   -0.0072    0.0017
          50    0.0597    0.0222    0.0054    0.0643    0.0045    0.0225    0.0426   -0.0054
          51    0.0282   -0.0107    0.0008   -0.0083    0.0072   -0.0074   -0.0103    0.0095
          52   -0.0533    0.0060   -0.0021   -0.0188   -0.0066   -0.0069   -0.0140   -0.0032
          53   -0.0085    0.0356   -0.0086    0.0159   -0.0136    0.0003   -0.0013   -0.0187
          54   -0.0138   -0.0010    0.0317    0.0494    0.0134    0.0230    0.0396    0.0195
          55    0.0325    0.0523    0.0440   -0.0387    0.0166   -0.0015    0.0114    0.0370
          56   -0.0100   -0.0103   -0.0071   -0.0199    0.0222   -0.0011    0.0276    0.0194
          57   -0.0089   -0.0319   -0.0326   -0.0096   -0.0351    0.0220    0.0171   -0.0402
          58    0.0328    0.0300    0.0208   -0.0290    0.0116   -0.0016    0.0176    0.0007
          59   -0.0215   -0.0521   -0.0463   -0.0031    0.0132   -0.0003    0.0430   -0.0452
          60    0.0361    0.0104   -0.0053   -0.0280   -0.0270    0.0201    0.0033    0.0176
          61    0.0625    0.0405    0.0228   -0.0572   -0.0005    0.0123    0.0358    0.0109
          62   -0.0118   -0.0362   -0.0302   -0.0519   -0.0089    0.0278    0.0761   -0.0215
          63   -0.0077   -0.0073   -0.0102    0.0212   -0.0043   -0.0060   -0.0281   -0.0010
          64   -0.0151    0.0418   -0.0711   -0.0073   -0.0626   -0.0262    0.0270    0.1085
          65    0.0110   -0.0269    0.0051    0.0104   -0.0206    0.0099   -0.0076    0.0065
          66    0.0179   -0.0049   -0.0126   -0.0089   -0.0593   -0.0044    0.0228    0.0642
          67    0.0400   -0.0272   -0.0518    0.0123   -0.0369    0.1097   -0.0478    0.0546
          68    0.0132   -0.0219    0.0064    0.0041   -0.0110    0.0257   -0.0089    0.0002
          69    0.0213    0.0254   -0.0277   -0.0259   -0.0102    0.0682   -0.0088    0.0448
          70   -0.0693   -0.0446   -0.0171   -0.0536    0.0045   -0.0039    0.0047    0.0048
          71   -0.0045   -0.0051   -0.0495   -0.0682   -0.0082   -0.0332   -0.0487   -0.0231
          72   -0.0014    0.0314    0.0238    0.0337   -0.0316    0.0284    0.0282   -0.0195
          73   -0.0021    0.0335    0.1179    0.0221   -0.0669    0.0349   -0.0145   -0.0062
          74    0.0015    0.0282    0.0583    0.0336    0.0249   -0.0198   -0.0430    0.0633
          75   -0.0401   -0.0184   -0.0487   -0.0062    0.0204    0.0080    0.0455    0.0047
          76   -0.0423    0.0350   -0.0122   -0.0136    0.0648    0.0839   -0.0355   -0.0001
          77   -0.0132    0.0138    0.0017   -0.0085    0.0126    0.0080    0.0012    0.0000
          78   -0.0096   -0.0007    0.0295   -0.0143    0.0461    0.0832   -0.0316   -0.0174
          79    0.0061   -0.0397    0.0159    0.0308   -0.0592   -0.0829    0.0280    0.0283
          80   -0.0104    0.0122    0.0000   -0.0038   -0.0038   -0.0227    0.0121    0.0105
          81    0.0055   -0.0077    0.0315    0.0004   -0.0355   -0.0793    0.0427    0.0227


   Root No.      17        18        19        20        21        22        23        24

                17 A      18 A      19 A      20 A      21 A      22 A      23 A      24 A   

                 748.5     809.6     816.1     824.8     829.1     920.9     924.8     937.9
  
           1   -0.0263   -0.0008    0.0025    0.0033   -0.0036    0.0062   -0.0047   -0.0131
           2    0.0026    0.0011   -0.0044   -0.0014   -0.0038    0.0010   -0.0012    0.0033
           3   -0.0120   -0.0002   -0.0029    0.0026   -0.0061    0.0008   -0.0016   -0.0097
           4   -0.0049    0.0003    0.0010    0.0021   -0.0037   -0.0107    0.0082    0.0192
           5    0.0053   -0.0029   -0.0105    0.0321    0.0154   -0.0008    0.0004    0.0020
           6    0.0296    0.0049   -0.0147   -0.0378    0.0321   -0.0048    0.0044    0.0121
           7    0.0044    0.0061   -0.0278   -0.0041   -0.0162   -0.0001    0.0009    0.0004
           8   -0.0041    0.0007   -0.0029    0.0000   -0.0029   -0.0013   -0.0005   -0.0022
           9   -0.0022    0.0018   -0.0083   -0.0008   -0.0059    0.0031    0.0010   -0.0015
          10   -0.0048   -0.0007   -0.0016   -0.0020   -0.0003    0.0031   -0.0038   -0.0251
          11   -0.0004   -0.0005   -0.0058   -0.0045   -0.0005    0.0012   -0.0030   -0.0087
          12    0.0001    0.0013    0.0033    0.0041   -0.0015    0.0067   -0.0052    0.0034
          13    0.0004    0.0011   -0.0057   -0.0011   -0.0041    0.0102    0.0042    0.0042
          14   -0.0033   -0.0004    0.0031    0.0004    0.0011    0.0028   -0.0003   -0.0030
          15    0.0017    0.0006   -0.0037   -0.0002   -0.0026   -0.0032   -0.0007    0.0000
          16   -0.0022   -0.0029    0.0143    0.0013    0.0087    0.0310   -0.0252    0.0139
          17    0.0055   -0.0039    0.0064    0.0010   -0.0007    0.0114   -0.0098    0.0133
          18    0.0063   -0.0019    0.0022    0.0006    0.0000   -0.0170    0.0172   -0.0050
          19    0.0134   -0.0296   -0.0024    0.0228   -0.0060   -0.0030    0.0019    0.0108
          20    0.0242    0.0002   -0.0153    0.0002    0.0354    0.0141   -0.0087   -0.0188
          21    0.0003   -0.0150    0.0116   -0.0266   -0.0214   -0.0013    0.0007    0.0043
          22    0.0121    0.0273    0.0117   -0.0067   -0.0122   -0.0029    0.0019    0.0102
          23   -0.0226   -0.0002    0.0082    0.0633   -0.0213   -0.0099    0.0077    0.0244
          24    0.0087    0.0126   -0.0018    0.0281    0.0055    0.0035   -0.0028   -0.0034
          25    0.0036    0.0010   -0.0019    0.0010    0.0030   -0.0263   -0.0182   -0.0065
          26    0.0015    0.0010   -0.0040    0.0004   -0.0010   -0.0185   -0.0094   -0.0014
          27   -0.0009    0.0002    0.0029   -0.0009    0.0050    0.0160    0.0081    0.0029
          28    0.0192   -0.0235   -0.0092    0.0330    0.0080    0.0041   -0.0031   -0.0103
          29    0.0017    0.0061    0.0115   -0.0578   -0.0141   -0.0011    0.0005   -0.0015
          30   -0.0049   -0.0084    0.0142   -0.0250   -0.0258   -0.0007    0.0001   -0.0049
          31    0.0184    0.0246    0.0100   -0.0320   -0.0081    0.0030   -0.0019   -0.0117
          32   -0.0037    0.0077    0.0114   -0.0350   -0.0159   -0.0008    0.0003   -0.0023
          33   -0.0033    0.0029   -0.0028    0.0708   -0.0007    0.0009    0.0000   -0.0030
          34   -0.0264    0.0039   -0.0164   -0.0231    0.0242   -0.0199    0.0129    0.0072
          35    0.0129   -0.0019   -0.0047   -0.0145   -0.0061   -0.0238    0.0191    0.0257
          36   -0.0133   -0.0010    0.0037    0.0147   -0.0144    0.0154   -0.0122   -0.0206
          37   -0.0606    0.0008   -0.0018    0.0104   -0.0197   -0.0315    0.0260    0.0218
          38    0.0089   -0.0615   -0.0115   -0.0018    0.0093   -0.0008   -0.0064   -0.0020
          39    0.0488    0.0154   -0.0134   -0.0346    0.0392    0.0037   -0.0014    0.0101
          40   -0.0029   -0.0243    0.1060    0.0139    0.0624   -0.0053   -0.0002    0.0029
          41   -0.0052   -0.0021    0.0136    0.0029    0.0124   -0.0386   -0.0182   -0.0153
          42    0.0019    0.0173   -0.0781   -0.0105   -0.0490    0.0194    0.0084    0.0024
          43    0.0038   -0.0004    0.0013    0.0002    0.0023   -0.0177   -0.0051   -0.0047
          44   -0.0149   -0.0118    0.0478    0.0045    0.0189    0.0897    0.0312    0.0283
          45   -0.0086   -0.0305    0.1348    0.0195    0.0806   -0.0345   -0.0120   -0.0101
          46   -0.0026   -0.0102    0.0480    0.0075    0.0311   -0.0323   -0.0128   -0.0113
          47   -0.0015   -0.0129    0.0637    0.0081    0.0439   -0.0208   -0.0088   -0.0029
          48    0.0027    0.0101   -0.0496   -0.0070   -0.0336    0.0255    0.0102    0.0078
          49   -0.0012   -0.0044    0.0208    0.0033    0.0133   -0.0143   -0.0055   -0.0049
          50    0.0023    0.0101   -0.0464   -0.0089   -0.0304    0.0667    0.0257    0.0253
          51   -0.0019   -0.0169    0.0795    0.0128    0.0526   -0.0697   -0.0271   -0.0221
          52   -0.0032   -0.0074    0.0345    0.0058    0.0222   -0.0318   -0.0131   -0.0138
          53   -0.0068   -0.0037    0.0180    0.0035    0.0098   -0.0190   -0.0093   -0.0158
          54    0.0089   -0.0006    0.0030   -0.0015    0.0056    0.0171    0.0072    0.0208
          55    0.0193    0.0009   -0.0070   -0.0168    0.0031    0.0038   -0.0028    0.0362
          56    0.0066    0.0008   -0.0091   -0.0088   -0.0021    0.0091   -0.0096    0.0091
          57    0.0011   -0.0011    0.0094    0.0034    0.0098   -0.0280    0.0255    0.0055
          58   -0.0040   -0.0006   -0.0017   -0.0029    0.0002    0.0026   -0.0033   -0.0231
          59   -0.0351   -0.0020   -0.0009    0.0140   -0.0059    0.0034   -0.0072   -0.0997
          60    0.0428    0.0024   -0.0002   -0.0197    0.0156   -0.0253    0.0261    0.1065
          61    0.0276   -0.0005   -0.0052   -0.0224    0.0144   -0.0248    0.0229    0.0522
          62    0.0202   -0.0017   -0.0046   -0.0181    0.0170   -0.0453    0.0401    0.0348
          63   -0.0137    0.0015    0.0041    0.0127   -0.0091    0.0238   -0.0215   -0.0284
          64   -0.0855    0.1688   -0.0045   -0.0043    0.0330   -0.0017    0.0016   -0.0232
          65    0.0035    0.0239   -0.0201    0.0408    0.0475    0.0213   -0.0128   -0.0363
          66   -0.0950    0.1366    0.0007    0.0473    0.0231    0.0147   -0.0080   -0.0503
          67   -0.0830   -0.1595   -0.0371   -0.0523    0.0220   -0.0010    0.0007   -0.0220
          68   -0.0384   -0.0338   -0.0020    0.0623   -0.0131   -0.0106    0.0084    0.0214
          69   -0.0853   -0.1326   -0.0177   -0.0922   -0.0020    0.0176   -0.0169   -0.0654
          70   -0.0062   -0.0172    0.0653    0.0053    0.0376    0.1177    0.2022    0.0041
          71   -0.0109   -0.0016    0.0063   -0.0004    0.0003    0.0531    0.1047   -0.0025
          72    0.0073    0.0074   -0.0243   -0.0020   -0.0074   -0.0628   -0.1147   -0.0003
          73    0.0216    0.0027   -0.0101    0.0051    0.0162   -0.0736    0.2179   -0.0601
          74    0.0087   -0.0025   -0.0174    0.0044   -0.0159   -0.0535    0.1251   -0.0365
          75   -0.0037   -0.0044    0.0205   -0.0021    0.0036    0.0468   -0.1242    0.0414
          76   -0.0975    0.0787   -0.0448    0.0054    0.0932   -0.0210    0.0158    0.0675
          77   -0.0309    0.0111    0.0094   -0.0228   -0.0198   -0.0208    0.0138    0.0387
          78   -0.0837    0.0896   -0.0187   -0.0981    0.0671   -0.0016    0.0026    0.0237
          79   -0.0972   -0.0669   -0.0383   -0.1447    0.0551   -0.0225    0.0150    0.0683
          80   -0.0008   -0.0158   -0.0173   -0.0523    0.0323    0.0140   -0.0116   -0.0336
          81   -0.0861   -0.0779   -0.0551   -0.0199    0.0740   -0.0087    0.0049    0.0363


   Root No.      25        26        27        28        29        30        31        32

                25 A      26 A      27 A      28 A      29 A      30 A      31 A      32 A   

                 961.1     966.9     978.6     980.5    1006.4    1025.0    1035.5    1081.3
  
           1   -0.0051   -0.0016    0.0015    0.0049    0.0019   -0.0011   -0.0037    0.0011
           2    0.0062    0.0003   -0.0017   -0.0004    0.0019   -0.0003   -0.0045    0.0049
           3    0.0055   -0.0008   -0.0001   -0.0032    0.0034    0.0001   -0.0019   -0.0039
           4    0.0019    0.0069   -0.0001   -0.0003    0.0125    0.0025    0.0045   -0.0001
           5    0.0012    0.0015    0.0042   -0.0024   -0.0063    0.0158    0.0003    0.0043
           6    0.0041    0.0116   -0.0014   -0.0037   -0.0276   -0.0053   -0.0002   -0.0024
           7    0.0074   -0.0014    0.0022    0.0036    0.0021   -0.0006   -0.0271    0.0001
           8   -0.0047    0.0001   -0.0006   -0.0008    0.0000   -0.0003    0.0021   -0.0010
           9   -0.0035    0.0002   -0.0019   -0.0034    0.0013   -0.0002   -0.0111   -0.0004
          10   -0.0055   -0.0156    0.0020    0.0066   -0.0153   -0.0045    0.0013   -0.0010
          11    0.0211   -0.0066   -0.0090   -0.0228    0.0017   -0.0004    0.0083   -0.0026
          12    0.0064   -0.0049   -0.0030   -0.0027   -0.0028   -0.0003    0.0007    0.0052
          13    0.0008    0.0007    0.0034    0.0060   -0.0017    0.0002    0.0145    0.0000
          14   -0.0196    0.0019   -0.0126   -0.0226    0.0014    0.0009   -0.0146    0.0007
          15   -0.0097    0.0009   -0.0024   -0.0040   -0.0014    0.0003    0.0094   -0.0002
          16   -0.0059    0.0048   -0.0004   -0.0022   -0.0013    0.0014   -0.0127   -0.0001
          17   -0.0153    0.0030    0.0088    0.0157   -0.0047   -0.0001   -0.0071   -0.0008
          18   -0.0153   -0.0011   -0.0004    0.0003   -0.0019   -0.0006    0.0093   -0.0011
          19   -0.0026   -0.0205    0.0088   -0.0041    0.0056   -0.0250   -0.0001   -0.0018
          20   -0.0036   -0.0004   -0.0101    0.0061    0.0187   -0.0272    0.0000   -0.0169
          21   -0.0028   -0.0173    0.0068   -0.0022    0.0115   -0.0181    0.0005    0.0123
          22   -0.0022   -0.0202   -0.0101    0.0041    0.0027    0.0264   -0.0005    0.0022
          23    0.0021   -0.0024   -0.0132    0.0019   -0.0093   -0.0192   -0.0005   -0.0184
          24   -0.0037   -0.0168   -0.0033    0.0035    0.0135    0.0288    0.0000   -0.0050
          25   -0.0016   -0.0002   -0.0028   -0.0048   -0.0010    0.0002    0.0252    0.0000
          26    0.0123   -0.0016    0.0077    0.0145   -0.0014   -0.0008    0.0203    0.0005
          27    0.0177   -0.0010    0.0025    0.0024    0.0005    0.0013   -0.0118    0.0005
          28    0.0031    0.0157   -0.0212    0.0090   -0.0016    0.0252    0.0000   -0.0033
          29    0.0015    0.0028   -0.0029    0.0002   -0.0139    0.0026   -0.0013    0.0018
          30    0.0035    0.0123   -0.0196    0.0076   -0.0056    0.0183    0.0001    0.0004
          31    0.0006    0.0134    0.0222   -0.0087    0.0020   -0.0250    0.0009    0.0023
          32   -0.0006    0.0008    0.0048   -0.0006    0.0109   -0.0014    0.0016    0.0040
          33    0.0012    0.0122    0.0198   -0.0090   -0.0065   -0.0200   -0.0006   -0.0008
          34   -0.0046    0.0536    0.0051    0.0080    0.0063    0.0012    0.0046    0.0129
          35   -0.0317    0.0284    0.0108    0.0333    0.0185   -0.0140   -0.0385    0.0148
          36    0.0144   -0.0259   -0.0041   -0.0121   -0.0025    0.0030    0.0038   -0.0104
          37    0.0176    0.0713    0.0003   -0.0012    0.1187    0.0134    0.0280    0.0034
          38   -0.0088   -0.0065    0.1609   -0.0606   -0.0235    0.3064   -0.0068   -0.0836
          39   -0.0001   -0.0114   -0.0304    0.0076   -0.0627   -0.0629   -0.0077    0.0124
          40   -0.0063    0.0023   -0.0021   -0.0035   -0.0052    0.0018    0.0483    0.0019
          41    0.0554   -0.0090    0.0186    0.0312    0.0082   -0.0032   -0.0712   -0.0056
          42   -0.0195    0.0018   -0.0067   -0.0113    0.0016   -0.0003   -0.0191    0.0004
          43    0.0116   -0.0027    0.0009    0.0012    0.0034   -0.0006   -0.0397    0.0005
          44   -0.0517    0.0129    0.0002    0.0017   -0.0183    0.0032    0.1860   -0.0030
          45   -0.0040    0.0001   -0.0056   -0.0101   -0.0009    0.0012    0.0175    0.0003
          46    0.0131   -0.0031   -0.0025   -0.0048    0.0046   -0.0008   -0.0352    0.0003
          47    0.0894   -0.0099    0.0329    0.0569    0.0057   -0.0032   -0.0334   -0.0012
          48   -0.0497    0.0064   -0.0135   -0.0231   -0.0060    0.0021    0.0409    0.0002
          49    0.0030   -0.0011   -0.0018   -0.0033    0.0016   -0.0002   -0.0126    0.0001
          50    0.0231    0.0019    0.0245    0.0428   -0.0072    0.0003    0.0631   -0.0007
          51    0.0264   -0.0066   -0.0016   -0.0030    0.0076   -0.0018   -0.0581   -0.0004
          52   -0.0119   -0.0007   -0.0148   -0.0265    0.0046    0.0001   -0.0401    0.0007
          53   -0.0564    0.0039   -0.0375   -0.0665    0.0051    0.0018   -0.0503    0.0017
          54    0.1096   -0.0089    0.0634    0.1118   -0.0055   -0.0035    0.0608   -0.0029
          55    0.0577    0.0180   -0.0240   -0.0605    0.0289    0.0046    0.0131   -0.0029
          56    0.0661   -0.0036   -0.0274   -0.0670    0.0169    0.0031    0.0193   -0.0030
          57   -0.1042    0.0269    0.0419    0.0994   -0.0121   -0.0032   -0.0314    0.0018
          58   -0.0053   -0.0137    0.0019    0.0062   -0.0142   -0.0044    0.0010   -0.0011
          59   -0.0484   -0.0570    0.0201    0.0510   -0.0606   -0.0118   -0.0021   -0.0074
          60    0.0029    0.0778   -0.0033   -0.0112    0.0573    0.0088   -0.0116    0.0030
          61   -0.0111    0.0519    0.0044    0.0006    0.0333    0.0054   -0.0075   -0.0068
          62   -0.0667    0.0581    0.0269    0.0503    0.0232    0.0038   -0.0210   -0.0126
          63    0.0237   -0.0375   -0.0104   -0.0136   -0.0222   -0.0048    0.0085    0.0091
          64    0.0242    0.0979   -0.0322    0.0019   -0.1137    0.0631   -0.0079   -0.1173
          65   -0.0076    0.0128   -0.0196    0.0180    0.0712   -0.0142    0.0055    0.0581
          66    0.0023    0.0706   -0.0351    0.0269    0.0688    0.0538    0.0090    0.1229
          67    0.0202    0.1005    0.0348   -0.0268   -0.1046   -0.0871   -0.0061    0.1340
          68    0.0069    0.0199   -0.0062   -0.0045   -0.0391   -0.0412   -0.0025    0.0213
          69    0.0010    0.0655    0.0499   -0.0074    0.0972   -0.0251    0.0127   -0.1642
          70   -0.0094    0.0001   -0.0104   -0.0253   -0.0042    0.0082   -0.0333   -0.0015
          71    0.0602   -0.0088    0.0201    0.0350    0.0109   -0.0037   -0.0758    0.0008
          72    0.0010    0.0019    0.0002    0.0013   -0.0035   -0.0003    0.0476    0.0008
          73    0.0247   -0.0155   -0.0190   -0.0320    0.0023    0.0024    0.0655    0.0066
          74   -0.0306   -0.0090    0.0170    0.0282   -0.0017    0.0002   -0.0268   -0.0130
          75   -0.0201    0.0110    0.0031    0.0058   -0.0046   -0.0006   -0.0105    0.0012
          76   -0.0149   -0.0747    0.1041   -0.0444   -0.0107   -0.0463   -0.0021    0.0535
          77    0.0035   -0.0133    0.0368   -0.0211   -0.0732    0.0421   -0.0071    0.1163
          78   -0.0174   -0.0598    0.0582   -0.0201    0.0591   -0.1037    0.0051   -0.0820
          79   -0.0018   -0.0675   -0.1093    0.0404   -0.0209    0.0432   -0.0026   -0.0779
          80   -0.0087   -0.0134    0.0153    0.0054    0.0745    0.0934    0.0073    0.1970
          81   -0.0055   -0.0551   -0.0695    0.0303    0.0149    0.0859    0.0002    0.0536


   Root No.      33        34        35        36        37        38        39        40

[...]
 FREQ.      1417.85        C 10 --  C 11          +17.5% ( 65.8%)   100.0%
 T-DIPOLE    0.1750        C  7 --  C 11           +8.0% ( 44.5%)    99.8%
 TRAVEL      0.0723        C  8 --  C 10           +8.0% ( 44.3%)    99.9%
 RED. MASS   1.3346        C  7 --  C 10           +7.7% ( 43.6%)     0.1%
 EFF. MASS   9.1009

 VIBRATION   56   56A       ATOM PAIR        ENERGY CONTRIBUTION    RADIAL
 FREQ.      1426.59        C  3 --  C  5          +16.7% ( 59.3%)    87.7%
 T-DIPOLE    0.1261        C  3 --  C  9          +11.1% ( 48.3%)    78.1%
 TRAVEL      0.0780        C  5 --  H 16           +9.8% ( 45.3%)     3.0%
 RED. MASS   1.2593        C  3 --  H 14           +9.5% ( 44.8%)     0.0%
 EFF. MASS   7.7643

 VIBRATION   57   57A       ATOM PAIR        ENERGY CONTRIBUTION    RADIAL
 FREQ.      1732.67        C  7 --  C 10          +18.4% ( 73.1%)    99.9%
 T-DIPOLE    0.4187        C  8 --  C 11          +18.0% ( 72.3%)    99.9%
 TRAVEL      0.0569        C  8 --  C 10          +10.7% ( 55.7%)    25.8%
 RED. MASS   2.7224        C  7 --  C 11          +10.7% ( 55.7%)    26.2%
 EFF. MASS  12.0251

 VIBRATION   58   58A       ATOM PAIR        ENERGY CONTRIBUTION    RADIAL
 FREQ.      1789.94        C  8 --  C 11          +18.1% ( 70.6%)    99.8%
 T-DIPOLE    0.3224        C  7 --  C 10          +17.7% ( 69.7%)    99.8%
 TRAVEL      0.0565        C 10 --  C 11          +12.1% ( 57.7%)     0.0%
 RED. MASS   2.6853        C  8 --  C 10          +10.9% ( 54.7%)    68.1%
 EFF. MASS  11.7994        C  7 --  C 11          +10.9% ( 54.6%)    64.3%

 VIBRATION   59   59A       ATOM PAIR        ENERGY CONTRIBUTION    RADIAL
 FREQ.      1889.05        C  6 --  C  9          +44.1% ( 97.9%)    96.7%
 T-DIPOLE    0.2369        C  3 --  C  9          +14.3% ( 55.8%)    54.8%
 TRAVEL      0.0550        C  1 --  C  6          +14.0% ( 55.1%)    53.3%
 RED. MASS   5.3934        C  9 --  H 24          +13.4% ( 54.0%)     3.7%
 EFF. MASS  11.8000        C  6 --  H 25          +13.2% ( 53.6%)     3.9%

 VIBRATION   60   60A       ATOM PAIR        ENERGY CONTRIBUTION    RADIAL
 FREQ.      2873.72        C  1 --  H 12          +87.3% ( 95.1%)   100.0%
 T-DIPOLE    0.0313        C  2 --  H 13           +9.3% ( 31.0%)    99.9%
 TRAVEL      0.1272        C  1 --  C  2           +1.1% ( 10.9%)     9.0%
 RED. MASS   0.7673        C  1 --  C  6           +1.0% ( 10.0%)    12.4%
 EFF. MASS   1.4492

 VIBRATION   61   61A       ATOM PAIR        ENERGY CONTRIBUTION    RADIAL
 FREQ.      2887.87        C  2 --  H 13          +87.9% ( 95.1%)   100.0%
 T-DIPOLE    0.2044        C  1 --  H 12           +9.2% ( 30.7%)   100.0%
 TRAVEL      0.1277        C  1 --  C  2           +0.9% (  9.7%)    10.1%
 RED. MASS   0.7695        C  2 --  C  7           +0.9% (  9.6%)    10.6%
 EFF. MASS   1.4318

 VIBRATION   62   62A       ATOM PAIR        ENERGY CONTRIBUTION    RADIAL
 FREQ.      2946.12        C  3 --  H 15          +51.3% ( 74.4%)    96.7%
 T-DIPOLE    0.0196        C  3 --  H 14          +45.9% ( 70.4%)    96.2%
 TRAVEL      0.1217        C  3 --  C  5           +1.2% ( 11.2%)     0.0%
 RED. MASS   0.5151        C  3 --  C  9           +1.2% ( 11.2%)     0.2%
 EFF. MASS   1.5444

 VIBRATION   63   63A       ATOM PAIR        ENERGY CONTRIBUTION    RADIAL
 FREQ.      3025.25        C  3 --  H 14          +50.0% ( 69.8%)    98.0%
 T-DIPOLE    0.0487        C  3 --  H 15          +45.7% ( 66.7%)    97.4%
 TRAVEL      0.1317        C  9 --  H 24           +1.7% ( 13.0%)    99.8%
 RED. MASS   0.4585        C  3 --  C  9           +0.7% (  8.1%)    29.7%
 EFF. MASS   1.2858

 VIBRATION   64   64A       ATOM PAIR        ENERGY CONTRIBUTION    RADIAL
 FREQ.      3034.96        C  9 --  H 24          +60.3% ( 78.4%)   100.0%
 T-DIPOLE    0.3454        C  6 --  H 25          +37.4% ( 61.7%)   100.0%
 TRAVEL      0.1245        C  6 --  C  9           +0.8% (  8.9%)    38.2%
 RED. MASS   0.4869        C  3 --  C  9           +0.8% (  8.8%)    18.9%
 EFF. MASS   1.4336

 VIBRATION   65   65A       ATOM PAIR        ENERGY CONTRIBUTION    RADIAL
 FREQ.      3037.05        C  6 --  H 25          +59.0% ( 78.1%)    99.9%
 T-DIPOLE    0.0435        C  9 --  H 24          +35.2% ( 60.4%)    99.9%
 TRAVEL      0.1184        C  6 --  C  9           +2.2% ( 15.0%)    40.4%
 RED. MASS   0.4735        C  3 --  H 14           +1.5% ( 12.6%)    99.4%
 EFF. MASS   1.5840

 VIBRATION   66   66A       ATOM PAIR        ENERGY CONTRIBUTION    RADIAL
 FREQ.      3077.76        C  4 --  H 21          +49.8% ( 72.8%)    97.2%
 T-DIPOLE    0.0254        C  4 --  H 19          +48.0% ( 71.5%)    96.9%
 TRAVEL      0.1207        C  1 --  C  4           +1.0% ( 10.4%)     0.0%
 RED. MASS   0.5076        C  4 --  H 20           +1.0% ( 10.2%)     0.5%
 EFF. MASS   1.5050

 VIBRATION   67   67A       ATOM PAIR        ENERGY CONTRIBUTION    RADIAL
 FREQ.      3081.43        C  5 --  H 16          +60.2% ( 80.0%)    98.3%
 T-DIPOLE    0.0069        C  5 --  H 17          +35.3% ( 61.3%)    94.4%
 TRAVEL      0.1207        C  5 --  H 18           +3.4% ( 18.9%)    41.1%
 RED. MASS   0.5152        C  3 --  C  5           +1.0% ( 10.2%)     0.0%
 EFF. MASS   1.5016

 VIBRATION   68   68A       ATOM PAIR        ENERGY CONTRIBUTION    RADIAL
 FREQ.      3084.01        C  4 --  H 20          +60.6% ( 80.3%)    98.7%
 T-DIPOLE    0.0314        C  4 --  H 19          +20.1% ( 46.3%)    87.0%
 TRAVEL      0.1205        C  4 --  H 21          +18.2% ( 44.1%)    85.2%
 RED. MASS   0.4706        C  1 --  C  4           +1.0% ( 10.4%)     0.1%
 EFF. MASS   1.5064

 VIBRATION   69   69A       ATOM PAIR        ENERGY CONTRIBUTION    RADIAL
 FREQ.      3086.15        C  5 --  H 18          +61.0% ( 80.6%)    98.6%
 T-DIPOLE    0.0049        C  5 --  H 17          +30.2% ( 56.7%)    92.6%
 TRAVEL      0.1205        C  5 --  H 16           +7.4% ( 28.1%)    65.7%
 RED. MASS   0.4971        C  3 --  C  5           +1.0% ( 10.3%)     0.0%
 EFF. MASS   1.5043

 VIBRATION   70   70A       ATOM PAIR        ENERGY CONTRIBUTION    RADIAL
 FREQ.      3129.21        C  7 --  H 22          +46.5% ( 69.9%)   100.0%
 T-DIPOLE    0.2922        C 10 --  H 26          +37.4% ( 62.7%)   100.0%
 TRAVEL      0.1208        C 11 --  H 27           +6.4% ( 26.0%)   100.0%
 RED. MASS   0.3685        C  8 --  H 23           +5.2% ( 23.4%)   100.0%
 EFF. MASS   1.4762

 VIBRATION   71   71A       ATOM PAIR        ENERGY CONTRIBUTION    RADIAL
 FREQ.      3131.09        C  8 --  H 23          +46.5% ( 69.8%)   100.0%
 T-DIPOLE    0.4549        C 11 --  H 27          +37.6% ( 62.8%)   100.0%
 TRAVEL      0.1209        C  7 --  H 22           +8.3% ( 29.5%)   100.0%
 RED. MASS   0.3696        C 10 --  H 26           +3.5% ( 19.1%)   100.0%
 EFF. MASS   1.4730

 VIBRATION   72   72A       ATOM PAIR        ENERGY CONTRIBUTION    RADIAL
 FREQ.      3142.30        C 10 --  H 26          +28.4% ( 54.9%)    99.9%
 T-DIPOLE    0.5211        C  7 --  H 22          +23.7% ( 50.1%)    99.9%
 TRAVEL      0.1157        C  8 --  H 23          +21.7% ( 47.9%)    99.9%
 RED. MASS   0.2369        C 11 --  H 27          +20.3% ( 46.3%)    99.9%
 EFF. MASS   1.6042

 VIBRATION   73   73A       ATOM PAIR        ENERGY CONTRIBUTION    RADIAL
 FREQ.      3153.09        C 11 --  H 27          +30.4% ( 56.8%)   100.0%
 T-DIPOLE    0.2555        C 10 --  H 26          +25.3% ( 51.8%)   100.0%
 TRAVEL      0.1121        C  8 --  H 23          +21.5% ( 47.7%)    99.9%
 RED. MASS   0.2461        C  7 --  H 22          +16.0% ( 41.2%)    99.9%
 EFF. MASS   1.7010

 VIBRATION   74   74A       ATOM PAIR        ENERGY CONTRIBUTION    RADIAL
 FREQ.      3178.22        C  4 --  H 20          +38.1% ( 59.4%)    97.8%
 T-DIPOLE    0.0293        C  4 --  H 21          +30.7% ( 53.3%)    96.6%
 TRAVEL      0.1366        C  4 --  H 19          +30.7% ( 53.3%)    96.6%
 RED. MASS   0.3288        C  1 --  C  4           +0.3% (  5.0%)    98.8%
 EFF. MASS   1.1363

 VIBRATION   75   75A       ATOM PAIR        ENERGY CONTRIBUTION    RADIAL
 FREQ.      3182.91        C  5 --  H 18          +34.7% ( 56.7%)    97.3%
 T-DIPOLE    0.0198        C  5 --  H 17          +33.7% ( 55.9%)    97.2%
 TRAVEL      0.1366        C  5 --  H 16          +31.2% ( 53.8%)    96.8%
 RED. MASS   0.3275        C  3 --  C  5           +0.3% (  5.1%)    99.8%
 EFF. MASS   1.1360

 SYMMETRY NUMBER FOR POINT-GROUP C1  =  1


          SYSTEM IS A GROUND STATE


    NULL



          MOLECULE IS NOT LINEAR

          THERE ARE 75 GENUINE VIBRATIONS IN THIS SYSTEM
          THIS THERMODYNAMICS CALCULATION IS LIMITED TO
          MOLECULES WHICH HAVE NO INTERNAL ROTATIONS




                    CALCULATED THERMODYNAMIC PROPERTIES
                                          *
   TEMP. (K)   PARTITION FUNCTION   H.O.F.    ENTHALPY  HEAT CAPACITY ENTROPY
                                   KCAL/MOL   CAL/MOLE    CAL/K/MOL  CAL/K/MOL


 298.00  VIB.     0.5520D+04                  5664.2409    38.4055    36.1296
         ROT.     0.1206D+07                   888.2813     2.9808    30.8081
         INT.     0.6660D+10                  6552.5222    41.3863    66.9377
         TRA.     0.1745D+28                  1480.4688     4.9680    40.8894
         TOT.                       27.584    8032.9911    46.3543   107.8271

 200.00  VIB.     0.2357D+03                  2581.7190    24.9702    23.7642
         ROT.     0.6633D+06                   596.1620     2.9808    29.6194
         INT.     0.1564D+09                  3177.8809    27.9510    53.3836
         TRA.     0.9595D+27                   993.6033     4.9680    38.9082
         TOT.                       23.723    4171.4842    32.9190    92.2918

 210.00  VIB.     0.3260D+03                  2837.5218    26.1967    25.0120
         ROT.     0.7137D+06                   625.9700     2.9808    29.7649
         INT.     0.2327D+09                  3463.4918    29.1775    54.7768
         TRA.     0.1032D+28                  1043.2834     4.9680    39.1506
         TOT.                       24.058    4506.7752    34.1455    93.9275

 220.00  VIB.     0.4505D+03                  3105.7802    27.4613    26.2597
         ROT.     0.7653D+06                   655.7781     2.9808    29.9035
         INT.     0.3448D+09                  3761.5583    30.4421    56.1632
         TRA.     0.1107D+28                  1092.9636     4.9680    39.3817
         TOT.                       24.406    4854.5219    35.4102    95.5449

 230.00  VIB.     0.6220D+03                  3386.8741    28.7636    27.5090
         ROT.     0.8181D+06                   685.5862     2.9808    30.0360
         INT.     0.5088D+09                  4072.4603    31.7444    57.5450
         TRA.     0.1183D+28                  1142.6437     4.9680    39.6026
         TOT.                       24.767    5215.1041    36.7124    97.1476

 240.00  VIB.     0.8581D+03                  3681.1726    30.1019    28.7613
         ROT.     0.8720D+06                   715.3943     2.9808    30.1629
         INT.     0.7483D+09                  4396.5670    33.0827    58.9242
         TRA.     0.1261D+28                  1192.3239     4.9680    39.8140
         TOT.                       25.140    5588.8909    38.0507    98.7382

 250.00  VIB.     0.1183D+04                  3989.0232    31.4735    30.0178
         ROT.     0.9271D+06                   745.2024     2.9808    30.2846
         INT.     0.1097D+10                  4734.2256    34.4543    60.3024
         TRA.     0.1341D+28                  1242.0041     4.9680    40.0168
         TOT.                       25.528    5976.2297    39.4224   100.3192

 260.00  VIB.     0.1631D+04                  4310.7434    32.8752    31.2795
         ROT.     0.9832D+06                   775.0105     2.9808    30.4015
         INT.     0.1604D+10                  5085.7540    35.8560    61.6809
         TRA.     0.1422D+28                  1291.6842     4.9680    40.2117
         TOT.                       25.929    6377.4382    40.8241   101.8926

 270.00  VIB.     0.2248D+04                  4646.6152    34.3032    32.5469
         ROT.     0.1040D+07                   804.8186     2.9808    30.5140
         INT.     0.2339D+10                  5451.4339    37.2840    63.0609
         TRA.     0.1505D+28                  1341.3644     4.9680    40.3992
         TOT.                       26.344    6792.7982    42.2520   103.4600

 280.00  VIB.     0.3099D+04                  4996.8806    35.7532    33.8206
         ROT.     0.1099D+07                   834.6267     2.9808    30.6224
         INT.     0.3405D+10                  5831.5073    38.7340    64.4429
         TRA.     0.1589D+28                  1391.0445     4.9680    40.5798
         TOT.                       26.774    7222.5519    43.7021   105.0228

 290.00  VIB.     0.4270D+04                  5361.7395    37.2212    35.1007
         ROT.     0.1158D+07                   864.4348     2.9808    30.7270
         INT.     0.4946D+10                  6226.1743    40.2020    65.8277
         TRA.     0.1675D+28                  1440.7247     4.9680    40.7542
         TOT.                       27.218    7666.8990    45.1700   106.5819

 300.00  VIB.     0.5886D+04                  5741.3490    38.7027    36.3875
         ROT.     0.1219D+07                   894.2429     2.9808    30.8280
         INT.     0.7173D+10                  6635.5919    41.6835    67.2156
         TRA.     0.1763D+28                  1490.4049     4.9680    40.9226
         TOT.                       27.678    8125.9968    46.6515   108.1382

 310.00  VIB.     0.8115D+04                  6135.8238    40.1935    37.6809
         ROT.     0.1280D+07                   924.0510     2.9808    30.9258
         INT.     0.1039D+11                  7059.8748    43.1743    68.6067
         TRA.     0.1851D+28                  1540.0850     4.9680    41.0855
         TOT.                       28.151    8599.9599    48.1424   109.6921

 320.00  VIB.     0.1119D+05                  6545.2374    41.6897    38.9806
         ROT.     0.1343D+07                   953.8591     2.9808    31.0204
         INT.     0.1503D+11                  7499.0965    44.6706    70.0010
         TRA.     0.1942D+28                  1589.7652     4.9680    41.2432
         TOT.                       28.640    9088.8617    49.6386   111.2442

 330.00  VIB.     0.1544D+05                  6969.6239    43.1875    40.2864
         ROT.     0.1406D+07                   983.6672     2.9808    31.1121
         INT.     0.2171D+11                  7953.2911    46.1683    71.3985
         TRA.     0.2034D+28                  1639.4454     4.9680    41.3961
         TOT.                       29.144    9592.7365    51.1363   112.7946

 340.00  VIB.     0.2131D+05                  7408.9810    44.6833    41.5979
         ROT.     0.1470D+07                  1013.4753     2.9808    31.2011
         INT.     0.3134D+11                  8422.4563    47.6641    72.7990
         TRA.     0.2127D+28                  1689.1255     4.9680    41.5444
         TOT.                       29.663   10111.5818    52.6321   114.3434

 350.00  VIB.     0.2943D+05                  7863.2725    46.1739    42.9146
         ROT.     0.1536D+07                  1043.2834     2.9808    31.2875
         INT.     0.4520D+11                  8906.5559    49.1547    74.2022
         TRA.     0.2221D+28                  1738.8057     4.9680    41.6884
         TOT.                       30.197   10645.3616    54.1227   115.8906

 360.00  VIB.     0.4067D+05                  8332.4312    47.6563    44.2362
         ROT.     0.1602D+07                  1073.0915     2.9808    31.3715
         INT.     0.6515D+11                  9405.5227    50.6371    75.6077
         TRA.     0.2317D+28                  1788.4859     4.9680    41.8284
         TOT.                       30.746   11194.0085    55.6051   117.4361

 370.00  VIB.     0.5622D+05                  8816.3623    49.1280    45.5620
         ROT.     0.1669D+07                  1102.8996     2.9808    31.4532
         INT.     0.9384D+11                  9919.2620    52.1088    77.0152
         TRA.     0.2414D+28                  1838.1660     4.9680    41.9645
         TOT.                       31.309   11757.4280    57.0768   118.9797

 380.00  VIB.     0.7776D+05                  9314.9467    50.5866    46.8916
         ROT.     0.1737D+07                  1132.7077     2.9808    31.5327
         INT.     0.1351D+12                 10447.6544    53.5674    78.4243
         TRA.     0.2513D+28                  1887.8462     4.9680    42.0970
         TOT.                       31.887   12335.5005    58.5354   120.5212

 390.00  VIB.     0.1076D+06                  9828.0432    52.0301    48.2243
         ROT.     0.1806D+07                  1162.5158     2.9808    31.6101
         INT.     0.1944D+12                 10990.5590    55.0109    79.8344
         TRA.     0.2613D+28                  1937.5263     4.9680    42.2260
         TOT.                       32.480   12928.0853    59.9789   122.0604

 400.00  VIB.     0.1490D+06                 10355.4924    53.4568    49.5596
         ROT.     0.1876D+07                  1192.3239     2.9808    31.6856
         INT.     0.2795D+12                 11547.8163    56.4376    81.2452
         TRA.     0.2714D+28                  1987.2065     4.9680    42.3518
         TOT.                       33.087   13535.0228    61.4057   123.5970

   *: NOTE: HEATS OF FORMATION ARE RELATIVE TO THE
            ELEMENTS IN THEIR STANDARD STATE AT 298K
              (=  Standard Enthalpy of Formation).

            Hvib:  Zero-point energy is not included.
                   frequencies of less than zero cm-1 are not included.
            Hrot = (3/2)RT
            Htra = (3/2)RT + pV = (5/2)RT

            Heat capacity is Cp, not Cv

           For more information, see: HTTP://OpenMOPAC.net/Manual/thermochemistry.html


           FORCE CONSTANT IN CARTESIAN COORDINATES (Millidynes/A)

    ATOM   CHEMICAL       X               Y               Z
   NUMBER   SYMBOL  FORCE CONSTANT  FORCE CONSTANT  FORCE CONSTANT

      1       C        7.970679        8.711451        8.487908
      2       C        8.550043        7.894781        8.942678
      3       C        8.142893        8.817955        8.465278
      4       C        8.373569        8.335741        8.074537
      5       C        8.218427        8.430074        8.203191
      6       C        7.638183        9.888533        9.726271
      7       C        6.764782       10.624795        9.336586
      8       C        6.870606       12.176940        7.741177
      9       C        7.439205        9.997805        9.808573
     10       C        7.530105       10.202847        9.730377
     11       C        7.517806        9.998048        9.955840
     12       H        1.095794        0.964578        3.973936
     13       H        1.143066        0.713710        4.028079
     14       H        1.546939        1.210299        3.644534
     15       H        4.741112        0.711694        0.833672
     16       H        1.654621        1.140098        3.993099
     17       H        5.164792        0.748030        0.867930
     18       H        1.353585        4.384402        1.058951
     19       H        1.101839        4.662370        0.993295
     20       H        5.398825        0.696365        0.693644
     21       H        1.157720        0.896461        4.721704
     22       H        0.667730        4.435785        1.323401
     23       H        0.711013        5.145005        0.575306
     24       H        0.929918        1.248446        4.036197
     25       H        0.948191        1.247884        4.016384
     26       H        1.864530        2.706907        1.889069
     27       H        1.827000        1.562478        3.072932



 TOTAL CPU TIME:             6.15 SECONDS

 == MOPAC DONE ==
