 *******************************************************************************
 ** Site#: 14399           For non-commercial use only        Version 13.159M **
 *******************************************************************************
 ** Cite this work as: MOPAC2012, James J. P. Stewart, Stewart Computational  **
 ** Chemistry, Version 13.159M web: HTTP://OpenMOPAC.net  Days remaining:   6 **
 *******************************************************************************
 **                                                                           **
 **                                MOPAC2012                                  **
 **                                                                           **
 *******************************************************************************

                            PM3 CALCULATION RESULTS


 *******************************************************************************
 *  CALCULATION DONE:                                Mon Jun  2 11:12:53 2014  *
 *  PM3      - The PM3 Hamiltonian to be used
 *  PRECISE  - CRITERIA TO BE INCREASED BY 100 TIMES
 *  NOSYM    - POINT-GROUP SYMMETRY SET TO C1
 *  T=       - A TIME OF 172800.0 SECONDS REQUESTED
 *  DUMP=N   - RESTART FILE WRITTEN EVERY  7200.000 SECONDS
 *******************************************************************************
pm3  precise nosym
 InChI=1S/C6H8/c1-6-4-2-3-5-6/h2-6H,1H3

   ATOM   CHEMICAL          X               Y               Z
  NUMBER   SYMBOL      (ANGSTROMS)     (ANGSTROMS)     (ANGSTROMS)
 
     1       C         -0.54620000  *  -0.02710000  *  -0.48160000  *
     2       C         -1.69300000  *  -0.02870000  *   0.52530000  *
     3       C          0.36040000  *   1.15130000  *  -0.30500000  *
     4       C          0.41900000  *  -1.14640000  *  -0.24190000  *
     5       C          1.59260000  *   0.76550000  *  -0.01880000  *
     6       C          1.62950000  *  -0.68330000  *   0.02100000  *
     7       H         -0.93760000  *  -0.06570000  *  -1.52420000  *
     8       H         -2.31000000  *  -0.94800000  *   0.40300000  *
     9       H         -2.35580000  *   0.84980000  *   0.35360000  *
    10       H         -1.32250000  *   0.00950000  *   1.57600000  *
    11       H          0.05820000  *   2.18910000  *  -0.40330000  *
    12       H          0.17020000  *  -2.20220000  *  -0.28280000  *
    13       H          2.43290000  *   1.43010000  *   0.15200000  *
    14       H          2.50230000  *  -1.29390000  *   0.22680000  *
 


          CARTESIAN COORDINATES 

    NO.       ATOM         X         Y         Z

     1         C       -0.5462   -0.0271   -0.4816
     2         C       -1.6930   -0.0287    0.5253
     3         C        0.3604    1.1513   -0.3050
     4         C        0.4190   -1.1464   -0.2419
     5         C        1.5926    0.7655   -0.0188
     6         C        1.6295   -0.6833    0.0210
     7         H       -0.9376   -0.0657   -1.5242
     8         H       -2.3100   -0.9480    0.4030
     9         H       -2.3558    0.8498    0.3536
    10         H       -1.3225    0.0095    1.5760
    11         H        0.0582    2.1891   -0.4033
    12         H        0.1702   -2.2022   -0.2828
    13         H        2.4329    1.4301    0.1520
    14         H        2.5023   -1.2939    0.2268

  H: (PM3): J. J. P. STEWART, J. COMP. CHEM. 10, 209 (1989).
  C: (PM3): J. J. P. STEWART, J. COMP. CHEM. 10, 209 (1989).

           Empirical Formula: C6 H8  =    14 atoms



      MOLECULAR POINT GROUP   :   C1  


      RHF CALCULATION, NO. OF DOUBLY OCCUPIED LEVELS =   16

      Geometry optimization using EF

          DIAGONAL MATRIX USED AS START HESSIAN

 CYCLE:     1 TIME:   0.004 TIME LEFT:  2.00D  GRAD.:   107.245 HEAT: 30.46166
 CYCLE:     2 TIME:   0.007 TIME LEFT:  2.00D  GRAD.:    65.085 HEAT: 28.92962
 CYCLE:     3 TIME:   0.003 TIME LEFT:  2.00D  GRAD.:    21.172 HEAT: 27.84885
 CYCLE:     4 TIME:   0.005 TIME LEFT:  2.00D  GRAD.:    26.020 HEAT: 27.69581
 CYCLE:     5 TIME:   0.003 TIME LEFT:  2.00D  GRAD.:    21.694 HEAT: 27.49547
 CYCLE:     6 TIME:   0.005 TIME LEFT:  2.00D  GRAD.:    17.519 HEAT: 27.35875
 CYCLE:     7 TIME:   0.003 TIME LEFT:  2.00D  GRAD.:    16.924 HEAT: 27.22054
 CYCLE:     8 TIME:   0.003 TIME LEFT:  2.00D  GRAD.:    15.405 HEAT: 27.09095
 CYCLE:     9 TIME:   0.003 TIME LEFT:  2.00D  GRAD.:    18.126 HEAT: 27.07745
 CYCLE:    10 TIME:   0.003 TIME LEFT:  2.00D  GRAD.:    17.949 HEAT: 27.06159
 CYCLE:    11 TIME:   0.003 TIME LEFT:  2.00D  GRAD.:    14.747 HEAT: 27.05342
 CYCLE:    12 TIME:   0.003 TIME LEFT:  2.00D  GRAD.:     3.865 HEAT: 26.99330
 CYCLE:    13 TIME:   0.005 TIME LEFT:  2.00D  GRAD.:     2.800 HEAT: 26.98899
 CYCLE:    14 TIME:   0.003 TIME LEFT:  2.00D  GRAD.:     4.203 HEAT: 26.98733
 CYCLE:    15 TIME:   0.003 TIME LEFT:  2.00D  GRAD.:     1.937 HEAT: 26.97933
 CYCLE:    16 TIME:   0.003 TIME LEFT:  2.00D  GRAD.:     1.711 HEAT: 26.97244
 CYCLE:    17 TIME:   0.003 TIME LEFT:  2.00D  GRAD.:     2.358 HEAT: 26.96699
 CYCLE:    18 TIME:   0.003 TIME LEFT:  2.00D  GRAD.:     2.614 HEAT: 26.96585
 CYCLE:    19 TIME:   0.002 TIME LEFT:  2.00D  GRAD.:     1.755 HEAT: 26.96403
 CYCLE:    20 TIME:   0.003 TIME LEFT:  2.00D  GRAD.:     1.481 HEAT: 26.96212
 CYCLE:    21 TIME:   0.003 TIME LEFT:  2.00D  GRAD.:     1.306 HEAT: 26.96017
 CYCLE:    22 TIME:   0.003 TIME LEFT:  2.00D  GRAD.:     1.425 HEAT: 26.95593
 CYCLE:    23 TIME:   0.003 TIME LEFT:  2.00D  GRAD.:     1.016 HEAT: 26.95261
 CYCLE:    24 TIME:   0.003 TIME LEFT:  2.00D  GRAD.:     0.836 HEAT: 26.95118
 CYCLE:    25 TIME:   0.003 TIME LEFT:  2.00D  GRAD.:     0.938 HEAT: 26.94949
 CYCLE:    26 TIME:   0.003 TIME LEFT:  2.00D  GRAD.:     0.969 HEAT: 26.94845
 CYCLE:    27 TIME:   0.003 TIME LEFT:  2.00D  GRAD.:     0.578 HEAT: 26.94768
 CYCLE:    28 TIME:   0.002 TIME LEFT:  2.00D  GRAD.:     0.340 HEAT: 26.94729
 CYCLE:    29 TIME:   0.003 TIME LEFT:  2.00D  GRAD.:     0.276 HEAT: 26.94713
 CYCLE:    30 TIME:   0.003 TIME LEFT:  2.00D  GRAD.:     0.217 HEAT: 26.94708
 CYCLE:    31 TIME:   0.002 TIME LEFT:  2.00D  GRAD.:     0.090 HEAT: 26.94705
 CYCLE:    32 TIME:   0.003 TIME LEFT:  2.00D  GRAD.:     0.074 HEAT: 26.94703
 CYCLE:    33 TIME:   0.003 TIME LEFT:  2.00D  GRAD.:     0.058 HEAT: 26.94702
 CYCLE:    34 TIME:   0.003 TIME LEFT:  2.00D  GRAD.:     0.032 HEAT: 26.94702

     RMS GRADIENT =  0.03212  IS LESS THAN CUTOFF =  0.05000



 -------------------------------------------------------------------------------
pm3  precise nosym
 InChI=1S/C6H8/c1-6-4-2-3-5-6/h2-6H,1H3



     GEOMETRY OPTIMISED USING EIGENVECTOR FOLLOWING (EF).     
     SCF FIELD WAS ACHIEVED                                   


                              PM3 CALCULATION
                                                       MOPAC2012 (Version: 13.159M)
                                                       Mon Jun  2 11:12:54 2014
                                                       No. of days left =   6




          FINAL HEAT OF FORMATION =         26.94702 KCAL/MOL =     112.74633 KJ/MOL


          TOTAL ENERGY            =       -833.33539 EV
          ELECTRONIC ENERGY       =      -3496.21859 EV  POINT GROUP:     C1  
          CORE-CORE REPULSION     =       2662.88320 EV
          COSMO AREA              =        127.37 SQUARE ANGSTROMS
          COSMO VOLUME            =        117.96 CUBIC ANGSTROMS

          GRADIENT NORM           =          0.03212
          IONIZATION POTENTIAL    =          9.236633 EV
          HOMO LUMO ENERGIES (EV) =         -9.237  0.320
          NO. OF FILLED LEVELS    =         16
          MOLECULAR WEIGHT        =         80.129

          MOLECULAR DIMENSIONS (Angstroms)

            Atom       Atom       Distance
            H    13    H     8     5.35010
            H    14    H    11     4.28107
            H    10    H     7     3.04552


          SCF CALCULATIONS        =         40
          COMPUTATION TIME        =          0.108 SECONDS




   ATOM   CHEMICAL          X               Y               Z
  NUMBER   SYMBOL      (ANGSTROMS)     (ANGSTROMS)     (ANGSTROMS)
 
     1       C         -0.54235881  *  -0.02639265  *  -0.45870027  *
     2       C         -1.70764207  *  -0.02968819  *   0.50553660  *
     3       C          0.35265866  *   1.17888995  *  -0.28916990  *
     4       C          0.41259762  *  -1.17342507  *  -0.22449403  *
     5       C          1.61514772  *   0.77391011  *  -0.03204482  *
     6       C          1.65248006  *  -0.69121427  *   0.00825022  *
     7       H         -0.90949325  *  -0.06465652  *  -1.51164979  *
     8       H         -2.31503271  *  -0.93587599  *   0.38608073  *
     9       H         -2.35990810  *   0.83683033  *   0.33800532  *
    10       H         -1.37019131  *   0.00714620  *   1.54919218  *
    11       H         -0.02158415  *   2.19669977  *  -0.37257871  *
    12       H          0.09069844  *  -2.21198761  *  -0.25133162  *
    13       H          2.49222554  *   1.39796879  *   0.12717713  *
    14       H          2.55993079  *  -1.26011713  *   0.20037971  *

           Empirical Formula: C6 H8  =    14 atoms



      MOLECULAR POINT GROUP   :   C1  


                  EIGENVALUES  
 -40.11887 -31.02100 -27.28536 -23.67342 -18.96291 -18.72814 -17.86614 -15.36144
 -14.15437 -13.96789 -13.83470 -13.17461 -12.29579 -12.11546 -11.04679  -9.23663
   0.32007   2.01951   3.33172   3.35835   3.64055   3.71098   4.03673   4.10758
   4.33423   4.51321   4.58009   4.72310   4.81794   5.77836   5.79891   6.15468


              NET ATOMIC CHARGES AND DIPOLE CONTRIBUTIONS

  ATOM NO.   TYPE          CHARGE      No. of ELECS.   s-Pop       p-Pop       
    1          C          -0.034269        4.0343     1.16260     2.87167
    2          C          -0.082353        4.0824     1.13229     2.95007
    3          C          -0.158424        4.1584     1.20981     2.94862
    4          C          -0.158428        4.1584     1.20981     2.94862
    5          C          -0.119005        4.1190     1.19252     2.92649
    6          C          -0.118999        4.1190     1.19251     2.92649
    7          H           0.088389        0.9116     0.91161
    8          H           0.038841        0.9612     0.96116
    9          H           0.038849        0.9612     0.96115
   10          H           0.045571        0.9544     0.95443
   11          H           0.116473        0.8835     0.88353
   12          H           0.116474        0.8835     0.88353
   13          H           0.113440        0.8866     0.88656
   14          H           0.113439        0.8866     0.88656
 DIPOLE           X         Y         Z       TOTAL
 POINT-CHG.    -0.452    -0.013    -0.058     0.456
 HYBRID         0.029    -0.001    -0.047     0.055
 SUM           -0.423    -0.014    -0.105     0.436


          ATOMIC ORBITAL ELECTRON POPULATIONS

    Atom      s        px        py        pz   
    1  C   1.16260   0.95434   0.92668   0.99065
    2  C   1.13229   0.95749   1.00633   0.98625
    3  C   1.20981   0.96127   0.97651   1.01084
    4  C   1.20981   0.96038   0.97793   1.01031
    5  C   1.19252   0.96868   0.95014   1.00767
    6  C   1.19251   0.97036   0.94811   1.00802
    7  H   0.91161
    8  H   0.96116
    9  H   0.96115
   10  H   0.95443
   11  H   0.88353
   12  H   0.88353
   13  H   0.88656
   14  H   0.88656
 *******************************************************************************
 ** Site#: 14399           For non-commercial use only        Version 13.159M **
 *******************************************************************************
 ** Cite this work as: MOPAC2012, James J. P. Stewart, Stewart Computational  **
 ** Chemistry, Version 13.159M web: HTTP://OpenMOPAC.net  Days remaining:   6 **
 *******************************************************************************
 **                                                                           **
 **                                MOPAC2012                                  **
 **                                                                           **
 *******************************************************************************

                            PM3 CALCULATION RESULTS


 *******************************************************************************
 *  CALCULATION DONE:                                Mon Jun  2 11:12:54 2014  *
 *  PM3      - The PM3 Hamiltonian to be used
 *  OLDGEO   - PREVIOUS GEOMETRY TO BE USED
 *  PRECISE  - CRITERIA TO BE INCREASED BY 100 TIMES
 *  NOSYM    - POINT-GROUP SYMMETRY SET TO C1
 *  T=       - A TIME OF 172800.0 SECONDS REQUESTED
 *  DUMP=N   - RESTART FILE WRITTEN EVERY  7200.000 SECONDS
 *  THERMO   - THERMODYNAMIC QUANTITIES TO BE CALCULATED
 *******************************************************************************
oldgeo thermo nosym precise  pm3

   ATOM   CHEMICAL          X               Y               Z
  NUMBER   SYMBOL      (ANGSTROMS)     (ANGSTROMS)     (ANGSTROMS)
 
     1       C         -0.54235881  *  -0.02639265  *  -0.45870027  *
     2       C         -1.70764207  *  -0.02968819  *   0.50553660  *
     3       C          0.35265866  *   1.17888995  *  -0.28916990  *
     4       C          0.41259762  *  -1.17342507  *  -0.22449403  *
     5       C          1.61514772  *   0.77391011  *  -0.03204482  *
     6       C          1.65248006  *  -0.69121427  *   0.00825022  *
     7       H         -0.90949325  *  -0.06465652  *  -1.51164979  *
     8       H         -2.31503271  *  -0.93587599  *   0.38608073  *
     9       H         -2.35990810  *   0.83683033  *   0.33800532  *
    10       H         -1.37019131  *   0.00714620  *   1.54919218  *
    11       H         -0.02158415  *   2.19669977  *  -0.37257871  *
    12       H          0.09069844  *  -2.21198761  *  -0.25133162  *
    13       H          2.49222554  *   1.39796879  *   0.12717713  *
    14       H          2.55993079  *  -1.26011713  *   0.20037971  *
 


          CARTESIAN COORDINATES 

    NO.       ATOM         X         Y         Z

     1         C       -0.5424   -0.0264   -0.4587
     2         C       -1.7076   -0.0297    0.5055
     3         C        0.3527    1.1789   -0.2892
     4         C        0.4126   -1.1734   -0.2245
     5         C        1.6151    0.7739   -0.0320
     6         C        1.6525   -0.6912    0.0083
     7         H       -0.9095   -0.0647   -1.5116
     8         H       -2.3150   -0.9359    0.3861
     9         H       -2.3599    0.8368    0.3380
    10         H       -1.3702    0.0071    1.5492
    11         H       -0.0216    2.1967   -0.3726
    12         H        0.0907   -2.2120   -0.2513
    13         H        2.4922    1.3980    0.1272
    14         H        2.5599   -1.2601    0.2004

  H: (PM3): J. J. P. STEWART, J. COMP. CHEM. 10, 209 (1989).
  C: (PM3): J. J. P. STEWART, J. COMP. CHEM. 10, 209 (1989).

           Empirical Formula: C6 H8  =    14 atoms



      MOLECULAR POINT GROUP   :   C1  


      RHF CALCULATION, NO. OF DOUBLY OCCUPIED LEVELS =   16



          HEAT OF FORMATION =      26.947021 KCALS/MOLE


          INTERNAL COORDINATE DERIVATIVES

   NUMBER  ATOM       BOND         ANGLE      DIHEDRAL

     1       C      0.003940    -0.004301    -0.001816
     2       C      0.007231    -0.007497     0.006066
     3       C     -0.008916    -0.001880     0.002448
     4       C      0.001519     0.001260     0.006062
     5       C     -0.000547    -0.012765    -0.009091
     6       C     -0.013055     0.010772     0.001093
     7       H     -0.001761     0.000666     0.000607
     8       H      0.003838    -0.005691    -0.002865
     9       H      0.008731     0.005307     0.004845
    10       H     -0.004543    -0.001290    -0.002932
    11       H     -0.000638     0.000498    -0.003263
    12       H      0.003629     0.002980     0.001871
    13       H     -0.004205     0.007498    -0.003364
    14       H      0.004777     0.004443     0.000340


          GRADIENT NORM =   0.03505


          TIME FOR SCF CALCULATION =    0.00

          TIME FOR DERIVATIVES     =    0.00

          MOLECULAR WEIGHT =   80.13



          ROTATIONAL CONSTANTS IN CM(-1)

          A =    0.23328343   B =    0.12027697   C =    0.08863636



           PRINCIPAL MOMENTS OF INERTIA IN UNITS OF 10**(-40)*GRAM-CM**2

          A =      119.9947   B =      232.7359   C =      315.8159


          ORIENTATION OF MOLECULE IN FORCE CALCULATION

    NO.       ATOM         X         Y         Z

     1          C       0.3568   -0.4299    0.6785
     2          C       1.8693   -0.4299    0.6785
     3          C      -0.2273    0.9634    0.6785
     4          C      -0.2271   -1.0250   -0.5814
     5          C      -1.0352    1.1167   -0.3929
     6          C      -1.0351   -0.1218   -1.1776
     7          H      -0.0316   -0.9897    1.5621
     8          H       2.2630   -1.4534    0.6371
     9          H       2.2631    0.0454    1.5859
    10          H       2.2746    0.1156   -0.1832
    11          H       0.0056    1.6910    1.4527
    12          H       0.0060   -2.0357   -0.9086
    13          H      -1.6108    1.9980   -0.6686
    14          H      -1.6105   -0.2488   -2.0924


    FIRST DERIVATIVES WILL BE USED IN THE CALCULATION OF SECOND DERIVATIVES

          ESTIMATED TIME TO COMPLETE CALCULATION =        0.64 SECONDS

    FOR POINT-GROUP C1   THERE ARE   1 UNIQUE SYMMETRY FUNCTIONS.

 STEP:   1 TIME =     0.01 SECS, INTEGRAL =      0.01 TIME LEFT: 172799.98
 STEP:   2 TIME =     0.01 SECS, INTEGRAL =      0.03 TIME LEFT: 172799.97
 STEP:   3 TIME =     0.01 SECS, INTEGRAL =      0.04 TIME LEFT: 172799.96
 STEP:   4 TIME =     0.01 SECS, INTEGRAL =      0.05 TIME LEFT: 172799.95
 STEP:   5 TIME =     0.01 SECS, INTEGRAL =      0.06 TIME LEFT: 172799.93
 STEP:   6 TIME =     0.01 SECS, INTEGRAL =      0.07 TIME LEFT: 172799.92
 STEP:   7 TIME =     0.01 SECS, INTEGRAL =      0.08 TIME LEFT: 172799.91
 STEP:   8 TIME =     0.01 SECS, INTEGRAL =      0.10 TIME LEFT: 172799.90
 STEP:   9 TIME =     0.01 SECS, INTEGRAL =      0.11 TIME LEFT: 172799.89
 STEP:  10 TIME =     0.01 SECS, INTEGRAL =      0.12 TIME LEFT: 172799.88
 STEP:  11 TIME =     0.01 SECS, INTEGRAL =      0.13 TIME LEFT: 172799.86
 STEP:  12 TIME =     0.01 SECS, INTEGRAL =      0.15 TIME LEFT: 172799.85
 STEP:  13 TIME =     0.01 SECS, INTEGRAL =      0.16 TIME LEFT: 172799.83
 STEP:  14 TIME =     0.02 SECS, INTEGRAL =      0.18 TIME LEFT: 172799.82
 STEP:  15 TIME =     0.01 SECS, INTEGRAL =      0.19 TIME LEFT: 172799.80
 STEP:  16 TIME =     0.01 SECS, INTEGRAL =      0.20 TIME LEFT: 172799.79
 STEP:  17 TIME =     0.01 SECS, INTEGRAL =      0.22 TIME LEFT: 172799.78
 STEP:  18 TIME =     0.01 SECS, INTEGRAL =      0.23 TIME LEFT: 172799.77
 STEP:  19 TIME =     0.01 SECS, INTEGRAL =      0.24 TIME LEFT: 172799.76
 STEP:  20 TIME =     0.01 SECS, INTEGRAL =      0.25 TIME LEFT: 172799.74
 STEP:  21 TIME =     0.01 SECS, INTEGRAL =      0.27 TIME LEFT: 172799.73
 STEP:  22 TIME =     0.01 SECS, INTEGRAL =      0.28 TIME LEFT: 172799.72
 STEP:  23 TIME =     0.01 SECS, INTEGRAL =      0.29 TIME LEFT: 172799.70
 STEP:  24 TIME =     0.01 SECS, INTEGRAL =      0.31 TIME LEFT: 172799.69
 STEP:  25 TIME =     0.01 SECS, INTEGRAL =      0.32 TIME LEFT: 172799.68
 STEP:  26 TIME =     0.01 SECS, INTEGRAL =      0.33 TIME LEFT: 172799.67
 STEP:  27 TIME =     0.01 SECS, INTEGRAL =      0.34 TIME LEFT: 172799.66
 STEP:  28 TIME =     0.01 SECS, INTEGRAL =      0.35 TIME LEFT: 172799.64
 STEP:  29 TIME =     0.01 SECS, INTEGRAL =      0.36 TIME LEFT: 172799.63
 STEP:  30 TIME =     0.01 SECS, INTEGRAL =      0.38 TIME LEFT: 172799.62
 STEP:  31 TIME =     0.01 SECS, INTEGRAL =      0.39 TIME LEFT: 172799.61
 STEP:  32 TIME =     0.01 SECS, INTEGRAL =      0.40 TIME LEFT: 172799.60
 STEP:  33 TIME =     0.01 SECS, INTEGRAL =      0.41 TIME LEFT: 172799.58
 STEP:  34 TIME =     0.01 SECS, INTEGRAL =      0.43 TIME LEFT: 172799.57
 STEP:  35 TIME =     0.01 SECS, INTEGRAL =      0.44 TIME LEFT: 172799.56
 STEP:  36 TIME =     0.01 SECS, INTEGRAL =      0.45 TIME LEFT: 172799.55
 STEP:  37 TIME =     0.01 SECS, INTEGRAL =      0.46 TIME LEFT: 172799.54
 STEP:  38 TIME =     0.01 SECS, INTEGRAL =      0.47 TIME LEFT: 172799.52
 STEP:  39 TIME =     0.01 SECS, INTEGRAL =      0.49 TIME LEFT: 172799.51
 STEP:  40 TIME =     0.01 SECS, INTEGRAL =      0.50 TIME LEFT: 172799.50
 STEP:  41 TIME =     0.01 SECS, INTEGRAL =      0.51 TIME LEFT: 172799.49
 STEP:  42 TIME =     0.01 SECS, INTEGRAL =      0.52 TIME LEFT: 172799.48

(To convert to Hartree/Bohr^2, multiply by (10^(-21) x N x a0^2)/(4.184 x 627.51) = 0.0642)


           FORCE MATRIX IN MILLIDYNES/ANGSTROM


                  C  1       C  2       C  3       C  4       C  5       C  6
 ------------------------------------------------------------------------------
     C    1  14.935658
     C    2   4.359559  14.397562
     C    3   4.140488   0.623104  17.904043
     C    4   4.141009   0.623677   1.092918  17.912062
     C    5   1.207387   0.053299   9.787239   1.568943  18.318314
     C    6   1.207789   0.053960   1.572424   9.788827   5.142089  18.311162
     H    7   4.242307   0.438405   0.387197   0.386784   0.051582   0.051633
     H    8   0.455633   4.749967   0.047407   0.017481   0.007691   0.006027
     H    9   0.455652   4.748140   0.017597   0.047436   0.006083   0.007686
     H   10   0.461208   4.757597   0.014529   0.014658   0.004899   0.004962
     H   11   0.404561   0.010144   5.081679   0.041985   0.443631   0.100209
     H   12   0.404332   0.010260   0.042495   5.081967   0.100258   0.443458
     H   13   0.112951   0.016828   0.447063   0.049320   5.070478   0.419326
     H   14   0.112234   0.016512   0.049589   0.447074   0.419538   5.070755


                  H  7       H  8       H  9       H 10       H 11       H 12
 ------------------------------------------------------------------------------
     H    7   4.721028
     H    8   0.026899   5.474956
     H    9   0.026914   0.562147   5.474104
     H   10   0.045875   0.569323   0.568694   5.484122
     H   11   0.011197   0.001478   0.006092   0.002114   5.480138
     H   12   0.011131   0.005956   0.001595   0.002177   0.010277   5.480662
     H   13   0.014385   0.002663   0.000596   0.000753   0.041415   0.005414
     H   14   0.014003   0.000587   0.002654   0.000686   0.005481   0.041003


                  H 13       H 14
 ------------------------------
     H   13   5.461022
     H   14   0.009575   5.461637


          HEAT OF FORMATION =      26.947021 KCALS/MOLE

          ZERO POINT ENERGY      75.851 KCAL/MOL


           NORMAL COORDINATE ANALYSIS (Total motion = 1 Angstrom)


   Root No.       1         2         3         4         5         6         7         8

                 1 A       2 A       3 A       4 A       5 A       6 A       7 A       8 A   

                 178.7     194.1     315.6     510.8     518.9     730.7     803.0     811.4
  
           1    0.0037    0.0207   -0.0001   -0.0001    0.0439    0.0075    0.0008    0.0001
           2   -0.0030    0.0191   -0.0349    0.0092    0.0179   -0.0302    0.0207   -0.0039
           3   -0.0091   -0.0284   -0.0219    0.0058   -0.0281    0.0476   -0.0332   -0.0056
           4    0.0032    0.0182   -0.0001   -0.0002    0.0591    0.0350    0.0006    0.0003
           5   -0.0063   -0.0322    0.0520   -0.0119   -0.0103   -0.0063    0.0052   -0.0012
           6    0.0084    0.0517    0.0326   -0.0074    0.0162    0.0099   -0.0086   -0.0017
           7    0.0004    0.0231    0.0287   -0.0381   -0.0453   -0.0146   -0.0182    0.0241
           8   -0.0044    0.0196   -0.0246   -0.0050   -0.0163   -0.0319    0.0125    0.0084
           9    0.0030   -0.0321   -0.0062    0.0235    0.0105   -0.0241    0.0275   -0.0209
          10    0.0070    0.0215   -0.0289    0.0385   -0.0451   -0.0142   -0.0137   -0.0268
          11    0.0075    0.0190   -0.0163    0.0191   -0.0023    0.0355   -0.0291   -0.0195
          12   -0.0155   -0.0282   -0.0193   -0.0149    0.0191    0.0184   -0.0012    0.0167
          13   -0.0101   -0.0403    0.0346    0.0380   -0.0027   -0.0271   -0.0078    0.0158
          14   -0.0006   -0.0083    0.0085    0.0183    0.0113    0.0042   -0.0083    0.0140
          15    0.0116    0.0110   -0.0042   -0.0319   -0.0202   -0.0165    0.0201   -0.0117
          16   -0.0040   -0.0415   -0.0343   -0.0383   -0.0033   -0.0264   -0.0035   -0.0171
          17    0.0076   -0.0092   -0.0001   -0.0212    0.0132    0.0134   -0.0130   -0.0066
          18   -0.0012    0.0133    0.0094    0.0305   -0.0186   -0.0109    0.0158    0.0201
          19   -0.0047   -0.0291    0.0002   -0.0003    0.0785    0.0539    0.0293    0.0026
          20   -0.0052    0.0285   -0.0571   -0.0302    0.0095   -0.0389    0.0108    0.0536
          21   -0.0136   -0.0416   -0.0358   -0.0192   -0.0151    0.0602   -0.0258    0.0319
          22    0.0041   -0.0165    0.0778   -0.0317    0.0284    0.0728   -0.0474    0.0263
          23   -0.0171   -0.0449    0.0825   -0.0249   -0.0240    0.0092   -0.0157    0.0091
          24    0.2877    0.0295    0.0504   -0.0113    0.0401   -0.0121    0.0254    0.0085
          25   -0.0098   -0.0153   -0.0781    0.0316    0.0284    0.0732   -0.0457   -0.0327
          26    0.2358   -0.0865    0.0812   -0.0209   -0.0276    0.0072   -0.0177    0.0091
          27   -0.1124    0.0949    0.0527   -0.0176    0.0396   -0.0139    0.0246    0.0082
          28    0.0158    0.0869   -0.0002   -0.0002    0.1296   -0.0248    0.0972    0.0074
          29   -0.2367   -0.0096    0.0859   -0.0302   -0.0256    0.0065   -0.0167    0.0123
          30   -0.1313    0.0988    0.0540   -0.0190    0.0417   -0.0110    0.0250    0.0104
          31    0.0036    0.0562    0.0675   -0.1033   -0.1597    0.0732    0.1000   -0.1737
          32   -0.0094    0.0354   -0.0337   -0.0232   -0.0548    0.0300    0.0492   -0.0849
          33    0.0069   -0.0569   -0.0090    0.0599    0.0810   -0.1092   -0.0420    0.1261
          34    0.0144    0.0535   -0.0677    0.1054   -0.1585    0.0703    0.0733    0.1883
          35    0.0138    0.0333   -0.0227    0.0450   -0.0492    0.0846    0.0045    0.0807
          36   -0.0293   -0.0498   -0.0264   -0.0480    0.0838   -0.0721   -0.0445   -0.1404
          37   -0.0199   -0.0773    0.0819    0.1397   -0.0122    0.0779    0.1516   -0.0842
          38   -0.0028   -0.0245    0.0376    0.0595    0.0091    0.0613    0.0522   -0.0290
          39    0.0252    0.0363   -0.0097   -0.1129   -0.0084   -0.0548   -0.1186    0.0590
          40   -0.0073   -0.0792   -0.0807   -0.1390   -0.0135    0.0767    0.1402    0.1092
          41    0.0130   -0.0274    0.0079   -0.0761    0.0029    0.0222    0.0771    0.0543
          42    0.0001    0.0395    0.0374    0.1015   -0.0111   -0.0774   -0.0869   -0.0676


   Root No.       9        10        11        12        13        14        15        16

                 9 A      10 A      11 A      12 A      13 A      14 A      15 A      16 A   

                 815.5     945.3     960.3     963.2     982.2    1024.6    1036.0    1083.1
  
           1    0.0000    0.0007    0.0067   -0.0001   -0.0001    0.0004    0.0001   -0.0002
           2   -0.0437    0.0042    0.0054   -0.0102    0.0013   -0.0174    0.0060    0.0028
           3   -0.0262   -0.0070   -0.0084   -0.0060    0.0011    0.0273    0.0049    0.0019
           4   -0.0001   -0.0188   -0.0200    0.0004    0.0002   -0.0135   -0.0003    0.0001
           5   -0.0145    0.0124    0.0024   -0.0373   -0.0081    0.0100   -0.0164   -0.0021
           6   -0.0088   -0.0206   -0.0044   -0.0232   -0.0053   -0.0148   -0.0110   -0.0013
           7   -0.0366   -0.0037    0.0313   -0.0001    0.0145    0.0143   -0.0227   -0.0027
           8   -0.0070   -0.0338   -0.0214    0.0307   -0.0006    0.0128   -0.0207   -0.0105
           9   -0.0478   -0.0030   -0.0277    0.0163   -0.0113   -0.0118    0.0103   -0.0179
          10    0.0379   -0.0035    0.0304    0.0002   -0.0156    0.0134    0.0236    0.0028
          11   -0.0442    0.0179    0.0341    0.0272   -0.0115    0.0050    0.0010   -0.0202
          12    0.0140    0.0297    0.0079    0.0196    0.0042   -0.0157   -0.0238   -0.0016
          13   -0.0550    0.0075   -0.0242    0.0037   -0.0312   -0.0026    0.0213   -0.0030
          14    0.0898    0.0093   -0.0044   -0.0095   -0.0167   -0.0143    0.0056    0.0026
          15   -0.0158   -0.0087    0.0131    0.0000    0.0251    0.0007   -0.0117    0.0011
          16    0.0556    0.0071   -0.0228   -0.0038    0.0322   -0.0018   -0.0216    0.0027
          17    0.0250    0.0037   -0.0093   -0.0041    0.0161    0.0057   -0.0079    0.0024
          18    0.0869   -0.0120    0.0081   -0.0082   -0.0263    0.0130    0.0110    0.0018
          19   -0.0014    0.0807   -0.0416   -0.0007    0.0012    0.1642    0.0035    0.0006
          20   -0.0346   -0.0146    0.0161   -0.1004    0.1593   -0.0553    0.2480   -0.0750
          21   -0.0211    0.0194   -0.0206   -0.0635    0.1018    0.0750    0.1596   -0.0470
          22    0.0724   -0.1002   -0.0351    0.2081    0.0570   -0.0776    0.0907    0.0089
          23    0.0134   -0.0226   -0.0026    0.0439    0.0147   -0.0183    0.0199    0.0008
          24    0.0060    0.0353   -0.0018    0.0315    0.0104    0.0295    0.0152    0.0010
          25   -0.0695   -0.1053   -0.0378   -0.2054   -0.0573   -0.0723   -0.0952   -0.0084
          26    0.0125   -0.0216    0.0035    0.0480    0.0152   -0.0205    0.0214    0.0012
          27    0.0079    0.0364    0.0020    0.0255    0.0094    0.0287    0.0132    0.0003
          28   -0.0037    0.1292   -0.0190   -0.0020    0.0013    0.1059    0.0026    0.0002
          29    0.0162   -0.0197    0.0028    0.0522    0.0215   -0.0184    0.0299   -0.0002
          30    0.0089    0.0327   -0.0035    0.0322    0.0140    0.0272    0.0198   -0.0001
          31    0.0454    0.0984   -0.0762   -0.0267   -0.0568   -0.1192    0.0504   -0.1331
          32   -0.0540   -0.0468   -0.1263    0.0618   -0.0341    0.0653    0.0162    0.1235
          33   -0.0300   -0.0217    0.1028   -0.0050    0.0419   -0.0221   -0.0458   -0.1070
          34   -0.0540    0.0987   -0.0732    0.0232    0.0597   -0.1169   -0.0578    0.1404
          35   -0.0523    0.0400   -0.0376    0.0208    0.0250   -0.0068   -0.0348   -0.0452
          36   -0.0304    0.0346    0.1564    0.0556   -0.0544   -0.0694    0.0304    0.1679
          37   -0.0583   -0.0373    0.1365   -0.0154    0.1478   -0.0026   -0.0317    0.0686
          38    0.0726    0.0105    0.0903   -0.0358    0.0689   -0.0328    0.0014    0.0971
          39   -0.0707    0.0916   -0.0159   -0.0456   -0.0735   -0.0594    0.0868    0.1530
          40    0.0471   -0.0356    0.1300    0.0156   -0.1541   -0.0037    0.0331   -0.0743
          41   -0.0392   -0.0885   -0.0270   -0.0532   -0.0361    0.0655    0.0827    0.1952
          42    0.1031    0.0286   -0.0844   -0.0133    0.0978    0.0056   -0.0364    0.0236


   Root No.      17        18        19        20        21        22        23        24

                17 A      18 A      19 A      20 A      21 A      22 A      23 A      24 A   

                1089.3    1112.7    1128.0    1211.6    1336.6    1338.3    1398.0    1402.0
  
           1   -0.0060    0.0173    0.0523    0.0000    0.0725   -0.0020    0.0128   -0.0257
           2   -0.0031    0.0113    0.0214    0.0297   -0.0221    0.1099   -0.0010    0.0008
           3    0.0047   -0.0178   -0.0338    0.0188    0.0388    0.0682    0.0015   -0.0015
           4    0.0034   -0.0296   -0.0396    0.0000    0.0125   -0.0002   -0.0190    0.0534
           5    0.0005   -0.0190   -0.0084   -0.0089    0.0051   -0.0198    0.0223    0.0024
           6   -0.0006    0.0299    0.0134   -0.0056   -0.0086   -0.0122   -0.0355   -0.0044
           7    0.0028   -0.0028   -0.0032   -0.0126   -0.0057    0.0222    0.0009   -0.0100
           8   -0.0048    0.0193   -0.0416    0.0158    0.0171   -0.0669   -0.0018    0.0165
           9   -0.0057    0.0040   -0.0033   -0.0122    0.0102   -0.0131    0.0013   -0.0077
          10    0.0027   -0.0027   -0.0033    0.0126   -0.0064   -0.0219    0.0009   -0.0099
          11    0.0087   -0.0119    0.0208   -0.0043   -0.0178   -0.0396   -0.0004    0.0000
          12    0.0020   -0.0158    0.0363    0.0196   -0.0129   -0.0543    0.0022   -0.0181
          13   -0.0037   -0.0050    0.0119   -0.0071   -0.0107    0.0004   -0.0011    0.0041
          14   -0.0035    0.0181   -0.0309   -0.0148    0.0396    0.0174    0.0089   -0.0531
          15   -0.0061    0.0035   -0.0091   -0.0181    0.0083    0.0128    0.0038   -0.0270
          16   -0.0040   -0.0050    0.0119    0.0071   -0.0107    0.0002   -0.0011    0.0042
          17    0.0066   -0.0109    0.0214   -0.0228   -0.0238    0.0204   -0.0073    0.0471
          18    0.0006   -0.0149    0.0240   -0.0057   -0.0319    0.0120   -0.0064    0.0364
          19    0.0243    0.3309   -0.0066   -0.0004   -0.1043    0.0026   -0.0125    0.0300
          20   -0.0066   -0.0497    0.0316   -0.0819    0.0080   -0.1103    0.0043   -0.0093
          21    0.0166    0.0803   -0.0511   -0.0521   -0.0170   -0.0694   -0.0068    0.0147
          22    0.0025    0.0316   -0.0406    0.0384   -0.1840    0.0829    0.1081   -0.1141
          23   -0.0004    0.0067   -0.0043    0.0062   -0.0605    0.0143    0.0384   -0.0549
          24    0.0020   -0.0213   -0.0215    0.0048    0.0058    0.0232    0.3542    0.0590
          25    0.0029    0.0309   -0.0403   -0.0385   -0.1857   -0.0736    0.1092   -0.1108
          26   -0.0017    0.0168    0.0214    0.0071    0.0216    0.0258   -0.3357   -0.0270
          27    0.0012   -0.0152   -0.0055    0.0036    0.0570    0.0004    0.1158    0.0719
          28    0.0127   -0.1755   -0.1606   -0.0001   -0.1239    0.0029   -0.1060   -0.1545
          29   -0.0016    0.0126    0.0173    0.0075    0.0289    0.0370    0.0297    0.0409
          30    0.0026   -0.0196   -0.0275    0.0047   -0.0441    0.0248   -0.0432   -0.0574
          31    0.1053    0.0491   -0.0455    0.1031    0.0178   -0.0148   -0.0034    0.0370
          32   -0.1375   -0.0364    0.0627   -0.1190    0.0086   -0.0318    0.0056   -0.0433
          33    0.0881    0.0430   -0.0929    0.0809    0.0161   -0.0355   -0.0042    0.0325
          34    0.0951    0.0487   -0.0453   -0.1033    0.0184    0.0140   -0.0034    0.0369
          35   -0.0177   -0.0233    0.0573    0.0224   -0.0196   -0.0447    0.0014   -0.0108
          36    0.1501    0.0508   -0.0963   -0.1424   -0.0013   -0.0134   -0.0068    0.0530
          37   -0.0958    0.0086   -0.0097    0.0585   -0.0266   -0.0436   -0.0065    0.0422
          38   -0.1296    0.0376   -0.0643    0.0735    0.0232   -0.0438    0.0019   -0.0050
          39   -0.2204    0.0331   -0.0629    0.1295   -0.0294   -0.0909   -0.0101    0.0619
          40   -0.0902    0.0085   -0.0098   -0.0581   -0.0251    0.0447   -0.0065    0.0420
          41    0.2422   -0.0457    0.0843    0.1479    0.0131   -0.1016    0.0083   -0.0535
          42    0.0210   -0.0198    0.0314    0.0109   -0.0335    0.0012   -0.0060    0.0310


   Root No.      25        26        27        28        29        30        31        32

                25 A      26 A      27 A      28 A      29 A      30 A      31 A      32 A   

                1407.3    1426.8    1731.3    1788.7    2894.8    3084.6    3085.5    3132.1
  
           1    0.0000    0.0687   -0.0115    0.0000    0.0234    0.0005    0.0000    0.0000
           2   -0.0051   -0.0192    0.0065    0.0004    0.0355    0.0007   -0.0004    0.0002
           3   -0.0034    0.0304   -0.0102    0.0002   -0.0560   -0.0012   -0.0001    0.0001
           4   -0.0005   -0.0570   -0.0021    0.0000    0.0007   -0.0002    0.0000    0.0000
           5   -0.0348    0.0016    0.0005   -0.0024   -0.0012    0.0236   -0.0502    0.0000
           6   -0.0217   -0.0028   -0.0007   -0.0015    0.0018   -0.0448   -0.0264    0.0000
           7   -0.0008   -0.0194    0.0866   -0.0785   -0.0004    0.0001   -0.0003    0.0028
           8    0.0025    0.0319   -0.0201    0.0278    0.0010   -0.0002    0.0001    0.0101
           9    0.0008   -0.0022    0.1110   -0.0954   -0.0003   -0.0001   -0.0001    0.0102
          10    0.0012   -0.0194    0.0866    0.0785   -0.0003    0.0002    0.0003   -0.0026
          11    0.0019   -0.0117   -0.0918   -0.0744   -0.0002    0.0002    0.0000    0.0125
          12    0.0026   -0.0298    0.0655    0.0660   -0.0010    0.0001    0.0001    0.0044
          13   -0.0004   -0.0033   -0.0758    0.0800    0.0005    0.0000    0.0000    0.0138
          14    0.0003   -0.0386    0.0019   -0.0120    0.0000    0.0000    0.0001   -0.0207
          15   -0.0005   -0.0302   -0.1085    0.1079    0.0004    0.0000    0.0000    0.0069
          16    0.0003   -0.0033   -0.0757   -0.0800    0.0005    0.0000    0.0000   -0.0131
          17   -0.0018    0.0438    0.0972    0.0925   -0.0003    0.0000    0.0000   -0.0024
          18   -0.0006    0.0220   -0.0480   -0.0570    0.0002    0.0000    0.0001   -0.0205
          19    0.0000   -0.0642    0.0057    0.0000   -0.2971   -0.0094    0.0008    0.0000
          20   -0.0032    0.0065   -0.0005   -0.0284   -0.4318   -0.0079   -0.0003    0.0007
          21   -0.0022   -0.0105    0.0008   -0.0180    0.6818    0.0123   -0.0018    0.0004
          22   -0.1369    0.0734    0.0011    0.0026   -0.0007    0.0720   -0.1635   -0.0002
          23   -0.0715    0.0429    0.0019   -0.0025    0.0124   -0.1901    0.4347    0.0006
          24    0.2016   -0.0195    0.0003    0.0002    0.0007   -0.0307    0.0050    0.0001
          25    0.1387    0.0737    0.0011   -0.0027   -0.0007    0.0946    0.1490    0.0002
          26    0.1552    0.0002   -0.0011   -0.0009   -0.0059    0.1347    0.1690    0.0004
          27   -0.1535   -0.0480   -0.0015   -0.0023   -0.0109    0.2126    0.3580    0.0005
          28    0.0025    0.1252    0.0016    0.0000    0.0030   -0.1640    0.0148    0.0000
          29    0.3489   -0.0293    0.0000    0.0012    0.0107   -0.2264   -0.0039   -0.0001
          30    0.2222    0.0488    0.0001    0.0007   -0.0169    0.3538   -0.0476    0.0000
          31    0.0000    0.0619   -0.0015    0.0010   -0.0009    0.0002   -0.0004   -0.0369
          32    0.0029   -0.0484    0.0981   -0.0800   -0.0018    0.0013    0.0005   -0.1194
          33    0.0003    0.0502    0.0609   -0.0490   -0.0043    0.0011    0.0002   -0.1253
          34   -0.0015    0.0617   -0.0016   -0.0011   -0.0009    0.0003    0.0004    0.0341
          35    0.0020   -0.0247   -0.0970   -0.0785    0.0047   -0.0015    0.0004   -0.1522
          36    0.0006    0.0650   -0.0628   -0.0514   -0.0002   -0.0006    0.0004   -0.0504
          37    0.0007    0.0350   -0.0514    0.0279    0.0032    0.0004    0.0004   -0.1570
          38    0.0021    0.0116    0.0747   -0.1147   -0.0033   -0.0006   -0.0005    0.2407
          39    0.0023    0.0524   -0.0274   -0.0303    0.0009    0.0002    0.0001   -0.0753
          40   -0.0021    0.0349   -0.0513   -0.0280    0.0032    0.0003   -0.0004    0.1486
          41    0.0048   -0.0522   -0.0068   -0.0762    0.0006    0.0001   -0.0001    0.0327
          42    0.0000    0.0120   -0.0792   -0.0908    0.0034    0.0005   -0.0005    0.2365


   Root No.      33        34        35        36

                33 A      34 A      35 A      36 A   

                3134.4    3146.8    3156.4    3180.1
  
           1    0.0003    0.0000    0.0005    0.0005
           2   -0.0001    0.0000   -0.0005   -0.0001
           3    0.0002    0.0000    0.0009    0.0001
           4   -0.0001    0.0000    0.0001    0.0245
           5   -0.0001   -0.0001    0.0001    0.0004
           6    0.0001    0.0000   -0.0001   -0.0008
           7   -0.0035   -0.0071    0.0064   -0.0001
           8   -0.0119   -0.0158    0.0140   -0.0001
           9   -0.0122   -0.0198    0.0176   -0.0002
          10   -0.0037    0.0070    0.0064   -0.0001
          11    0.0168   -0.0243   -0.0222    0.0002
          12    0.0058   -0.0058   -0.0052    0.0000
          13   -0.0108    0.0095   -0.0115    0.0000
          14    0.0166   -0.0119    0.0159    0.0000
          15   -0.0051    0.0062   -0.0066    0.0000
          16   -0.0116   -0.0093   -0.0117    0.0000
          17   -0.0026    0.0005   -0.0008    0.0000
          18   -0.0184   -0.0131   -0.0174    0.0000
          19    0.0000    0.0000    0.0013    0.0011
          20   -0.0001   -0.0010    0.0020    0.0006
          21    0.0001   -0.0006   -0.0031   -0.0009
          22    0.0002   -0.0001   -0.0007   -0.0969
          23   -0.0003   -0.0002    0.0013    0.3023
          24    0.0002   -0.0002   -0.0001    0.0114
          25    0.0002    0.0001   -0.0006   -0.0968
          26   -0.0001   -0.0002   -0.0004   -0.1393
          27    0.0002    0.0000   -0.0011   -0.2677
          28    0.0009    0.0000   -0.0008   -0.1051
          29    0.0013    0.0000   -0.0014   -0.1679
          30   -0.0020   -0.0001    0.0022    0.2655
          31    0.0439    0.0616   -0.0511    0.0009
          32    0.1404    0.1944   -0.1605    0.0019
          33    0.1481    0.2061   -0.1705    0.0021
          34    0.0458   -0.0609   -0.0519    0.0008
          35   -0.2027    0.2665    0.2262   -0.0026
          36   -0.0665    0.0867    0.0734   -0.0007
          37    0.1246   -0.0903    0.1095   -0.0003
          38   -0.1928    0.1373   -0.1682    0.0005
          39    0.0586   -0.0439    0.0522   -0.0002
          40    0.1337    0.0884    0.1109   -0.0003
          41    0.0313    0.0185    0.0249    0.0000
          42    0.2140    0.1399    0.1767   -0.0004


           MASS-WEIGHTED COORDINATE ANALYSIS (NORMAL COORDINATES)


   Root No.       1         2         3         4         5         6         7         8

                 1 A       2 A       3 A       4 A       5 A       6 A       7 A       8 A   

                 178.7     194.1     315.6     510.8     518.9     730.7     803.0     811.4
  
           1    0.0260    0.1505   -0.0009   -0.0009    0.3005    0.0573    0.0064    0.0007
           2   -0.0214    0.1388   -0.2665    0.0663    0.1222   -0.2315    0.1727   -0.0301
           3   -0.0641   -0.2059   -0.1674    0.0421   -0.1921    0.3649   -0.2771   -0.0436
           4    0.0229    0.1321   -0.0006   -0.0012    0.4043    0.2687    0.0052    0.0022
           5   -0.0444   -0.2336    0.3977   -0.0860   -0.0705   -0.0482    0.0437   -0.0091
           6    0.0592    0.3750    0.2492   -0.0535    0.1107    0.0758   -0.0722   -0.0130
           7    0.0030    0.1676    0.2192   -0.2758   -0.3101   -0.1117   -0.1518    0.1868
           8   -0.0314    0.1426   -0.1878   -0.0361   -0.1114   -0.2448    0.1041    0.0650
           9    0.0211   -0.2331   -0.0477    0.1700    0.0717   -0.1852    0.2297   -0.1621
          10    0.0497    0.1562   -0.2206    0.2788   -0.3084   -0.1086   -0.1146   -0.2079
          11    0.0533    0.1376   -0.1246    0.1382   -0.0156    0.2721   -0.2434   -0.1517
          12   -0.1094   -0.2045   -0.1474   -0.1080    0.1308    0.1414   -0.0103    0.1296
          13   -0.0715   -0.2928    0.2642    0.2753   -0.0186   -0.2080   -0.0651    0.1226
          14   -0.0045   -0.0601    0.0653    0.1326    0.0770    0.0324   -0.0692    0.1089
          15    0.0820    0.0801   -0.0318   -0.2308   -0.1384   -0.1263    0.1680   -0.0908
          16   -0.0280   -0.3009   -0.2620   -0.2774   -0.0223   -0.2024   -0.0295   -0.1325
          17    0.0535   -0.0670   -0.0006   -0.1537    0.0900    0.1027   -0.1087   -0.0514
          18   -0.0085    0.0967    0.0722    0.2207   -0.1273   -0.0837    0.1321    0.1563
          19   -0.0096   -0.0611    0.0005   -0.0006    0.1556    0.1199    0.0708    0.0058
          20   -0.0107    0.0599   -0.1264   -0.0634    0.0188   -0.0864    0.0262    0.1205
          21   -0.0279   -0.0874   -0.0793   -0.0403   -0.0300    0.1339   -0.0626    0.0718
          22    0.0084   -0.0347    0.1724   -0.0665    0.0563    0.1618   -0.1146    0.0590
          23   -0.0350   -0.0944    0.1827   -0.0521   -0.0476    0.0204   -0.0380    0.0204
          24    0.5889    0.0620    0.1116   -0.0237    0.0795   -0.0268    0.0615    0.0191
          25   -0.0201   -0.0322   -0.1730    0.0662    0.0563    0.1627   -0.1105   -0.0735
          26    0.4826   -0.1819    0.1799   -0.0439   -0.0547    0.0161   -0.0427    0.0205
          27   -0.2301    0.1996    0.1167   -0.0369    0.0786   -0.0308    0.0597    0.0184
          28    0.0324    0.1827   -0.0005   -0.0004    0.2569   -0.0551    0.2351    0.0167
          29   -0.4845   -0.0201    0.1902   -0.0633   -0.0507    0.0145   -0.0405    0.0278
          30   -0.2687    0.2077    0.1195   -0.0398    0.0827   -0.0244    0.0606    0.0234
          31    0.0074    0.1182    0.1495   -0.2166   -0.3164    0.1627    0.2420   -0.3904
          32   -0.0193    0.0743   -0.0747   -0.0486   -0.1086    0.0667    0.1190   -0.1908
          33    0.0141   -0.1196   -0.0199    0.1257    0.1604   -0.2427   -0.1017    0.2836
          34    0.0296    0.1125   -0.1498    0.2210   -0.3141    0.1562    0.1773    0.4233
          35    0.0283    0.0700   -0.0502    0.0945   -0.0975    0.1879    0.0108    0.1813
          36   -0.0599   -0.1048   -0.0584   -0.1007    0.1661   -0.1603   -0.1077   -0.3157
          37   -0.0407   -0.1625    0.1814    0.2931   -0.0241    0.1732    0.3670   -0.1892
          38   -0.0057   -0.0515    0.0832    0.1248    0.0181    0.1362    0.1264   -0.0652
          39    0.0515    0.0763   -0.0214   -0.2367   -0.0166   -0.1218   -0.2871    0.1327
          40   -0.0149   -0.1665   -0.1787   -0.2916   -0.0268    0.1705    0.3394    0.2456
          41    0.0265   -0.0576    0.0175   -0.1596    0.0058    0.0494    0.1867    0.1221
          42    0.0003    0.0831    0.0827    0.2129   -0.0219   -0.1721   -0.2102   -0.1520


   Root No.       9        10        11        12        13        14        15        16

                 9 A      10 A      11 A      12 A      13 A      14 A      15 A      16 A   

                 815.5     945.3     960.3     963.2     982.2    1024.6    1036.0    1083.1
  
           1    0.0000    0.0065    0.0519   -0.0005   -0.0011    0.0037    0.0008   -0.0016
           2   -0.2266    0.0391    0.0419   -0.0831    0.0107   -0.1585    0.0484    0.0218
           3   -0.1359   -0.0643   -0.0655   -0.0492    0.0093    0.2497    0.0396    0.0147
           4   -0.0006   -0.1738   -0.1558    0.0030    0.0020   -0.1232   -0.0028    0.0011
           5   -0.0751    0.1140    0.0189   -0.3036   -0.0662    0.0912   -0.1328   -0.0167
           6   -0.0457   -0.1900   -0.0339   -0.1890   -0.0429   -0.1350   -0.0893   -0.0104
           7   -0.1896   -0.0343    0.2434   -0.0011    0.1185    0.1308   -0.1841   -0.0214
           8   -0.0362   -0.3116   -0.1667    0.2503   -0.0052    0.1168   -0.1675   -0.0822
           9   -0.2479   -0.0277   -0.2158    0.1328   -0.0922   -0.1077    0.0834   -0.1402
          10    0.1967   -0.0321    0.2368    0.0019   -0.1271    0.1226    0.1915    0.0222
          11   -0.2291    0.1654    0.2650    0.2212   -0.0940    0.0456    0.0085   -0.1579
          12    0.0725    0.2742    0.0617    0.1600    0.0344   -0.1434   -0.1930   -0.0127
          13   -0.2852    0.0690   -0.1882    0.0300   -0.2541   -0.0240    0.1730   -0.0236
          14    0.4658    0.0857   -0.0340   -0.0772   -0.1363   -0.1310    0.0457    0.0206
          15   -0.0818   -0.0805    0.1020    0.0000    0.2046    0.0067   -0.0949    0.0084
          16    0.2884    0.0652   -0.1774   -0.0311    0.2627   -0.0163   -0.1753    0.0214
          17    0.1297    0.0337   -0.0723   -0.0330    0.1308    0.0523   -0.0638    0.0192
          18    0.4503   -0.1106    0.0633   -0.0665   -0.2139    0.1183    0.0891    0.0144
          19   -0.0022    0.2158   -0.0938   -0.0016    0.0029    0.4344    0.0082    0.0013
          20   -0.0519   -0.0390    0.0364   -0.2370    0.3760   -0.1463    0.5821   -0.1699
          21   -0.0317    0.0519   -0.0465   -0.1499    0.2402    0.1983    0.3747   -0.1065
          22    0.1087   -0.2679   -0.0792    0.4912    0.1346   -0.2052    0.2128    0.0202
          23    0.0202   -0.0603   -0.0060    0.1036    0.0347   -0.0484    0.0468    0.0019
          24    0.0090    0.0945   -0.0040    0.0743    0.0245    0.0781    0.0356    0.0022
          25   -0.1044   -0.2815   -0.0853   -0.4846   -0.1352   -0.1912   -0.2233   -0.0190
          26    0.0187   -0.0578    0.0078    0.1132    0.0359   -0.0542    0.0501    0.0027
          27    0.0118    0.0974    0.0045    0.0602    0.0222    0.0759    0.0310    0.0007
          28   -0.0055    0.3453   -0.0427   -0.0048    0.0030    0.2800    0.0061    0.0004
          29    0.0244   -0.0528    0.0062    0.1231    0.0507   -0.0486    0.0702   -0.0004
          30    0.0133    0.0875   -0.0078    0.0760    0.0330    0.0720    0.0464   -0.0002
          31    0.0681    0.2631   -0.1717   -0.0631   -0.1341   -0.3152    0.1182   -0.3015
          32   -0.0811   -0.1250   -0.2847    0.1459   -0.0805    0.1727    0.0380    0.2797
          33   -0.0450   -0.0581    0.2318   -0.0117    0.0990   -0.0585   -0.1076   -0.2424
          34   -0.0810    0.2638   -0.1651    0.0548    0.1409   -0.3091   -0.1356    0.3180
          35   -0.0785    0.1070   -0.0847    0.0491    0.0590   -0.0180   -0.0817   -0.1024
          36   -0.0457    0.0925    0.3525    0.1312   -0.1283   -0.1835    0.0713    0.3804
          37   -0.0876   -0.0997    0.3076   -0.0362    0.3488   -0.0068   -0.0744    0.1553
          38    0.1090    0.0280    0.2037   -0.0845    0.1627   -0.0868    0.0032    0.2199
          39   -0.1062    0.2449   -0.0358   -0.1075   -0.1734   -0.1570    0.2038    0.3465
          40    0.0707   -0.0952    0.2931    0.0369   -0.3638   -0.0098    0.0776   -0.1683
          41   -0.0589   -0.2365   -0.0609   -0.1255   -0.0852    0.1734    0.1941    0.4422
          42    0.1549    0.0764   -0.1903   -0.0314    0.2308    0.0147   -0.0855    0.0535


   Root No.      17        18        19        20        21        22        23        24

                17 A      18 A      19 A      20 A      21 A      22 A      23 A      24 A   

                1089.3    1112.7    1128.0    1211.6    1336.6    1338.3    1398.0    1402.0
  
           1   -0.0445    0.1269    0.3819    0.0000    0.4982   -0.0106    0.0780   -0.1870
           2   -0.0226    0.0829    0.1563    0.2485   -0.1518    0.5992   -0.0062    0.0058
           3    0.0346   -0.1302   -0.2471    0.1571    0.2667    0.3718    0.0094   -0.0108
           4    0.0255   -0.2173   -0.2891    0.0003    0.0857   -0.0011   -0.1159    0.3884
           5    0.0034   -0.1397   -0.0616   -0.0744    0.0347   -0.1078    0.1357    0.0174
           6   -0.0047    0.2197    0.0975   -0.0471   -0.0594   -0.0667   -0.2162   -0.0324
           7    0.0209   -0.0205   -0.0234   -0.1058   -0.0389    0.1211    0.0054   -0.0727
           8   -0.0353    0.1414   -0.3035    0.1322    0.1175   -0.3650   -0.0108    0.1201
           9   -0.0426    0.0292   -0.0243   -0.1025    0.0700   -0.0716    0.0080   -0.0563
          10    0.0203   -0.0201   -0.0237    0.1059   -0.0440   -0.1196    0.0055   -0.0722
          11    0.0645   -0.0872    0.1517   -0.0360   -0.1225   -0.2159   -0.0024    0.0000
          12    0.0151   -0.1162    0.2647    0.1638   -0.0886   -0.2959    0.0135   -0.1319
          13   -0.0275   -0.0370    0.0868   -0.0595   -0.0738    0.0021   -0.0066    0.0300
          14   -0.0262    0.1329   -0.2253   -0.1239    0.2721    0.0951    0.0540   -0.3866
          15   -0.0449    0.0259   -0.0663   -0.1516    0.0573    0.0700    0.0232   -0.1968
          16   -0.0299   -0.0370    0.0871    0.0595   -0.0737    0.0012   -0.0068    0.0303
          17    0.0492   -0.0802    0.1561   -0.1911   -0.1634    0.1111   -0.0443    0.3427
          18    0.0043   -0.1091    0.1755   -0.0477   -0.2192    0.0653   -0.0388    0.2653
          19    0.0523    0.7032   -0.0140   -0.0009   -0.2075    0.0040   -0.0220    0.0632
          20   -0.0141   -0.1056    0.0669   -0.1987    0.0159   -0.1742    0.0076   -0.0196
          21    0.0356    0.1706   -0.1081   -0.1263   -0.0337   -0.1096   -0.0120    0.0310
          22    0.0053    0.0673   -0.0858    0.0932   -0.3662    0.1309    0.1908   -0.2407
          23   -0.0008    0.0142   -0.0090    0.0151   -0.1205    0.0226    0.0678   -0.1158
          24    0.0044   -0.0453   -0.0454    0.0117    0.0115    0.0366    0.6253    0.1245
          25    0.0062    0.0658   -0.0853   -0.0934   -0.3695   -0.1162    0.1928   -0.2337
          26   -0.0038    0.0357    0.0453    0.0172    0.0431    0.0408   -0.5926   -0.0570
          27    0.0026   -0.0324   -0.0117    0.0087    0.1133    0.0006    0.2044    0.1516
          28    0.0274   -0.3729   -0.3396   -0.0002   -0.2464    0.0045   -0.1871   -0.3257
          29   -0.0035    0.0267    0.0366    0.0181    0.0574    0.0584    0.0524    0.0863
          30    0.0056   -0.0416   -0.0582    0.0113   -0.0878    0.0392   -0.0763   -0.1211
          31    0.2261    0.1043   -0.0963    0.2500    0.0354   -0.0234   -0.0060    0.0780
          32   -0.2953   -0.0774    0.1327   -0.2887    0.0171   -0.0502    0.0099   -0.0914
          33    0.1892    0.0913   -0.1965    0.1963    0.0320   -0.0560   -0.0074    0.0685
          34    0.2042    0.1036   -0.0958   -0.2506    0.0366    0.0221   -0.0061    0.0779
          35   -0.0381   -0.0495    0.1211    0.0543   -0.0391   -0.0706    0.0026   -0.0227
          36    0.3223    0.1080   -0.2036   -0.3454   -0.0026   -0.0211   -0.0121    0.1117
          37   -0.2058    0.0182   -0.0204    0.1418   -0.0529   -0.0689   -0.0115    0.0890
          38   -0.2785    0.0798   -0.1360    0.1781    0.0461   -0.0692    0.0034   -0.0106
          39   -0.4735    0.0704   -0.1331    0.3140   -0.0584   -0.1436   -0.0178    0.1305
          40   -0.1939    0.0180   -0.0207   -0.1410   -0.0499    0.0706   -0.0115    0.0885
          41    0.5202   -0.0971    0.1783    0.3586    0.0261   -0.1604    0.0147   -0.1128
          42    0.0452   -0.0421    0.0663    0.0265   -0.0667    0.0019   -0.0106    0.0654


   Root No.      25        26        27        28        29        30        31        32

                25 A      26 A      27 A      28 A      29 A      30 A      31 A      32 A   

                1407.3    1426.8    1731.3    1788.7    2894.8    3084.6    3085.5    3132.1
  
           1    0.0000    0.4603   -0.0407   -0.0001    0.0905    0.0027   -0.0002    0.0000
           2   -0.0308   -0.1285    0.0231    0.0015    0.1370    0.0044   -0.0018    0.0014
           3   -0.0206    0.2036   -0.0363    0.0008   -0.2164   -0.0071   -0.0003    0.0008
           4   -0.0029   -0.3819   -0.0074    0.0000    0.0026   -0.0014   -0.0001    0.0000
           5   -0.2111    0.0106    0.0017   -0.0090   -0.0045    0.1378   -0.2625    0.0000
           6   -0.1319   -0.0186   -0.0026   -0.0057    0.0071   -0.2620   -0.1380   -0.0001
           7   -0.0049   -0.1300    0.3072   -0.2913   -0.0014    0.0006   -0.0018    0.0198
           8    0.0151    0.2139   -0.0712    0.1034    0.0038   -0.0009    0.0007    0.0705
           9    0.0048   -0.0146    0.3938   -0.3541   -0.0010   -0.0008   -0.0005    0.0710
          10    0.0075   -0.1300    0.3071    0.2916   -0.0013    0.0009    0.0016   -0.0183
          11    0.0116   -0.0785   -0.3256   -0.2762   -0.0008    0.0011   -0.0002    0.0874
          12    0.0160   -0.1996    0.2325    0.2450   -0.0038    0.0006    0.0008    0.0310
          13   -0.0023   -0.0221   -0.2689    0.2969    0.0020    0.0000    0.0001    0.0961
          14    0.0017   -0.2586    0.0066   -0.0446   -0.0001    0.0002    0.0003   -0.1442
          15   -0.0029   -0.2025   -0.3848    0.4006    0.0014    0.0000    0.0000    0.0481
          16    0.0019   -0.0221   -0.2686   -0.2971    0.0020    0.0000    0.0000   -0.0911
          17   -0.0112    0.2936    0.3448    0.3434   -0.0012   -0.0001    0.0002   -0.0170
          18   -0.0036    0.1473   -0.1701   -0.2115    0.0006   -0.0001    0.0003   -0.1429
          19    0.0000   -0.1245    0.0058    0.0000   -0.3322   -0.0160    0.0013    0.0000
          20   -0.0056    0.0126   -0.0005   -0.0306   -0.4829   -0.0133   -0.0005    0.0014
          21   -0.0039   -0.0204    0.0008   -0.0194    0.7626    0.0208   -0.0027    0.0009
          22   -0.2408    0.1424    0.0011    0.0028   -0.0008    0.1219   -0.2477   -0.0003
          23   -0.1258    0.0833    0.0020   -0.0027    0.0138   -0.3219    0.6587    0.0012
          24    0.3545   -0.0379    0.0003    0.0002    0.0007   -0.0520    0.0075    0.0001
          25    0.2440    0.1430    0.0012   -0.0029   -0.0008    0.1601    0.2258    0.0004
          26    0.2729    0.0004   -0.0012   -0.0010   -0.0066    0.2281    0.2561    0.0007
          27   -0.2700   -0.0931   -0.0016   -0.0025   -0.0122    0.3599    0.5425    0.0010
          28    0.0045    0.2430    0.0016    0.0000    0.0033   -0.2777    0.0224   -0.0001
          29    0.6136   -0.0568    0.0000    0.0012    0.0120   -0.3833   -0.0059   -0.0001
          30    0.3907    0.0947    0.0001    0.0008   -0.0189    0.5991   -0.0721    0.0001
          31    0.0000    0.1201   -0.0016    0.0011   -0.0010    0.0004   -0.0005   -0.0744
          32    0.0051   -0.0939    0.1008   -0.0861   -0.0020    0.0022    0.0007   -0.2410
          33    0.0005    0.0974    0.0626   -0.0527   -0.0048    0.0019    0.0002   -0.2529
          34   -0.0026    0.1198   -0.0017   -0.0012   -0.0010    0.0005    0.0006    0.0688
          35    0.0034   -0.0480   -0.0996   -0.0845    0.0053   -0.0025    0.0006   -0.3072
          36    0.0011    0.1262   -0.0645   -0.0553   -0.0002   -0.0010    0.0006   -0.1018
          37    0.0013    0.0680   -0.0528    0.0300    0.0035    0.0006    0.0006   -0.3171
          38    0.0036    0.0224    0.0767   -0.1233   -0.0037   -0.0010   -0.0007    0.4859
          39    0.0041    0.1017   -0.0282   -0.0325    0.0011    0.0003    0.0002   -0.1520
          40   -0.0036    0.0677   -0.0527   -0.0301    0.0036    0.0005   -0.0007    0.3001
          41    0.0084   -0.1012   -0.0069   -0.0820    0.0006    0.0001   -0.0001    0.0661
          42    0.0000    0.0233   -0.0814   -0.0977    0.0038    0.0009   -0.0008    0.4776


   Root No.      33        34        35        36

                33 A      34 A      35 A      36 A   

                3134.4    3146.8    3156.4    3180.1
  
           1    0.0018    0.0000    0.0038    0.0033
           2   -0.0010    0.0000   -0.0039   -0.0005
           3    0.0017    0.0000    0.0062    0.0007
           4   -0.0007    0.0000    0.0006    0.1497
           5   -0.0006   -0.0004    0.0004    0.0024
           6    0.0010   -0.0003   -0.0008   -0.0046
           7   -0.0252   -0.0492    0.0460   -0.0006
           8   -0.0854   -0.1104    0.1012   -0.0007
           9   -0.0879   -0.1376    0.1273   -0.0013
          10   -0.0263    0.0486    0.0466   -0.0006
          11    0.1212   -0.1695   -0.1606    0.0014
          12    0.0415   -0.0405   -0.0375    0.0001
          13   -0.0774    0.0660   -0.0833    0.0003
          14    0.1192   -0.0831    0.1151   -0.0003
          15   -0.0367    0.0431   -0.0479    0.0001
          16   -0.0832   -0.0647   -0.0844    0.0002
          17   -0.0187    0.0037   -0.0058    0.0000
          18   -0.1326   -0.0915   -0.1260    0.0003
          19    0.0001    0.0000    0.0028    0.0020
          20   -0.0001   -0.0020    0.0042    0.0011
          21    0.0003   -0.0012   -0.0065   -0.0016
          22    0.0005   -0.0002   -0.0014   -0.1717
          23   -0.0006   -0.0004    0.0026    0.5359
          24    0.0003   -0.0003   -0.0002    0.0202
          25    0.0004    0.0003   -0.0013   -0.1717
          26   -0.0001   -0.0004   -0.0008   -0.2469
          27    0.0005    0.0000   -0.0023   -0.4745
          28    0.0018    0.0001   -0.0018   -0.1863
          29    0.0027    0.0000   -0.0030   -0.2977
          30   -0.0042   -0.0002    0.0046    0.4706
          31    0.0915    0.1244   -0.1072    0.0016
          32    0.2926    0.3922   -0.3366    0.0034
          33    0.3086    0.4159   -0.3576    0.0038
          34    0.0955   -0.1230   -0.1088    0.0015
          35   -0.4224    0.5378    0.4743   -0.0047
          36   -0.1387    0.1750    0.1539   -0.0013
          37    0.2597   -0.1822    0.2296   -0.0005
          38   -0.4018    0.2771   -0.3527    0.0008
          39    0.1222   -0.0886    0.1094   -0.0003
          40    0.2787    0.1783    0.2325   -0.0004
          41    0.0652    0.0373    0.0523   -0.0001
          42    0.4461    0.2823    0.3705   -0.0007


          DESCRIPTION OF VIBRATIONS


 VIBRATION    1    1A       ATOM PAIR        ENERGY CONTRIBUTION    RADIAL
 FREQ.       178.65        C  2 --  H  8          +31.6% (340.8%)     0.4%
 T-DIPOLE    0.0149        C  2 --  H 10          +29.6% (330.2%)     0.6%
 TRAVEL      0.2787        C  2 --  H  9          +29.6% (330.0%)     0.2%
 RED. MASS   0.3066        C  4 --  C  5           +1.3% ( 69.1%)     0.0%
 EFF. MASS   4.8579

 VIBRATION    2    2A       ATOM PAIR        ENERGY CONTRIBUTION    RADIAL
 FREQ.       194.14        C  1 --  C  2          +18.8% (306.9%)     0.1%
 T-DIPOLE    0.1301        C  2 --  H  9          +12.3% (248.3%)    54.5%
 TRAVEL      0.0687        C  2 --  H 10          +11.3% (237.6%)    86.2%
 RED. MASS   1.1000        C  2 --  H  8          +11.2% (236.7%)    21.8%
 EFF. MASS  73.6288

 VIBRATION    3    3A       ATOM PAIR        ENERGY CONTRIBUTION    RADIAL
 FREQ.       315.57        C  1 --  C  2          +17.8% (204.1%)     0.0%
 T-DIPOLE    0.0419        C  2 --  H 10          +10.8% (159.0%)     0.0%
 TRAVEL      0.0794        C  2 --  H  9           +9.5% (148.9%)    74.6%
 RED. MASS   1.0297        C  2 --  H  8           +9.4% (148.6%)    75.4%
 EFF. MASS  33.9276

 VIBRATION    4    4A       ATOM PAIR        ENERGY CONTRIBUTION    RADIAL
 FREQ.       510.84        C  5 --  C  6          +15.4% ( 74.2%)     0.0%
 T-DIPOLE    0.0352        C  4 --  C  6          +14.0% ( 70.8%)     0.0%
 TRAVEL      0.1076        C  3 --  C  5          +13.8% ( 70.1%)     0.0%
 RED. MASS   0.8632        C  4 --  C  5          +10.7% ( 61.7%)     1.3%
 EFF. MASS  11.3923        C  3 --  C  6          +10.7% ( 61.7%)     1.4%

 VIBRATION    5    5A       ATOM PAIR        ENERGY CONTRIBUTION    RADIAL
 FREQ.       518.90        C  1 --  C  3          +12.5% ( 98.9%)     0.1%
 T-DIPOLE    0.1604        C  1 --  C  4          +12.4% ( 98.9%)     0.1%
 TRAVEL      0.0942        C  1 --  C  2          +11.4% ( 94.5%)     7.7%
 RED. MASS   1.0014        C  2 --  H 10          +11.0% ( 93.1%)     2.2%
 EFF. MASS  14.6472

 VIBRATION    6    6A       ATOM PAIR        ENERGY CONTRIBUTION    RADIAL
 FREQ.       730.69        C  1 --  C  3          +11.9% ( 87.6%)     0.9%
 T-DIPOLE    0.6068        C  1 --  C  4          +11.9% ( 87.5%)     0.8%
 TRAVEL      0.0893        C  1 --  C  2           +9.2% ( 77.1%)    27.6%
 RED. MASS   0.8936        C  4 --  C  5           +8.6% ( 74.3%)    31.9%
 EFF. MASS  11.5790

 VIBRATION    7    7A       ATOM PAIR        ENERGY CONTRIBUTION    RADIAL
 FREQ.       802.96        C  5 --  H 13          +11.4% ( 58.2%)     0.5%
 T-DIPOLE    0.7202        C  1 --  C  3          +11.4% ( 58.2%)     0.0%
 TRAVEL      0.1230        C  1 --  C  4          +11.2% ( 57.6%)     0.1%
 RED. MASS   0.4241        C  6 --  H 14           +9.6% ( 53.3%)     1.0%
 EFF. MASS   5.5537

 VIBRATION    8    8A       ATOM PAIR        ENERGY CONTRIBUTION    RADIAL
 FREQ.       811.41        C  4 --  H 12          +29.1% ( 67.8%)     0.2%
 T-DIPOLE    0.0711        C  3 --  H 11          +24.4% ( 62.2%)     0.1%
 TRAVEL      0.1763        C  6 --  H 14          +11.1% ( 41.9%)     0.6%
 RED. MASS   0.3576        C  5 --  H 13           +7.2% ( 33.6%)     0.6%
 EFF. MASS   2.6747

 VIBRATION    9    9A       ATOM PAIR        ENERGY CONTRIBUTION    RADIAL
 FREQ.       815.48        C  5 --  C  6          +17.9% (123.8%)     0.0%
 T-DIPOLE    0.1876        C  3 --  C  6          +14.8% (112.5%)    88.4%
 TRAVEL      0.0727        C  4 --  C  5          +14.7% (112.4%)    87.7%
 RED. MASS   2.5090        C  3 --  C  5           +9.5% ( 90.3%)     0.1%
 EFF. MASS  15.6357

 VIBRATION   10   10A       ATOM PAIR        ENERGY CONTRIBUTION    RADIAL
 FREQ.       945.28        C  2 --  H 10          +13.5% ( 57.0%)     3.2%
 T-DIPOLE    0.1375        C  2 --  H  9           +8.2% ( 44.4%)    12.5%
 TRAVEL      0.1138        C  2 --  H  8           +7.9% ( 43.6%)    11.6%
 RED. MASS   0.3917        C  4 --  H 12           +7.3% ( 41.9%)    23.9%
 EFF. MASS   5.5100

 VIBRATION   11   11A       ATOM PAIR        ENERGY CONTRIBUTION    RADIAL
 FREQ.       960.30        C  3 --  H 11          +13.3% ( 51.0%)     5.9%
 T-DIPOLE    0.0979        C  4 --  H 12          +13.0% ( 50.3%)     6.2%
 TRAVEL      0.1147        C  3 --  C  5           +9.0% ( 41.8%)     0.1%
 RED. MASS   0.5609        C  5 --  H 13           +8.9% ( 41.7%)     0.4%
 EFF. MASS   5.3393

 VIBRATION   12   12A       ATOM PAIR        ENERGY CONTRIBUTION    RADIAL
 FREQ.       963.16        C  2 --  H  8          +18.2% ( 69.2%)     9.7%
 T-DIPOLE    0.0372        C  2 --  H  9          +18.0% ( 68.8%)     9.5%
 TRAVEL      0.1130        C  2 --  H 10           +8.5% ( 47.2%)     0.0%
 RED. MASS   0.4819        C  1 --  C  3           +6.6% ( 41.6%)    65.6%
 EFF. MASS   5.4780

 VIBRATION   13   13A       ATOM PAIR        ENERGY CONTRIBUTION    RADIAL
 FREQ.       982.24        C  6 --  H 14          +20.1% ( 51.8%)     0.1%
 T-DIPOLE    0.0814        C  5 --  H 13          +18.7% ( 49.9%)     0.1%
 TRAVEL      0.1350        C  1 --  H  7          +15.3% ( 45.2%)     0.0%
 RED. MASS   0.5246        C  5 --  C  6           +9.7% ( 35.9%)     0.0%
 EFF. MASS   3.7685

 VIBRATION   14   14A       ATOM PAIR        ENERGY CONTRIBUTION    RADIAL
 FREQ.      1024.65        C  1 --  H  7          +17.1% ( 53.9%)    20.6%
 T-DIPOLE    0.1318        C  2 --  H 10           +9.9% ( 41.1%)     3.1%
 TRAVEL      0.1279        C  1 --  C  2           +9.8% ( 40.7%)     7.1%
 RED. MASS   0.2701        C  3 --  H 11           +9.2% ( 39.5%)     0.3%
 EFF. MASS   4.0230

 VIBRATION   15   15A       ATOM PAIR        ENERGY CONTRIBUTION    RADIAL
 FREQ.      1035.97        C  1 --  H  7          +33.1% ( 65.7%)     0.0%
 T-DIPOLE    0.0932        C  2 --  H  9           +6.5% ( 29.1%)    10.3%
 TRAVEL      0.1376        C  2 --  H  8           +6.2% ( 28.5%)     9.5%
 RED. MASS   0.4164        C  6 --  H 14           +5.6% ( 27.0%)     0.2%
 EFF. MASS   3.4402

 VIBRATION   16   16A       ATOM PAIR        ENERGY CONTRIBUTION    RADIAL
 FREQ.      1083.05        C  4 --  H 12          +22.0% ( 52.7%)     4.6%
 T-DIPOLE    0.0621        C  3 --  H 11          +19.9% ( 50.1%)     5.4%
 TRAVEL      0.1849        C  6 --  H 14          +17.9% ( 47.5%)     0.1%
 RED. MASS   0.2259        C  5 --  H 13          +15.3% ( 43.9%)     0.2%
 EFF. MASS   1.8204

 VIBRATION   17   17A       ATOM PAIR        ENERGY CONTRIBUTION    RADIAL
 FREQ.      1089.34        C  5 --  H 13          +32.4% ( 57.3%)     0.0%
 T-DIPOLE    0.0437        C  6 --  H 14          +29.2% ( 54.4%)     0.0%
 TRAVEL      0.2235        C  3 --  H 11          +16.7% ( 41.2%)     0.8%
 RED. MASS   0.2696        C  4 --  H 12          +14.3% ( 38.0%)     1.3%
 EFF. MASS   1.2387

 VIBRATION   18   18A       ATOM PAIR        ENERGY CONTRIBUTION    RADIAL
 FREQ.      1112.74        C  1 --  H  7          +30.5% ( 70.1%)     3.8%
 T-DIPOLE    0.1001        C  1 --  C  2          +11.2% ( 42.5%)    40.8%
 TRAVEL      0.1249        C  2 --  H 10          +10.6% ( 41.3%)    44.2%
 RED. MASS   0.5083        C  2 --  H  8           +7.9% ( 35.5%)     0.6%
 EFF. MASS   3.8869

 VIBRATION   19   19A       ATOM PAIR        ENERGY CONTRIBUTION    RADIAL
 FREQ.      1127.96        C  1 --  C  2          +14.5% ( 63.7%)    73.0%
 T-DIPOLE    0.1784        C  1 --  C  4          +11.1% ( 55.8%)    16.9%
 TRAVEL      0.0806        C  1 --  C  3          +11.1% ( 55.8%)    16.8%
 RED. MASS   1.0862        C  5 --  C  6           +7.5% ( 46.0%)   100.0%
 EFF. MASS   9.1945

 VIBRATION   20   20A       ATOM PAIR        ENERGY CONTRIBUTION    RADIAL
 FREQ.      1211.55        C  4 --  H 12          +14.4% ( 47.4%)     0.0%
 T-DIPOLE    0.0078        C  3 --  H 11          +14.3% ( 47.3%)     0.0%
 TRAVEL      0.1410        C  5 --  H 13          +12.6% ( 44.4%)     0.1%
 RED. MASS   0.2873        C  6 --  H 14          +12.6% ( 44.3%)     0.1%
 EFF. MASS   2.7993

 VIBRATION   21   21A       ATOM PAIR        ENERGY CONTRIBUTION    RADIAL
 FREQ.      1336.58        C  1 --  H  7          +14.9% ( 57.1%)     0.9%
 T-DIPOLE    0.1982        C  1 --  C  4          +14.2% ( 55.8%)    58.0%
 TRAVEL      0.0835        C  1 --  C  3          +13.9% ( 55.1%)    52.0%
 RED. MASS   1.6338        C  1 --  C  2          +11.4% ( 50.0%)    54.7%
 EFF. MASS   7.2322

 VIBRATION   22   22A       ATOM PAIR        ENERGY CONTRIBUTION    RADIAL
 FREQ.      1338.29        C  1 --  C  3          +21.1% ( 74.6%)    77.3%
 T-DIPOLE    0.0958        C  1 --  C  4          +20.8% ( 74.0%)    75.4%
 TRAVEL      0.0700        C  1 --  H  7          +14.1% ( 61.1%)     0.0%
 RED. MASS   3.5308        C  1 --  C  2          +12.5% ( 57.4%)     0.0%
 EFF. MASS  10.2873

 VIBRATION   23   23A       ATOM PAIR        ENERGY CONTRIBUTION    RADIAL
 FREQ.      1398.04        C  2 --  H  8          +41.0% ( 57.9%)     2.5%
 T-DIPOLE    0.0216        C  2 --  H  9          +40.9% ( 57.8%)     2.6%
 TRAVEL      0.1610        C  1 --  C  2           +7.0% ( 23.9%)    34.6%
 RED. MASS   0.4515        C  2 --  H 10           +6.5% ( 23.1%)    99.8%
 EFF. MASS   1.8616

 VIBRATION   24   24A       ATOM PAIR        ENERGY CONTRIBUTION    RADIAL
 FREQ.      1402.04        C  5 --  C  6          +18.9% ( 64.0%)   100.0%
 T-DIPOLE    0.2957        C  2 --  H 10           +9.2% ( 44.7%)     4.9%
 TRAVEL      0.0790        C  2 --  H  8           +7.9% ( 41.3%)     2.6%
 RED. MASS   1.1958        C  2 --  H  9           +7.6% ( 40.7%)     2.5%
 EFF. MASS   7.7048

 VIBRATION   25   25A       ATOM PAIR        ENERGY CONTRIBUTION    RADIAL
 FREQ.      1407.33        C  2 --  H 10          +52.9% ( 62.8%)     0.0%
 T-DIPOLE    0.0429        C  2 --  H  9          +21.1% ( 39.7%)    10.8%
 TRAVEL      0.1756        C  2 --  H  8          +20.4% ( 39.0%)    11.2%
 RED. MASS   0.4117        C  1 --  C  2           +4.9% ( 19.1%)     0.0%
 EFF. MASS   1.5538

 VIBRATION   26   26A       ATOM PAIR        ENERGY CONTRIBUTION    RADIAL
 FREQ.      1426.78        C  1 --  C  2          +14.9% ( 60.5%)    91.2%
 T-DIPOLE    0.0797        C  1 --  C  4          +10.7% ( 51.3%)    57.8%
 TRAVEL      0.0719        C  1 --  C  3          +10.7% ( 51.3%)    57.7%
 RED. MASS   1.5188        C  5 --  C  6           +9.0% ( 47.0%)   100.0%
 EFF. MASS   9.1541

 VIBRATION   27   27A       ATOM PAIR        ENERGY CONTRIBUTION    RADIAL
 FREQ.      1731.35        C  3 --  C  5          +18.2% ( 72.7%)    99.9%
 T-DIPOLE    0.3802        C  4 --  C  6          +18.2% ( 72.7%)    99.9%
 TRAVEL      0.0569        C  4 --  C  5          +10.7% ( 55.7%)    25.9%
 RED. MASS   2.7207        C  3 --  C  6          +10.7% ( 55.7%)    25.9%
 EFF. MASS  12.0251

 VIBRATION   28   28A       ATOM PAIR        ENERGY CONTRIBUTION    RADIAL
 FREQ.      1788.73        C  4 --  C  6          +17.9% ( 70.1%)    99.8%
 T-DIPOLE    0.3083        C  3 --  C  5          +17.9% ( 70.1%)    99.8%
 TRAVEL      0.0565        C  5 --  C  6          +12.1% ( 57.8%)     0.0%
 RED. MASS   2.6862        C  4 --  C  5          +10.9% ( 54.7%)    66.1%
 EFF. MASS  11.7991        C  3 --  C  6          +10.9% ( 54.7%)    65.9%

 VIBRATION   29   29A       ATOM PAIR        ENERGY CONTRIBUTION    RADIAL
 FREQ.      2894.80        C  1 --  H  7          +96.8% ( 99.9%)   100.0%
 T-DIPOLE    0.1993        C  1 --  C  2           +1.0% ( 10.2%)    10.0%
 TRAVEL      0.1273        C  1 --  C  3           +1.0% ( 10.2%)    10.5%
 RED. MASS   0.9279        C  1 --  C  4           +1.0% ( 10.2%)    10.5%
 EFF. MASS   1.4364

 VIBRATION   30   30A       ATOM PAIR        ENERGY CONTRIBUTION    RADIAL
 FREQ.      3084.64        C  2 --  H 10          +62.7% ( 81.7%)    98.8%
 T-DIPOLE    0.0375        C  2 --  H  9          +22.6% ( 49.1%)    88.8%
 TRAVEL      0.1205        C  2 --  H  8          +13.5% ( 38.0%)    79.9%
 RED. MASS   0.4929        C  1 --  C  2           +1.0% ( 10.3%)     0.0%
 EFF. MASS   1.5061

 VIBRATION   31   31A       ATOM PAIR        ENERGY CONTRIBUTION    RADIAL
 FREQ.      3085.45        C  2 --  H  8          +53.3% ( 75.3%)    97.6%
 T-DIPOLE    0.0228        C  2 --  H  9          +44.3% ( 68.7%)    96.3%
 TRAVEL      0.1203        C  2 --  H 10           +1.4% ( 12.1%)    10.0%
 RED. MASS   0.5105        C  1 --  C  2           +1.0% ( 10.4%)     0.0%
 EFF. MASS   1.5089

 VIBRATION   32   32A       ATOM PAIR        ENERGY CONTRIBUTION    RADIAL
 FREQ.      3132.12        C  5 --  H 13          +37.5% ( 62.7%)   100.0%
 T-DIPOLE    0.0928        C  6 --  H 14          +33.6% ( 59.4%)   100.0%
 TRAVEL      0.1203        C  3 --  H 11          +13.2% ( 37.3%)   100.0%
 RED. MASS   0.2887        C  4 --  H 12          +11.3% ( 34.5%)   100.0%
 EFF. MASS   1.4879

 VIBRATION   33   33A       ATOM PAIR        ENERGY CONTRIBUTION    RADIAL
 FREQ.      3134.42        C  6 --  H 14          +29.3% ( 55.4%)   100.0%
 T-DIPOLE    0.5057        C  5 --  H 13          +25.4% ( 51.6%)   100.0%
 TRAVEL      0.1209        C  4 --  H 12          +21.5% ( 47.5%)   100.0%
 RED. MASS   0.2381        C  3 --  H 11          +19.7% ( 45.4%)   100.0%
 EFF. MASS   1.4723

 VIBRATION   34   34A       ATOM PAIR        ENERGY CONTRIBUTION    RADIAL
 FREQ.      3146.80        C  3 --  H 11          +35.5% ( 61.2%)   100.0%
 T-DIPOLE    0.5669        C  4 --  H 12          +34.7% ( 60.6%)   100.0%
 TRAVEL      0.1160        C  5 --  H 13          +12.3% ( 36.1%)    99.8%
 RED. MASS   0.2884        C  6 --  H 14          +11.8% ( 35.3%)    99.8%
 EFF. MASS   1.5930

 VIBRATION   35   35A       ATOM PAIR        ENERGY CONTRIBUTION    RADIAL
 FREQ.      3156.41        C  4 --  H 12          +27.1% ( 53.6%)    99.9%
 T-DIPOLE    0.1636        C  3 --  H 11          +26.3% ( 52.8%)    99.9%
 TRAVEL      0.1121        C  6 --  H 14          +20.2% ( 46.3%)   100.0%
 RED. MASS   0.2394        C  5 --  H 13          +19.7% ( 45.7%)   100.0%
 EFF. MASS   1.6991

 VIBRATION   36   36A       ATOM PAIR        ENERGY CONTRIBUTION    RADIAL
 FREQ.      3180.07        C  2 --  H 10          +35.3% ( 57.2%)    97.4%
 T-DIPOLE    0.0293        C  2 --  H  8          +32.3% ( 54.7%)    97.0%
 TRAVEL      0.1367        C  2 --  H  9          +32.1% ( 54.5%)    96.9%
 RED. MASS   0.3276        C  1 --  C  2           +0.3% (  5.0%)    99.8%
 EFF. MASS   1.1343

 SYMMETRY NUMBER FOR POINT-GROUP C1  =  1


          SYSTEM IS A GROUND STATE


    NULL



          MOLECULE IS NOT LINEAR

          THERE ARE 36 GENUINE VIBRATIONS IN THIS SYSTEM
          THIS THERMODYNAMICS CALCULATION IS LIMITED TO
          MOLECULES WHICH HAVE NO INTERNAL ROTATIONS




                    CALCULATED THERMODYNAMIC PROPERTIES
                                          *
   TEMP. (K)   PARTITION FUNCTION   H.O.F.    ENTHALPY  HEAT CAPACITY ENTROPY
                                   KCAL/MOL   CAL/MOLE    CAL/K/MOL  CAL/K/MOL


 298.00  VIB.     0.5148D+01                  1705.9846    14.8694     8.9809
         ROT.     0.1059D+06                   888.2813     2.9808    25.9741
         INT.     0.5453D+06                  2594.2660    17.8502    34.9550
         TRA.     0.6934D+27                  1480.4688     4.9680    39.0554
         TOT.                       26.947    4074.7348    22.8182    74.0104

 200.00  VIB.     0.2199D+01                   608.3016     7.8167     4.6077
         ROT.     0.5825D+05                   596.1620     2.9808    24.7854
         INT.     0.1281D+06                  1204.4636    10.7975    29.3931
         TRA.     0.3813D+27                   993.6033     4.9680    37.0743
         TOT.                       25.070    2198.0668    15.7655    66.4674

 210.00  VIB.     0.2377D+01                   689.5809     8.4438     5.0041
         ROT.     0.6267D+05                   625.9700     2.9808    24.9308
         INT.     0.1490D+06                  1315.5510    11.4246    29.9350
         TRA.     0.4102D+27                  1043.2834     4.9680    37.3167
         TOT.                       25.231    2358.8344    16.3926    67.2517

 220.00  VIB.     0.2574D+01                   777.2672     9.0979     5.4119
         ROT.     0.6720D+05                   655.7781     2.9808    25.0695
         INT.     0.1730D+06                  1433.0454    12.0787    30.4814
         TRA.     0.4399D+27                  1092.9636     4.9680    37.5478
         TOT.                       25.398    2526.0090    17.0467    68.0292

 230.00  VIB.     0.2794D+01                   871.6224     9.7772     5.8312
         ROT.     0.7184D+05                   685.5862     2.9808    25.2020
         INT.     0.2007D+06                  1557.2086    12.7580    31.0333
         TRA.     0.4702D+27                  1142.6437     4.9680    37.7686
         TOT.                       25.572    2699.8524    17.7260    68.8019

 240.00  VIB.     0.3038D+01                   972.8879    10.4795     6.2621
         ROT.     0.7657D+05                   715.3943     2.9808    25.3289
         INT.     0.2327D+06                  1688.2823    13.4603    31.5910
         TRA.     0.5012D+27                  1192.3239     4.9680    37.9801
         TOT.                       25.753    2880.6062    18.4284    69.5711

 250.00  VIB.     0.3311D+01                  1081.2813    11.2023     6.7045
         ROT.     0.8141D+05                   745.2024     2.9808    25.4506
         INT.     0.2696D+06                  1826.4838    14.1831    32.1551
         TRA.     0.5328D+27                  1242.0041     4.9680    38.1829
         TOT.                       25.941    3068.4878    19.1512    70.3379

 260.00  VIB.     0.3616D+01                  1196.9937    11.9429     7.1582
         ROT.     0.8634D+05                   775.0105     2.9808    25.5675
         INT.     0.3122D+06                  1972.0043    14.9237    32.7257
         TRA.     0.5651D+27                  1291.6842     4.9680    38.3777
         TOT.                       26.136    3263.6885    19.8917    71.1034

 270.00  VIB.     0.3957D+01                  1320.1885    12.6983     7.6231
         ROT.     0.9137D+05                   804.8186     2.9808    25.6800
         INT.     0.3616D+06                  2125.0071    15.6791    33.3031
         TRA.     0.5980D+27                  1341.3644     4.9680    38.5652
         TOT.                       26.339    3466.3715    20.6472    71.8683

 280.00  VIB.     0.4339D+01                  1451.0008    13.4659     8.0987
         ROT.     0.9649D+05                   834.6267     2.9808    25.7884
         INT.     0.4187D+06                  2285.6276    16.4467    33.8871
         TRA.     0.6316D+27                  1391.0445     4.9680    38.7459
         TOT.                       26.549    3676.6721    21.4147    72.6330

 290.00  VIB.     0.4767D+01                  1589.5381    14.2429     8.5848
         ROT.     0.1017D+06                   864.4348     2.9808    25.8930
         INT.     0.4849D+06                  2453.9729    17.2237    34.4778
         TRA.     0.6657D+27                  1440.7247     4.9680    38.9202
         TOT.                       26.767    3894.6976    22.1917    73.3980

 300.00  VIB.     0.5248D+01                  1735.8805    15.0265     9.0809
         ROT.     0.1070D+06                   894.2429     2.9808    25.9940
         INT.     0.5616D+06                  2630.1235    18.0073    35.0749
         TRA.     0.7004D+27                  1490.4049     4.9680    39.0887
         TOT.                       26.993    4120.5283    22.9754    74.1635

 310.00  VIB.     0.5789D+01                  1890.0829    15.8144     9.5864
         ROT.     0.1124D+06                   924.0510     2.9808    26.0918
         INT.     0.6507D+06                  2814.1340    18.7953    35.6782
         TRA.     0.7357D+27                  1540.0850     4.9680    39.2516
         TOT.                       27.227    4354.2190    23.7633    74.9297

 320.00  VIB.     0.6397D+01                  2052.1758    16.6043    10.1010
         ROT.     0.1179D+06                   953.8591     2.9808    26.1864
         INT.     0.7541D+06                  3006.0350    19.5851    36.2874
         TRA.     0.7716D+27                  1589.7652     4.9680    39.4093
         TOT.                       27.468    4595.8002    24.5531    75.6967

 330.00  VIB.     0.7082D+01                  2222.1675    17.3939    10.6240
         ROT.     0.1235D+06                   983.6672     2.9808    26.2781
         INT.     0.8744D+06                  3205.8348    20.3747    36.9021
         TRA.     0.8081D+27                  1639.4454     4.9680    39.5622
         TOT.                       27.718    4845.2801    25.3427    76.4643

 340.00  VIB.     0.7855D+01                  2400.0461    18.1813    11.1550
         ROT.     0.1291D+06                  1013.4753     2.9808    26.3671
         INT.     0.1014D+07                  3413.5214    21.1621    37.5221
         TRA.     0.8451D+27                  1689.1255     4.9680    39.7105
         TOT.                       27.975    5102.6469    26.1301    77.2326

 350.00  VIB.     0.8728D+01                  2585.7809    18.9649    11.6933
         ROT.     0.1348D+06                  1043.2834     2.9808    26.4535
         INT.     0.1177D+07                  3629.0644    21.9457    38.1468
         TRA.     0.8827D+27                  1738.8057     4.9680    39.8545
         TOT.                       28.240    5367.8700    26.9137    78.0013

 360.00  VIB.     0.9714D+01                  2779.3254    19.7430    12.2385
         ROT.     0.1407D+06                  1073.0915     2.9808    26.5375
         INT.     0.1367D+07                  3852.4169    22.7238    38.7760
         TRA.     0.9207D+27                  1788.4859     4.9680    39.9944
         TOT.                       28.513    5640.9028    27.6918    78.7704

 370.00  VIB.     0.1083D+02                  2980.6181    20.5143    12.7900
         ROT.     0.1466D+06                  1102.8996     2.9808    26.6192
         INT.     0.1587D+07                  4083.5177    23.4951    39.4091
         TRA.     0.9594D+27                  1838.1660     4.9680    40.1306
         TOT.                       28.794    5921.6837    28.4631    79.5397

 380.00  VIB.     0.1209D+02                  3189.5852    21.2777    13.3472
         ROT.     0.1526D+06                  1132.7077     2.9808    26.6987
         INT.     0.1845D+07                  4322.2929    24.2585    40.0458
         TRA.     0.9985D+27                  1887.8462     4.9680    40.2630
         TOT.                       29.082    6210.1391    29.2265    80.3089

 390.00  VIB.     0.1353D+02                  3406.1418    22.0321    13.9097
         ROT.     0.1586D+06                  1162.5158     2.9808    26.7761
         INT.     0.2145D+07                  4568.6576    25.0129    40.6858
         TRA.     0.1038D+28                  1937.5263     4.9680    40.3921
         TOT.                       29.378    6506.1839    29.9809    81.0778

 400.00  VIB.     0.1515D+02                  3630.1938    22.7766    14.4769
         ROT.     0.1648D+06                  1192.3239     2.9808    26.8515
         INT.     0.2496D+07                  4822.5177    25.7574    41.3284
         TRA.     0.1078D+28                  1987.2065     4.9680    40.5179
         TOT.                       29.682    6809.7242    30.7255    81.8463

   *: NOTE: HEATS OF FORMATION ARE RELATIVE TO THE
            ELEMENTS IN THEIR STANDARD STATE AT 298K
              (=  Standard Enthalpy of Formation).

            Hvib:  Zero-point energy is not included.
                   frequencies of less than zero cm-1 are not included.
            Hrot = (3/2)RT
            Htra = (3/2)RT + pV = (5/2)RT

            Heat capacity is Cp, not Cv

           For more information, see: HTTP://OpenMOPAC.net/Manual/thermochemistry.html


           FORCE CONSTANT IN CARTESIAN COORDINATES (Millidynes/A)

    ATOM   CHEMICAL       X               Y               Z
   NUMBER   SYMBOL  FORCE CONSTANT  FORCE CONSTANT  FORCE CONSTANT

      1       C        8.967591        8.099251        8.634723
      2       C        8.305991        8.338315        8.292043
      3       C        6.693941        8.637583       11.442763
      4       C        6.701307       12.749328        7.344484
      5       C        7.388448       10.325714        9.731633
      6       C        7.389270        9.776107       10.265823
      7       H        1.143820        1.616726        3.138444
      8       H        1.250370        4.844850        0.667334
      9       H        1.250477        1.558843        3.952242
     10       H        1.284265        1.855971        3.637001
     11       H        0.688939        2.789045        2.979415
     12       H        0.689399        4.736028        1.033237
     13       H        1.806323        3.755313        0.899530
     14       H        1.806156        0.725880        3.931381



 TOTAL CPU TIME:             0.64 SECONDS

 == MOPAC DONE ==
