 *******************************************************************************
 ** Site#: 14399           For non-commercial use only        Version 13.159M **
 *******************************************************************************
 ** Cite this work as: MOPAC2012, James J. P. Stewart, Stewart Computational  **
 ** Chemistry, Version 13.159M web: HTTP://OpenMOPAC.net  Days remaining:   6 **
 *******************************************************************************
 **                                                                           **
 **                                MOPAC2012                                  **
 **                                                                           **
 *******************************************************************************

                            PM3 CALCULATION RESULTS


 *******************************************************************************
 *  CALCULATION DONE:                                Mon Jun  2 11:13:28 2014  *
 *  PM3      - The PM3 Hamiltonian to be used
 *  PRECISE  - CRITERIA TO BE INCREASED BY 100 TIMES
 *  NOSYM    - POINT-GROUP SYMMETRY SET TO C1
 *  T=       - A TIME OF 172800.0 SECONDS REQUESTED
 *  DUMP=N   - RESTART FILE WRITTEN EVERY  7200.000 SECONDS
 *******************************************************************************
pm3  precise nosym
 InChI=1S/C10H12/c1-3-9(4-2)10-7-5-6-8-10/h3-10H,1-2H2

   ATOM   CHEMICAL          X               Y               Z
  NUMBER   SYMBOL      (ANGSTROMS)     (ANGSTROMS)     (ANGSTROMS)
 
     1       C         -0.65070000  *   0.15630000  *   0.87640000  *
     2       C          0.65630000  *  -0.06050000  *   0.08880000  *
     3       C         -1.46000000  *   1.31240000  *   0.36340000  *
     4       C         -1.64370000  *  -0.95320000  *   0.68210000  *
     5       C          1.58310000  *   1.11920000  *   0.24710000  *
     6       C          1.38840000  *  -1.28270000  *   0.58500000  *
     7       C         -2.65300000  *   0.92170000  *  -0.05090000  *
     8       C         -2.76890000  *  -0.50770000  *   0.15020000  *
     9       C          2.01010000  *   1.85140000  *  -0.78540000  *
    10       C          1.67120000  *  -2.32770000  *  -0.19760000  *
    11       H         -0.45180000  *   0.29330000  *   1.96550000  *
    12       H          0.38650000  *  -0.19020000  *  -0.98910000  *
    13       H         -1.12330000  *   2.34390000  *   0.33690000  *
    14       H         -1.47480000  *  -1.99220000  *   0.94690000  *
    15       H          1.91740000  *   1.39170000  *   1.24830000  *
    16       H          1.69760000  *  -1.31960000  *   1.62960000  *
    17       H         -3.41790000  *   1.57290000  *  -0.46060000  *
    18       H         -3.63600000  *  -1.11690000  *  -0.08220000  *
    19       H          2.67640000  *   2.69510000  *  -0.61630000  *
    20       H          1.70810000  *   1.62980000  *  -1.80760000  *
    21       H          2.19950000  *  -3.18700000  *   0.21110000  *
    22       H          1.38540000  *  -2.35000000  *  -1.24780000  *
 


          CARTESIAN COORDINATES 

    NO.       ATOM         X         Y         Z

     1         C       -0.6507    0.1563    0.8764
     2         C        0.6563   -0.0605    0.0888
     3         C       -1.4600    1.3124    0.3634
     4         C       -1.6437   -0.9532    0.6821
     5         C        1.5831    1.1192    0.2471
     6         C        1.3884   -1.2827    0.5850
     7         C       -2.6530    0.9217   -0.0509
     8         C       -2.7689   -0.5077    0.1502
     9         C        2.0101    1.8514   -0.7854
    10         C        1.6712   -2.3277   -0.1976
    11         H       -0.4518    0.2933    1.9655
    12         H        0.3865   -0.1902   -0.9891
    13         H       -1.1233    2.3439    0.3369
    14         H       -1.4748   -1.9922    0.9469
    15         H        1.9174    1.3917    1.2483
    16         H        1.6976   -1.3196    1.6296
    17         H       -3.4179    1.5729   -0.4606
    18         H       -3.6360   -1.1169   -0.0822
    19         H        2.6764    2.6951   -0.6163
    20         H        1.7081    1.6298   -1.8076
    21         H        2.1995   -3.1870    0.2111
    22         H        1.3854   -2.3500   -1.2478

  H: (PM3): J. J. P. STEWART, J. COMP. CHEM. 10, 209 (1989).
  C: (PM3): J. J. P. STEWART, J. COMP. CHEM. 10, 209 (1989).

           Empirical Formula: C10 H12  =    22 atoms



      MOLECULAR POINT GROUP   :   C1  


      RHF CALCULATION, NO. OF DOUBLY OCCUPIED LEVELS =   26

      Geometry optimization using EF

          DIAGONAL MATRIX USED AS START HESSIAN

 CYCLE:     1 TIME:   0.010 TIME LEFT:  2.00D  GRAD.:   112.130 HEAT: 72.85346
 CYCLE:     2 TIME:   0.020 TIME LEFT:  2.00D  GRAD.:    73.362 HEAT: 71.38906
 CYCLE:     3 TIME:   0.007 TIME LEFT:  2.00D  GRAD.:    56.052 HEAT: 70.27119
 CYCLE:     4 TIME:   0.013 TIME LEFT:  2.00D  GRAD.:    60.649 HEAT: 70.08176
 CYCLE:     5 TIME:   0.007 TIME LEFT:  2.00D  GRAD.:    37.229 HEAT: 69.62590
 CYCLE:     6 TIME:   0.013 TIME LEFT:  2.00D  GRAD.:    34.059 HEAT: 69.35231
 CYCLE:     7 TIME:   0.013 TIME LEFT:  2.00D  GRAD.:    19.269 HEAT: 69.18096
 CYCLE:     8 TIME:   0.007 TIME LEFT:  2.00D  GRAD.:    25.875 HEAT: 69.11162
 CYCLE:     9 TIME:   0.007 TIME LEFT:  2.00D  GRAD.:    15.685 HEAT: 68.93543
 CYCLE:    10 TIME:   0.007 TIME LEFT:  2.00D  GRAD.:    32.815 HEAT: 68.91860
 CYCLE:    11 TIME:   0.007 TIME LEFT:  2.00D  GRAD.:    12.603 HEAT: 68.66113
 CYCLE:    12 TIME:   0.019 TIME LEFT:  2.00D  GRAD.:     7.736 HEAT: 68.62600
 CYCLE:    13 TIME:   0.007 TIME LEFT:  2.00D  GRAD.:     5.118 HEAT: 68.59352
 CYCLE:    14 TIME:   0.007 TIME LEFT:  2.00D  GRAD.:    11.122 HEAT: 68.58651
 CYCLE:    15 TIME:   0.007 TIME LEFT:  2.00D  GRAD.:     8.371 HEAT: 68.54746
 CYCLE:    16 TIME:   0.012 TIME LEFT:  2.00D  GRAD.:     8.930 HEAT: 68.54053
 CYCLE:    17 TIME:   0.007 TIME LEFT:  2.00D  GRAD.:     4.823 HEAT: 68.51727
 CYCLE:    18 TIME:   0.007 TIME LEFT:  2.00D  GRAD.:     6.518 HEAT: 68.51066
 CYCLE:    19 TIME:   0.007 TIME LEFT:  2.00D  GRAD.:     4.393 HEAT: 68.49465
 CYCLE:    20 TIME:   0.012 TIME LEFT:  2.00D  GRAD.:     5.652 HEAT: 68.49267
 CYCLE:    21 TIME:   0.007 TIME LEFT:  2.00D  GRAD.:     3.879 HEAT: 68.48260
 CYCLE:    22 TIME:   0.012 TIME LEFT:  2.00D  GRAD.:     4.289 HEAT: 68.48074
 CYCLE:    23 TIME:   0.007 TIME LEFT:  2.00D  GRAD.:     3.323 HEAT: 68.47585
 CYCLE:    24 TIME:   0.007 TIME LEFT:  2.00D  GRAD.:     4.309 HEAT: 68.47444
 CYCLE:    25 TIME:   0.006 TIME LEFT:  2.00D  GRAD.:     2.041 HEAT: 68.46807
 CYCLE:    26 TIME:   0.007 TIME LEFT:  2.00D  GRAD.:     5.182 HEAT: 68.47256
 CYCLE:    27 TIME:   0.006 TIME LEFT:  2.00D  GRAD.:     1.477 HEAT: 68.46395
 CYCLE:    28 TIME:   0.007 TIME LEFT:  2.00D  GRAD.:     2.784 HEAT: 68.46293
 CYCLE:    29 TIME:   0.007 TIME LEFT:  2.00D  GRAD.:     2.111 HEAT: 68.45835
 CYCLE:    30 TIME:   0.007 TIME LEFT:  2.00D  GRAD.:     3.984 HEAT: 68.45399
 CYCLE:    31 TIME:   0.006 TIME LEFT:  2.00D  GRAD.:     2.630 HEAT: 68.44782
 CYCLE:    32 TIME:   0.007 TIME LEFT:  2.00D  GRAD.:     1.569 HEAT: 68.44385
 CYCLE:    33 TIME:   0.007 TIME LEFT:  2.00D  GRAD.:     1.189 HEAT: 68.44135
 CYCLE:    34 TIME:   0.011 TIME LEFT:  2.00D  GRAD.:     1.860 HEAT: 68.43843
 CYCLE:    35 TIME:   0.008 TIME LEFT:  2.00D  GRAD.:     1.347 HEAT: 68.43655
 CYCLE:    36 TIME:   0.007 TIME LEFT:  2.00D  GRAD.:     0.949 HEAT: 68.43498
 CYCLE:    37 TIME:   0.009 TIME LEFT:  2.00D  GRAD.:     0.733 HEAT: 68.43387
 CYCLE:    38 TIME:   0.007 TIME LEFT:  2.00D  GRAD.:     0.788 HEAT: 68.43320
 CYCLE:    39 TIME:   0.008 TIME LEFT:  2.00D  GRAD.:     0.387 HEAT: 68.43275
 CYCLE:    40 TIME:   0.007 TIME LEFT:  2.00D  GRAD.:     0.249 HEAT: 68.43257
 CYCLE:    41 TIME:   0.007 TIME LEFT:  2.00D  GRAD.:     0.260 HEAT: 68.43245
 CYCLE:    42 TIME:   0.007 TIME LEFT:  2.00D  GRAD.:     0.268 HEAT: 68.43231
 CYCLE:    43 TIME:   0.007 TIME LEFT:  2.00D  GRAD.:     0.272 HEAT: 68.43220
 CYCLE:    44 TIME:   0.007 TIME LEFT:  2.00D  GRAD.:     0.278 HEAT: 68.43208
 CYCLE:    45 TIME:   0.007 TIME LEFT:  2.00D  GRAD.:     0.319 HEAT: 68.43191
 CYCLE:    46 TIME:   0.007 TIME LEFT:  2.00D  GRAD.:     0.365 HEAT: 68.43165
 CYCLE:    47 TIME:   0.011 TIME LEFT:  2.00D  GRAD.:     0.356 HEAT: 68.43142
 CYCLE:    48 TIME:   0.007 TIME LEFT:  2.00D  GRAD.:     0.304 HEAT: 68.43120
 CYCLE:    49 TIME:   0.007 TIME LEFT:  2.00D  GRAD.:     0.321 HEAT: 68.43101
 CYCLE:    50 TIME:   0.007 TIME LEFT:  2.00D  GRAD.:     0.338 HEAT: 68.43080
 CYCLE:    51 TIME:   0.009 TIME LEFT:  2.00D  GRAD.:     0.347 HEAT: 68.43053
 CYCLE:    52 TIME:   0.009 TIME LEFT:  2.00D  GRAD.:     0.328 HEAT: 68.43029
 CYCLE:    53 TIME:   0.008 TIME LEFT:  2.00D  GRAD.:     0.324 HEAT: 68.43005
 CYCLE:    54 TIME:   0.007 TIME LEFT:  2.00D  GRAD.:     0.334 HEAT: 68.42982
 CYCLE:    55 TIME:   0.008 TIME LEFT:  2.00D  GRAD.:     0.330 HEAT: 68.42954
 CYCLE:    56 TIME:   0.007 TIME LEFT:  2.00D  GRAD.:     0.345 HEAT: 68.42922
 CYCLE:    57 TIME:   0.007 TIME LEFT:  2.00D  GRAD.:     0.352 HEAT: 68.42897
 CYCLE:    58 TIME:   0.007 TIME LEFT:  2.00D  GRAD.:     0.380 HEAT: 68.42865
 CYCLE:    59 TIME:   0.007 TIME LEFT:  2.00D  GRAD.:     0.471 HEAT: 68.42824
 CYCLE:    60 TIME:   0.007 TIME LEFT:  2.00D  GRAD.:     0.527 HEAT: 68.42775
 CYCLE:    61 TIME:   0.007 TIME LEFT:  2.00D  GRAD.:     0.624 HEAT: 68.42681
 CYCLE:    62 TIME:   0.007 TIME LEFT:  2.00D  GRAD.:     0.542 HEAT: 68.42624
 CYCLE:    63 TIME:   0.007 TIME LEFT:  2.00D  GRAD.:     0.657 HEAT: 68.42496
 CYCLE:    64 TIME:   0.007 TIME LEFT:  2.00D  GRAD.:     0.517 HEAT: 68.42450
 CYCLE:    65 TIME:   0.007 TIME LEFT:  2.00D  GRAD.:     0.645 HEAT: 68.42344
 CYCLE:    66 TIME:   0.007 TIME LEFT:  2.00D  GRAD.:     0.393 HEAT: 68.42307
 CYCLE:    67 TIME:   0.007 TIME LEFT:  2.00D  GRAD.:     0.319 HEAT: 68.42255
 CYCLE:    68 TIME:   0.007 TIME LEFT:  2.00D  GRAD.:     0.442 HEAT: 68.42195
 CYCLE:    69 TIME:   0.007 TIME LEFT:  2.00D  GRAD.:     0.429 HEAT: 68.42137
 CYCLE:    70 TIME:   0.008 TIME LEFT:  2.00D  GRAD.:     0.325 HEAT: 68.42095
 CYCLE:    71 TIME:   0.008 TIME LEFT:  2.00D  GRAD.:     0.234 HEAT: 68.42066
 CYCLE:    72 TIME:   0.007 TIME LEFT:  2.00D  GRAD.:     0.144 HEAT: 68.42057
 CYCLE:    73 TIME:   0.009 TIME LEFT:  2.00D  GRAD.:     0.118 HEAT: 68.42052
 CYCLE:    74 TIME:   0.011 TIME LEFT:  2.00D  GRAD.:     0.063 HEAT: 68.42050
 CYCLE:    75 TIME:   0.007 TIME LEFT:  2.00D  GRAD.:     0.063 HEAT: 68.42049
 CYCLE:    76 TIME:   0.007 TIME LEFT:  2.00D  GRAD.:     0.138 HEAT: 68.42050
 CYCLE:    77 TIME:   0.007 TIME LEFT:  2.00D  GRAD.:     0.043 HEAT: 68.42049

     RMS GRADIENT =  0.04322  IS LESS THAN CUTOFF =  0.05000



 -------------------------------------------------------------------------------
pm3  precise nosym
 InChI=1S/C10H12/c1-3-9(4-2)10-7-5-6-8-10/h3-10H,1-2H2



     GEOMETRY OPTIMISED USING EIGENVECTOR FOLLOWING (EF).     
     SCF FIELD WAS ACHIEVED                                   


                              PM3 CALCULATION
                                                       MOPAC2012 (Version: 13.159M)
                                                       Mon Jun  2 11:13:29 2014
                                                       No. of days left =   6




          FINAL HEAT OF FORMATION =         68.42049 KCAL/MOL =     286.27131 KJ/MOL


          TOTAL ENERGY            =      -1367.42931 EV
          ELECTRONIC ENERGY       =      -7352.29954 EV  POINT GROUP:     C1  
          CORE-CORE REPULSION     =       5984.87024 EV
          COSMO AREA              =        189.04 SQUARE ANGSTROMS
          COSMO VOLUME            =        195.33 CUBIC ANGSTROMS

          GRADIENT NORM           =          0.04322
          IONIZATION POTENTIAL    =          9.238859 EV
          HOMO LUMO ENERGIES (EV) =         -9.239  0.274
          NO. OF FILLED LEVELS    =         26
          MOLECULAR WEIGHT        =        132.205

          MOLECULAR DIMENSIONS (Angstroms)

            Atom       Atom       Distance
            H    17    H    21     7.44669
            H    19    H    18     7.01073
            H    11    H    22     3.49912


          SCF CALCULATIONS        =         88
          COMPUTATION TIME        =          0.634 SECONDS




   ATOM   CHEMICAL          X               Y               Z
  NUMBER   SYMBOL      (ANGSTROMS)     (ANGSTROMS)     (ANGSTROMS)
 
     1       C         -0.65561440  *   0.15249117  *   0.84503617  *
     2       C          0.64960611  *  -0.06231267  *   0.06846922  *
     3       C         -1.44810922  *   1.33766107  *   0.34338188  *
     4       C         -1.63584100  *  -0.98469992  *   0.67100828  *
     5       C          1.55606027  *   1.11964244  *   0.24780807  *
     6       C          1.36192002  *  -1.27782691  *   0.58414098  *
     7       C         -2.68612161  *   0.93743494  *  -0.01803524  *
     8       C         -2.80310957  *  -0.50947765  *   0.18611586  *
     9       C          2.04445162  *   1.81575238  *  -0.77136626  *
    10       C          1.70858481  *  -2.29569375  *  -0.19405448  *
    11       H         -0.43884042  *   0.28821964  *   1.93201496  *
    12       H          0.39907773  *  -0.19385085  *  -1.01382606  *
    13       H         -1.02619570  *   2.33980891  *   0.30322158  *
    14       H         -1.37793825  *  -2.01267299  *   0.91736406  *
    15       H          1.80576525  *   1.37564798  *   1.28485045  *
    16       H          1.59391734  *  -1.27511520  *   1.65628790  *
    17       H         -3.49569911  *   1.55381675  *  -0.40363814  *
    18       H         -3.70802062  *  -1.07261976  *  -0.03303238  *
    19       H          2.70743272  *   2.66466361  *  -0.63454020  *
    20       H          1.81994870  *   1.59064263  *  -1.81071721  *
    21       H          2.23221495  *  -3.16829750  *   0.18444754  *
    22       H          1.49687939  *  -2.33246134  *  -1.25948503  *

           Empirical Formula: C10 H12  =    22 atoms



      MOLECULAR POINT GROUP   :   C1  


                  EIGENVALUES  
 -41.08923 -35.86311 -31.70861 -27.99210 -27.18696 -23.62166 -20.11811 -20.00649
 -19.02075 -18.34993 -17.94758 -16.19138 -16.02988 -15.65238 -14.66652 -13.92287
 -13.58360 -13.22978 -12.92077 -12.77446 -12.14630 -11.99877 -11.11706 -10.33296
 -10.27589  -9.23886   0.27366   0.93108   1.26038   2.02065   3.11327   3.33235
   3.45176   3.48304   3.61597   3.76333   3.78069   3.97124   4.01761   4.11128
   4.20786   4.36525   4.40525   4.61182   4.71877   5.43353   5.53627   5.61796
   5.72545   5.81922   5.93982   6.16149


              NET ATOMIC CHARGES AND DIPOLE CONTRIBUTIONS

  ATOM NO.   TYPE          CHARGE      No. of ELECS.   s-Pop       p-Pop       
    1          C          -0.030067        4.0301     1.16766     2.86241
    2          C           0.008921        3.9911     1.15399     2.83709
    3          C          -0.157814        4.1578     1.20988     2.94794
    4          C          -0.157797        4.1578     1.20988     2.94792
    5          C          -0.137913        4.1379     1.19731     2.94060
    6          C          -0.137866        4.1379     1.19729     2.94057
    7          C          -0.119522        4.1195     1.19248     2.92704
    8          C          -0.119522        4.1195     1.19248     2.92704
    9          C          -0.155462        4.1555     1.18262     2.97284
   10          C          -0.155470        4.1555     1.18262     2.97285
   11          H           0.091913        0.9081     0.90809
   12          H           0.078815        0.9212     0.92118
   13          H           0.120210        0.8798     0.87979
   14          H           0.120213        0.8798     0.87979
   15          H           0.098874        0.9011     0.90113
   16          H           0.098864        0.9011     0.90114
   17          H           0.113900        0.8861     0.88610
   18          H           0.113907        0.8861     0.88609
   19          H           0.079430        0.9206     0.92057
   20          H           0.083481        0.9165     0.91652
   21          H           0.079414        0.9206     0.92059
   22          H           0.083490        0.9165     0.91651
 DIPOLE           X         Y         Z       TOTAL
 POINT-CHG.     0.333    -0.011     0.114     0.352
 HYBRID         0.022     0.009     0.077     0.081
 SUM            0.355    -0.002     0.191     0.404


          ATOMIC ORBITAL ELECTRON POPULATIONS

    Atom      s        px        py        pz   
    1  C   1.16766   0.94130   0.92947   0.99164
    2  C   1.15399   0.91490   0.92457   0.99761
    3  C   1.20988   0.96502   0.98060   1.00232
    4  C   1.20988   0.96191   0.97979   1.00622
    5  C   1.19731   0.98501   0.96766   0.98793
    6  C   1.19729   0.99209   0.95727   0.99122
    7  C   1.19248   0.97045   0.95166   1.00494
    8  C   1.19248   0.97554   0.94969   1.00182
    9  C   1.18262   0.99917   0.99301   0.98066
   10  C   1.18262   1.00241   0.97609   0.99435
   11  H   0.90809
   12  H   0.92118
   13  H   0.87979
   14  H   0.87979
   15  H   0.90113
   16  H   0.90114
   17  H   0.88610
   18  H   0.88609
   19  H   0.92057
   20  H   0.91652
   21  H   0.92059
   22  H   0.91651
 *******************************************************************************
 ** Site#: 14399           For non-commercial use only        Version 13.159M **
 *******************************************************************************
 ** Cite this work as: MOPAC2012, James J. P. Stewart, Stewart Computational  **
 ** Chemistry, Version 13.159M web: HTTP://OpenMOPAC.net  Days remaining:   6 **
 *******************************************************************************
 **                                                                           **
 **                                MOPAC2012                                  **
 **                                                                           **
 *******************************************************************************

                            PM3 CALCULATION RESULTS


 *******************************************************************************
 *  CALCULATION DONE:                                Mon Jun  2 11:13:29 2014  *
 *  PM3      - The PM3 Hamiltonian to be used
 *  OLDGEO   - PREVIOUS GEOMETRY TO BE USED
 *  PRECISE  - CRITERIA TO BE INCREASED BY 100 TIMES
 *  NOSYM    - POINT-GROUP SYMMETRY SET TO C1
 *  T=       - A TIME OF 172800.0 SECONDS REQUESTED
 *  DUMP=N   - RESTART FILE WRITTEN EVERY  7200.000 SECONDS
 *  THERMO   - THERMODYNAMIC QUANTITIES TO BE CALCULATED
 *******************************************************************************
oldgeo thermo nosym precise  pm3

   ATOM   CHEMICAL          X               Y               Z
  NUMBER   SYMBOL      (ANGSTROMS)     (ANGSTROMS)     (ANGSTROMS)
 
     1       C         -0.65561440  *   0.15249117  *   0.84503617  *
     2       C          0.64960611  *  -0.06231267  *   0.06846922  *
     3       C         -1.44810922  *   1.33766107  *   0.34338188  *
     4       C         -1.63584100  *  -0.98469992  *   0.67100828  *
     5       C          1.55606027  *   1.11964244  *   0.24780807  *
     6       C          1.36192002  *  -1.27782691  *   0.58414098  *
     7       C         -2.68612161  *   0.93743494  *  -0.01803524  *
     8       C         -2.80310957  *  -0.50947765  *   0.18611586  *
     9       C          2.04445162  *   1.81575238  *  -0.77136626  *
    10       C          1.70858481  *  -2.29569375  *  -0.19405448  *
    11       H         -0.43884042  *   0.28821964  *   1.93201496  *
    12       H          0.39907773  *  -0.19385085  *  -1.01382606  *
    13       H         -1.02619570  *   2.33980891  *   0.30322158  *
    14       H         -1.37793825  *  -2.01267299  *   0.91736406  *
    15       H          1.80576525  *   1.37564798  *   1.28485045  *
    16       H          1.59391734  *  -1.27511520  *   1.65628790  *
    17       H         -3.49569911  *   1.55381675  *  -0.40363814  *
    18       H         -3.70802062  *  -1.07261976  *  -0.03303238  *
    19       H          2.70743272  *   2.66466361  *  -0.63454020  *
    20       H          1.81994870  *   1.59064263  *  -1.81071721  *
    21       H          2.23221495  *  -3.16829750  *   0.18444754  *
    22       H          1.49687939  *  -2.33246134  *  -1.25948503  *
 


          CARTESIAN COORDINATES 

    NO.       ATOM         X         Y         Z

     1         C       -0.6556    0.1525    0.8450
     2         C        0.6496   -0.0623    0.0685
     3         C       -1.4481    1.3377    0.3434
     4         C       -1.6358   -0.9847    0.6710
     5         C        1.5561    1.1196    0.2478
     6         C        1.3619   -1.2778    0.5841
     7         C       -2.6861    0.9374   -0.0180
     8         C       -2.8031   -0.5095    0.1861
     9         C        2.0445    1.8158   -0.7714
    10         C        1.7086   -2.2957   -0.1941
    11         H       -0.4388    0.2882    1.9320
    12         H        0.3991   -0.1939   -1.0138
    13         H       -1.0262    2.3398    0.3032
    14         H       -1.3779   -2.0127    0.9174
    15         H        1.8058    1.3756    1.2849
    16         H        1.5939   -1.2751    1.6563
    17         H       -3.4957    1.5538   -0.4036
    18         H       -3.7080   -1.0726   -0.0330
    19         H        2.7074    2.6647   -0.6345
    20         H        1.8199    1.5906   -1.8107
    21         H        2.2322   -3.1683    0.1844
    22         H        1.4969   -2.3325   -1.2595

  H: (PM3): J. J. P. STEWART, J. COMP. CHEM. 10, 209 (1989).
  C: (PM3): J. J. P. STEWART, J. COMP. CHEM. 10, 209 (1989).

           Empirical Formula: C10 H12  =    22 atoms



      MOLECULAR POINT GROUP   :   C1  


      RHF CALCULATION, NO. OF DOUBLY OCCUPIED LEVELS =   26



          HEAT OF FORMATION =      68.420486 KCALS/MOLE


          INTERNAL COORDINATE DERIVATIVES

   NUMBER  ATOM       BOND         ANGLE      DIHEDRAL

     1       C     -0.001662     0.003374    -0.002421
     2       C     -0.003962     0.000891     0.002191
     3       C      0.018287    -0.002944     0.013427
     4       C     -0.003898     0.002666    -0.001295
     5       C      0.000008    -0.003892     0.004206
     6       C     -0.001340    -0.002985    -0.004773
     7       C      0.010564    -0.006528     0.000577
     8       C     -0.009590     0.005754    -0.008764
     9       C     -0.000341    -0.012834    -0.000962
    10       C     -0.003370     0.003481     0.001024
    11       H      0.001091    -0.002380     0.001415
    12       H     -0.002070     0.003199     0.001715
    13       H     -0.001176     0.001395    -0.006697
    14       H      0.001608     0.001128     0.006182
    15       H     -0.007229     0.005025    -0.001639
    16       H      0.011255     0.003935    -0.002303
    17       H     -0.004352     0.001685    -0.000248
    18       H     -0.000209    -0.003456    -0.000087
    19       H      0.000330     0.004487     0.003897
    20       H     -0.007055     0.000741    -0.003354
    21       H     -0.002977     0.007826    -0.000280
    22       H      0.006089    -0.010566    -0.001810


          GRADIENT NORM =   0.04358


          TIME FOR SCF CALCULATION =    0.01

          TIME FOR DERIVATIVES     =    0.00

          MOLECULAR WEIGHT =  132.20



          ROTATIONAL CONSTANTS IN CM(-1)

          A =    0.06468052   B =    0.03562872   C =    0.02519138



           PRINCIPAL MOMENTS OF INERTIA IN UNITS OF 10**(-40)*GRAM-CM**2

          A =      432.7852   B =      785.6800   C =     1111.2047


          ORIENTATION OF MOLECULE IN FORCE CALCULATION

    NO.       ATOM         X         Y         Z

     1          C      -0.7753   -0.1670    0.2638
     2          C       0.7586   -0.1670    0.2638
     3          C      -1.3616    1.2261    0.2638
     4          C      -1.3620   -0.7611   -0.9960
     5          C       1.2736    0.4751    1.5181
     6          C       1.2739   -1.5752    0.2162
     7          C      -2.1760    1.3772   -0.8026
     8          C      -2.1763    0.1391   -1.5875
     9          C       2.1077    1.5076    1.5103
    10          C       2.1054   -2.0081   -0.7234
    11          H      -1.1601   -0.7283    1.1491
    12          H       1.1118    0.4021   -0.6322
    13          H      -1.1226    1.9537    1.0367
    14          H      -1.1233   -1.7707   -1.3242
    15          H       0.9252    0.0308    2.4586
    16          H       0.9281   -2.2365    1.0202
    17          H      -2.7560    2.2569   -1.0742
    18          H      -2.7565    0.0095   -2.4989
    19          H       2.4837    1.9617    2.4221
    20          H       2.4744    1.9725    0.5988
    21          H       2.4815   -3.0264   -0.7463
    22          H       2.4698   -1.3819   -1.5336


    FIRST DERIVATIVES WILL BE USED IN THE CALCULATION OF SECOND DERIVATIVES

          ESTIMATED TIME TO COMPLETE CALCULATION =        2.73 SECONDS

    FOR POINT-GROUP C1   THERE ARE   1 UNIQUE SYMMETRY FUNCTIONS.

 STEP:   1 TIME =     0.03 SECS, INTEGRAL =      0.03 TIME LEFT: 172799.96
 STEP:   2 TIME =     0.03 SECS, INTEGRAL =      0.06 TIME LEFT: 172799.93
 STEP:   3 TIME =     0.03 SECS, INTEGRAL =      0.10 TIME LEFT: 172799.89
 STEP:   4 TIME =     0.03 SECS, INTEGRAL =      0.13 TIME LEFT: 172799.86
 STEP:   5 TIME =     0.03 SECS, INTEGRAL =      0.16 TIME LEFT: 172799.83
 STEP:   6 TIME =     0.03 SECS, INTEGRAL =      0.19 TIME LEFT: 172799.80
 STEP:   7 TIME =     0.04 SECS, INTEGRAL =      0.24 TIME LEFT: 172799.75
 STEP:   8 TIME =     0.04 SECS, INTEGRAL =      0.27 TIME LEFT: 172799.72
 STEP:   9 TIME =     0.04 SECS, INTEGRAL =      0.31 TIME LEFT: 172799.68
 STEP:  10 TIME =     0.03 SECS, INTEGRAL =      0.35 TIME LEFT: 172799.64
 STEP:  11 TIME =     0.03 SECS, INTEGRAL =      0.38 TIME LEFT: 172799.61
 STEP:  12 TIME =     0.03 SECS, INTEGRAL =      0.41 TIME LEFT: 172799.58
 STEP:  13 TIME =     0.03 SECS, INTEGRAL =      0.44 TIME LEFT: 172799.55
 STEP:  14 TIME =     0.03 SECS, INTEGRAL =      0.48 TIME LEFT: 172799.51
 STEP:  15 TIME =     0.03 SECS, INTEGRAL =      0.51 TIME LEFT: 172799.48
 STEP:  16 TIME =     0.03 SECS, INTEGRAL =      0.54 TIME LEFT: 172799.45
 STEP:  17 TIME =     0.03 SECS, INTEGRAL =      0.57 TIME LEFT: 172799.42
 STEP:  18 TIME =     0.03 SECS, INTEGRAL =      0.61 TIME LEFT: 172799.38
 STEP:  19 TIME =     0.03 SECS, INTEGRAL =      0.64 TIME LEFT: 172799.35
 STEP:  20 TIME =     0.03 SECS, INTEGRAL =      0.67 TIME LEFT: 172799.32
 STEP:  21 TIME =     0.03 SECS, INTEGRAL =      0.70 TIME LEFT: 172799.28
 STEP:  22 TIME =     0.03 SECS, INTEGRAL =      0.74 TIME LEFT: 172799.25
 STEP:  23 TIME =     0.03 SECS, INTEGRAL =      0.77 TIME LEFT: 172799.22
 STEP:  24 TIME =     0.03 SECS, INTEGRAL =      0.80 TIME LEFT: 172799.19
 STEP:  25 TIME =     0.03 SECS, INTEGRAL =      0.84 TIME LEFT: 172799.15
 STEP:  26 TIME =     0.03 SECS, INTEGRAL =      0.87 TIME LEFT: 172799.12
 STEP:  27 TIME =     0.03 SECS, INTEGRAL =      0.90 TIME LEFT: 172799.09
 STEP:  28 TIME =     0.03 SECS, INTEGRAL =      0.93 TIME LEFT: 172799.06
 STEP:  29 TIME =     0.03 SECS, INTEGRAL =      0.96 TIME LEFT: 172799.03
 STEP:  30 TIME =     0.03 SECS, INTEGRAL =      1.00 TIME LEFT: 172798.99
 STEP:  31 TIME =     0.03 SECS, INTEGRAL =      1.03 TIME LEFT: 172798.96
 STEP:  32 TIME =     0.03 SECS, INTEGRAL =      1.06 TIME LEFT: 172798.93
 STEP:  33 TIME =     0.03 SECS, INTEGRAL =      1.09 TIME LEFT: 172798.90
 STEP:  34 TIME =     0.04 SECS, INTEGRAL =      1.13 TIME LEFT: 172798.86
 STEP:  35 TIME =     0.03 SECS, INTEGRAL =      1.16 TIME LEFT: 172798.83
 STEP:  36 TIME =     0.04 SECS, INTEGRAL =      1.20 TIME LEFT: 172798.79
 STEP:  37 TIME =     0.03 SECS, INTEGRAL =      1.23 TIME LEFT: 172798.76
 STEP:  38 TIME =     0.03 SECS, INTEGRAL =      1.27 TIME LEFT: 172798.72
 STEP:  39 TIME =     0.03 SECS, INTEGRAL =      1.30 TIME LEFT: 172798.69
 STEP:  40 TIME =     0.03 SECS, INTEGRAL =      1.33 TIME LEFT: 172798.66
 STEP:  41 TIME =     0.03 SECS, INTEGRAL =      1.36 TIME LEFT: 172798.63
 STEP:  42 TIME =     0.03 SECS, INTEGRAL =      1.39 TIME LEFT: 172798.60
 STEP:  43 TIME =     0.03 SECS, INTEGRAL =      1.43 TIME LEFT: 172798.56
 STEP:  44 TIME =     0.03 SECS, INTEGRAL =      1.46 TIME LEFT: 172798.53
 STEP:  45 TIME =     0.03 SECS, INTEGRAL =      1.49 TIME LEFT: 172798.50
 STEP:  46 TIME =     0.03 SECS, INTEGRAL =      1.52 TIME LEFT: 172798.47
 STEP:  47 TIME =     0.03 SECS, INTEGRAL =      1.56 TIME LEFT: 172798.43
 STEP:  48 TIME =     0.03 SECS, INTEGRAL =      1.59 TIME LEFT: 172798.40
 STEP:  49 TIME =     0.03 SECS, INTEGRAL =      1.62 TIME LEFT: 172798.37
 STEP:  50 TIME =     0.03 SECS, INTEGRAL =      1.65 TIME LEFT: 172798.34
 STEP:  51 TIME =     0.03 SECS, INTEGRAL =      1.68 TIME LEFT: 172798.31
 STEP:  52 TIME =     0.03 SECS, INTEGRAL =      1.72 TIME LEFT: 172798.27
 STEP:  53 TIME =     0.03 SECS, INTEGRAL =      1.75 TIME LEFT: 172798.24
 STEP:  54 TIME =     0.03 SECS, INTEGRAL =      1.78 TIME LEFT: 172798.21
 STEP:  55 TIME =     0.03 SECS, INTEGRAL =      1.82 TIME LEFT: 172798.17
 STEP:  56 TIME =     0.03 SECS, INTEGRAL =      1.85 TIME LEFT: 172798.14
 STEP:  57 TIME =     0.03 SECS, INTEGRAL =      1.88 TIME LEFT: 172798.11
 STEP:  58 TIME =     0.03 SECS, INTEGRAL =      1.91 TIME LEFT: 172798.07
 STEP:  59 TIME =     0.03 SECS, INTEGRAL =      1.95 TIME LEFT: 172798.04
 STEP:  60 TIME =     0.03 SECS, INTEGRAL =      1.98 TIME LEFT: 172798.01
 STEP:  61 TIME =     0.03 SECS, INTEGRAL =      2.01 TIME LEFT: 172797.98
 STEP:  62 TIME =     0.03 SECS, INTEGRAL =      2.04 TIME LEFT: 172797.95
 STEP:  63 TIME =     0.03 SECS, INTEGRAL =      2.08 TIME LEFT: 172797.91
 STEP:  64 TIME =     0.03 SECS, INTEGRAL =      2.11 TIME LEFT: 172797.88
 STEP:  65 TIME =     0.03 SECS, INTEGRAL =      2.14 TIME LEFT: 172797.85
 STEP:  66 TIME =     0.03 SECS, INTEGRAL =      2.17 TIME LEFT: 172797.82

(To convert to Hartree/Bohr^2, multiply by (10^(-21) x N x a0^2)/(4.184 x 627.51) = 0.0642)


           FORCE MATRIX IN MILLIDYNES/ANGSTROM


                  C  1       C  2       C  3       C  4       C  5       C  6
 ------------------------------------------------------------------------------
     C    1  14.755539
     C    2   3.625949  14.802986
     C    3   4.116389   0.578263  17.911247
     C    4   4.117089   0.577507   1.098611  17.914197
     C    5   0.682286   4.559433   0.052597   0.047972  18.113724
     C    6   0.681876   4.560393   0.048319   0.052803   0.763968  18.115752
     C    7   1.205088   0.048136   9.793916   1.574607   0.010485   0.009745
     C    8   1.204913   0.047784   1.574572   9.793906   0.010105   0.010800
     C    9   0.040635   0.806187   0.012534   0.008666  11.102478   0.040204
     C   10   0.040070   0.806623   0.008919   0.012511   0.040130  11.102799
     H   11   4.213222   0.451852   0.387416   0.387226   0.025857   0.025814
     H   12   0.421183   4.194410   0.016998   0.016887   0.440825   0.441183
     H   13   0.406163   0.011687   5.070076   0.042589   0.009846   0.003235
     H   14   0.406389   0.011703   0.042731   5.069940   0.003159   0.009713
     H   15   0.020499   0.436322   0.004645   0.002324   4.784964   0.019629
     H   16   0.020132   0.436449   0.002441   0.004657   0.019668   4.785344
     H   17   0.112220   0.015752   0.446768   0.049407   0.001305   0.002666
     H   18   0.112157   0.015625   0.049773   0.446721   0.002568   0.001396
     H   19   0.018581   0.134359   0.001320   0.002589   0.461656   0.019212
     H   20   0.011293   0.094951   0.002501   0.002443   0.490354   0.011354
     H   21   0.018672   0.134095   0.002509   0.001344   0.019341   0.461720
     H   22   0.011217   0.094350   0.002479   0.002594   0.011366   0.490198


                  C  7       C  8       C  9       C 10       H 11       H 12
 ------------------------------------------------------------------------------
     C    7  18.327506
     C    8   5.152418  18.324280
     C    9   0.001696   0.002443  18.043160
     C   10   0.002090   0.001915   0.006897  18.044145
     H   11   0.051107   0.051378   0.002171   0.002083   4.701886
     H   12   0.004991   0.005100   0.052823   0.052660   0.040199   4.663482
     H   13   0.442294   0.100130   0.006393   0.000811   0.011073   0.002469
     H   14   0.100128   0.442030   0.000685   0.006482   0.011078   0.002416
     H   15   0.001981   0.000954   0.454454   0.001577   0.017415   0.035992
     H   16   0.001065   0.002120   0.001857   0.454274   0.017163   0.036374
     H   17   5.071468   0.419236   0.000701   0.000662   0.014257   0.000632
     H   18   0.419314   5.071569   0.000709   0.000637   0.013958   0.000649
     H   19   0.001268   0.000815   5.103768   0.001925   0.000662   0.002083
     H   20   0.001102   0.001047   5.069809   0.002620   0.000526   0.029721
     H   21   0.001009   0.001196   0.001853   5.104274   0.000670   0.002127
     H   22   0.001033   0.001037   0.002507   5.069706   0.000493   0.029755


                  H 13       H 14       H 15       H 16       H 17       H 18
 ------------------------------------------------------------------------------
     H   13   5.467750
     H   14   0.010171   5.468041
     H   15   0.002107   0.001024   5.162426
     H   16   0.001026   0.002099   0.010077   5.162456
     H   17   0.041145   0.005253   0.000429   0.000274   5.461760
     H   18   0.005334   0.041126   0.000262   0.000433   0.009478   5.462027
     H   19   0.001358   0.000455   0.078888   0.000879   0.000225   0.000238
     H   20   0.001548   0.000293   0.116726   0.000861   0.000321   0.000290
     H   21   0.000445   0.001409   0.000881   0.078648   0.000230   0.000235
     H   22   0.000266   0.001544   0.000854   0.116151   0.000261   0.000276


                  H 19       H 20       H 21       H 22
 ------------------------------------------------------
     H   19   5.490264
     H   20   0.421475   5.462791
     H   21   0.001571   0.000675   5.491133
     H   22   0.000661   0.001283   0.421930   5.463008


          HEAT OF FORMATION =      68.420486 KCALS/MOLE

          ZERO POINT ENERGY     116.718 KCAL/MOL


           NORMAL COORDINATE ANALYSIS (Total motion = 1 Angstrom)


   Root No.       1         2         3         4         5         6         7         8

                 1 A       2 A       3 A       4 A       5 A       6 A       7 A       8 A   

                  57.6      78.2      96.1     141.9     196.6     288.6     316.2     360.7
  
           1    0.0001   -0.0153   -0.0014   -0.0276   -0.0001   -0.0013   -0.0142   -0.0001
           2    0.0200    0.0022    0.0068   -0.0218    0.0197    0.0048   -0.0010    0.0304
           3    0.0130   -0.0052    0.0033    0.0346    0.0121   -0.0082    0.0008    0.0193
           4    0.0001   -0.0158   -0.0014   -0.0272   -0.0001   -0.0052   -0.0088   -0.0001
           5    0.0151    0.0067   -0.0140   -0.0089    0.0081   -0.0236    0.0085   -0.0149
           6    0.0098   -0.0058   -0.0101    0.0137    0.0050    0.0373   -0.0129   -0.0091
           7    0.0058   -0.0208    0.0236   -0.0110   -0.0321    0.0101   -0.0234   -0.0173
           8    0.0225    0.0000    0.0178   -0.0143    0.0054    0.0112   -0.0028    0.0301
           9   -0.0324   -0.0021   -0.0134    0.0235    0.0080   -0.0202    0.0011    0.0021
          10   -0.0054   -0.0143   -0.0271   -0.0110    0.0317    0.0096   -0.0239    0.0171
          11   -0.0198    0.0025   -0.0038   -0.0150    0.0098    0.0132   -0.0001    0.0148
          12    0.0343   -0.0060    0.0207    0.0230    0.0010   -0.0192    0.0025    0.0262
          13    0.0049   -0.0092    0.0072   -0.0067    0.0391    0.0114    0.0289   -0.0279
          14   -0.0088    0.0046   -0.0266    0.0030   -0.0181   -0.0210   -0.0232   -0.0126
          15    0.0201   -0.0072   -0.0067   -0.0019    0.0009    0.0288   -0.0107   -0.0034
          16   -0.0048   -0.0062   -0.0082   -0.0074   -0.0385    0.0117    0.0296    0.0285
          17    0.0143    0.0098   -0.0158   -0.0001   -0.0065   -0.0169    0.0203   -0.0084
          18   -0.0164   -0.0012   -0.0217   -0.0040   -0.0161    0.0317    0.0168   -0.0095
          19    0.0039   -0.0229    0.0138    0.0449   -0.0248   -0.0161   -0.0034   -0.0232
          20   -0.0102   -0.0013    0.0145    0.0100   -0.0131    0.0012    0.0081    0.0024
          21   -0.0357   -0.0007   -0.0063   -0.0153   -0.0011   -0.0022   -0.0132    0.0016
          22   -0.0032   -0.0188   -0.0188    0.0449    0.0238   -0.0164   -0.0040    0.0231
          23   -0.0365    0.0003    0.0005    0.0098   -0.0065    0.0016    0.0085    0.0026
          24    0.0059   -0.0032    0.0158   -0.0155   -0.0115   -0.0020   -0.0129    0.0013
          25    0.0204    0.0627   -0.0372   -0.0015    0.0073   -0.0034    0.0066   -0.0213
          26   -0.0212   -0.0535    0.0091   -0.0011    0.0078   -0.0087   -0.0057   -0.0201
          27    0.0372   -0.0105   -0.0009   -0.0358   -0.0078   -0.0306    0.0114   -0.0151
          28   -0.0216    0.0503    0.0484   -0.0006   -0.0064   -0.0037    0.0061    0.0212
          29    0.0243    0.0311    0.0087    0.0328   -0.0035    0.0315   -0.0078   -0.0222
          30   -0.0360    0.0391    0.0170   -0.0135    0.0113   -0.0051    0.0097   -0.0119
          31    0.0000   -0.0139   -0.0013   -0.0223   -0.0001   -0.0358   -0.0005   -0.0003
          32    0.0500   -0.0007    0.0277   -0.0220    0.0162    0.0114   -0.0035    0.0503
          33    0.0319   -0.0062    0.0166    0.0349    0.0098   -0.0188    0.0043    0.0318
          34    0.0000   -0.0186   -0.0015   -0.0523    0.0000    0.0068   -0.0240   -0.0001
          35    0.0295    0.0069   -0.0108   -0.0039    0.0091   -0.0248    0.0108   -0.0166
          36    0.0189   -0.0067   -0.0080    0.0059    0.0057    0.0389   -0.0162   -0.0103
          37    0.0095   -0.0229    0.0465   -0.0335   -0.0657    0.0293   -0.0412   -0.0401
          38    0.0473   -0.0005    0.0266   -0.0245    0.0087    0.0206   -0.0081    0.0412
          39   -0.0570   -0.0011   -0.0287    0.0401    0.0150   -0.0350    0.0115   -0.0016
          40   -0.0092   -0.0108   -0.0495   -0.0335    0.0655    0.0282   -0.0426    0.0397
          41   -0.0315    0.0041   -0.0136   -0.0256    0.0176    0.0225   -0.0074    0.0161
          42    0.0673   -0.0083    0.0348    0.0394    0.0008   -0.0342    0.0116    0.0380
          43   -0.0047   -0.0620    0.0483    0.0066    0.0990    0.0549    0.0946   -0.0678
          44   -0.0161    0.0493   -0.0647    0.0188   -0.0599   -0.0215   -0.0885    0.0166
          45    0.0132   -0.0057   -0.0094    0.0101    0.0032    0.0434   -0.0166   -0.0046
          46    0.0058   -0.0447   -0.0578    0.0038   -0.0975    0.0554    0.0962    0.0700
          47    0.0049   -0.0047   -0.0372   -0.0183   -0.0217   -0.0300    0.0538    0.0030
          48   -0.0196   -0.0297   -0.0606   -0.0146   -0.0536    0.0383    0.0737    0.0180
          49    0.0065   -0.0269    0.0267    0.0807   -0.0493   -0.0284    0.0078   -0.0562
          50   -0.0171   -0.0031    0.0204    0.0256   -0.0294   -0.0040    0.0135   -0.0197
          51   -0.0638    0.0018   -0.0147   -0.0409   -0.0018    0.0073   -0.0200   -0.0002
          52   -0.0053   -0.0195   -0.0327    0.0805    0.0478   -0.0291    0.0062    0.0561
          53   -0.0648   -0.0004   -0.0049    0.0261   -0.0145   -0.0045    0.0126   -0.0085
          54    0.0113   -0.0027    0.0253   -0.0405   -0.0256    0.0069   -0.0201   -0.0180
          55    0.0240    0.0737   -0.0360    0.0185    0.0386    0.0398    0.0480   -0.0480
          56   -0.0391   -0.0602    0.0034    0.0136   -0.0088    0.0176   -0.0619    0.0154
          57    0.0446   -0.0117    0.0014   -0.0515   -0.0124   -0.0620    0.0225   -0.0223
          58    0.0309    0.1162   -0.0782   -0.0165   -0.0529   -0.0598   -0.0564    0.0116
          59   -0.0148   -0.0990    0.0468   -0.0193    0.0485   -0.0220    0.0667   -0.0625
          60    0.0447   -0.0121    0.0018   -0.0513   -0.0114   -0.0608    0.0233   -0.0237
          61   -0.0254    0.0620    0.0499    0.0186   -0.0361    0.0388    0.0468    0.0488
          62    0.0234    0.0353    0.0094    0.0404   -0.0141    0.0485    0.0057   -0.0133
          63   -0.0561    0.0460    0.0131   -0.0340   -0.0005   -0.0430    0.0656    0.0236
          64   -0.0331    0.0895    0.0978   -0.0134    0.0526   -0.0601   -0.0574   -0.0131
          65    0.0340    0.0461    0.0299    0.0552    0.0100    0.0649   -0.0500   -0.0482
          66   -0.0337    0.0682    0.0556   -0.0021    0.0483   -0.0055   -0.0510   -0.0472


   Root No.       9        10        11        12        13        14        15        16

                 9 A      10 A      11 A      12 A      13 A      14 A      15 A      16 A   

                 453.5     456.9     511.5     547.8     628.4     668.5     766.3     812.4
  
           1    0.0026   -0.0003    0.0000    0.0389   -0.0001    0.0145    0.0116    0.0000
           2   -0.0011   -0.0041    0.0096    0.0184   -0.0020    0.0111   -0.0096    0.0053
           3    0.0004   -0.0027    0.0061   -0.0290   -0.0011   -0.0175    0.0150    0.0031
           4   -0.0182    0.0024   -0.0001    0.0372   -0.0001    0.0019    0.0240    0.0002
           5    0.0258    0.0247   -0.0091    0.0131    0.0058   -0.0042    0.0076   -0.0013
           6   -0.0314    0.0222   -0.0059   -0.0205    0.0036    0.0066   -0.0120   -0.0010
           7    0.0337   -0.0077   -0.0337   -0.0183    0.0050    0.0008   -0.0128    0.0331
           8    0.0055   -0.0077   -0.0007   -0.0079   -0.0059    0.0024   -0.0212    0.0083
           9    0.0040    0.0033    0.0200    0.0126   -0.0005    0.0055   -0.0052   -0.0109
          10    0.0346   -0.0010    0.0339   -0.0182   -0.0049    0.0007   -0.0125   -0.0336
          11   -0.0059    0.0013    0.0178   -0.0079   -0.0029   -0.0060    0.0136   -0.0069
          12   -0.0055   -0.0073   -0.0093    0.0125   -0.0052    0.0001    0.0169    0.0121
          13   -0.0251   -0.0097    0.0023   -0.0042    0.0355   -0.0241   -0.0064    0.0002
          14   -0.0225   -0.0061   -0.0027   -0.0213   -0.0220    0.0279    0.0033    0.0008
          15   -0.0143    0.0497   -0.0158    0.0092    0.0154    0.0129    0.0080    0.0023
          16   -0.0208    0.0153   -0.0022   -0.0038   -0.0348   -0.0249   -0.0064   -0.0002
          17    0.0343    0.0344   -0.0152    0.0009    0.0054   -0.0236   -0.0087    0.0023
          18    0.0058   -0.0298    0.0045    0.0232   -0.0254   -0.0201    0.0004   -0.0002
          19    0.0149    0.0116    0.0308    0.0061    0.0016    0.0065   -0.0171    0.0292
          20   -0.0104    0.0055    0.0173    0.0030   -0.0046   -0.0004   -0.0010   -0.0068
          21    0.0185   -0.0096   -0.0279   -0.0048    0.0026    0.0016   -0.0025   -0.0091
          22    0.0110   -0.0151   -0.0308    0.0060   -0.0016    0.0063   -0.0166   -0.0294
          23   -0.0136   -0.0030   -0.0179    0.0030    0.0004   -0.0014    0.0029   -0.0113
          24    0.0193    0.0044    0.0276   -0.0047   -0.0054    0.0009    0.0001   -0.0020
          25   -0.0205   -0.0059   -0.0017   -0.0142    0.0013    0.0064   -0.0014    0.0008
          26   -0.0307   -0.0087   -0.0002   -0.0164    0.0078    0.0063   -0.0010    0.0006
          27   -0.0166   -0.0200    0.0023   -0.0130    0.0023    0.0037    0.0016    0.0012
          28   -0.0179    0.0110    0.0016   -0.0141   -0.0017    0.0063   -0.0014   -0.0008
          29    0.0203   -0.0284    0.0021    0.0186    0.0060   -0.0057   -0.0011    0.0012
          30    0.0199   -0.0050   -0.0010    0.0093    0.0062   -0.0041    0.0016    0.0001
          31    0.0066   -0.0009    0.0000    0.0786   -0.0001    0.0124    0.0745    0.0002
          32   -0.0043   -0.0205   -0.0228    0.0094   -0.0064    0.0109   -0.0223    0.0607
          33    0.0000   -0.0133   -0.0144   -0.0149   -0.0039   -0.0171    0.0341    0.0382
          34   -0.0262    0.0035   -0.0001    0.0810   -0.0005    0.0380    0.0422    0.0005
          35    0.0330    0.0616   -0.0212    0.0052    0.0281   -0.0104    0.0040   -0.0003
          36   -0.0301    0.0460   -0.0136   -0.0080    0.0175    0.0165   -0.0063   -0.0002
          37    0.0751   -0.0160   -0.0910   -0.0936    0.0143   -0.0400    0.0800   -0.1882
          38    0.0134   -0.0134   -0.0147   -0.0383   -0.0042   -0.0188    0.0258   -0.0735
          39   -0.0161    0.0112    0.0506    0.0643   -0.0049    0.0380   -0.0783    0.1345
          40    0.0769   -0.0033    0.0917   -0.0935   -0.0137   -0.0401    0.0782    0.1902
          41    0.0097    0.0023    0.0397   -0.0417   -0.0059   -0.0264    0.0588    0.0907
          42   -0.0232   -0.0118   -0.0354    0.0622   -0.0022    0.0332   -0.0559   -0.1258
          43   -0.0021    0.0108   -0.0139   -0.0270   -0.0123    0.0035   -0.0196   -0.0009
          44   -0.0649   -0.0052    0.0050   -0.0230    0.0236    0.0178   -0.0013    0.0031
          45   -0.0259    0.0555   -0.0175   -0.0010    0.0187    0.0179    0.0006    0.0030
          46   -0.0050   -0.0108    0.0143   -0.0273    0.0126    0.0042   -0.0196    0.0007
          47    0.0634    0.0320   -0.0134    0.0108    0.0278   -0.0235    0.0000    0.0040
          48    0.0372   -0.0405    0.0125    0.0201    0.0141   -0.0080    0.0015    0.0016
          49    0.0121    0.0413    0.1147   -0.0097    0.0009   -0.0204    0.1031   -0.0790
          50   -0.0131    0.0200    0.0508   -0.0040   -0.0027   -0.0135    0.0582   -0.0495
          51    0.0167   -0.0260   -0.0990    0.0066    0.0107    0.0170   -0.0675    0.0850
          52    0.0000   -0.0429   -0.1144   -0.0101   -0.0007   -0.0207    0.1030    0.0824
          53   -0.0133   -0.0119   -0.0676   -0.0043    0.0086   -0.0094    0.0354    0.0575
          54    0.0266    0.0233    0.0880    0.0066   -0.0072    0.0194   -0.0807   -0.0834
          55    0.0302    0.0576   -0.0367   -0.0271   -0.1503    0.1448    0.0452    0.0047
          56   -0.0663    0.0316    0.0018    0.0323    0.1553   -0.0863   -0.0056    0.0048
          57   -0.0208   -0.0676    0.0160   -0.0333   -0.0087   -0.0070   -0.0160   -0.0025
          58   -0.0657   -0.0631    0.0273   -0.0139    0.1003   -0.0806   -0.0344   -0.0047
          59   -0.0050   -0.0498    0.0007   -0.0571   -0.0928    0.0628   -0.0059   -0.0013
          60   -0.0218   -0.0657    0.0149   -0.0345   -0.0098   -0.0030   -0.0150   -0.0021
          61    0.0111   -0.0627    0.0365   -0.0282    0.1463    0.1485    0.0458   -0.0040
          62    0.0304   -0.0579    0.0153    0.0158    0.0575    0.0447    0.0170   -0.0001
          63    0.0658    0.0419   -0.0051   -0.0440    0.1423    0.0781   -0.0014    0.0048
          64   -0.0437    0.0779   -0.0277   -0.0130   -0.0987   -0.0834   -0.0350    0.0041
          65   -0.0033   -0.0832    0.0139    0.0554   -0.0471   -0.0248    0.0160   -0.0020
          66   -0.0096   -0.0154   -0.0056    0.0372   -0.0778   -0.0597   -0.0012   -0.0001


   Root No.      17        18        19        20        21        22        23        24

                17 A      18 A      19 A      20 A      21 A      22 A      23 A      24 A   

                 824.3     827.9     905.1     929.1     938.2     955.7     963.0     980.8
  
           1   -0.0008    0.0137    0.0169    0.0002    0.0089   -0.0003    0.0011    0.0001
           2   -0.0424   -0.0329    0.0047    0.0005    0.0034    0.0001   -0.0010    0.0050
           3   -0.0311    0.0491   -0.0074    0.0001   -0.0054    0.0002    0.0016    0.0032
           4   -0.0007    0.0106    0.0024   -0.0001   -0.0075    0.0003   -0.0098    0.0001
           5   -0.0005    0.0020   -0.0163    0.0067   -0.0024   -0.0200    0.0012    0.0005
           6    0.0001   -0.0031    0.0254    0.0047    0.0031   -0.0130   -0.0027    0.0003
           7   -0.0207    0.0141    0.0015    0.0004    0.0034   -0.0007    0.0250    0.0136
           8   -0.0093   -0.0434   -0.0092    0.0005   -0.0092    0.0002   -0.0023   -0.0092
           9   -0.0583   -0.0413   -0.0041    0.0008   -0.0048    0.0006   -0.0202   -0.0150
          10    0.0191    0.0149    0.0015   -0.0002    0.0034   -0.0002    0.0249   -0.0139
          11   -0.0631    0.0524    0.0077    0.0013    0.0083   -0.0003    0.0192   -0.0175
          12    0.0138    0.0227    0.0066    0.0004    0.0063   -0.0001   -0.0065   -0.0017
          13    0.0037   -0.0050   -0.0010   -0.0258   -0.0218    0.0005    0.0030   -0.0006
          14   -0.0004   -0.0004   -0.0067    0.0182    0.0181    0.0074   -0.0002   -0.0006
          15    0.0028   -0.0045   -0.0102   -0.0022    0.0022   -0.0057   -0.0027    0.0026
          16   -0.0030   -0.0051   -0.0012    0.0252   -0.0225    0.0000    0.0029    0.0005
          17    0.0019    0.0043    0.0120    0.0056   -0.0099   -0.0020    0.0025    0.0021
          18   -0.0014   -0.0016    0.0017    0.0168   -0.0156    0.0096   -0.0007   -0.0016
          19   -0.0440   -0.0034   -0.0069    0.0011   -0.0037   -0.0030   -0.0189   -0.0303
          20    0.0934    0.0126   -0.0020   -0.0012    0.0001   -0.0013   -0.0069   -0.0140
          21   -0.0191   -0.0274    0.0020    0.0000    0.0007    0.0020    0.0118    0.0242
          22    0.0446   -0.0014   -0.0070   -0.0014   -0.0036    0.0038   -0.0186    0.0304
          23    0.0203    0.0204   -0.0010   -0.0006   -0.0006    0.0016   -0.0075    0.0160
          24    0.0949   -0.0176    0.0026   -0.0010    0.0002   -0.0025    0.0110   -0.0232
          25    0.0028   -0.0041   -0.0055   -0.0083   -0.0057    0.0035    0.0030   -0.0006
          26    0.0021   -0.0041   -0.0074    0.0023    0.0061    0.0075    0.0003   -0.0010
          27    0.0013   -0.0021   -0.0247   -0.0072   -0.0015    0.0315    0.0088   -0.0038
          28   -0.0023   -0.0042   -0.0058    0.0081   -0.0061   -0.0036    0.0029    0.0005
          29    0.0016    0.0037    0.0259   -0.0052   -0.0004    0.0316   -0.0071   -0.0038
          30    0.0010    0.0029   -0.0041    0.0049   -0.0065   -0.0067    0.0034    0.0007
          31   -0.0031    0.0476    0.0050    0.0002    0.0254    0.0006   -0.0545   -0.0002
          32   -0.0022   -0.0385    0.0063    0.0073    0.0001    0.0204    0.0106    0.1852
          33   -0.0067    0.0609   -0.0099    0.0044    0.0002    0.0135   -0.0150    0.1173
          34    0.0013   -0.0257    0.0458    0.0005    0.0138    0.0006   -0.0592    0.0003
          35    0.0109    0.0087   -0.0241    0.0097   -0.0072   -0.1033    0.0091    0.0109
          36    0.0081   -0.0128    0.0364    0.0068    0.0082   -0.0657   -0.0174    0.0070
          37   -0.0334   -0.0509   -0.0131   -0.0003   -0.0002   -0.0021   -0.0969   -0.0484
          38   -0.1107   -0.0586   -0.0186   -0.0013   -0.0254   -0.0007   -0.0681   -0.0481
          39    0.0394   -0.0082    0.0090    0.0029    0.0114    0.0019    0.0790    0.0411
          40    0.0373   -0.0460   -0.0129   -0.0002    0.0001    0.0052   -0.0964    0.0496
          41   -0.0163    0.0330   -0.0001    0.0019    0.0006    0.0028   -0.0420    0.0172
          42   -0.1212    0.0409    0.0207   -0.0009    0.0277   -0.0054    0.0946   -0.0615
          43    0.0145   -0.0212   -0.0025    0.1886    0.1643   -0.0054   -0.0218    0.0038
          44   -0.0047    0.0019    0.0469   -0.1511   -0.1137   -0.0528   -0.0005    0.0127
          45    0.0045   -0.0091    0.0153   -0.0027    0.0091   -0.0366   -0.0121    0.0108
          46   -0.0118   -0.0221   -0.0008   -0.1836    0.1695    0.0022   -0.0214   -0.0036
          47    0.0011    0.0075   -0.0342   -0.0659    0.0404   -0.0565    0.0099    0.0152
          48   -0.0056   -0.0060   -0.0352   -0.1319    0.1086   -0.0340   -0.0052    0.0070
          49   -0.0963   -0.1185    0.0460    0.0002    0.0231    0.0134    0.1014    0.1478
          50    0.0575   -0.0178    0.0263   -0.0014    0.0183    0.0053    0.0554    0.0779
          51   -0.0302    0.1201   -0.0186    0.0012    0.0035   -0.0114   -0.0422   -0.0568
          52    0.1086   -0.1112    0.0461    0.0016    0.0230   -0.0177    0.1002   -0.1490
          53    0.0083   -0.1000    0.0054    0.0003   -0.0112   -0.0081    0.0134   -0.0178
          54    0.0577    0.0695   -0.0318   -0.0030   -0.0149    0.0126   -0.0672    0.0954
          55   -0.0068    0.0084   -0.0711   -0.0238    0.0025    0.0945    0.0146   -0.0112
          56    0.0167   -0.0223   -0.1047   -0.0237   -0.0127    0.0995    0.0363   -0.0137
          57   -0.0019    0.0014    0.0526    0.0124    0.0050   -0.0540   -0.0146    0.0073
          58    0.0074   -0.0133    0.0440    0.1405    0.1155   -0.0565   -0.0323    0.0072
          59   -0.0049    0.0054    0.0911   -0.0844   -0.0772   -0.1037   -0.0161    0.0138
          60   -0.0007   -0.0006    0.0486    0.0093    0.0050   -0.0525   -0.0145    0.0073
          61    0.0057    0.0089   -0.0719    0.0224    0.0000   -0.0932    0.0115    0.0111
          62    0.0044    0.0085   -0.0029    0.0009    0.0008   -0.0060   -0.0026    0.0008
          63    0.0138    0.0217    0.1189   -0.0244    0.0171    0.1128   -0.0359   -0.0148
          64   -0.0056   -0.0138    0.0466   -0.1363    0.1208    0.0552   -0.0307   -0.0068
          65   -0.0028   -0.0019   -0.0835   -0.0282    0.0271   -0.0916    0.0173    0.0122
          66   -0.0037   -0.0054   -0.0613   -0.0788    0.0722   -0.0719    0.0063    0.0092


   Root No.      25        26        27        28        29        30        31        32

                25 A      26 A      27 A      28 A      29 A      30 A      31 A      32 A   

                 998.0    1026.2    1031.0    1034.5    1079.8    1087.7    1102.3    1113.5
  
           1   -0.0060    0.0001   -0.0005   -0.0062   -0.0003   -0.0098    0.0109   -0.0516
           2    0.0208    0.0123   -0.0020    0.0011    0.0032   -0.0048    0.0077   -0.0165
           3   -0.0327    0.0082   -0.0016   -0.0016    0.0023    0.0073   -0.0119    0.0262
           4   -0.0140    0.0003    0.0006    0.0088    0.0001    0.0063   -0.0416    0.0269
           5   -0.0002   -0.0007   -0.0030   -0.0003    0.0029    0.0018    0.0007    0.0103
           6    0.0002   -0.0004   -0.0016    0.0012    0.0017   -0.0030   -0.0011   -0.0161
           7   -0.0065   -0.0221    0.0044   -0.0013   -0.0019    0.0038    0.0019    0.0072
           8   -0.0273   -0.0286    0.0048   -0.0010   -0.0112   -0.0015    0.0122    0.0326
           9    0.0042    0.0056   -0.0017    0.0014   -0.0180   -0.0059   -0.0004   -0.0002
          10   -0.0061    0.0221   -0.0046   -0.0008    0.0022    0.0037    0.0019    0.0072
          11    0.0078   -0.0071    0.0004   -0.0008   -0.0204    0.0076   -0.0048   -0.0138
          12    0.0260   -0.0284    0.0054    0.0011   -0.0025   -0.0010   -0.0114   -0.0297
          13    0.0026    0.0037    0.0196    0.0175   -0.0002   -0.0005    0.0084   -0.0020
          14   -0.0003   -0.0035   -0.0155   -0.0143    0.0004   -0.0001   -0.0071   -0.0003
          15   -0.0006    0.0002    0.0018   -0.0035   -0.0017    0.0022    0.0061    0.0083
          16    0.0026   -0.0034   -0.0163    0.0207    0.0003   -0.0005    0.0085   -0.0020
          17    0.0007   -0.0011   -0.0032    0.0099   -0.0015   -0.0018   -0.0024   -0.0074
          18    0.0000   -0.0031   -0.0125    0.0138    0.0012    0.0009    0.0091    0.0038
          19    0.0011    0.0212   -0.0045   -0.0004   -0.0032   -0.0043   -0.0032   -0.0090
          20    0.0165    0.0091   -0.0010    0.0030    0.0031   -0.0023    0.0102    0.0223
          21   -0.0002   -0.0135    0.0026    0.0005    0.0013   -0.0050    0.0027    0.0089
          22    0.0007   -0.0212    0.0044   -0.0009    0.0028   -0.0046   -0.0033   -0.0090
          23   -0.0070   -0.0081    0.0016   -0.0019    0.0029    0.0052   -0.0069   -0.0176
          24   -0.0147    0.0143   -0.0025   -0.0023    0.0022   -0.0001   -0.0081   -0.0163
          25    0.0072   -0.0080   -0.0315   -0.0271   -0.0001    0.0001   -0.0050    0.0014
          26   -0.0018    0.0050    0.0270    0.0204   -0.0002   -0.0003    0.0039    0.0001
          27    0.0041    0.0000   -0.0002    0.0003    0.0002   -0.0018    0.0042   -0.0068
          28    0.0073    0.0073    0.0264   -0.0322    0.0001    0.0001   -0.0050    0.0015
          29   -0.0028    0.0020    0.0097   -0.0110    0.0001    0.0017   -0.0055    0.0061
          30    0.0034    0.0041    0.0209   -0.0221   -0.0003   -0.0005   -0.0018   -0.0029
          31   -0.0760   -0.0011   -0.0052   -0.0650    0.0020    0.0293    0.2980    0.0564
          32    0.0352    0.2283   -0.0479    0.0149   -0.0780   -0.0095   -0.0480   -0.0364
          33   -0.0518    0.1445   -0.0327   -0.0186   -0.0481    0.0219    0.0784    0.0586
          34   -0.0031   -0.0002   -0.0009   -0.0131    0.0006    0.0288   -0.1284    0.2052
          35   -0.0020   -0.0066    0.0158    0.0026   -0.0004   -0.0023    0.0157   -0.0227
          36    0.0026   -0.0044    0.0096   -0.0056   -0.0002    0.0036   -0.0249    0.0347
          37    0.1394    0.0628   -0.0119    0.0180   -0.1290    0.0964    0.0236    0.0154
          38   -0.1108   -0.0031   -0.0020   -0.0176    0.1181   -0.1319   -0.0247   -0.0426
          39    0.0391   -0.0440    0.0098    0.0114   -0.1033    0.0888    0.0289    0.0712
          40    0.1385   -0.0651    0.0153    0.0167    0.1360    0.0856    0.0225    0.0153
          41    0.0112   -0.0410    0.0075   -0.0036   -0.0448   -0.0205   -0.0155   -0.0464
          42    0.1171    0.0139   -0.0022    0.0214    0.1629    0.1444    0.0334    0.0689
          43   -0.0061   -0.0123   -0.0487   -0.0569   -0.0041    0.0015    0.0174    0.0030
          44    0.0064    0.0166    0.0489    0.0237   -0.0097    0.0008    0.0790   -0.0079
          45   -0.0009    0.0041    0.0068   -0.0131   -0.0080    0.0034    0.0502    0.0063
          46   -0.0059    0.0113    0.0388   -0.0651    0.0042    0.0012    0.0168    0.0033
          47   -0.0020    0.0111    0.0265   -0.0026   -0.0121   -0.0024   -0.0788   -0.0022
          48   -0.0062    0.0129    0.0357   -0.0335   -0.0057    0.0012   -0.0501    0.0099
          49    0.0143   -0.0365    0.0071    0.0026    0.0656   -0.0895    0.0076    0.0200
          50    0.0523    0.0067    0.0002    0.0081    0.0929   -0.1188    0.0242    0.0624
          51    0.0910    0.1036   -0.0186    0.0108    0.1449   -0.2040    0.0226    0.0720
          52    0.0150    0.0370   -0.0067    0.0033   -0.0716   -0.0835    0.0079    0.0199
          53   -0.1036    0.0982   -0.0191   -0.0118    0.1879    0.2217   -0.0311   -0.0913
          54   -0.0091   -0.0384    0.0077   -0.0035    0.0233    0.0182   -0.0125   -0.0257
          55   -0.0134    0.0292    0.1296    0.1057    0.0001   -0.0030    0.0124   -0.0063
          56    0.0356   -0.0271   -0.1051   -0.0852    0.0013   -0.0042   -0.0052   -0.0088
          57   -0.0059    0.0007   -0.0006   -0.0023   -0.0009    0.0015    0.0025    0.0012
          58   -0.0286    0.0227    0.1130    0.0844   -0.0011    0.0028    0.0132    0.0132
          59    0.0120   -0.0195   -0.0842   -0.0768   -0.0030    0.0054   -0.0104    0.0218
          60   -0.0038   -0.0001    0.0013   -0.0044   -0.0017    0.0022    0.0049    0.0085
          61   -0.0140   -0.0269   -0.1098    0.1271   -0.0002   -0.0029    0.0126   -0.0063
          62   -0.0099   -0.0100   -0.0380    0.0456   -0.0002    0.0004    0.0000    0.0026
          63   -0.0345   -0.0226   -0.0794    0.0903    0.0017    0.0042    0.0057    0.0080
          64   -0.0286   -0.0206   -0.0967    0.1025    0.0013    0.0027    0.0134    0.0128
          65   -0.0020   -0.0076   -0.0283    0.0428   -0.0031   -0.0041    0.0001   -0.0169
          66   -0.0127   -0.0160   -0.0638    0.0800   -0.0022   -0.0038    0.0117   -0.0161


   Root No.      33        34        35        36        37        38        39        40

                33 A      34 A      35 A      36 A      37 A      38 A      39 A      40 A   

                1154.0    1181.5    1186.2    1195.5    1207.3    1238.0    1276.0    1327.0
  
           1    0.0001   -0.0039    0.0000    0.0200   -0.0002    0.0173    0.0000   -0.0007
           2   -0.0084    0.0072   -0.0190   -0.0030    0.0209   -0.0099    0.0165    0.0649
           3   -0.0054   -0.0090   -0.0124    0.0062    0.0131    0.0157    0.0105    0.0406
           4   -0.0001   -0.0400   -0.0012    0.0145   -0.0002    0.0356    0.0000    0.0002
           5   -0.0338   -0.0142   -0.0164   -0.0301   -0.0030   -0.0093    0.0403   -0.0047
           6   -0.0211    0.0246   -0.0083    0.0482   -0.0024    0.0144    0.0256   -0.0030
           7   -0.0008    0.0038    0.0020   -0.0063   -0.0076   -0.0058    0.0087    0.0144
           8    0.0011   -0.0128   -0.0003    0.0177    0.0094    0.0148   -0.0176   -0.0410
           9    0.0036   -0.0046    0.0073    0.0055   -0.0090    0.0056   -0.0021   -0.0080
          10    0.0007    0.0040   -0.0019   -0.0061    0.0077   -0.0057   -0.0088   -0.0143
          11    0.0037    0.0088    0.0068   -0.0129   -0.0038   -0.0113   -0.0095   -0.0244
          12   -0.0005    0.0099   -0.0031   -0.0132    0.0126   -0.0108   -0.0150   -0.0335
          13   -0.0037    0.0056   -0.0047   -0.0018   -0.0032   -0.0053    0.0069   -0.0095
          14   -0.0006   -0.0054   -0.0011    0.0091   -0.0008    0.0038    0.0035   -0.0065
          15    0.0223   -0.0375   -0.0204   -0.0178   -0.0140   -0.0306   -0.0230   -0.0027
          16    0.0037    0.0051    0.0050   -0.0020    0.0033   -0.0053   -0.0068    0.0099
          17    0.0201    0.0382   -0.0160    0.0124   -0.0133    0.0261   -0.0193   -0.0058
          18   -0.0102   -0.0118    0.0064   -0.0159    0.0055   -0.0164    0.0130   -0.0051
          19    0.0010    0.0036    0.0035   -0.0056   -0.0050   -0.0053    0.0013    0.0002
          20    0.0023   -0.0106    0.0041    0.0158   -0.0098    0.0146    0.0064    0.0113
          21    0.0012   -0.0015    0.0057    0.0011   -0.0116    0.0011    0.0069    0.0085
          22   -0.0010    0.0040   -0.0034   -0.0054    0.0050   -0.0053   -0.0012    0.0000
          23    0.0021    0.0052    0.0071   -0.0084   -0.0146   -0.0074    0.0090    0.0130
          24    0.0015    0.0088    0.0015   -0.0139   -0.0036   -0.0128    0.0028    0.0073
          25   -0.0013   -0.0036   -0.0006    0.0045   -0.0032   -0.0084   -0.0071   -0.0042
          26   -0.0039   -0.0005   -0.0023    0.0017   -0.0049   -0.0137   -0.0073   -0.0061
          27    0.0038    0.0166    0.0117   -0.0013    0.0079    0.0134    0.0062    0.0004
          28    0.0013   -0.0037    0.0005    0.0045    0.0032   -0.0083    0.0071    0.0046
          29    0.0017   -0.0159    0.0086    0.0002    0.0051   -0.0062    0.0025   -0.0023
          30   -0.0052    0.0083   -0.0065   -0.0020   -0.0079    0.0181   -0.0093   -0.0061
          31    0.0006    0.0744    0.0039    0.0780   -0.0005   -0.0583    0.0000    0.0009
          32    0.0020   -0.0131    0.0482   -0.0173   -0.0620    0.0053   -0.0125   -0.0675
          33    0.0014    0.0152    0.0320    0.0237   -0.0396   -0.0090   -0.0079   -0.0426
          34    0.0005    0.2455    0.0081   -0.0826    0.0011   -0.0546   -0.0002   -0.0001
          35   -0.1763   -0.0760    0.1938   -0.0168    0.0642    0.0083   -0.0409    0.0070
          36   -0.1112    0.0965    0.1288    0.0216    0.0408   -0.0133   -0.0260    0.0042
          37   -0.0228   -0.0191   -0.0412    0.0324    0.0661    0.0226   -0.0180   -0.0113
          38    0.0315    0.0084    0.0563   -0.0163   -0.0789   -0.0077    0.0070   -0.0178
          39   -0.0186   -0.0191   -0.0333    0.0279    0.0525    0.0203   -0.0174   -0.0222
          40    0.0230   -0.0236    0.0406    0.0290   -0.0667    0.0222    0.0180    0.0108
          41   -0.0034    0.0143   -0.0056   -0.0177    0.0142   -0.0149   -0.0128   -0.0273
          42    0.0364   -0.0229    0.0644    0.0215   -0.0942    0.0151    0.0138   -0.0065
          43    0.1299    0.0014    0.0525   -0.0975    0.0525    0.0973    0.0331    0.0070
          44    0.1403    0.0222    0.0563   -0.1417    0.0604    0.1005    0.0515    0.0042
          45    0.1373   -0.0271    0.0258   -0.1215    0.0340    0.0499    0.0076    0.0087
          46   -0.1309    0.0078   -0.0542   -0.0950   -0.0514    0.0961   -0.0329   -0.0073
          47    0.1862    0.0083    0.0525    0.1680    0.0546   -0.0871    0.0289    0.0101
          48    0.0698   -0.0367    0.0396    0.0754    0.0396   -0.0696    0.0435    0.0003
          49   -0.0076    0.0017   -0.0199   -0.0028    0.0395   -0.0058   -0.0203   -0.0291
          50   -0.0078   -0.0150   -0.0261    0.0218    0.0491    0.0163   -0.0233   -0.0290
          51   -0.0136   -0.0074   -0.0430    0.0082    0.0858    0.0010   -0.0435   -0.0599
          52    0.0075   -0.0004    0.0197   -0.0046   -0.0391   -0.0061    0.0201    0.0294
          53   -0.0155    0.0183   -0.0492   -0.0121    0.0984   -0.0071   -0.0492   -0.0667
          54   -0.0012    0.0109   -0.0049   -0.0158    0.0079   -0.0143   -0.0025    0.0000
          55   -0.0067    0.0355    0.0306   -0.0045    0.0095   -0.0123   -0.0520    0.0571
          56   -0.0091    0.0404    0.0402   -0.0059    0.0133   -0.0183   -0.0617    0.0701
          57    0.0109   -0.0212   -0.0220    0.0039   -0.0067    0.0137    0.0457   -0.0582
          58    0.0054   -0.0297   -0.0166   -0.0214   -0.0192   -0.0663   -0.0732    0.0546
          59    0.0121   -0.0500   -0.0163   -0.0132   -0.0210   -0.0701   -0.0964    0.0703
          60    0.0169   -0.0208   -0.0039   -0.0196   -0.0068   -0.0359   -0.0609    0.0587
          61    0.0068    0.0389   -0.0281   -0.0039   -0.0094   -0.0123    0.0521   -0.0610
          62    0.0060    0.0022   -0.0027   -0.0010   -0.0004   -0.0046    0.0151   -0.0243
          63   -0.0129   -0.0502    0.0424    0.0061    0.0146    0.0226   -0.0755    0.0944
          64   -0.0054   -0.0311    0.0137   -0.0215    0.0197   -0.0659    0.0729   -0.0580
          65    0.0208    0.0412   -0.0070    0.0231   -0.0157    0.0623   -0.0962    0.0885
          66    0.0038    0.0380   -0.0106    0.0037   -0.0164    0.0483   -0.0614    0.0410


   Root No.      41        42        43        44        45        46        47        48

                41 A      42 A      43 A      44 A      45 A      46 A      47 A      48 A   

                1331.7    1372.9    1377.1    1416.1    1732.5    1789.6    1854.5    1863.9
  
           1   -0.0331    0.0662   -0.0005    0.0497   -0.0114    0.0000    0.0000   -0.0032
           2    0.0090   -0.0184   -0.0298   -0.0192    0.0063    0.0007   -0.0018    0.0012
           3   -0.0166    0.0286   -0.0192    0.0303   -0.0100    0.0004   -0.0012   -0.0018
           4    0.0052   -0.0613    0.0004   -0.0255   -0.0024    0.0000    0.0000   -0.0166
           5    0.0020    0.0159    0.0594    0.0057    0.0006   -0.0036   -0.0256    0.0045
           6   -0.0031   -0.0239    0.0379   -0.0090   -0.0010   -0.0023   -0.0163   -0.0071
           7    0.0030   -0.0007   -0.0032   -0.0254    0.0869   -0.0779   -0.0015    0.0007
           8   -0.0074    0.0058    0.0145    0.0417   -0.0195    0.0269    0.0009   -0.0006
           9   -0.0044    0.0084    0.0024   -0.0072    0.1100   -0.0935   -0.0012    0.0004
          10    0.0035   -0.0007    0.0032   -0.0254    0.0870    0.0779    0.0015    0.0007
          11    0.0079   -0.0099    0.0085   -0.0113   -0.0912   -0.0730   -0.0006   -0.0001
          12    0.0060   -0.0015    0.0121   -0.0407    0.0646    0.0642    0.0013    0.0007
          13    0.0113    0.0090   -0.0044    0.0019   -0.0004   -0.0014    0.0743    0.0770
          14    0.0138    0.0036   -0.0139    0.0002   -0.0006   -0.0016    0.0913    0.0966
          15    0.0100    0.0163   -0.0256    0.0041    0.0001    0.0005    0.0189    0.0205
          16    0.0109    0.0091    0.0043    0.0019   -0.0005    0.0014   -0.0741    0.0768
          17   -0.0148   -0.0168   -0.0289   -0.0038    0.0002   -0.0002    0.0560   -0.0598
          18   -0.0080    0.0037   -0.0017    0.0016    0.0006   -0.0017    0.0747   -0.0789
          19    0.0047   -0.0082    0.0010   -0.0007   -0.0761    0.0793    0.0010   -0.0002
          20   -0.0163    0.0411   -0.0042   -0.0708    0.0015   -0.0115   -0.0002   -0.0001
          21   -0.0030    0.0132   -0.0009   -0.0464   -0.1076    0.1057    0.0013   -0.0003
          22    0.0047   -0.0083   -0.0009   -0.0006   -0.0761   -0.0793   -0.0010   -0.0001
          23    0.0092   -0.0294   -0.0021    0.0722    0.0967    0.0906    0.0010    0.0002
          24    0.0132   -0.0316   -0.0029    0.0442   -0.0472   -0.0554   -0.0007    0.0000
          25    0.0086    0.0074   -0.0162    0.0015    0.0005    0.0016   -0.0653   -0.0676
          26    0.0107    0.0116   -0.0181    0.0026    0.0008    0.0019   -0.0810   -0.0836
          27   -0.0022   -0.0024    0.0035   -0.0004    0.0000    0.0000   -0.0011   -0.0014
          28    0.0085    0.0077    0.0161    0.0015    0.0006   -0.0017    0.0651   -0.0674
          29   -0.0024   -0.0029   -0.0045   -0.0007   -0.0004    0.0008   -0.0355    0.0369
          30   -0.0104   -0.0118   -0.0177   -0.0025   -0.0007    0.0018   -0.0730    0.0753
          31    0.0467   -0.0969    0.0007   -0.0506    0.0055    0.0000    0.0000   -0.0005
          32   -0.0039    0.0124    0.0336    0.0003   -0.0007   -0.0281   -0.0019    0.0010
          33    0.0089   -0.0191    0.0215   -0.0006    0.0011   -0.0178   -0.0012   -0.0015
          34    0.0022    0.1031   -0.0009    0.0446    0.0015    0.0000    0.0000    0.0239
          35    0.0024   -0.0134   -0.0928   -0.0061    0.0002    0.0003    0.0339   -0.0022
          36   -0.0040    0.0195   -0.0592    0.0099   -0.0003    0.0002    0.0215    0.0034
          37   -0.0094   -0.0006   -0.0011    0.0829   -0.0004    0.0002    0.0001   -0.0002
          38   -0.0020    0.0189    0.0104   -0.0738    0.0975   -0.0787   -0.0008    0.0001
          39   -0.0076   -0.0003    0.0056    0.0685    0.0614   -0.0490   -0.0008   -0.0001
          40   -0.0097   -0.0004    0.0012    0.0827   -0.0006   -0.0003   -0.0001   -0.0002
          41    0.0087   -0.0077    0.0096   -0.0305   -0.0972   -0.0779   -0.0010    0.0001
          42   -0.0012   -0.0170    0.0073    0.0958   -0.0619   -0.0502   -0.0004   -0.0001
          43   -0.0096   -0.0208    0.0179   -0.0060   -0.0006    0.0005    0.0021    0.0015
          44   -0.0119   -0.0102    0.0354   -0.0017    0.0001   -0.0003    0.0012    0.0034
          45   -0.0100   -0.0009    0.0051    0.0005    0.0006    0.0022   -0.0729   -0.0755
          46   -0.0093   -0.0210   -0.0176   -0.0061   -0.0006   -0.0004   -0.0020    0.0014
          47    0.0136    0.0052    0.0196    0.0003   -0.0006    0.0019   -0.0654    0.0668
          48    0.0063    0.0093    0.0297    0.0018    0.0002   -0.0012    0.0322   -0.0353
          49    0.0108   -0.0300    0.0074    0.0610   -0.0513    0.0274    0.0005   -0.0001
          50   -0.0100    0.0163    0.0044    0.0083    0.0741   -0.1126   -0.0013    0.0000
          51    0.0120   -0.0380    0.0140    0.0897   -0.0269   -0.0299   -0.0002   -0.0001
          52    0.0098   -0.0300   -0.0069    0.0608   -0.0513   -0.0275   -0.0005   -0.0002
          53   -0.0043    0.0275    0.0142   -0.0845   -0.0072   -0.0750   -0.0007    0.0001
          54    0.0142   -0.0310   -0.0015    0.0309   -0.0785   -0.0890   -0.0010    0.0000
          55   -0.0936   -0.0444    0.0615   -0.0072   -0.0002    0.0002   -0.0083   -0.0105
          56   -0.1170   -0.0474    0.0827   -0.0058    0.0002   -0.0003   -0.0105   -0.0112
          57    0.0962    0.0461   -0.0753    0.0072    0.0007    0.0021   -0.0773   -0.0798
          58   -0.0878   -0.0260    0.0548   -0.0023    0.0003   -0.0001   -0.0034   -0.0031
          59   -0.1072   -0.0419    0.0580   -0.0057   -0.0001    0.0001   -0.0041   -0.0052
          60   -0.0942   -0.0406    0.0669   -0.0059   -0.0007   -0.0019    0.0816    0.0841
          61   -0.0914   -0.0455   -0.0610   -0.0071   -0.0002   -0.0002    0.0082   -0.0104
          62   -0.0364   -0.0222   -0.0327   -0.0040   -0.0008    0.0018   -0.0744    0.0769
          63    0.1437    0.0645    0.1063    0.0083    0.0001   -0.0012    0.0234   -0.0239
          64   -0.0853   -0.0269   -0.0543   -0.0022    0.0003    0.0001    0.0034   -0.0030
          65    0.1277    0.0560    0.0847    0.0077    0.0008   -0.0017    0.0720   -0.0738
          66    0.0556    0.0211    0.0239    0.0026   -0.0002    0.0010   -0.0385    0.0407


   Root No.      49        50        51        52        53        54        55        56

                49 A      50 A      51 A      52 A      53 A      54 A      55 A      56 A   

                2866.6    2888.4    3042.3    3042.5    3131.2    3133.0    3134.1    3134.2
  
           1   -0.0031    0.0200    0.0000   -0.0002    0.0000   -0.0002    0.0000    0.0000
           2   -0.0060    0.0309   -0.0001    0.0000    0.0002    0.0001    0.0000    0.0000
           3    0.0095   -0.0488   -0.0001    0.0000    0.0001   -0.0002    0.0000    0.0000
           4    0.0184    0.0048    0.0001    0.0005    0.0000    0.0000    0.0000    0.0002
           5    0.0308    0.0065    0.0000    0.0010    0.0001    0.0000    0.0003   -0.0002
           6   -0.0485   -0.0102   -0.0003   -0.0015    0.0000    0.0000    0.0002    0.0001
           7    0.0003   -0.0003    0.0000    0.0000    0.0037    0.0040    0.0000   -0.0002
           8   -0.0002    0.0008    0.0000    0.0000    0.0116    0.0126   -0.0001   -0.0005
           9    0.0000   -0.0003    0.0000    0.0000    0.0121    0.0132   -0.0001   -0.0005
          10    0.0003   -0.0003    0.0000    0.0000   -0.0034    0.0042    0.0000   -0.0002
          11    0.0001   -0.0001    0.0000    0.0000    0.0150   -0.0181    0.0001    0.0007
          12    0.0002   -0.0009    0.0000    0.0000    0.0050   -0.0060    0.0000    0.0002
          13   -0.0006    0.0001    0.0144    0.0107    0.0000   -0.0001   -0.0013   -0.0008
          14   -0.0007    0.0000    0.0182    0.0136    0.0000    0.0000   -0.0016   -0.0010
          15    0.0011    0.0001   -0.0335   -0.0248    0.0000    0.0000   -0.0009   -0.0005
          16   -0.0006    0.0001   -0.0108    0.0140    0.0000   -0.0001    0.0009   -0.0013
          17   -0.0007   -0.0001   -0.0171    0.0220    0.0000    0.0000   -0.0010    0.0014
          18    0.0011    0.0000    0.0232   -0.0303    0.0000    0.0000   -0.0007    0.0011
          19   -0.0001    0.0005    0.0000    0.0000    0.0123    0.0097   -0.0001   -0.0003
          20    0.0000    0.0000    0.0000    0.0000   -0.0185   -0.0149    0.0001    0.0005
          21   -0.0001    0.0003    0.0000    0.0000    0.0058    0.0044   -0.0001   -0.0002
          22   -0.0001    0.0005    0.0000    0.0000   -0.0117    0.0103    0.0000   -0.0003
          23    0.0001   -0.0003    0.0000    0.0000   -0.0025    0.0025    0.0000   -0.0001
          24    0.0000    0.0002    0.0000    0.0000   -0.0184    0.0164    0.0000   -0.0006
          25    0.0000    0.0000   -0.0006   -0.0004    0.0000    0.0003    0.0108    0.0065
          26    0.0000    0.0000   -0.0008   -0.0006    0.0001    0.0004    0.0138    0.0083
          27   -0.0004   -0.0001    0.0030    0.0022    0.0000   -0.0007   -0.0382   -0.0237
          28    0.0000    0.0000    0.0005   -0.0006    0.0000    0.0003   -0.0069    0.0101
          29    0.0004    0.0001    0.0018   -0.0023    0.0000    0.0006   -0.0183    0.0279
          30   -0.0002    0.0000   -0.0015    0.0019    0.0000   -0.0007    0.0185   -0.0276
          31    0.0458   -0.2597   -0.0001   -0.0006    0.0000    0.0001    0.0000    0.0000
          32    0.0736   -0.3760   -0.0006    0.0014    0.0008    0.0002    0.0001    0.0001
          33   -0.1162    0.5933   -0.0008   -0.0020    0.0005   -0.0004    0.0000   -0.0002
          34   -0.2277   -0.0499   -0.0005   -0.0035    0.0000    0.0001    0.0005    0.0021
          35   -0.3710   -0.0745    0.0018   -0.0098    0.0000    0.0000    0.0019    0.0009
          36    0.5844    0.1173    0.0041    0.0145    0.0000    0.0000    0.0006   -0.0022
          37    0.0003   -0.0008    0.0000    0.0000   -0.0435   -0.0475    0.0004    0.0019
          38    0.0005   -0.0015    0.0003    0.0001   -0.1380   -0.1492    0.0010    0.0060
          39    0.0008   -0.0037    0.0003    0.0001   -0.1445   -0.1569    0.0011    0.0064
          40    0.0003   -0.0007    0.0000    0.0000    0.0408   -0.0495    0.0004    0.0020
          41   -0.0009    0.0040    0.0004   -0.0002   -0.1782    0.2149   -0.0018   -0.0086
          42   -0.0001   -0.0002    0.0002   -0.0001   -0.0593    0.0710   -0.0006   -0.0028
          43    0.0073    0.0023   -0.1471   -0.1091    0.0000   -0.0001   -0.0043   -0.0025
          44    0.0097    0.0018   -0.1882   -0.1386   -0.0001   -0.0001   -0.0053   -0.0032
          45   -0.0123   -0.0003    0.4048    0.3006    0.0002    0.0001    0.0068    0.0041
          46    0.0072    0.0023    0.1105   -0.1432    0.0000   -0.0001    0.0028   -0.0041
          47    0.0070   -0.0005    0.2160   -0.2812    0.0001   -0.0001    0.0025   -0.0037
          48   -0.0139   -0.0017   -0.2599    0.3361   -0.0001    0.0002   -0.0049    0.0074
          49   -0.0006    0.0027    0.0000    0.0001   -0.1420   -0.1143    0.0012    0.0041
          50    0.0006   -0.0028   -0.0001   -0.0001    0.2156    0.1752   -0.0018   -0.0063
          51   -0.0002    0.0008    0.0000    0.0000   -0.0664   -0.0525    0.0005    0.0019
          52   -0.0007    0.0028    0.0000    0.0001    0.1356   -0.1215    0.0004    0.0041
          53   -0.0001    0.0005    0.0000    0.0000    0.0303   -0.0288    0.0001    0.0010
          54   -0.0006    0.0029   -0.0001    0.0001    0.2131   -0.1921    0.0006    0.0066
          55   -0.0009   -0.0003   -0.0146   -0.0110   -0.0001    0.0003    0.0401    0.0261
          56   -0.0010   -0.0003   -0.0176   -0.0133   -0.0002    0.0003    0.0486    0.0316
          57   -0.0015   -0.0006   -0.0407   -0.0307   -0.0004    0.0003    0.0807    0.0531
          58   -0.0021   -0.0006   -0.0022   -0.0020   -0.0002   -0.0034   -0.1511   -0.0925
          59   -0.0026   -0.0008   -0.0028   -0.0024   -0.0003   -0.0043   -0.1915   -0.1173
          60    0.0017    0.0007    0.0034    0.0031    0.0007    0.0085    0.3763    0.2303
          61   -0.0009   -0.0003    0.0110   -0.0145    0.0002    0.0004   -0.0252    0.0401
          62    0.0017    0.0007   -0.0333    0.0440   -0.0006   -0.0007    0.0588   -0.0944
          63    0.0003    0.0001    0.0011   -0.0014    0.0000   -0.0002    0.0062   -0.0095
          64   -0.0021   -0.0006    0.0016   -0.0025    0.0001   -0.0036    0.0960   -0.1440
          65   -0.0005   -0.0003    0.0013   -0.0023    0.0002   -0.0063    0.1656   -0.2479
          66    0.0031    0.0010   -0.0029    0.0045   -0.0002    0.0081   -0.2139    0.3205


   Root No.      57        58        59        60

                57 A      58 A      59 A      60 A   

                3144.5    3145.7    3146.0    3154.7
  
           1    0.0000    0.0000    0.0000    0.0005
           2    0.0000    0.0000    0.0000   -0.0005
           3    0.0000    0.0000    0.0000    0.0009
           4    0.0000    0.0001   -0.0003   -0.0001
           5   -0.0001    0.0003   -0.0001    0.0000
[...]
 FREQ.      1275.99        C  2 --  C  5          +13.1% ( 49.0%)    77.6%
 T-DIPOLE    0.0427        C  2 --  C  6          +13.1% ( 49.0%)    77.5%
 TRAVEL      0.0916        C  2 --  H 12          +10.6% ( 44.2%)     0.0%
 RED. MASS   0.6794        C  1 --  C  2           +9.1% ( 40.9%)     0.0%
 EFF. MASS   6.3046

 VIBRATION   40   40A       ATOM PAIR        ENERGY CONTRIBUTION    RADIAL
 FREQ.      1327.04        C  1 --  C  3          +18.9% ( 64.9%)    77.5%
 T-DIPOLE    0.0841        C  1 --  C  4          +18.7% ( 64.6%)    76.4%
 TRAVEL      0.0791        C  1 --  H 11          +12.5% ( 52.9%)     0.0%
 RED. MASS   1.9130        C  1 --  C  2          +10.4% ( 48.2%)     0.0%
 EFF. MASS   8.1223

 VIBRATION   41   41A       ATOM PAIR        ENERGY CONTRIBUTION    RADIAL
 FREQ.      1331.71        C  9 --  H 19          +12.0% ( 40.2%)     0.8%
 T-DIPOLE    0.1345        C 10 --  H 21          +11.5% ( 39.3%)     0.8%
 TRAVEL      0.1178        C  9 --  H 20          +10.6% ( 37.9%)     2.0%
 RED. MASS   0.3073        C 10 --  H 22          +10.1% ( 37.0%)     2.0%
 EFF. MASS   3.6460

 VIBRATION   42   42A       ATOM PAIR        ENERGY CONTRIBUTION    RADIAL
 FREQ.      1372.93        C  1 --  C  2          +17.5% ( 67.3%)    80.5%
 T-DIPOLE    0.5344        C  1 --  H 11          +10.0% ( 50.8%)     0.3%
 TRAVEL      0.0709        C  7 --  C  8           +8.8% ( 47.7%)   100.0%
 RED. MASS   1.8878        C  1 --  C  3           +8.2% ( 46.0%)    42.6%
 EFF. MASS   9.7714

 VIBRATION   43   43A       ATOM PAIR        ENERGY CONTRIBUTION    RADIAL
 FREQ.      1377.14        C  2 --  C  5          +15.4% ( 56.5%)    78.7%
 T-DIPOLE    0.1586        C  2 --  C  6          +15.3% ( 56.4%)    77.9%
 TRAVEL      0.0804        C  2 --  H 12          +14.4% ( 54.7%)     0.0%
 RED. MASS   1.4266        C  1 --  C  2          +13.5% ( 53.0%)     0.0%
 EFF. MASS   7.5762

 VIBRATION   44   44A       ATOM PAIR        ENERGY CONTRIBUTION    RADIAL
 FREQ.      1416.07        C  7 --  C  8          +19.5% ( 71.9%)   100.0%
 T-DIPOLE    0.2137        C  3 --  C  8           +8.9% ( 48.5%)    99.9%
 TRAVEL      0.0692        C  4 --  C  7           +8.9% ( 48.5%)    99.9%
 RED. MASS   1.8463        C  3 --  C  7           +8.5% ( 47.4%)     0.1%
 EFF. MASS   9.9401

 VIBRATION   45   45A       ATOM PAIR        ENERGY CONTRIBUTION    RADIAL
 FREQ.      1732.48        C  4 --  C  8          +18.2% ( 72.7%)    99.9%
 T-DIPOLE    0.4145        C  3 --  C  7          +18.2% ( 72.7%)    99.9%
 TRAVEL      0.0569        C  4 --  C  7          +10.7% ( 55.7%)    25.9%
 RED. MASS   2.7207        C  3 --  C  8          +10.7% ( 55.7%)    25.9%
 EFF. MASS  12.0260

 VIBRATION   46   46A       ATOM PAIR        ENERGY CONTRIBUTION    RADIAL
 FREQ.      1789.61        C  3 --  C  7          +17.9% ( 70.1%)    99.8%
 T-DIPOLE    0.3168        C  4 --  C  8          +17.9% ( 70.1%)    99.8%
 TRAVEL      0.0565        C  7 --  C  8          +12.1% ( 57.7%)     0.0%
 RED. MASS   2.6829        C  4 --  C  7          +10.9% ( 54.7%)    66.0%
 EFF. MASS  11.7994        C  3 --  C  8          +10.9% ( 54.7%)    66.0%

 VIBRATION   47   47A       ATOM PAIR        ENERGY CONTRIBUTION    RADIAL
 FREQ.      1854.55        C  5 --  C  9          +22.6% ( 70.4%)    99.1%
 T-DIPOLE    0.0305        C  6 --  C 10          +22.6% ( 70.4%)    99.1%
 TRAVEL      0.0555        C  2 --  C  5           +8.4% ( 43.0%)    53.9%
 RED. MASS   2.6138        C  2 --  C  6           +8.4% ( 43.0%)    53.9%
 EFF. MASS  11.7859

 VIBRATION   48   48A       ATOM PAIR        ENERGY CONTRIBUTION    RADIAL
 FREQ.      1863.87        C  6 --  C 10          +23.0% ( 70.5%)    99.0%
 T-DIPOLE    0.0855        C  5 --  C  9          +23.0% ( 70.5%)    99.0%
 TRAVEL      0.0553        C  2 --  C  6           +8.1% ( 41.9%)    49.8%
 RED. MASS   2.6968        C  2 --  C  5           +8.1% ( 41.9%)    49.8%
 EFF. MASS  11.8106

 VIBRATION   49   49A       ATOM PAIR        ENERGY CONTRIBUTION    RADIAL
 FREQ.      2866.55        C  2 --  H 12          +92.8% ( 98.1%)   100.0%
 T-DIPOLE    0.0387        C  1 --  H 11           +3.7% ( 19.6%)    99.8%
 TRAVEL      0.1272        C  1 --  C  2           +1.1% ( 10.9%)     8.9%
 RED. MASS   0.8602        C  2 --  C  5           +1.1% ( 10.5%)    12.1%
 EFF. MASS   1.4541

 VIBRATION   50   50A       ATOM PAIR        ENERGY CONTRIBUTION    RADIAL
 FREQ.      2888.40        C  1 --  H 11          +93.4% ( 98.0%)   100.0%
 T-DIPOLE    0.2096        C  2 --  H 12           +3.6% ( 19.3%)    99.9%
 TRAVEL      0.1277        C  1 --  C  4           +1.0% (  9.9%)    10.7%
 RED. MASS   0.8620        C  1 --  C  3           +1.0% (  9.9%)    10.7%
 EFF. MASS   1.4319

 VIBRATION   51   51A       ATOM PAIR        ENERGY CONTRIBUTION    RADIAL
 FREQ.      3042.27        C  5 --  H 15          +61.3% ( 79.4%)   100.0%
 T-DIPOLE    0.0618        C  6 --  H 16          +35.1% ( 60.0%)   100.0%
 TRAVEL      0.1216        C  5 --  C  9           +0.9% (  9.6%)    31.1%
 RED. MASS   0.4900        C  2 --  C  5           +0.8% (  9.3%)    13.8%
 EFF. MASS   1.4990

 VIBRATION   52   52A       ATOM PAIR        ENERGY CONTRIBUTION    RADIAL
 FREQ.      3042.46        C  6 --  H 16          +61.2% ( 79.3%)   100.0%
 T-DIPOLE    0.3348        C  5 --  H 15          +35.0% ( 60.0%)   100.0%
 TRAVEL      0.1215        C  6 --  C 10           +0.9% (  9.6%)    31.3%
 RED. MASS   0.4889        C  2 --  C  6           +0.8% (  9.3%)    13.8%
 EFF. MASS   1.5016

 VIBRATION   53   53A       ATOM PAIR        ENERGY CONTRIBUTION    RADIAL
 FREQ.      3131.24        C  7 --  H 17          +31.7% ( 57.7%)   100.0%
 T-DIPOLE    0.1607        C  8 --  H 18          +28.9% ( 55.1%)   100.0%
 TRAVEL      0.1206        C  3 --  H 13          +18.6% ( 44.2%)   100.0%
 RED. MASS   0.2498        C  4 --  H 14          +16.4% ( 41.6%)   100.0%
 EFF. MASS   1.4809

 VIBRATION   54   54A       ATOM PAIR        ENERGY CONTRIBUTION    RADIAL
 FREQ.      3132.96        C  4 --  H 14          +25.5% ( 51.7%)   100.0%
 T-DIPOLE    0.5033        C  8 --  H 18          +24.9% ( 51.1%)   100.0%
 TRAVEL      0.1210        C  3 --  H 13          +23.3% ( 49.4%)   100.0%
 RED. MASS   0.2327        C  7 --  H 17          +22.1% ( 48.1%)   100.0%
 EFF. MASS   1.4705

 VIBRATION   55   55A       ATOM PAIR        ENERGY CONTRIBUTION    RADIAL
 FREQ.      3134.09        C  9 --  H 20          +65.1% ( 82.1%)    99.9%
 T-DIPOLE    0.0728        C 10 --  H 22          +26.7% ( 52.6%)    99.9%
 TRAVEL      0.1182        C  9 --  H 19           +4.9% ( 22.6%)    71.6%
 RED. MASS   0.5015        C 10 --  H 21           +2.0% ( 14.2%)    71.0%
 EFF. MASS   1.5396

 VIBRATION   56   56A       ATOM PAIR        ENERGY CONTRIBUTION    RADIAL
 FREQ.      3134.23        C 10 --  H 22          +64.7% ( 81.9%)    99.8%
 T-DIPOLE    0.2718        C  9 --  H 20          +26.4% ( 52.3%)    99.8%
 TRAVEL      0.1181        C 10 --  H 21           +5.2% ( 23.3%)    73.1%
 RED. MASS   0.4961        C  9 --  H 19           +2.2% ( 15.1%)    73.7%
 EFF. MASS   1.5418

 VIBRATION   57   57A       ATOM PAIR        ENERGY CONTRIBUTION    RADIAL
 FREQ.      3144.47        C  3 --  H 13          +30.0% ( 56.4%)   100.0%
 T-DIPOLE    0.5653        C  4 --  H 14          +29.7% ( 56.0%)   100.0%
 TRAVEL      0.1157        C  7 --  H 17          +17.4% ( 42.9%)    99.9%
 RED. MASS   0.2494        C  8 --  H 18          +17.1% ( 42.5%)    99.9%
 EFF. MASS   1.6008

 VIBRATION   58   58A       ATOM PAIR        ENERGY CONTRIBUTION    RADIAL
 FREQ.      3145.69        C  9 --  H 19          +78.1% ( 89.0%)    99.7%
 T-DIPOLE    0.2800        C 10 --  H 21          +13.5% ( 37.0%)    99.7%
 TRAVEL      0.1209        C  9 --  H 20           +5.1% ( 22.7%)    42.5%
 RED. MASS   0.6102        C  5 --  C  9           +1.4% ( 11.8%)    73.8%
 EFF. MASS   1.4660

 VIBRATION   59   59A       ATOM PAIR        ENERGY CONTRIBUTION    RADIAL
 FREQ.      3146.04        C 10 --  H 21          +77.8% ( 88.8%)    99.6%
 T-DIPOLE    0.2159        C  9 --  H 19          +13.3% ( 36.7%)    99.6%
 TRAVEL      0.1210        C 10 --  H 22           +5.3% ( 23.3%)    44.8%
 RED. MASS   0.6065        C  6 --  C 10           +1.4% ( 11.8%)    74.5%
 EFF. MASS   1.4648

 VIBRATION   60   60A       ATOM PAIR        ENERGY CONTRIBUTION    RADIAL
 FREQ.      3154.72        C  8 --  H 18          +23.9% ( 50.4%)   100.0%
 T-DIPOLE    0.2149        C  7 --  H 17          +23.6% ( 50.0%)   100.0%
 TRAVEL      0.1120        C  4 --  H 14          +23.1% ( 49.5%)    99.9%
 RED. MASS   0.2347        C  3 --  H 13          +22.7% ( 49.1%)    99.9%
 EFF. MASS   1.7026

 SYMMETRY NUMBER FOR POINT-GROUP C1  =  1


          SYSTEM IS A GROUND STATE


    NULL



          MOLECULE IS NOT LINEAR

          THERE ARE 60 GENUINE VIBRATIONS IN THIS SYSTEM
          THIS THERMODYNAMICS CALCULATION IS LIMITED TO
          MOLECULES WHICH HAVE NO INTERNAL ROTATIONS




                    CALCULATED THERMODYNAMIC PROPERTIES
                                          *
   TEMP. (K)   PARTITION FUNCTION   H.O.F.    ENTHALPY  HEAT CAPACITY ENTROPY
                                   KCAL/MOL   CAL/MOLE    CAL/K/MOL  CAL/K/MOL


 298.00  VIB.     0.4871D+03                  4340.5646    31.3227    26.8632
         ROT.     0.6934D+06                   888.2813     2.9808    29.7075
         INT.     0.3377D+09                  5228.8459    34.3035    56.5708
         TRA.     0.1470D+28                  1480.4688     4.9680    40.5480
         TOT.                       68.420    6709.3147    39.2715    97.1187

 200.00  VIB.     0.4611D+02                  1877.5219    19.2466    17.0008
         ROT.     0.3813D+06                   596.1620     2.9808    28.5189
         INT.     0.1758D+08                  2473.6838    22.2274    45.5197
         TRA.     0.8080D+27                   993.6033     4.9680    38.5668
         TOT.                       65.178    3467.2871    27.1955    84.0865

 210.00  VIB.     0.5842D+02                  2075.6057    20.3756    17.9670
         ROT.     0.4102D+06                   625.9700     2.9808    28.6643
         INT.     0.2396D+08                  2701.5758    23.3564    46.6313
         TRA.     0.8694D+27                  1043.2834     4.9680    38.8092
         TOT.                       65.456    3744.8592    28.3244    85.4405

 220.00  VIB.     0.7406D+02                  2285.1394    21.5363    18.9416
         ROT.     0.4399D+06                   655.7781     2.9808    28.8030
         INT.     0.3257D+08                  2940.9175    24.5171    47.7445
         TRA.     0.9322D+27                  1092.9636     4.9680    39.0403
         TOT.                       65.745    4033.8811    29.4851    86.7849

 230.00  VIB.     0.9396D+02                  2506.4285    22.7262    19.9251
         ROT.     0.4702D+06                   685.5862     2.9808    28.9355
         INT.     0.4418D+08                  3192.0147    25.7070    48.8605
         TRA.     0.9965D+27                  1142.6437     4.9680    39.2612
         TOT.                       66.046    4334.6585    30.6750    88.1217

 240.00  VIB.     0.1193D+03                  2739.7511    23.9424    20.9179
         ROT.     0.5012D+06                   715.3943     2.9808    29.0623
         INT.     0.5979D+08                  3455.1454    26.9232    49.9802
         TRA.     0.1062D+28                  1192.3239     4.9680    39.4726
         TOT.                       66.359    4647.4693    31.8912    89.4528

 250.00  VIB.     0.1516D+03                  2985.3522    25.1813    21.9203
         ROT.     0.5328D+06                   745.2024     2.9808    29.1840
         INT.     0.8080D+08                  3730.5546    28.1621    51.1043
         TRA.     0.1129D+28                  1242.0041     4.9680    39.6754
         TOT.                       66.684    4972.5587    33.1301    90.7797

 260.00  VIB.     0.1930D+03                  3243.4401    26.4391    22.9324
         ROT.     0.5651D+06                   775.0105     2.9808    29.3009
         INT.     0.1090D+09                  4018.4506    29.4199    52.2333
         TRA.     0.1198D+28                  1291.6842     4.9680    39.8703
         TOT.                       67.021    5310.1348    34.3879    92.1036

 270.00  VIB.     0.2458D+03                  3514.1846    27.7120    23.9540
         ROT.     0.5980D+06                   804.8186     2.9808    29.4134
         INT.     0.1470D+09                  4319.0032    30.6928    53.3674
         TRA.     0.1267D+28                  1341.3644     4.9680    40.0578
         TOT.                       67.372    5660.3676    35.6608    93.4252

 280.00  VIB.     0.3135D+03                  3797.7162    28.9959    24.9850
         ROT.     0.6316D+06                   834.6267     2.9808    29.5218
         INT.     0.1980D+09                  4632.3429    31.9767    54.5068
         TRA.     0.1338D+28                  1391.0445     4.9680    40.2384
         TOT.                       67.735    6023.3875    36.9447    94.7453

 290.00  VIB.     0.4002D+03                  4094.1264    30.2871    26.0250
         ROT.     0.6657D+06                   864.4348     2.9808    29.6264
         INT.     0.2664D+09                  4958.5612    33.2679    55.6514
         TRA.     0.1411D+28                  1440.7247     4.9680    40.4128
         TOT.                       68.110    6399.2859    38.2359    96.0642

 300.00  VIB.     0.5116D+03                  4403.4691    31.5818    27.0736
         ROT.     0.7004D+06                   894.2429     2.9808    29.7275
         INT.     0.3584D+09                  5297.7120    34.5626    56.8011
         TRA.     0.1484D+28                  1490.4049     4.9680    40.5812
         TOT.                       68.499    6788.1169    39.5306    97.3823

 310.00  VIB.     0.6549D+03                  4725.7624    32.8766    28.1303
         ROT.     0.7357D+06                   924.0510     2.9808    29.8252
         INT.     0.4818D+09                  5649.8134    35.8574    57.9555
         TRA.     0.1559D+28                  1540.0850     4.9680    40.7441
         TOT.                       68.901    7189.8985    40.8255    98.6996

 320.00  VIB.     0.8393D+03                  5060.9913    34.1684    29.1945
         ROT.     0.7716D+06                   953.8591     2.9808    29.9198
         INT.     0.6476D+09                  6014.8504    37.1492    59.1143
         TRA.     0.1635D+28                  1589.7652     4.9680    40.9018
         TOT.                       69.316    7604.6156    42.1172   100.0162

 330.00  VIB.     0.1077D+04                  5409.1100    35.4541    30.2656
         ROT.     0.8081D+06                   983.6672     2.9808    30.0116
         INT.     0.8702D+09                  6392.7772    38.4349    60.2772
         TRA.     0.1713D+28                  1639.4454     4.9680    41.0547
         TOT.                       69.743    8032.2225    43.4029   101.3319

 340.00  VIB.     0.1384D+04                  5770.0449    36.7312    31.3430
         ROT.     0.8451D+06                  1013.4753     2.9808    30.1006
         INT.     0.1169D+10                  6783.5202    39.7120    61.4436
         TRA.     0.1791D+28                  1689.1255     4.9680    41.2030
         TOT.                       70.184    8472.6457    44.6800   102.6466

 350.00  VIB.     0.1780D+04                  6143.6978    37.9974    32.4261
         ROT.     0.8826D+06                  1043.2834     2.9808    30.1870
         INT.     0.1571D+10                  7186.9812    40.9782    62.6130
         TRA.     0.1871D+28                  1738.8057     4.9680    41.3470
         TOT.                       70.637    8925.7869    45.9462   103.9600

 360.00  VIB.     0.2292D+04                  6529.9486    39.2505    33.5141
         ROT.     0.9207D+06                  1073.0915     2.9808    30.2709
         INT.     0.2110D+10                  7603.0401    42.2313    63.7850
         TRA.     0.1951D+28                  1788.4859     4.9680    41.4870
         TOT.                       71.103    9391.5259    47.1993   105.2720

 370.00  VIB.     0.2955D+04                  6928.6580    40.4888    34.6064
         ROT.     0.9593D+06                  1102.8996     2.9808    30.3526
         INT.     0.2835D+10                  8031.5576    43.4696    64.9590
         TRA.     0.2033D+28                  1838.1660     4.9680    41.6231
         TOT.                       71.581    9869.7236    48.4376   106.5821

 380.00  VIB.     0.3814D+04                  7339.6706    41.7109    35.7025
         ROT.     0.9985D+06                  1132.7077     2.9808    30.4321
         INT.     0.3809D+10                  8472.3783    44.6917    66.1346
         TRA.     0.2116D+28                  1887.8462     4.9680    41.7556
         TOT.                       72.071   10360.2245    49.6597   107.8901

 390.00  VIB.     0.4929D+04                  7762.8171    42.9154    36.8015
         ROT.     0.1038D+07                  1162.5158     2.9808    30.5095
         INT.     0.5117D+10                  8925.3329    45.8962    67.3111
         TRA.     0.2200D+28                  1937.5263     4.9680    41.8846
         TOT.                       72.574   10862.8592    50.8642   109.1957

 400.00  VIB.     0.6375D+04                  8197.9170    44.1014    37.9030
         ROT.     0.1078D+07                  1192.3239     2.9808    30.5850
         INT.     0.6875D+10                  9390.2409    47.0822    68.4880
         TRA.     0.2285D+28                  1987.2065     4.9680    42.0104
         TOT.                       73.089   11377.4474    52.0502   110.4984

   *: NOTE: HEATS OF FORMATION ARE RELATIVE TO THE
            ELEMENTS IN THEIR STANDARD STATE AT 298K
              (=  Standard Enthalpy of Formation).

            Hvib:  Zero-point energy is not included.
                   frequencies of less than zero cm-1 are not included.
            Hrot = (3/2)RT
            Htra = (3/2)RT + pV = (5/2)RT

            Heat capacity is Cp, not Cv

           For more information, see: HTTP://OpenMOPAC.net/Manual/thermochemistry.html


           FORCE CONSTANT IN CARTESIAN COORDINATES (Millidynes/A)

    ATOM   CHEMICAL       X               Y               Z
   NUMBER   SYMBOL  FORCE CONSTANT  FORCE CONSTANT  FORCE CONSTANT

      1       C        8.525543        8.182865        8.671877
      2       C        7.934296        8.851671        8.821621
      3       C        6.781928        8.595705       11.386530
      4       C        6.786652       12.695256        7.290100
      5       C        7.697988       10.481306        8.900717
      6       C        7.671399        9.167714       10.248904
      7       C        7.474486       10.310027        9.677294
      8       C        7.476382        9.771890       10.206339
      9       C        7.324257       10.165464        9.034319
     10       C        7.293691        9.290417        9.944886
     11       H        1.154921        1.614313        3.125922
     12       H        1.102701        1.742421        3.190931
     13       H        0.694314        2.786777        2.959892
     14       H        0.692787        4.713009        1.034980
     15       H        0.947260        1.298190        3.978036
     16       H        0.939638        2.340899        2.942782
     17       H        1.829701        3.743785        0.888776
     18       H        1.830748        0.727473        3.904127
     19       H        1.038514        1.368282        4.067040
     20       H        1.018964        1.416123        4.028963
     21       H        1.038484        4.852773        0.583920
     22       H        1.011479        2.256982        3.196045



 TOTAL CPU TIME:             2.84 SECONDS

 == MOPAC DONE ==
