 *******************************************************************************
 ** Site#: 14399           For non-commercial use only        Version 13.159M **
 *******************************************************************************
 ** Cite this work as: MOPAC2012, James J. P. Stewart, Stewart Computational  **
 ** Chemistry, Version 13.159M web: HTTP://OpenMOPAC.net  Days remaining:   6 **
 *******************************************************************************
 **                                                                           **
 **                                MOPAC2012                                  **
 **                                                                           **
 *******************************************************************************

                            PM3 CALCULATION RESULTS


 *******************************************************************************
 *  CALCULATION DONE:                                Mon Jun  2 11:13:14 2014  *
 *  PM3      - The PM3 Hamiltonian to be used
 *  PRECISE  - CRITERIA TO BE INCREASED BY 100 TIMES
 *  NOSYM    - POINT-GROUP SYMMETRY SET TO C1
 *  T=       - A TIME OF 172800.0 SECONDS REQUESTED
 *  DUMP=N   - RESTART FILE WRITTEN EVERY  7200.000 SECONDS
 *******************************************************************************
pm3  precise nosym
 InChI=1S/C10H14/c1-3-6-9(2)10-7-4-5-8-10/h3-5,7-10H,1,6H2,2H3

   ATOM   CHEMICAL          X               Y               Z
  NUMBER   SYMBOL      (ANGSTROMS)     (ANGSTROMS)     (ANGSTROMS)
 
     1       C          0.19150000  *  -0.93930000  *   0.21340000  *
     2       C         -0.55190000  *   0.26990000  *   0.83250000  *
     3       C          1.59270000  *  -0.57370000  *  -0.31440000  *
     4       C         -0.60940000  *  -1.66720000  *  -0.87840000  *
     5       C         -0.97570000  *   1.32120000  *  -0.15030000  *
     6       C         -1.88010000  *  -0.08000000  *   1.43420000  *
     7       C          2.52160000  *  -0.08490000  *   0.76320000  *
     8       C         -2.28530000  *   1.50100000  *  -0.12100000  *
     9       C         -2.85530000  *   0.61800000  *   0.87720000  *
    10       C          3.06160000  *   1.13600000  *   0.74960000  *
    11       H          0.33610000  *  -1.68520000  *   1.03190000  *
    12       H          0.06450000  *   0.74320000  *   1.63130000  *
    13       H          1.50440000  *   0.15780000  *  -1.15180000  *
    14       H          2.08040000  *  -1.47530000  *  -0.75250000  *
    15       H         -0.06960000  *  -2.57580000  *  -1.23090000  *
    16       H         -0.78920000  *  -1.01050000  *  -1.76000000  *
    17       H         -1.59480000  *  -2.01790000  *  -0.49680000  *
    18       H         -0.30550000  *   1.87800000  *  -0.79720000  *
    19       H         -2.03150000  *  -0.80690000  *   2.22580000  *
    20       H          2.75730000  *  -0.75470000  *   1.58920000  *
    21       H         -2.83350000  *   2.20860000  *  -0.73410000  *
    22       H         -3.90540000  *   0.54620000  *   1.14040000  *
    23       H          2.85130000  *   1.84440000  *  -0.05000000  *
    24       H          3.72580000  *   1.44690000  *   1.55370000  *
 


          CARTESIAN COORDINATES 

    NO.       ATOM         X         Y         Z

     1         C        0.1915   -0.9393    0.2134
     2         C       -0.5519    0.2699    0.8325
     3         C        1.5927   -0.5737   -0.3144
     4         C       -0.6094   -1.6672   -0.8784
     5         C       -0.9757    1.3212   -0.1503
     6         C       -1.8801   -0.0800    1.4342
     7         C        2.5216   -0.0849    0.7632
     8         C       -2.2853    1.5010   -0.1210
     9         C       -2.8553    0.6180    0.8772
    10         C        3.0616    1.1360    0.7496
    11         H        0.3361   -1.6852    1.0319
    12         H        0.0645    0.7432    1.6313
    13         H        1.5044    0.1578   -1.1518
    14         H        2.0804   -1.4753   -0.7525
    15         H       -0.0696   -2.5758   -1.2309
    16         H       -0.7892   -1.0105   -1.7600
    17         H       -1.5948   -2.0179   -0.4968
    18         H       -0.3055    1.8780   -0.7972
    19         H       -2.0315   -0.8069    2.2258
    20         H        2.7573   -0.7547    1.5892
    21         H       -2.8335    2.2086   -0.7341
    22         H       -3.9054    0.5462    1.1404
    23         H        2.8513    1.8444   -0.0500
    24         H        3.7258    1.4469    1.5537

  H: (PM3): J. J. P. STEWART, J. COMP. CHEM. 10, 209 (1989).
  C: (PM3): J. J. P. STEWART, J. COMP. CHEM. 10, 209 (1989).

           Empirical Formula: C10 H14  =    24 atoms



      MOLECULAR POINT GROUP   :   C1  


      RHF CALCULATION, NO. OF DOUBLY OCCUPIED LEVELS =   27

      Geometry optimization using EF

          DIAGONAL MATRIX USED AS START HESSIAN

 CYCLE:     1 TIME:   0.011 TIME LEFT:  2.00D  GRAD.:   111.959 HEAT: 43.01499
 CYCLE:     2 TIME:   0.022 TIME LEFT:  2.00D  GRAD.:    71.425 HEAT: 41.31731
 CYCLE:     3 TIME:   0.008 TIME LEFT:  2.00D  GRAD.:    39.439 HEAT: 39.99088
 CYCLE:     4 TIME:   0.014 TIME LEFT:  2.00D  GRAD.:    46.561 HEAT: 39.66466
 CYCLE:     5 TIME:   0.008 TIME LEFT:  2.00D  GRAD.:    30.649 HEAT: 39.16774
 CYCLE:     6 TIME:   0.008 TIME LEFT:  2.00D  GRAD.:    48.940 HEAT: 39.12771
 CYCLE:     7 TIME:   0.008 TIME LEFT:  2.00D  GRAD.:    42.059 HEAT: 38.79250
 CYCLE:     8 TIME:   0.014 TIME LEFT:  2.00D  GRAD.:    22.125 HEAT: 38.40296
 CYCLE:     9 TIME:   0.015 TIME LEFT:  2.00D  GRAD.:    23.512 HEAT: 38.34339
 CYCLE:    10 TIME:   0.008 TIME LEFT:  2.00D  GRAD.:    17.455 HEAT: 38.23595
 CYCLE:    11 TIME:   0.014 TIME LEFT:  2.00D  GRAD.:    13.212 HEAT: 38.18429
 CYCLE:    12 TIME:   0.008 TIME LEFT:  2.00D  GRAD.:    10.473 HEAT: 38.13503
 CYCLE:    13 TIME:   0.008 TIME LEFT:  2.00D  GRAD.:    14.102 HEAT: 38.11277
 CYCLE:    14 TIME:   0.008 TIME LEFT:  2.00D  GRAD.:    12.722 HEAT: 38.06591
 CYCLE:    15 TIME:   0.008 TIME LEFT:  2.00D  GRAD.:    12.778 HEAT: 38.04718
 CYCLE:    16 TIME:   0.008 TIME LEFT:  2.00D  GRAD.:    11.367 HEAT: 38.01262
 CYCLE:    17 TIME:   0.008 TIME LEFT:  2.00D  GRAD.:    13.120 HEAT: 38.00632
 CYCLE:    18 TIME:   0.014 TIME LEFT:  2.00D  GRAD.:     7.315 HEAT: 37.96976
 CYCLE:    19 TIME:   0.014 TIME LEFT:  2.00D  GRAD.:     5.872 HEAT: 37.95737
 CYCLE:    20 TIME:   0.008 TIME LEFT:  2.00D  GRAD.:     3.745 HEAT: 37.94474
 CYCLE:    21 TIME:   0.008 TIME LEFT:  2.00D  GRAD.:     4.144 HEAT: 37.93380
 CYCLE:    22 TIME:   0.008 TIME LEFT:  2.00D  GRAD.:     6.033 HEAT: 37.92524
 CYCLE:    23 TIME:   0.008 TIME LEFT:  2.00D  GRAD.:     4.032 HEAT: 37.90929
 CYCLE:    24 TIME:   0.014 TIME LEFT:  2.00D  GRAD.:     5.586 HEAT: 37.90769
 CYCLE:    25 TIME:   0.008 TIME LEFT:  2.00D  GRAD.:     2.482 HEAT: 37.89534
 CYCLE:    26 TIME:   0.008 TIME LEFT:  2.00D  GRAD.:     4.109 HEAT: 37.89146
 CYCLE:    27 TIME:   0.008 TIME LEFT:  2.00D  GRAD.:     2.712 HEAT: 37.88391
 CYCLE:    28 TIME:   0.008 TIME LEFT:  2.00D  GRAD.:     3.375 HEAT: 37.87898
 CYCLE:    29 TIME:   0.008 TIME LEFT:  2.00D  GRAD.:     3.417 HEAT: 37.86988
 CYCLE:    30 TIME:   0.008 TIME LEFT:  2.00D  GRAD.:     2.782 HEAT: 37.85394
 CYCLE:    31 TIME:   0.008 TIME LEFT:  2.00D  GRAD.:     3.754 HEAT: 37.84931
 CYCLE:    32 TIME:   0.008 TIME LEFT:  2.00D  GRAD.:     1.944 HEAT: 37.84216
 CYCLE:    33 TIME:   0.008 TIME LEFT:  2.00D  GRAD.:     3.582 HEAT: 37.83879
 CYCLE:    34 TIME:   0.008 TIME LEFT:  2.00D  GRAD.:     2.611 HEAT: 37.83221
 CYCLE:    35 TIME:   0.008 TIME LEFT:  2.00D  GRAD.:     1.757 HEAT: 37.82754
 CYCLE:    36 TIME:   0.008 TIME LEFT:  2.00D  GRAD.:     1.459 HEAT: 37.82439
 CYCLE:    37 TIME:   0.008 TIME LEFT:  2.00D  GRAD.:     2.081 HEAT: 37.82123
 CYCLE:    38 TIME:   0.008 TIME LEFT:  2.00D  GRAD.:     1.719 HEAT: 37.81758
 CYCLE:    39 TIME:   0.008 TIME LEFT:  2.00D  GRAD.:     1.632 HEAT: 37.81307
 CYCLE:    40 TIME:   0.008 TIME LEFT:  2.00D  GRAD.:     1.911 HEAT: 37.80803
 CYCLE:    41 TIME:   0.008 TIME LEFT:  2.00D  GRAD.:     1.933 HEAT: 37.80335
 CYCLE:    42 TIME:   0.008 TIME LEFT:  2.00D  GRAD.:     1.756 HEAT: 37.79649
 CYCLE:    43 TIME:   0.008 TIME LEFT:  2.00D  GRAD.:     1.579 HEAT: 37.79085
 CYCLE:    44 TIME:   0.008 TIME LEFT:  2.00D  GRAD.:     1.694 HEAT: 37.78455
 CYCLE:    45 TIME:   0.008 TIME LEFT:  2.00D  GRAD.:     2.005 HEAT: 37.77772
 CYCLE:    46 TIME:   0.008 TIME LEFT:  2.00D  GRAD.:     1.884 HEAT: 37.77088
 CYCLE:    47 TIME:   0.008 TIME LEFT:  2.00D  GRAD.:     1.659 HEAT: 37.76470
 CYCLE:    48 TIME:   0.008 TIME LEFT:  2.00D  GRAD.:     1.575 HEAT: 37.75834
 CYCLE:    49 TIME:   0.008 TIME LEFT:  2.00D  GRAD.:     1.471 HEAT: 37.75284
 CYCLE:    50 TIME:   0.008 TIME LEFT:  2.00D  GRAD.:     1.188 HEAT: 37.74908
 CYCLE:    51 TIME:   0.008 TIME LEFT:  2.00D  GRAD.:     1.068 HEAT: 37.74616
 CYCLE:    52 TIME:   0.008 TIME LEFT:  2.00D  GRAD.:     1.367 HEAT: 37.74235
 CYCLE:    53 TIME:   0.008 TIME LEFT:  2.00D  GRAD.:     1.851 HEAT: 37.73638
 CYCLE:    54 TIME:   0.008 TIME LEFT:  2.00D  GRAD.:     2.003 HEAT: 37.72866
 CYCLE:    55 TIME:   0.008 TIME LEFT:  2.00D  GRAD.:     1.607 HEAT: 37.72028
 CYCLE:    56 TIME:   0.008 TIME LEFT:  2.00D  GRAD.:     1.418 HEAT: 37.71641
 CYCLE:    57 TIME:   0.008 TIME LEFT:  2.00D  GRAD.:     1.482 HEAT: 37.71122
 CYCLE:    58 TIME:   0.008 TIME LEFT:  2.00D  GRAD.:     1.206 HEAT: 37.70849
 CYCLE:    59 TIME:   0.008 TIME LEFT:  2.00D  GRAD.:     1.140 HEAT: 37.70479
 CYCLE:    60 TIME:   0.008 TIME LEFT:  2.00D  GRAD.:     0.949 HEAT: 37.70333
 CYCLE:    61 TIME:   0.008 TIME LEFT:  2.00D  GRAD.:     1.179 HEAT: 37.69805
 CYCLE:    62 TIME:   0.008 TIME LEFT:  2.00D  GRAD.:     1.034 HEAT: 37.69563
 CYCLE:    63 TIME:   0.008 TIME LEFT:  2.00D  GRAD.:     0.957 HEAT: 37.69193
 CYCLE:    64 TIME:   0.008 TIME LEFT:  2.00D  GRAD.:     0.662 HEAT: 37.69078
 CYCLE:    65 TIME:   0.008 TIME LEFT:  2.00D  GRAD.:     0.516 HEAT: 37.68939
 CYCLE:    66 TIME:   0.008 TIME LEFT:  2.00D  GRAD.:     0.615 HEAT: 37.68794
 CYCLE:    67 TIME:   0.008 TIME LEFT:  2.00D  GRAD.:     0.768 HEAT: 37.68566
 CYCLE:    68 TIME:   0.008 TIME LEFT:  2.00D  GRAD.:     0.759 HEAT: 37.68402
 CYCLE:    69 TIME:   0.008 TIME LEFT:  2.00D  GRAD.:     0.768 HEAT: 37.68157
 CYCLE:    70 TIME:   0.008 TIME LEFT:  2.00D  GRAD.:     0.742 HEAT: 37.68009
 CYCLE:    71 TIME:   0.008 TIME LEFT:  2.00D  GRAD.:     0.832 HEAT: 37.67736
 CYCLE:    72 TIME:   0.008 TIME LEFT:  2.00D  GRAD.:     0.715 HEAT: 37.67649
 CYCLE:    73 TIME:   0.008 TIME LEFT:  2.00D  GRAD.:     0.833 HEAT: 37.67443
 CYCLE:    74 TIME:   0.008 TIME LEFT:  2.00D  GRAD.:     0.579 HEAT: 37.67358
 CYCLE:    75 TIME:   0.008 TIME LEFT:  2.00D  GRAD.:     0.469 HEAT: 37.67265
 CYCLE:    76 TIME:   0.008 TIME LEFT:  2.00D  GRAD.:     0.514 HEAT: 37.67185
 CYCLE:    77 TIME:   0.008 TIME LEFT:  2.00D  GRAD.:     0.569 HEAT: 37.67109
 CYCLE:    78 TIME:   0.008 TIME LEFT:  2.00D  GRAD.:     0.697 HEAT: 37.66972
 CYCLE:    79 TIME:   0.008 TIME LEFT:  2.00D  GRAD.:     0.666 HEAT: 37.66866
 CYCLE:    80 TIME:   0.008 TIME LEFT:  2.00D  GRAD.:     0.935 HEAT: 37.66595
 CYCLE:    81 TIME:   0.008 TIME LEFT:  2.00D  GRAD.:     0.747 HEAT: 37.66496
 CYCLE:    82 TIME:   0.008 TIME LEFT:  2.00D  GRAD.:     0.704 HEAT: 37.66311
 CYCLE:    83 TIME:   0.008 TIME LEFT:  2.00D  GRAD.:     0.517 HEAT: 37.66256
 CYCLE:    84 TIME:   0.008 TIME LEFT:  2.00D  GRAD.:     0.502 HEAT: 37.66146
 CYCLE:    85 TIME:   0.008 TIME LEFT:  2.00D  GRAD.:     0.547 HEAT: 37.66058
 CYCLE:    86 TIME:   0.008 TIME LEFT:  2.00D  GRAD.:     0.635 HEAT: 37.65889
 CYCLE:    87 TIME:   0.008 TIME LEFT:  2.00D  GRAD.:     0.496 HEAT: 37.65841
 CYCLE:    88 TIME:   0.008 TIME LEFT:  2.00D  GRAD.:     0.460 HEAT: 37.65739
 CYCLE:    89 TIME:   0.008 TIME LEFT:  2.00D  GRAD.:     0.384 HEAT: 37.65701
 CYCLE:    90 TIME:   0.008 TIME LEFT:  2.00D  GRAD.:     0.270 HEAT: 37.65646
 CYCLE:    91 TIME:   0.008 TIME LEFT:  2.00D  GRAD.:     0.164 HEAT: 37.65633
 CYCLE:    92 TIME:   0.007 TIME LEFT:  2.00D  GRAD.:     0.139 HEAT: 37.65629
 CYCLE:    93 TIME:   0.008 TIME LEFT:  2.00D  GRAD.:     0.290 HEAT: 37.65635
 CYCLE:    94 TIME:   0.008 TIME LEFT:  2.00D  GRAD.:     0.134 HEAT: 37.65618
 CYCLE:    95 TIME:   0.008 TIME LEFT:  2.00D  GRAD.:     0.111 HEAT: 37.65613
 CYCLE:    96 TIME:   0.008 TIME LEFT:  2.00D  GRAD.:     0.159 HEAT: 37.65604
 CYCLE:    97 TIME:   0.008 TIME LEFT:  2.00D  GRAD.:     0.160 HEAT: 37.65600
 CYCLE:    98 TIME:   0.008 TIME LEFT:  2.00D  GRAD.:     0.332 HEAT: 37.65568
 CYCLE:    99 TIME:   0.008 TIME LEFT:  2.00D  GRAD.:     0.306 HEAT: 37.65550
 CYCLE:   100 TIME:   0.008 TIME LEFT:  2.00D  GRAD.:     0.349 HEAT: 37.65495
 CYCLE:   101 TIME:   0.008 TIME LEFT:  2.00D  GRAD.:     0.300 HEAT: 37.65479
 CYCLE:   102 TIME:   0.008 TIME LEFT:  2.00D  GRAD.:     0.301 HEAT: 37.65410
 CYCLE:   103 TIME:   0.008 TIME LEFT:  2.00D  GRAD.:     0.294 HEAT: 37.65382
 CYCLE:   104 TIME:   0.008 TIME LEFT:  2.00D  GRAD.:     0.320 HEAT: 37.65338
 CYCLE:   105 TIME:   0.008 TIME LEFT:  2.00D  GRAD.:     0.241 HEAT: 37.65326
 CYCLE:   106 TIME:   0.008 TIME LEFT:  2.00D  GRAD.:     0.179 HEAT: 37.65309
 CYCLE:   107 TIME:   0.008 TIME LEFT:  2.00D  GRAD.:     0.140 HEAT: 37.65302
 CYCLE:   108 TIME:   0.008 TIME LEFT:  2.00D  GRAD.:     0.137 HEAT: 37.65294
 CYCLE:   109 TIME:   0.007 TIME LEFT:  2.00D  GRAD.:     0.114 HEAT: 37.65291
 CYCLE:   110 TIME:   0.008 TIME LEFT:  2.00D  GRAD.:     0.244 HEAT: 37.65286
 CYCLE:   111 TIME:   0.008 TIME LEFT:  2.00D  GRAD.:     0.156 HEAT: 37.65276
 CYCLE:   112 TIME:   0.008 TIME LEFT:  2.00D  GRAD.:     0.169 HEAT: 37.65262
 CYCLE:   113 TIME:   0.008 TIME LEFT:  2.00D  GRAD.:     0.240 HEAT: 37.65245
 CYCLE:   114 TIME:   0.008 TIME LEFT:  2.00D  GRAD.:     0.532 HEAT: 37.65221
 CYCLE:   115 TIME:   0.008 TIME LEFT:  2.00D  GRAD.:     0.338 HEAT: 37.65195
 CYCLE:   116 TIME:   0.008 TIME LEFT:  2.00D  GRAD.:     0.335 HEAT: 37.65120
 CYCLE:   117 TIME:   0.008 TIME LEFT:  2.00D  GRAD.:     0.307 HEAT: 37.65079
 CYCLE:   118 TIME:   0.008 TIME LEFT:  2.00D  GRAD.:     0.585 HEAT: 37.65027
 CYCLE:   119 TIME:   0.008 TIME LEFT:  2.00D  GRAD.:     0.248 HEAT: 37.65006
 CYCLE:   120 TIME:   0.008 TIME LEFT:  2.00D  GRAD.:     0.205 HEAT: 37.64985
 CYCLE:   121 TIME:   0.008 TIME LEFT:  2.00D  GRAD.:     0.195 HEAT: 37.64940
 CYCLE:   122 TIME:   0.008 TIME LEFT:  2.00D  GRAD.:     0.092 HEAT: 37.64933
 CYCLE:   123 TIME:   0.008 TIME LEFT:  2.00D  GRAD.:     0.065 HEAT: 37.64930
 CYCLE:   124 TIME:   0.008 TIME LEFT:  2.00D  GRAD.:     0.065 HEAT: 37.64928
 CYCLE:   125 TIME:   0.008 TIME LEFT:  2.00D  GRAD.:     0.033 HEAT: 37.64928

     RMS GRADIENT =  0.03262  IS LESS THAN CUTOFF =  0.05000



 -------------------------------------------------------------------------------
pm3  precise nosym
 InChI=1S/C10H14/c1-3-6-9(2)10-7-4-5-8-10/h3-5,7-10H,1,6H2,2H3



     GEOMETRY OPTIMISED USING EIGENVECTOR FOLLOWING (EF).     
     SCF FIELD WAS ACHIEVED                                   


                              PM3 CALCULATION
                                                       MOPAC2012 (Version: 13.159M)
                                                       Mon Jun  2 11:13:15 2014
                                                       No. of days left =   6




          FINAL HEAT OF FORMATION =         37.64928 KCAL/MOL =     157.52457 KJ/MOL


          TOTAL ENERGY            =      -1399.42903 EV
          ELECTRONIC ENERGY       =      -7843.06725 EV  POINT GROUP:     C1  
          CORE-CORE REPULSION     =       6443.63822 EV
          COSMO AREA              =        190.16 SQUARE ANGSTROMS
          COSMO VOLUME            =        199.73 CUBIC ANGSTROMS

          GRADIENT NORM           =          0.03262
          IONIZATION POTENTIAL    =          9.197031 EV
          HOMO LUMO ENERGIES (EV) =         -9.197  0.330
          NO. OF FILLED LEVELS    =         27
          MOLECULAR WEIGHT        =        134.221

          MOLECULAR DIMENSIONS (Angstroms)

            Atom       Atom       Distance
            H    21    H    20     7.16168
            H    14    H    22     6.39673
            H    21    H    19     3.05410


          SCF CALCULATIONS        =        135
          COMPUTATION TIME        =          1.056 SECONDS




   ATOM   CHEMICAL          X               Y               Z
  NUMBER   SYMBOL      (ANGSTROMS)     (ANGSTROMS)     (ANGSTROMS)
 
     1       C          0.19445402  *  -0.91073735  *   0.20232804  *
     2       C         -0.56655419  *   0.30258894  *   0.74086459  *
     3       C          1.58999743  *  -0.50767232  *  -0.28399928  *
     4       C         -0.56373014  *  -1.61007908  *  -0.91381860  *
     5       C         -1.08472929  *   1.25935054  *  -0.30693331  *
     6       C         -1.82557630  *  -0.06712035  *   1.48997108  *
     7       C          2.47391856  *  -0.08574522  *   0.83712395  *
     8       C         -2.41255253  *   1.44249967  *  -0.13771291  *
     9       C         -2.87435548  *   0.61497822  *   0.98037455  *
    10       C          3.20965741  *   1.01932538  *   0.80547877  *
    11       H          0.30862764  *  -1.62959635  *   1.05245483  *
    12       H          0.10571253  *   0.86999751  *   1.43222480  *
    13       H          1.50704957  *   0.28780536  *  -1.05287466  *
    14       H          2.06875039  *  -1.36969935  *  -0.79219049  *
    15       H         -0.04428272  *  -2.51977048  *  -1.24202577  *
    16       H         -0.68123451  *  -0.95899301  *  -1.79085421  *
    17       H         -1.56992331  *  -1.90084714  *  -0.58428628  *
    18       H         -0.43652315  *   1.71114956  *  -1.05532835  *
    19       H         -1.82446151  *  -0.77796436  *   2.31344389  *
    20       H          2.49895032  *  -0.75539465  *   1.70595162  *
    21       H         -3.07126224  *   2.08831026  *  -0.71476875  *
    22       H         -3.90976524  *   0.58480961  *   1.31352241  *
    23       H          3.21089733  *   1.71096779  *  -0.03280435  *
    24       H          3.86654703  *   1.30857587  *   1.62003407  *

           Empirical Formula: C10 H14  =    24 atoms



      MOLECULAR POINT GROUP   :   C1  


                  EIGENVALUES  
 -41.51581 -36.31014 -32.09419 -27.35448 -26.66629 -25.72534 -20.99049 -19.96685
 -18.82176 -18.32188 -17.71695 -16.42691 -15.74765 -15.13453 -14.97799 -13.89968
 -13.76278 -13.31980 -13.11961 -12.89206 -12.71137 -12.28874 -12.06720 -11.58287
 -10.95511 -10.18709  -9.19703   0.33039   1.07430   2.04247   3.19861   3.32987
   3.41153   3.52532   3.64686   3.77977   3.85283   3.90648   4.02336   4.11370
   4.25431   4.35342   4.36839   4.42124   4.50026   4.68837   4.89749   4.97171
   4.99372   5.53201   5.79317   5.81774   5.83593   6.17958


              NET ATOMIC CHARGES AND DIPOLE CONTRIBUTIONS

  ATOM NO.   TYPE          CHARGE      No. of ELECS.   s-Pop       p-Pop       
    1          C          -0.041142        4.0411     1.17181     2.86933
    2          C          -0.040935        4.0409     1.16864     2.87229
    3          C          -0.077404        4.0774     1.15467     2.92274
    4          C          -0.118155        4.1182     1.14210     2.97605
    5          C          -0.151917        4.1519     1.20798     2.94394
    6          C          -0.157806        4.1578     1.20945     2.94835
    7          C          -0.140112        4.1401     1.19583     2.94428
    8          C          -0.122856        4.1229     1.19250     2.93035
    9          C          -0.119915        4.1199     1.19234     2.92758
   10          C          -0.165384        4.1654     1.18293     2.98245
   11          H           0.062665        0.9373     0.93734
   12          H           0.098591        0.9014     0.90141
   13          H           0.059890        0.9401     0.94011
   14          H           0.060520        0.9395     0.93948
   15          H           0.038798        0.9612     0.96120
   16          H           0.045897        0.9541     0.95410
   17          H           0.048639        0.9514     0.95136
   18          H           0.117476        0.8825     0.88252
   19          H           0.116266        0.8837     0.88373
   20          H           0.097846        0.9022     0.90215
   21          H           0.113524        0.8865     0.88648
   22          H           0.113428        0.8866     0.88657
   23          H           0.082146        0.9179     0.91785
   24          H           0.079941        0.9201     0.92006
 DIPOLE           X         Y         Z       TOTAL
 POINT-CHG.     0.350    -0.311    -0.021     0.469
 HYBRID         0.027     0.082     0.042     0.096
 SUM            0.377    -0.228     0.021     0.441


          ATOMIC ORBITAL ELECTRON POPULATIONS

    Atom      s        px        py        pz   
    1  C   1.17181   0.93574   0.95306   0.98052
    2  C   1.16864   0.96193   0.95316   0.95720
    3  C   1.15467   0.94332   1.01567   0.96375
    4  C   1.14210   1.00105   0.99434   0.98065
    5  C   1.20798   0.96400   0.99715   0.98279
    6  C   1.20945   0.95330   0.99842   0.99663
    7  C   1.19583   0.97938   0.97836   0.98654
    8  C   1.19250   0.95649   0.99549   0.97837
    9  C   1.19234   0.97575   0.98059   0.97124
   10  C   1.18293   0.99652   0.97339   1.01254
   11  H   0.93734
   12  H   0.90141
   13  H   0.94011
   14  H   0.93948
   15  H   0.96120
   16  H   0.95410
   17  H   0.95136
   18  H   0.88252
   19  H   0.88373
   20  H   0.90215
   21  H   0.88648
   22  H   0.88657
   23  H   0.91785
   24  H   0.92006
 *******************************************************************************
 ** Site#: 14399           For non-commercial use only        Version 13.159M **
 *******************************************************************************
 ** Cite this work as: MOPAC2012, James J. P. Stewart, Stewart Computational  **
 ** Chemistry, Version 13.159M web: HTTP://OpenMOPAC.net  Days remaining:   6 **
 *******************************************************************************
 **                                                                           **
 **                                MOPAC2012                                  **
 **                                                                           **
 *******************************************************************************

                            PM3 CALCULATION RESULTS


 *******************************************************************************
 *  CALCULATION DONE:                                Mon Jun  2 11:13:15 2014  *
 *  PM3      - The PM3 Hamiltonian to be used
 *  OLDGEO   - PREVIOUS GEOMETRY TO BE USED
 *  PRECISE  - CRITERIA TO BE INCREASED BY 100 TIMES
 *  NOSYM    - POINT-GROUP SYMMETRY SET TO C1
 *  T=       - A TIME OF 172800.0 SECONDS REQUESTED
 *  DUMP=N   - RESTART FILE WRITTEN EVERY  7200.000 SECONDS
 *  THERMO   - THERMODYNAMIC QUANTITIES TO BE CALCULATED
 *******************************************************************************
oldgeo thermo nosym precise  pm3

   ATOM   CHEMICAL          X               Y               Z
  NUMBER   SYMBOL      (ANGSTROMS)     (ANGSTROMS)     (ANGSTROMS)
 
     1       C          0.19445402  *  -0.91073735  *   0.20232804  *
     2       C         -0.56655419  *   0.30258894  *   0.74086459  *
     3       C          1.58999743  *  -0.50767232  *  -0.28399928  *
     4       C         -0.56373014  *  -1.61007908  *  -0.91381860  *
     5       C         -1.08472929  *   1.25935054  *  -0.30693331  *
     6       C         -1.82557630  *  -0.06712035  *   1.48997108  *
     7       C          2.47391856  *  -0.08574522  *   0.83712395  *
     8       C         -2.41255253  *   1.44249967  *  -0.13771291  *
     9       C         -2.87435548  *   0.61497822  *   0.98037455  *
    10       C          3.20965741  *   1.01932538  *   0.80547877  *
    11       H          0.30862764  *  -1.62959635  *   1.05245483  *
    12       H          0.10571253  *   0.86999751  *   1.43222480  *
    13       H          1.50704957  *   0.28780536  *  -1.05287466  *
    14       H          2.06875039  *  -1.36969935  *  -0.79219049  *
    15       H         -0.04428272  *  -2.51977048  *  -1.24202577  *
    16       H         -0.68123451  *  -0.95899301  *  -1.79085421  *
    17       H         -1.56992331  *  -1.90084714  *  -0.58428628  *
    18       H         -0.43652315  *   1.71114956  *  -1.05532835  *
    19       H         -1.82446151  *  -0.77796436  *   2.31344389  *
    20       H          2.49895032  *  -0.75539465  *   1.70595162  *
    21       H         -3.07126224  *   2.08831026  *  -0.71476875  *
    22       H         -3.90976524  *   0.58480961  *   1.31352241  *
    23       H          3.21089733  *   1.71096779  *  -0.03280435  *
    24       H          3.86654703  *   1.30857587  *   1.62003407  *
 


          CARTESIAN COORDINATES 

    NO.       ATOM         X         Y         Z

     1         C        0.1945   -0.9107    0.2023
     2         C       -0.5666    0.3026    0.7409
     3         C        1.5900   -0.5077   -0.2840
     4         C       -0.5637   -1.6101   -0.9138
     5         C       -1.0847    1.2594   -0.3069
     6         C       -1.8256   -0.0671    1.4900
     7         C        2.4739   -0.0857    0.8371
     8         C       -2.4126    1.4425   -0.1377
     9         C       -2.8744    0.6150    0.9804
    10         C        3.2097    1.0193    0.8055
    11         H        0.3086   -1.6296    1.0525
    12         H        0.1057    0.8700    1.4322
    13         H        1.5070    0.2878   -1.0529
    14         H        2.0688   -1.3697   -0.7922
    15         H       -0.0443   -2.5198   -1.2420
    16         H       -0.6812   -0.9590   -1.7909
    17         H       -1.5699   -1.9008   -0.5843
    18         H       -0.4365    1.7111   -1.0553
    19         H       -1.8245   -0.7780    2.3134
    20         H        2.4990   -0.7554    1.7060
    21         H       -3.0713    2.0883   -0.7148
    22         H       -3.9098    0.5848    1.3135
    23         H        3.2109    1.7110   -0.0328
    24         H        3.8665    1.3086    1.6200

  H: (PM3): J. J. P. STEWART, J. COMP. CHEM. 10, 209 (1989).
  C: (PM3): J. J. P. STEWART, J. COMP. CHEM. 10, 209 (1989).

           Empirical Formula: C10 H14  =    24 atoms



      MOLECULAR POINT GROUP   :   C1  


      RHF CALCULATION, NO. OF DOUBLY OCCUPIED LEVELS =   27



          HEAT OF FORMATION =      37.649276 KCALS/MOLE


          INTERNAL COORDINATE DERIVATIVES

   NUMBER  ATOM       BOND         ANGLE      DIHEDRAL

     1       C     -0.004745     0.001144    -0.002908
     2       C     -0.004720    -0.006212     0.005069
     3       C      0.000129    -0.001510    -0.001610
     4       C      0.002104     0.000608     0.001361
     5       C     -0.010728     0.003445    -0.002914
     6       C     -0.005384     0.005420    -0.010675
     7       C      0.003116     0.007040     0.002631
     8       C      0.001823    -0.006947    -0.002031
     9       C      0.006526     0.003723     0.007954
    10       C     -0.003365    -0.005203    -0.002240
    11       H     -0.003175     0.004555    -0.002696
    12       H      0.006177    -0.009449     0.000986
    13       H     -0.000238    -0.003738     0.003882
    14       H     -0.003036    -0.000372    -0.000460
    15       H      0.004613     0.000201     0.003365
    16       H     -0.003573     0.001928    -0.005435
    17       H      0.001275     0.000230     0.001248
    18       H      0.001032     0.004981     0.004625
    19       H      0.002554     0.006958    -0.003710
    20       H     -0.001057    -0.005459    -0.004792
    21       H      0.007632     0.001428     0.001981
    22       H      0.000890    -0.006808     0.003295
    23       H      0.006475     0.006413     0.007431
    24       H     -0.004327    -0.002376    -0.004357


          GRADIENT NORM =   0.03852


          TIME FOR SCF CALCULATION =    0.01

          TIME FOR DERIVATIVES     =    0.01

          MOLECULAR WEIGHT =  134.22



          ROTATIONAL CONSTANTS IN CM(-1)

          A =    0.07848428   B =    0.02796212   C =    0.02509365



           PRINCIPAL MOMENTS OF INERTIA IN UNITS OF 10**(-40)*GRAM-CM**2

          A =      356.6673   B =     1001.0963   C =     1115.5323


          ORIENTATION OF MOLECULE IN FORCE CALCULATION

    NO.       ATOM         X         Y         Z

     1          C      -1.0315   -0.3060   -0.1978
     2          C       0.4987   -0.3060   -0.1978
     3          C      -1.5771    1.1254   -0.1978
     4          C      -1.6018   -1.0803    0.9790
     5          C       1.1463    0.0611    1.1166
     6          C       1.0953   -1.6647   -0.4823
     7          C      -1.2876    1.8355   -1.4739
     8          C       2.0114   -0.9096    1.4833
     9          C       1.9784   -1.9853    0.4883
    10          C      -0.7884    3.0650   -1.5236
    11          H      -1.3591   -0.8108   -1.1414
    12          H       0.8576    0.4112   -0.9781
    13          H      -1.1757    1.6828    0.6734
    14          H      -2.6776    1.1026   -0.0604
    15          H      -2.6970   -1.1359    0.9288
    16          H      -1.3357   -0.6121    1.9366
    17          H      -1.2159   -2.1080    0.9982
    18          H       0.9187    0.9879    1.6398
    19          H       0.8209   -2.2481   -1.3585
    20          H      -1.5252    1.2855   -2.3931
    21          H       2.6480   -0.9312    2.3654
    22          H       2.5867   -2.8846    0.5604
    23          H      -0.5356    3.6422   -0.6382
    24          H      -0.5990    3.5823   -2.4592


    FIRST DERIVATIVES WILL BE USED IN THE CALCULATION OF SECOND DERIVATIVES

          ESTIMATED TIME TO COMPLETE CALCULATION =        3.32 SECONDS

    FOR POINT-GROUP C1   THERE ARE   1 UNIQUE SYMMETRY FUNCTIONS.

 STEP:   1 TIME =     0.04 SECS, INTEGRAL =      0.04 TIME LEFT: 172799.95
 STEP:   2 TIME =     0.04 SECS, INTEGRAL =      0.07 TIME LEFT: 172799.92
 STEP:   3 TIME =     0.04 SECS, INTEGRAL =      0.11 TIME LEFT: 172799.88
 STEP:   4 TIME =     0.04 SECS, INTEGRAL =      0.14 TIME LEFT: 172799.85
 STEP:   5 TIME =     0.04 SECS, INTEGRAL =      0.18 TIME LEFT: 172799.81
 STEP:   6 TIME =     0.04 SECS, INTEGRAL =      0.22 TIME LEFT: 172799.77
 STEP:   7 TIME =     0.04 SECS, INTEGRAL =      0.25 TIME LEFT: 172799.73
 STEP:   8 TIME =     0.04 SECS, INTEGRAL =      0.29 TIME LEFT: 172799.70
 STEP:   9 TIME =     0.04 SECS, INTEGRAL =      0.33 TIME LEFT: 172799.66
 STEP:  10 TIME =     0.04 SECS, INTEGRAL =      0.36 TIME LEFT: 172799.63
 STEP:  11 TIME =     0.04 SECS, INTEGRAL =      0.40 TIME LEFT: 172799.58
 STEP:  12 TIME =     0.04 SECS, INTEGRAL =      0.44 TIME LEFT: 172799.55
 STEP:  13 TIME =     0.04 SECS, INTEGRAL =      0.48 TIME LEFT: 172799.50
 STEP:  14 TIME =     0.05 SECS, INTEGRAL =      0.53 TIME LEFT: 172799.46
 STEP:  15 TIME =     0.04 SECS, INTEGRAL =      0.57 TIME LEFT: 172799.42
 STEP:  16 TIME =     0.04 SECS, INTEGRAL =      0.61 TIME LEFT: 172799.38
 STEP:  17 TIME =     0.04 SECS, INTEGRAL =      0.64 TIME LEFT: 172799.35
 STEP:  18 TIME =     0.04 SECS, INTEGRAL =      0.68 TIME LEFT: 172799.31
 STEP:  19 TIME =     0.04 SECS, INTEGRAL =      0.72 TIME LEFT: 172799.27
 STEP:  20 TIME =     0.04 SECS, INTEGRAL =      0.75 TIME LEFT: 172799.23
 STEP:  21 TIME =     0.04 SECS, INTEGRAL =      0.79 TIME LEFT: 172799.20
 STEP:  22 TIME =     0.04 SECS, INTEGRAL =      0.83 TIME LEFT: 172799.16
 STEP:  23 TIME =     0.04 SECS, INTEGRAL =      0.86 TIME LEFT: 172799.12
 STEP:  24 TIME =     0.04 SECS, INTEGRAL =      0.90 TIME LEFT: 172799.09
 STEP:  25 TIME =     0.04 SECS, INTEGRAL =      0.94 TIME LEFT: 172799.05
 STEP:  26 TIME =     0.04 SECS, INTEGRAL =      0.97 TIME LEFT: 172799.02
 STEP:  27 TIME =     0.04 SECS, INTEGRAL =      1.01 TIME LEFT: 172798.98
 STEP:  28 TIME =     0.04 SECS, INTEGRAL =      1.04 TIME LEFT: 172798.94
 STEP:  29 TIME =     0.04 SECS, INTEGRAL =      1.08 TIME LEFT: 172798.91
 STEP:  30 TIME =     0.03 SECS, INTEGRAL =      1.11 TIME LEFT: 172798.87
 STEP:  31 TIME =     0.04 SECS, INTEGRAL =      1.15 TIME LEFT: 172798.84
 STEP:  32 TIME =     0.04 SECS, INTEGRAL =      1.19 TIME LEFT: 172798.80
 STEP:  33 TIME =     0.04 SECS, INTEGRAL =      1.22 TIME LEFT: 172798.77
 STEP:  34 TIME =     0.04 SECS, INTEGRAL =      1.26 TIME LEFT: 172798.73
 STEP:  35 TIME =     0.04 SECS, INTEGRAL =      1.30 TIME LEFT: 172798.69
 STEP:  36 TIME =     0.04 SECS, INTEGRAL =      1.33 TIME LEFT: 172798.66
 STEP:  37 TIME =     0.04 SECS, INTEGRAL =      1.37 TIME LEFT: 172798.62
 STEP:  38 TIME =     0.04 SECS, INTEGRAL =      1.40 TIME LEFT: 172798.58
 STEP:  39 TIME =     0.04 SECS, INTEGRAL =      1.44 TIME LEFT: 172798.55
 STEP:  40 TIME =     0.04 SECS, INTEGRAL =      1.48 TIME LEFT: 172798.51
 STEP:  41 TIME =     0.04 SECS, INTEGRAL =      1.52 TIME LEFT: 172798.47
 STEP:  42 TIME =     0.05 SECS, INTEGRAL =      1.57 TIME LEFT: 172798.42
 STEP:  43 TIME =     0.05 SECS, INTEGRAL =      1.61 TIME LEFT: 172798.38
 STEP:  44 TIME =     0.04 SECS, INTEGRAL =      1.65 TIME LEFT: 172798.33
 STEP:  45 TIME =     0.04 SECS, INTEGRAL =      1.69 TIME LEFT: 172798.30
 STEP:  46 TIME =     0.04 SECS, INTEGRAL =      1.73 TIME LEFT: 172798.26
 STEP:  47 TIME =     0.05 SECS, INTEGRAL =      1.78 TIME LEFT: 172798.21
 STEP:  48 TIME =     0.04 SECS, INTEGRAL =      1.81 TIME LEFT: 172798.18
 STEP:  49 TIME =     0.04 SECS, INTEGRAL =      1.85 TIME LEFT: 172798.14
 STEP:  50 TIME =     0.04 SECS, INTEGRAL =      1.89 TIME LEFT: 172798.10
 STEP:  51 TIME =     0.04 SECS, INTEGRAL =      1.93 TIME LEFT: 172798.06
 STEP:  52 TIME =     0.05 SECS, INTEGRAL =      1.98 TIME LEFT: 172798.01
 STEP:  53 TIME =     0.04 SECS, INTEGRAL =      2.02 TIME LEFT: 172797.97
 STEP:  54 TIME =     0.04 SECS, INTEGRAL =      2.06 TIME LEFT: 172797.93
 STEP:  55 TIME =     0.04 SECS, INTEGRAL =      2.09 TIME LEFT: 172797.89
 STEP:  56 TIME =     0.04 SECS, INTEGRAL =      2.13 TIME LEFT: 172797.86
 STEP:  57 TIME =     0.04 SECS, INTEGRAL =      2.17 TIME LEFT: 172797.82
 STEP:  58 TIME =     0.04 SECS, INTEGRAL =      2.20 TIME LEFT: 172797.78
 STEP:  59 TIME =     0.04 SECS, INTEGRAL =      2.24 TIME LEFT: 172797.75
 STEP:  60 TIME =     0.04 SECS, INTEGRAL =      2.28 TIME LEFT: 172797.71
 STEP:  61 TIME =     0.04 SECS, INTEGRAL =      2.31 TIME LEFT: 172797.68
 STEP:  62 TIME =     0.04 SECS, INTEGRAL =      2.35 TIME LEFT: 172797.64
 STEP:  63 TIME =     0.04 SECS, INTEGRAL =      2.39 TIME LEFT: 172797.60
 STEP:  64 TIME =     0.04 SECS, INTEGRAL =      2.42 TIME LEFT: 172797.57
 STEP:  65 TIME =     0.04 SECS, INTEGRAL =      2.46 TIME LEFT: 172797.53
 STEP:  66 TIME =     0.04 SECS, INTEGRAL =      2.50 TIME LEFT: 172797.49
 STEP:  67 TIME =     0.04 SECS, INTEGRAL =      2.54 TIME LEFT: 172797.45
 STEP:  68 TIME =     0.04 SECS, INTEGRAL =      2.57 TIME LEFT: 172797.41
 STEP:  69 TIME =     0.03 SECS, INTEGRAL =      2.61 TIME LEFT: 172797.38
 STEP:  70 TIME =     0.04 SECS, INTEGRAL =      2.65 TIME LEFT: 172797.34
 STEP:  71 TIME =     0.04 SECS, INTEGRAL =      2.68 TIME LEFT: 172797.31
 STEP:  72 TIME =     0.03 SECS, INTEGRAL =      2.72 TIME LEFT: 172797.27

(To convert to Hartree/Bohr^2, multiply by (10^(-21) x N x a0^2)/(4.184 x 627.51) = 0.0642)


           FORCE MATRIX IN MILLIDYNES/ANGSTROM


                  C  1       C  2       C  3       C  4       C  5       C  6
 ------------------------------------------------------------------------------
     C    1  14.200840
     C    2   3.741455  14.798456
     C    3   3.783987   0.617586  14.610650
     C    4   4.200287   0.609317   0.660217  14.379985
     C    5   0.558300   4.129028   0.037997   0.054521  17.858304
     C    6   0.584958   4.117988   0.046860   0.044372   1.096064  17.887417
     C    7   0.666188   0.059687   4.937380   0.052391   0.003735   0.005128
     C    8   0.053629   1.213218   0.007416   0.014434   9.755867   1.579446
     C    9   0.051033   1.211795   0.009689   0.012128   1.575770   9.765299
     C   10   0.043341   0.009337   0.831953   0.010332   0.003071   0.003100
     H   11   4.165968   0.419807   0.429041   0.417422   0.043677   0.036431
     H   12   0.436494   4.150417   0.047172   0.045847   0.379976   0.383275
     H   13   0.445246   0.023849   4.412445   0.019220   0.012233   0.001245
     H   14   0.442723   0.047791   4.410425   0.046807   0.003130   0.007890
     H   15   0.453951   0.047884   0.029142   4.737618   0.005384   0.004253
     H   16   0.468482   0.017246   0.023400   4.713520   0.011833   0.002453
     H   17   0.455473   0.025068   0.048921   4.742648   0.003382   0.011114
     H   18   0.009447   0.404042   0.012386   0.006602   5.057271   0.042277
     H   19   0.014635   0.403579   0.002161   0.002759   0.041946   5.074220
     H   20   0.028981   0.004018   0.431728   0.002279   0.001683   0.001989
     H   21   0.015568   0.112551   0.000654   0.001049   0.446644   0.049406
     H   22   0.015221   0.112048   0.002318   0.000934   0.049363   0.447168
     H   23   0.010195   0.001391   0.097644   0.002135   0.001758   0.001164
     H   24   0.016769   0.001033   0.136955   0.002658   0.001166   0.000953


                  C  7       C  8       C  9       C 10       H 11       H 12
 ------------------------------------------------------------------------------
     C    7  18.152416
     C    8   0.002203  18.302666
     C    9   0.003126   5.151894  18.308858
     C   10  11.070567   0.001454   0.001348  18.029183
     H   11   0.042000   0.007113   0.005387   0.002098   4.645207
     H   12   0.020656   0.053179   0.053097   0.009306   0.027348   4.625033
     H   13   0.458494   0.001412   0.000853   0.046827   0.042438   0.003734
     H   14   0.406231   0.001228   0.001550   0.033289   0.022586   0.002683
     H   15   0.001580   0.002045   0.002066   0.000853   0.031368   0.007734
     H   16   0.001715   0.004660   0.001202   0.000801   0.044837   0.001656
     H   17   0.009435   0.002140   0.004617   0.002093   0.029399   0.001885
     H   18   0.001779   0.442644   0.099806   0.001440   0.001884   0.011821
     H   19   0.000988   0.099844   0.442883   0.000727   0.013276   0.011575
     H   20   4.776996   0.001388   0.001714   0.453947   0.028448   0.003503
     H   21   0.000678   5.071115   0.419639   0.000487   0.002385   0.014341
     H   22   0.000803   0.418976   5.071610   0.000471   0.000676   0.014296
     H   23   0.490250   0.000861   0.000684   5.070956   0.000657   0.001276
     H   24   0.462585   0.000941   0.000877   5.108229   0.000653   0.001237


                  H 13       H 14       H 15       H 16       H 17       H 18
 ------------------------------------------------------------------------------
     H   13   5.027420
     H   14   0.558858   5.006756
     H   15   0.001419   0.028733   5.471030
     H   16   0.012882   0.002578   0.563695   5.449268
     H   17   0.001254   0.002204   0.561829   0.571986   5.469798
     H   18   0.021433   0.000916   0.000902   0.005389   0.000893   5.460461
     H   19   0.000704   0.000460   0.000626   0.000664   0.001552   0.010216
     H   20   0.038133   0.017901   0.000655   0.000578   0.000533   0.000696
     H   21   0.000443   0.000142   0.000423   0.000780   0.000477   0.041025
     H   22   0.000206   0.000497   0.000258   0.000180   0.000705   0.005332
     H   23   0.028666   0.012185   0.000106   0.000212   0.000419   0.000716
     H   24   0.003046   0.018045   0.000297   0.000162   0.000499   0.000476


                  H 19       H 20       H 21       H 22       H 23       H 24
 ------------------------------------------------------------------------------
     H   19   5.475562
     H   20   0.000496   5.151805
     H   21   0.005378   0.000301   5.462662
     H   22   0.041222   0.000303   0.009488   5.462630
     H   23   0.000374   0.118754   0.000278   0.000333   5.465848
     H   24   0.000242   0.080072   0.000266   0.000177   0.422521   5.496198


          HEAT OF FORMATION =      37.649276 KCALS/MOLE

          ZERO POINT ENERGY     131.231 KCAL/MOL


           NORMAL COORDINATE ANALYSIS (Total motion = 1 Angstrom)


   Root No.       1         2         3         4         5         6         7         8

                 1 A       2 A       3 A       4 A       5 A       6 A       7 A       8 A   

                  58.9      68.5     101.4     147.0     198.3     228.4     234.8     322.3
  
           1   -0.0172   -0.0059   -0.0090    0.0157   -0.0036   -0.0090    0.0038   -0.0109
           2   -0.0142    0.0048   -0.0091    0.0000   -0.0022   -0.0045    0.0114    0.0106
           3   -0.0041    0.0123    0.0099   -0.0031    0.0019    0.0113    0.0105   -0.0063
           4   -0.0173   -0.0057   -0.0091    0.0169   -0.0035   -0.0102    0.0037   -0.0153
           5   -0.0072    0.0215   -0.0011    0.0215    0.0012    0.0014    0.0277   -0.0095
           6   -0.0179    0.0182    0.0071   -0.0237   -0.0044   -0.0138    0.0190    0.0092
           7   -0.0235   -0.0173   -0.0155   -0.0139    0.0066    0.0274   -0.0190   -0.0109
           8   -0.0166    0.0007   -0.0120   -0.0124    0.0019    0.0098    0.0004    0.0134
           9   -0.0026    0.0039   -0.0262   -0.0094    0.0071    0.0336    0.0022   -0.0090
          10   -0.0037   -0.0039   -0.0045    0.0569    0.0073    0.0013   -0.0009    0.0562
          11   -0.0132    0.0032    0.0219    0.0057   -0.0095   -0.0232   -0.0279   -0.0256
          12    0.0031    0.0119    0.0327    0.0217    0.0021    0.0031   -0.0198    0.0025
          13   -0.0072   -0.0138   -0.0079    0.0041   -0.0117   -0.0209    0.0332   -0.0303
          14    0.0279   -0.0134   -0.0103    0.0126    0.0021    0.0088    0.0158   -0.0182
          15   -0.0328    0.0318    0.0088   -0.0145   -0.0002   -0.0116    0.0080    0.0202
          16   -0.0116    0.0102    0.0011    0.0053    0.0054    0.0029   -0.0286   -0.0275
          17   -0.0099    0.0377    0.0075    0.0146    0.0062    0.0097    0.0166   -0.0177
          18    0.0080   -0.0242   -0.0108   -0.0180   -0.0058   -0.0163    0.0082    0.0192
          19    0.0124   -0.0205    0.0437   -0.0085    0.0109    0.0369    0.0159    0.0021
          20   -0.0021   -0.0124   -0.0120   -0.0025   -0.0065   -0.0169   -0.0149    0.0223
          21    0.0136   -0.0044   -0.0129   -0.0024    0.0029    0.0201    0.0004   -0.0053
          22    0.0033   -0.0039    0.0040   -0.0415   -0.0130   -0.0264    0.0213    0.0060
          23    0.0425   -0.0155   -0.0058   -0.0162    0.0031    0.0089   -0.0021    0.0046
          24   -0.0189    0.0028   -0.0071    0.0159    0.0045   -0.0007   -0.0089   -0.0047
          25    0.0005    0.0113    0.0103   -0.0410   -0.0001   -0.0071   -0.0279    0.0094
          26    0.0190    0.0164    0.0057   -0.0148    0.0073    0.0130   -0.0076    0.0061
          27    0.0066   -0.0322   -0.0198    0.0139   -0.0005   -0.0062   -0.0014   -0.0062
          28    0.0616    0.0470   -0.0099    0.0001   -0.0006    0.0010   -0.0004    0.0079
          29   -0.0209   -0.0405    0.0109   -0.0054   -0.0025   -0.0044   -0.0091    0.0202
          30    0.0418   -0.0204    0.0139    0.0126   -0.0078   -0.0190   -0.0081   -0.0183
          31   -0.0230    0.0025   -0.0085    0.0077   -0.0136   -0.0274    0.0253   -0.0213
          32   -0.0172   -0.0007   -0.0344   -0.0172    0.0035    0.0107    0.0174    0.0160
          33   -0.0003    0.0124    0.0233    0.0092    0.0024    0.0095   -0.0018   -0.0054
          34   -0.0279   -0.0102   -0.0140    0.0079   -0.0065   -0.0217    0.0019    0.0112
          35   -0.0229    0.0500    0.0088    0.0242    0.0042    0.0038    0.0295   -0.0156
          36   -0.0375    0.0420    0.0135   -0.0234   -0.0030   -0.0171    0.0197    0.0162
          37   -0.0496   -0.0185   -0.0612   -0.0389    0.0144    0.0614   -0.0501   -0.0236
          38   -0.0250    0.0101   -0.0068   -0.0063   -0.0005    0.0018    0.0095    0.0131
          39    0.0149   -0.0017   -0.0084   -0.0017    0.0048    0.0229    0.0099   -0.0036
          40   -0.0270   -0.0167   -0.0222   -0.0155    0.0067    0.0301   -0.0224   -0.0120
          41   -0.0230   -0.0048   -0.0178   -0.0373    0.0147    0.0434   -0.0146    0.0053
          42   -0.0329    0.0061   -0.0809   -0.0260    0.0095    0.0555   -0.0300   -0.0217
          43   -0.0041   -0.0032   -0.0049    0.0574   -0.0084    0.0057   -0.0003    0.0583
          44   -0.0144   -0.0063    0.0242   -0.0213    0.1809   -0.0803   -0.0299   -0.0794
          45    0.0147    0.0074    0.0403    0.0453    0.1343   -0.0278   -0.0298    0.0442
          46    0.0060   -0.0121    0.0022    0.0654    0.2070   -0.0503   -0.0084    0.0721
          47   -0.0116    0.0081    0.0454    0.0282   -0.1412   -0.0023   -0.0617   -0.0272
          48   -0.0004    0.0119    0.0196    0.0086    0.0113    0.0069   -0.0018   -0.0008
          49   -0.0021    0.0048   -0.0076    0.0823   -0.1652    0.0551    0.0025    0.1110
          50   -0.0127    0.0066    0.0213    0.0152   -0.0764   -0.0030   -0.0277   -0.0069
          51    0.0004    0.0164    0.0570    0.0315   -0.1389    0.0213   -0.0549   -0.0280
          52   -0.0088   -0.0263   -0.0168    0.0218   -0.0168   -0.0271    0.0648   -0.0610
          53    0.0382   -0.0325   -0.0191    0.0241    0.0009    0.0091    0.0230   -0.0371
          54   -0.0518    0.0604    0.0205   -0.0272   -0.0001   -0.0146    0.0085    0.0405
          55   -0.0168    0.0190    0.0017    0.0248    0.0149    0.0193   -0.0579   -0.0553
          56   -0.0324    0.0628    0.0146    0.0282    0.0084    0.0135    0.0229   -0.0355
          57    0.0246   -0.0437   -0.0157   -0.0332   -0.0103   -0.0239    0.0130    0.0397
          58   -0.0009   -0.0791    0.1341   -0.0095    0.0238    0.0772    0.0621    0.0031
          59    0.0240    0.0001   -0.0303    0.0073   -0.0181   -0.0557   -0.0369    0.0223
          60    0.0014    0.0032   -0.0252   -0.0079    0.0063    0.0322    0.0013   -0.0060
          61    0.0121   -0.0057    0.0085   -0.0710   -0.0211   -0.0405    0.0435    0.0224
          62    0.0675   -0.0368   -0.0099   -0.0363    0.0017    0.0073   -0.0124    0.0156
          63   -0.0247    0.0036   -0.0104    0.0367    0.0103    0.0093   -0.0251   -0.0163
          64    0.0075    0.0210    0.0203   -0.0701    0.0044   -0.0002   -0.0573    0.0301
          65    0.0249    0.0207    0.0114   -0.0329    0.0103    0.0179   -0.0277    0.0190
          66    0.0215   -0.0597   -0.0339    0.0337    0.0003   -0.0028   -0.0048   -0.0201
          67    0.0768    0.1061   -0.0992    0.0013   -0.0134   -0.0387   -0.0463    0.0113
          68   -0.0480   -0.0539    0.0282   -0.0171    0.0107    0.0420    0.0157    0.0311
          69    0.0552   -0.0285    0.0281    0.0199   -0.0129   -0.0382   -0.0113   -0.0267
          70    0.0906    0.0482    0.0311    0.0067    0.0016    0.0070    0.0303    0.0101
          71   -0.0105   -0.0521    0.0144    0.0038   -0.0122   -0.0397   -0.0289    0.0070
          72    0.0534   -0.0266    0.0241    0.0191   -0.0127   -0.0374   -0.0128   -0.0256


   Root No.       9        10        11        12        13        14        15        16

                 9 A      10 A      11 A      12 A      13 A      14 A      15 A      16 A   

                 400.9     436.7     484.5     519.3     580.5     633.6     725.5     811.2
  
           1   -0.0009    0.0135    0.0063   -0.0186    0.0322    0.0240    0.0230   -0.0018
           2   -0.0208    0.0262   -0.0205    0.0168    0.0208   -0.0136    0.0053   -0.0007
           3   -0.0059   -0.0254   -0.0252    0.0094    0.0380    0.0145    0.0077   -0.0016
           4   -0.0072    0.0095    0.0034   -0.0100    0.0213    0.0189   -0.0053   -0.0013
           5    0.0126    0.0050    0.0037   -0.0109    0.0032    0.0067   -0.0298   -0.0043
           6    0.0126   -0.0089   -0.0011   -0.0009   -0.0147   -0.0080    0.0334   -0.0068
           7    0.0490   -0.0033   -0.0002   -0.0089    0.0047    0.0083    0.0107    0.0013
           8   -0.0110    0.0111   -0.0224    0.0270    0.0058   -0.0101   -0.0032   -0.0042
           9   -0.0188    0.0204    0.0089   -0.0008    0.0004   -0.0077   -0.0001   -0.0021
          10    0.0051    0.0170    0.0020    0.0014   -0.0062   -0.0078    0.0094    0.0002
          11   -0.0089    0.0384    0.0163   -0.0079   -0.0057   -0.0121    0.0064    0.0009
          12    0.0067   -0.0266   -0.0043    0.0029    0.0068    0.0141   -0.0058   -0.0017
          13   -0.0101   -0.0174   -0.0205   -0.0078   -0.0243   -0.0079   -0.0118    0.0318
          14    0.0074   -0.0079   -0.0091   -0.0144   -0.0046    0.0030    0.0186    0.0054
          15    0.0174    0.0078    0.0153   -0.0013   -0.0007    0.0025    0.0149   -0.0130
          16   -0.0240   -0.0165    0.0062    0.0347   -0.0011   -0.0064   -0.0104   -0.0327
          17    0.0156   -0.0110    0.0090    0.0055   -0.0123   -0.0050   -0.0211   -0.0090
          18    0.0006    0.0090   -0.0085   -0.0129   -0.0083   -0.0029   -0.0159    0.0110
          19    0.0041   -0.0054    0.0064   -0.0109    0.0108   -0.0335   -0.0066   -0.0002
          20   -0.0126   -0.0353    0.0072   -0.0028   -0.0086    0.0237    0.0020    0.0001
          21   -0.0316    0.0029    0.0325   -0.0226   -0.0070   -0.0055    0.0009    0.0015
          22    0.0053   -0.0005    0.0212    0.0203   -0.0022   -0.0028   -0.0219    0.0313
          23    0.0114    0.0033    0.0164    0.0076    0.0127    0.0058    0.0068    0.0112
          24   -0.0089   -0.0034   -0.0167   -0.0090   -0.0148   -0.0062   -0.0048    0.0057
          25   -0.0222    0.0056   -0.0239   -0.0111   -0.0052   -0.0018   -0.0194   -0.0292
          26    0.0080    0.0052   -0.0094   -0.0194   -0.0019    0.0034   -0.0010    0.0071
          27   -0.0054   -0.0059    0.0123    0.0230   -0.0017   -0.0059   -0.0055    0.0128
          28   -0.0057   -0.0085    0.0020    0.0004   -0.0045    0.0083   -0.0003   -0.0001
          29   -0.0056   -0.0363    0.0066   -0.0058   -0.0026    0.0098   -0.0009    0.0000
          30    0.0226    0.0231   -0.0131    0.0084    0.0020   -0.0038    0.0003    0.0007
          31    0.0006    0.0121    0.0135   -0.0342    0.0285    0.0317    0.0408   -0.0027
          32   -0.0295    0.0397   -0.0251    0.0270    0.0204   -0.0315    0.0108   -0.0044
          33   -0.0010   -0.0324   -0.0239    0.0096    0.0373    0.0215   -0.0024    0.0004
          34   -0.0052    0.0433    0.0117   -0.0172    0.0265    0.0152    0.0319   -0.0053
          35    0.0250   -0.0051    0.0284    0.0062   -0.0025    0.0063   -0.0411   -0.0522
          36    0.0245   -0.0021    0.0255    0.0112   -0.0168   -0.0092    0.0385   -0.0525
          37    0.1233    0.0194   -0.0167    0.0230   -0.0747    0.0458   -0.0252    0.0068
          38   -0.0172    0.0155   -0.0464    0.0406    0.0434   -0.0047    0.0120   -0.0066
          39   -0.0464    0.0080    0.0312   -0.0234    0.0114   -0.0275    0.0059   -0.0029
          40    0.0570    0.0007   -0.0028   -0.0043   -0.0042    0.0171    0.0082    0.0019
          41    0.0398    0.0121   -0.0340    0.0464   -0.0395   -0.0285   -0.0449   -0.0011
          42    0.0475    0.0517   -0.0101    0.0326   -0.0677    0.0518   -0.0211    0.0031
          43    0.0050    0.0165    0.0005    0.0025   -0.0054   -0.0084    0.0099    0.0001
          44   -0.0090    0.0436    0.0355   -0.0322    0.0100    0.0128    0.0170    0.0004
          45    0.0150   -0.0225    0.0048    0.0149   -0.0497   -0.0212   -0.0272    0.0017
          46    0.0124    0.0228    0.0159    0.0031   -0.0488   -0.0306   -0.0021    0.0021
          47    0.0017    0.0502    0.0489   -0.0241   -0.0517   -0.0229   -0.0024    0.0021
          48   -0.0004   -0.0333   -0.0231    0.0099    0.0396    0.0250    0.0016   -0.0027
          49    0.0062    0.0128   -0.0171    0.0258   -0.0237   -0.0363    0.0000    0.0016
          50   -0.0084    0.0375    0.0108    0.0000   -0.0129   -0.0223    0.0028    0.0013
          51    0.0154   -0.0161    0.0336   -0.0250   -0.0205    0.0237   -0.0083   -0.0026
          52   -0.0092   -0.0464   -0.0491   -0.0174   -0.0966   -0.0490    0.0737   -0.1723
          53    0.0006   -0.0252   -0.0279   -0.0182   -0.0393   -0.0201    0.0836   -0.1166
          54    0.0297    0.0260    0.0364    0.0014    0.0296    0.0257   -0.0629    0.1142
          55   -0.0460   -0.0459    0.0128    0.0965   -0.0198   -0.0463    0.0910    0.1743
          56    0.0183   -0.0294    0.0159    0.0297   -0.0253   -0.0241    0.0567    0.1006
          57    0.0055    0.0305   -0.0151   -0.0481    0.0064    0.0222   -0.0996   -0.1270
          58   -0.0366    0.0437   -0.0012    0.0199   -0.0277    0.0230   -0.0081   -0.0005
          59    0.0175   -0.0646    0.0045   -0.0144    0.0039    0.0110    0.0015    0.0027
          60   -0.0374    0.0085    0.0345   -0.0224   -0.0043   -0.0120    0.0015    0.0000
          61    0.0323   -0.0020    0.0765    0.0673   -0.0020   -0.0183    0.0737   -0.0689
          62    0.0127    0.0039    0.0482    0.0496    0.0214   -0.0060    0.0476   -0.0690
          63   -0.0284   -0.0023   -0.0558   -0.0419   -0.0151    0.0045   -0.0731    0.0766
          64   -0.0394    0.0154   -0.0772   -0.0555   -0.0256   -0.0168    0.0824    0.0689
          65   -0.0034    0.0114   -0.0425   -0.0466   -0.0131   -0.0053    0.0645    0.0665
          66   -0.0059   -0.0104    0.0488    0.0621    0.0295    0.0102   -0.0505   -0.0796
          67    0.0283   -0.0796    0.0261   -0.0544    0.0546   -0.1144   -0.0197    0.0006
          68   -0.0692   -0.0326    0.0462   -0.0204   -0.0391    0.0606    0.0069    0.0058
          69    0.0555    0.0415   -0.0471    0.0346    0.0093   -0.0018    0.0007   -0.0035
          70   -0.0499    0.0603   -0.0283    0.0704   -0.0854    0.1965    0.0310    0.0012
          71    0.0674   -0.0405   -0.0359    0.0069    0.0431   -0.0628   -0.0141   -0.0072
          72    0.0548    0.0359   -0.0436    0.0303    0.0112   -0.0064   -0.0006   -0.0032


   Root No.      17        18        19        20        21        22        23        24

                17 A      18 A      19 A      20 A      21 A      22 A      23 A      24 A   

                 822.5     830.8     885.2     912.5     935.7     956.6     971.7     977.1
  
           1    0.0035   -0.0044   -0.0016    0.0008    0.0130   -0.0090    0.0043   -0.0008
           2    0.0014   -0.0005   -0.0006   -0.0163   -0.0033    0.0030   -0.0021    0.0012
           3    0.0022   -0.0029   -0.0011   -0.0124    0.0056   -0.0042   -0.0008    0.0023
           4    0.0014   -0.0062   -0.0199    0.0133   -0.0205    0.0051    0.0006   -0.0034
           5   -0.0316   -0.0411   -0.0017    0.0044   -0.0087    0.0012   -0.0021   -0.0002
           6   -0.0315    0.0423    0.0046   -0.0052    0.0103   -0.0032    0.0049    0.0073
           7    0.0074   -0.0004    0.0428   -0.0082    0.0069    0.0243    0.0067   -0.0012
           8    0.0027    0.0056    0.0023    0.0181   -0.0032   -0.0005    0.0202   -0.0087
           9    0.0025    0.0022    0.0085    0.0263    0.0056   -0.0025   -0.0051    0.0018
          10   -0.0002    0.0024    0.0004   -0.0043    0.0136   -0.0163   -0.0006   -0.0009
          11   -0.0003    0.0046    0.0039   -0.0230    0.0036    0.0050   -0.0237    0.0136
          12    0.0010   -0.0086   -0.0053    0.0028   -0.0055    0.0010   -0.0016    0.0008
          13    0.0158    0.0177   -0.0023    0.0038   -0.0092    0.0111   -0.0016   -0.0043
          14   -0.0521    0.0375   -0.0077    0.0084   -0.0170    0.0139   -0.0057   -0.0107
          15    0.0061    0.0177   -0.0127    0.0074   -0.0156    0.0043   -0.0089   -0.0101
          16   -0.0193    0.0134   -0.0005    0.0009   -0.0082    0.0105    0.0026    0.0133
          17    0.0007   -0.0225    0.0190   -0.0074    0.0164    0.0011    0.0037   -0.0023
          18   -0.0509   -0.0396    0.0149   -0.0044    0.0149   -0.0080   -0.0027   -0.0165
          19   -0.0025   -0.0008    0.0024   -0.0002   -0.0205   -0.0181   -0.0047    0.0013
          20    0.0003   -0.0005   -0.0034    0.0057    0.0103    0.0048   -0.0041    0.0017
          21   -0.0016   -0.0003    0.0006   -0.0088   -0.0014    0.0023   -0.0054    0.0022
          22    0.0395    0.0055    0.0038   -0.0031    0.0091   -0.0100    0.0058    0.0176
          23    0.0031    0.0207   -0.0024    0.0002    0.0020   -0.0053    0.0042    0.0133
          24    0.0803   -0.0136   -0.0038   -0.0003   -0.0016    0.0040   -0.0020   -0.0125
          25   -0.0395    0.0014    0.0077   -0.0060    0.0088   -0.0065   -0.0065   -0.0241
          26    0.0800    0.0167   -0.0045   -0.0026    0.0021   -0.0044   -0.0060   -0.0154
          27   -0.0005   -0.0210    0.0017    0.0017   -0.0026    0.0036    0.0051    0.0190
          28   -0.0010   -0.0008   -0.0042    0.0020   -0.0050   -0.0119   -0.0041    0.0021
          29   -0.0009   -0.0010   -0.0042    0.0070    0.0055   -0.0002   -0.0056    0.0020
          30   -0.0012   -0.0002   -0.0054   -0.0278   -0.0073    0.0050    0.0238   -0.0088
          31   -0.0375    0.0094   -0.0232    0.0068    0.0218   -0.0321    0.0204    0.0133
          32    0.0143    0.0198    0.0247    0.0160   -0.0079    0.0111    0.0439   -0.0164
          33    0.0084   -0.0184   -0.0085   -0.0294    0.0034   -0.0008   -0.0297    0.0067
          34    0.0046   -0.0023   -0.0487    0.0244   -0.0435   -0.0047    0.0127   -0.0120
          35   -0.0034   -0.0402    0.0030    0.0111   -0.0024   -0.0141    0.0409    0.1320
          36   -0.0039    0.0451   -0.0061    0.0070    0.0033   -0.0210    0.0491    0.1242
          37   -0.0342   -0.0152   -0.0948   -0.0488   -0.0115   -0.0322   -0.0250    0.0110
          38    0.0138    0.0101    0.0101    0.0049    0.0111    0.0065    0.0808   -0.0287
          39    0.0132    0.0057    0.0632    0.0521    0.0048    0.0174   -0.0302    0.0095
          40    0.0026   -0.0023    0.0244   -0.0124    0.0090    0.0175    0.0033    0.0010
          41   -0.0254   -0.0017   -0.0704    0.0065   -0.0540   -0.0453    0.0127   -0.0122
          42   -0.0325   -0.0109   -0.1310   -0.0061    0.0156   -0.0565   -0.0348    0.0180
          43   -0.0002    0.0028    0.0008   -0.0078    0.0133   -0.0149   -0.0039    0.0012
          44    0.0018   -0.0113   -0.0074    0.0188    0.0378   -0.0575    0.0212   -0.0174
          45   -0.0120    0.0252    0.0124    0.0319   -0.0545    0.0718    0.0262   -0.0037
          46   -0.0106    0.0276    0.0135    0.0255   -0.0130    0.0231    0.0305   -0.0098
          47   -0.0086    0.0223    0.0103    0.0667    0.0010   -0.0069    0.0696   -0.0352
          48    0.0074   -0.0232   -0.0116   -0.0466    0.0027   -0.0039   -0.0531    0.0259
          49   -0.0043    0.0212    0.0148   -0.0476   -0.0199    0.0464   -0.0438    0.0304
          50   -0.0020    0.0114    0.0091   -0.0350   -0.0081    0.0260   -0.0356    0.0228
          51   -0.0030   -0.0071   -0.0107    0.1115    0.0103   -0.0485    0.1080   -0.0624
          52    0.0406   -0.0496   -0.0024   -0.0076    0.0090   -0.0340   -0.0177    0.0039
          53    0.0183    0.0046   -0.0071   -0.0023    0.0111   -0.0242    0.0037    0.0057
          54   -0.1100    0.0478   -0.0144    0.0217   -0.0579    0.0524   -0.0324   -0.0351
          55   -0.0357   -0.0448   -0.0056   -0.0057    0.0105   -0.0366   -0.0281   -0.0549
          56   -0.0998   -0.0503    0.0319   -0.0150    0.0531   -0.0329    0.0012   -0.0527
          57    0.0201   -0.0036    0.0084    0.0026   -0.0152    0.0292    0.0087    0.0386
          58   -0.0149   -0.0020   -0.1427    0.0102    0.1594    0.0976    0.0154   -0.0010
          59   -0.0003   -0.0038    0.0225   -0.0478   -0.0686   -0.0447    0.0173   -0.0076
          60    0.0019    0.0020    0.0223    0.0213   -0.0006    0.0016   -0.0238    0.0085
          61    0.1084   -0.1394   -0.0313    0.0195   -0.0537    0.0537   -0.0321   -0.0912
          62    0.0055   -0.1226    0.0036   -0.0062    0.0123    0.0048    0.0100   -0.0120
          63    0.0323    0.0876    0.0214   -0.0166    0.0434   -0.0414    0.0251    0.0649
          64   -0.0824   -0.1381   -0.0260    0.0367   -0.0569    0.0396    0.0302    0.1187
          65    0.0518   -0.0656   -0.0279    0.0249   -0.0420    0.0250    0.0163    0.0755
          66   -0.0106    0.1296   -0.0083   -0.0126   -0.0055   -0.0145   -0.0279   -0.0480
          67   -0.0141   -0.0006   -0.0985   -0.0216    0.1004    0.0892    0.0390   -0.0144
          68   -0.0057   -0.0061   -0.0066   -0.1099   -0.0663   -0.0282    0.0676   -0.0239
          69    0.0059    0.0031    0.0237    0.0588    0.0104   -0.0063   -0.0386    0.0137
          70    0.0177    0.0013    0.0804    0.0414    0.0204    0.0362   -0.0289    0.0081
          71    0.0013    0.0027   -0.0032    0.1333    0.0309   -0.0405   -0.0974    0.0368
          72    0.0041    0.0025    0.0136    0.0520    0.0121   -0.0073   -0.0331    0.0120


   Root No.      25        26        27        28        29        30        31        32

                25 A      26 A      27 A      28 A      29 A      30 A      31 A      32 A   

                 977.6     999.5    1020.3    1024.9    1043.2    1076.2    1085.7    1091.6
  
           1   -0.0065    0.0048   -0.0029   -0.0053    0.0091    0.0078   -0.0030    0.0002
           2    0.0064    0.0074   -0.0015   -0.0005    0.0057   -0.0062    0.0048    0.0075
           3   -0.0111    0.0008    0.0007   -0.0079    0.0175    0.0161   -0.0008   -0.0035
           4    0.0198    0.0097   -0.0027    0.0120   -0.0036    0.0067   -0.0008   -0.0086
           5    0.0174   -0.0068    0.0099   -0.0109    0.0042    0.0057    0.0033   -0.0006
           6   -0.0193    0.0118    0.0048    0.0069   -0.0017    0.0037    0.0024    0.0030
           7    0.0097   -0.0054    0.0008   -0.0081   -0.0125    0.0001    0.0015    0.0010
           8    0.0008   -0.0091    0.0021    0.0042   -0.0128    0.0121   -0.0056   -0.0027
           9   -0.0017    0.0021   -0.0019   -0.0035    0.0041   -0.0079    0.0003   -0.0004
          10   -0.0216   -0.0208    0.0036    0.0034   -0.0082   -0.0077    0.0024    0.0004
          11   -0.0056    0.0001    0.0008   -0.0007    0.0007    0.0015   -0.0024   -0.0034
          12    0.0133    0.0022    0.0004    0.0083   -0.0127   -0.0126    0.0007    0.0063
          13   -0.0209    0.0038    0.0162   -0.0017   -0.0076   -0.0071    0.0041    0.0034
          14   -0.0119   -0.0045   -0.0006    0.0016   -0.0067   -0.0092   -0.0169    0.0028
          15    0.0187   -0.0205   -0.0228   -0.0019    0.0049    0.0031   -0.0058    0.0001
          16   -0.0170   -0.0051   -0.0170    0.0058    0.0014   -0.0017   -0.0031    0.0031
          17   -0.0165    0.0062   -0.0247    0.0131   -0.0004   -0.0065   -0.0045   -0.0019
          18    0.0107    0.0024    0.0016   -0.0018   -0.0014   -0.0055   -0.0158   -0.0091
          19   -0.0046    0.0020    0.0067    0.0119    0.0264   -0.0123   -0.0003    0.0001
          20    0.0005    0.0009   -0.0030   -0.0048   -0.0092    0.0053    0.0001   -0.0002
          21    0.0015   -0.0009    0.0025    0.0045   -0.0039    0.0080   -0.0013   -0.0008
          22    0.0164   -0.0052   -0.0172    0.0047    0.0041    0.0048    0.0025   -0.0035
          23    0.0104   -0.0012   -0.0105    0.0057    0.0012    0.0040   -0.0004    0.0031
          24   -0.0145    0.0121    0.0102    0.0049   -0.0045    0.0023    0.0008   -0.0011
          25    0.0077    0.0067    0.0161   -0.0029   -0.0040   -0.0025   -0.0016   -0.0052
          26    0.0059   -0.0012    0.0130   -0.0097    0.0017   -0.0015    0.0017    0.0012
          27   -0.0046   -0.0067   -0.0099   -0.0007    0.0028   -0.0020    0.0025   -0.0028
          28   -0.0051    0.0115   -0.0180   -0.0235   -0.0252    0.0060    0.0005   -0.0001
          29   -0.0012   -0.0008    0.0054    0.0071    0.0158   -0.0058   -0.0002   -0.0007
          30    0.0020   -0.0055    0.0005   -0.0008   -0.0037    0.0017   -0.0009   -0.0003
          31   -0.0197    0.0592    0.0346   -0.0112    0.0609    0.1363   -0.0432    0.0183
          32    0.0119    0.0283   -0.0190   -0.0187    0.0302   -0.0873    0.0323    0.0291
          33   -0.0080   -0.0285   -0.0022    0.0048   -0.0139    0.0155   -0.0022   -0.0210
          34    0.1072    0.0633   -0.0068    0.1075   -0.0838   -0.0930    0.0178    0.0523
          35    0.0213   -0.0043    0.1481   -0.0714   -0.0167   -0.0212   -0.0522   -0.0318
          36    0.0260    0.0373    0.1297   -0.0044   -0.0585   -0.0673   -0.0399    0.0030
          37   -0.0123    0.0113    0.0074    0.0142    0.0187    0.0192    0.0016    0.0048
          38   -0.0105    0.0068   -0.0270   -0.0442    0.0231   -0.0474   -0.0126   -0.0194
          39    0.0148   -0.0148    0.0138    0.0174   -0.0317    0.0214    0.0043    0.0082
          40    0.0059    0.0028   -0.0037   -0.0135   -0.0022   -0.0102    0.0020    0.0014
          41   -0.0093   -0.0562    0.0580    0.0961   -0.0512    0.1412   -0.0243   -0.0157
          42   -0.0312    0.0614   -0.0350   -0.0353    0.0805   -0.0878    0.0038   -0.0008
          43   -0.0210   -0.0199    0.0040    0.0040   -0.0086   -0.0063    0.0017    0.0003
          44   -0.0579   -0.0622    0.0086    0.0073   -0.0191   -0.0261    0.0110    0.0034
          45    0.0796    0.0997   -0.0146   -0.0248    0.0528    0.0480   -0.0108   -0.0027
          46    0.0112    0.0405   -0.0052   -0.0246    0.0458    0.0448   -0.0058   -0.0079
          47   -0.0126    0.0151   -0.0055   -0.0283    0.0479    0.0291    0.0043   -0.0055
          48    0.0081   -0.0205    0.0057    0.0286   -0.0488   -0.0393   -0.0003    0.0097
          49    0.0254    0.0408   -0.0007   -0.0072    0.0190    0.0372   -0.0126   -0.0102
          50    0.0104    0.0218   -0.0009   -0.0052    0.0116    0.0172   -0.0072   -0.0069
          51   -0.0163   -0.0226   -0.0018   -0.0036    0.0043   -0.0165    0.0152    0.0141
          52    0.1110   -0.0766   -0.0358   -0.0458    0.0332    0.0197    0.1071    0.1207
          53    0.0583   -0.0058   -0.0408    0.0182    0.0044    0.0047   -0.0538   -0.0523
          54   -0.0485   -0.0522    0.0260   -0.0496    0.0025   -0.0098    0.1010    0.1474
          55    0.0931   -0.0381    0.0634   -0.0709    0.0161   -0.0107   -0.1365    0.0833
          56    0.0264    0.0571   -0.0094    0.0537   -0.0238    0.0068    0.1338   -0.1184
          57   -0.0521   -0.0216   -0.0334   -0.0057    0.0098   -0.0124   -0.0678    0.0435
          58    0.0199    0.0033   -0.0255   -0.0460   -0.0560    0.0051    0.0073    0.0040
          59   -0.0135    0.0105   -0.0030    0.0006    0.0526   -0.0536    0.0122    0.0072
          60    0.0033   -0.0066    0.0106    0.0160   -0.0191    0.0383   -0.0106   -0.0063
          61   -0.0711    0.0069    0.0356   -0.0170   -0.0076   -0.0220   -0.0496   -0.0847
          62   -0.0574    0.0772    0.0697    0.0269   -0.0180    0.0453    0.1210    0.2051
          63    0.0471    0.0046   -0.0262    0.0209    0.0035    0.0226    0.0416    0.0616
          64   -0.0255   -0.0359   -0.0274   -0.0082    0.0102    0.0027    0.0863   -0.0716
          65   -0.0131   -0.0307   -0.0087   -0.0178    0.0114    0.0019    0.0756   -0.0548
          66    0.0412   -0.0213    0.0924   -0.0623    0.0046   -0.0033    0.1824   -0.1531
          67    0.0248   -0.0438    0.0587    0.0710    0.0884   -0.0273   -0.0012   -0.0005
          68   -0.0102    0.0084   -0.0301   -0.0424   -0.0320   -0.0018    0.0005   -0.0009
          69   -0.0011    0.0049    0.0016    0.0044   -0.0043    0.0084   -0.0010   -0.0003
          70    0.0150   -0.0383    0.0719    0.0919    0.1085   -0.0253   -0.0010   -0.0011
          71   -0.0182    0.0408   -0.0315   -0.0349   -0.0204    0.0000    0.0014   -0.0016
          72   -0.0030    0.0072   -0.0014    0.0000    0.0025   -0.0003   -0.0005   -0.0010


   Root No.      33        34        35        36        37        38        39        40

                33 A      34 A      35 A      36 A      37 A      38 A      39 A      40 A   

                1103.5    1136.5    1142.1    1186.6    1206.2    1211.0    1247.0    1270.1
  
           1    0.0047   -0.0044   -0.0029    0.0034    0.0116   -0.0068   -0.0199    0.0422
           2    0.0157    0.0241    0.0064   -0.0256   -0.0150   -0.0163    0.0378    0.0131
           3   -0.0073    0.0253    0.0394    0.0045    0.0052   -0.0021   -0.0073   -0.0238
           4   -0.0235    0.0039   -0.0035    0.0040    0.0037    0.0019   -0.0175    0.0126
           5   -0.0008    0.0022   -0.0019   -0.0053   -0.0226    0.0133    0.0125   -0.0237
           6    0.0108   -0.0018    0.0032    0.0008   -0.0134    0.0082   -0.0070    0.0112
           7    0.0023    0.0047    0.0013   -0.0019   -0.0049    0.0046    0.0120   -0.0099
           8   -0.0019   -0.0348   -0.0141    0.0137   -0.0039   -0.0083    0.0070    0.0208
           9   -0.0048   -0.0022   -0.0104    0.0462   -0.0023    0.0021   -0.0120   -0.0163
          10   -0.0013    0.0034    0.0007   -0.0021   -0.0036    0.0019    0.0047   -0.0093
          11   -0.0065   -0.0058   -0.0025    0.0110    0.0049    0.0051   -0.0114   -0.0060
          12    0.0171   -0.0060   -0.0376   -0.0094    0.0017    0.0023   -0.0010    0.0025
          13   -0.0019   -0.0015   -0.0006   -0.0022   -0.0087    0.0060   -0.0019    0.0015
          14   -0.0124    0.0023   -0.0050   -0.0027    0.0023   -0.0031    0.0050   -0.0034
          15   -0.0244    0.0046   -0.0135   -0.0074   -0.0130    0.0079    0.0002   -0.0019
          16    0.0049    0.0016    0.0005   -0.0015    0.0044   -0.0059    0.0103   -0.0076
          17    0.0234   -0.0048    0.0144    0.0066   -0.0010    0.0063   -0.0221    0.0200
          18    0.0030   -0.0008    0.0037    0.0043    0.0100   -0.0037   -0.0087    0.0089
          19   -0.0019   -0.0108   -0.0029   -0.0039   -0.0022   -0.0040    0.0024    0.0060
          20    0.0010    0.0035    0.0031   -0.0057   -0.0004   -0.0016    0.0004    0.0030
          21    0.0033    0.0003    0.0112   -0.0358    0.0178    0.0275    0.0281    0.0171
          22   -0.0050    0.0014   -0.0046   -0.0030   -0.0068    0.0033    0.0039   -0.0048
          23   -0.0121    0.0029   -0.0058   -0.0015    0.0089   -0.0089    0.0118   -0.0097
          24   -0.0172    0.0033   -0.0108   -0.0050   -0.0005   -0.0041    0.0159   -0.0148
          25   -0.0090    0.0023   -0.0035   -0.0020    0.0025   -0.0034    0.0064   -0.0055
          26    0.0188   -0.0052    0.0094    0.0071    0.0123   -0.0049   -0.0084    0.0095
          27    0.0115   -0.0012    0.0049    0.0030    0.0128   -0.0086    0.0026    0.0002
          28    0.0002    0.0025    0.0023   -0.0014   -0.0014   -0.0030   -0.0057   -0.0046
          29   -0.0027   -0.0058    0.0021   -0.0034   -0.0040   -0.0090   -0.0130   -0.0078
          30   -0.0009   -0.0079   -0.0044    0.0032   -0.0073   -0.0134   -0.0115   -0.0051
          31    0.1574   -0.0606   -0.1191    0.0223    0.0063    0.0021    0.0789   -0.1109
          32    0.0358    0.1843   -0.0968   -0.1063    0.0540    0.0211   -0.1263   -0.0262
          33   -0.0708   -0.0405    0.1360    0.0432   -0.0305   -0.0260    0.0468    0.0520
          34    0.1008   -0.0316    0.1515    0.0454   -0.0044    0.0178    0.0116   -0.0894
          35   -0.0733    0.0203   -0.0301   -0.0115    0.0416   -0.0333    0.0074    0.0183
          36   -0.0006   -0.0016    0.0506    0.0151    0.0414   -0.0269    0.0015    0.0013
          37    0.0201    0.0465    0.0221   -0.0686    0.0090   -0.0064    0.0252    0.0216
          38   -0.0536   -0.1583    0.0117   -0.0496    0.0818    0.1338   -0.0088   -0.0517
          39    0.0200    0.0578   -0.0359    0.1206   -0.0644   -0.0836   -0.0071    0.0161
          40    0.0012   -0.0039    0.0006   -0.0077   -0.0097   -0.0016    0.0164   -0.0047
          41    0.0199    0.0802    0.0118    0.0350    0.0697    0.0558   -0.0791    0.0079
          42   -0.0184   -0.0582   -0.0119    0.0123   -0.0395   -0.0438    0.0001    0.0154
          43   -0.0002    0.0022   -0.0021   -0.0007   -0.0017    0.0034    0.0018   -0.0123
          44   -0.0036    0.0275    0.0155   -0.0102   -0.0100    0.0052    0.0100   -0.0481
          45    0.0069   -0.0051    0.0131    0.0021    0.0062   -0.0177   -0.0010    0.0730
          46   -0.0115    0.0146    0.0588    0.0142    0.0055   -0.0050   -0.0068   -0.0142
          47   -0.0201    0.0451    0.0886   -0.0008   -0.0040   -0.0079    0.0033   -0.0320
          48    0.0271   -0.0319   -0.0968   -0.0086    0.0029    0.0093   -0.0040    0.0192
          49   -0.0094   -0.0109    0.0093    0.0292    0.0212    0.0112   -0.0363   -0.0177
          50   -0.0092   -0.0074    0.0029    0.0210    0.0134    0.0082   -0.0259   -0.0117
          51    0.0200    0.0381    0.0177   -0.0424   -0.0291   -0.0267    0.0567    0.0427
          52    0.0204   -0.0307    0.0158    0.0214    0.0868   -0.0456    0.0049   -0.0006
          53   -0.0363    0.0174   -0.0196   -0.0139   -0.0366    0.0195    0.0014   -0.0049
          54    0.0237   -0.0331    0.0175    0.0209    0.0945   -0.0536    0.0118   -0.0027
          55    0.0388    0.0031    0.0310    0.0015   -0.0561    0.0481   -0.0469    0.0298
          56   -0.0633   -0.0022   -0.0340    0.0046    0.0752   -0.0556    0.0326   -0.0166
          57    0.0525   -0.0031    0.0280    0.0053   -0.0218    0.0211   -0.0295    0.0237
          58    0.0046    0.0593   -0.0092    0.0680    0.0165    0.0441    0.0416    0.0153
          59   -0.0082    0.0799   -0.0305    0.1890    0.0377    0.1063    0.1164    0.0570
          60    0.0067   -0.0640    0.0333   -0.1690   -0.0087   -0.0467   -0.0482   -0.0159
          61    0.0256    0.0067   -0.0014    0.0015    0.0290   -0.0254    0.0254   -0.0199
          62   -0.0957   -0.0111   -0.0178   -0.0130   -0.0784    0.0613   -0.0405    0.0253
          63   -0.0425   -0.0006   -0.0145   -0.0092   -0.0287    0.0181    0.0010   -0.0050
          64    0.0279   -0.0039    0.0020   -0.0054   -0.0376    0.0276   -0.0135    0.0048
          65    0.0503   -0.0112    0.0151    0.0053   -0.0202    0.0210   -0.0271    0.0203
          66    0.0777   -0.0169    0.0182   -0.0019   -0.0698    0.0564   -0.0423    0.0255
          67   -0.0070   -0.0201   -0.0098    0.0137   -0.0112   -0.0212   -0.0314   -0.0260
          68   -0.0087   -0.0136   -0.0089    0.0378   -0.0247   -0.0431   -0.0792   -0.0787
          69    0.0046    0.0022    0.0072   -0.0300    0.0096    0.0147    0.0365    0.0437
          70   -0.0045   -0.0052    0.0077   -0.0085    0.0085    0.0138   -0.0065   -0.0214
          71   -0.0026    0.0063    0.0213   -0.0179    0.0203    0.0312   -0.0188   -0.0487
          72   -0.0012   -0.0031    0.0077   -0.0094    0.0087    0.0130   -0.0117   -0.0272


   Root No.      41        42        43        44        45        46        47        48

                41 A      42 A      43 A      44 A      45 A      46 A      47 A      48 A   

                1322.2    1336.3    1367.9    1385.0    1397.6    1400.6    1408.7    1414.2
  
           1    0.0152    0.0004   -0.0436    0.0326   -0.0091    0.0046   -0.0049    0.0154
           2    0.0295   -0.0147   -0.0020   -0.0270   -0.0091   -0.0013   -0.0035    0.0264
           3   -0.0223   -0.0130    0.0072    0.0032    0.0079   -0.0038    0.0028   -0.0240
           4   -0.0047    0.0241    0.0546   -0.0281    0.0041   -0.0017    0.0018   -0.0109
           5    0.0016    0.0668   -0.0168    0.0180    0.0000   -0.0007    0.0019    0.0012
           6    0.0095    0.0788    0.0116    0.0012   -0.0001   -0.0004   -0.0005   -0.0005
           7    0.0014    0.0023   -0.0015   -0.0157   -0.0151   -0.0012    0.0006   -0.0075
           8   -0.0156   -0.0023    0.0265    0.0400   -0.0022    0.0075    0.0035   -0.0244
           9    0.0101    0.0005   -0.0088   -0.0062    0.0363   -0.0041   -0.0038    0.0346
          10   -0.0015    0.0022    0.0056   -0.0118    0.0146   -0.0013   -0.0326   -0.0171
          11   -0.0036    0.0029   -0.0043   -0.0021    0.0175   -0.0402    0.0060   -0.0192
          12   -0.0021   -0.0006    0.0086    0.0134   -0.0294   -0.0076   -0.0173    0.0299
          13   -0.0012   -0.0217   -0.0016   -0.0031   -0.0009    0.0001    0.0018    0.0063
          14   -0.0017   -0.0280   -0.0071    0.0014   -0.0003    0.0004   -0.0003    0.0008
          15   -0.0046   -0.0521   -0.0022   -0.0066   -0.0008    0.0001    0.0025    0.0080
          16    0.0023    0.0161   -0.0021   -0.0007   -0.0011   -0.0004    0.0019    0.0061
          17   -0.0036   -0.0455    0.0058   -0.0034    0.0014    0.0010   -0.0035   -0.0084
          18   -0.0020   -0.0166    0.0081   -0.0058    0.0004    0.0000    0.0002   -0.0006
          19   -0.0090    0.0015   -0.0008    0.0013    0.0016    0.0006    0.0001    0.0012
          20   -0.0195    0.0045   -0.0071   -0.0060    0.0046   -0.0014   -0.0006    0.0041
          21    0.0042   -0.0037    0.0127    0.0103   -0.0170    0.0032    0.0024   -0.0182
          22   -0.0002   -0.0035   -0.0075    0.0049    0.0000    0.0003   -0.0006   -0.0007
          23    0.0010    0.0084   -0.0154    0.0154    0.0016    0.0008   -0.0060   -0.0147
          24    0.0008    0.0010   -0.0254    0.0212    0.0012    0.0012   -0.0062   -0.0136
          25    0.0001   -0.0025   -0.0061    0.0031   -0.0002    0.0001   -0.0002    0.0003
          26    0.0012    0.0239    0.0259   -0.0201   -0.0016   -0.0014    0.0069    0.0147
          27    0.0017    0.0181    0.0131   -0.0130   -0.0019   -0.0011    0.0056    0.0137
          28   -0.0039    0.0017   -0.0050   -0.0052    0.0049   -0.0014   -0.0007    0.0055
          29   -0.0106    0.0040   -0.0112   -0.0106    0.0122   -0.0028   -0.0015    0.0133
          30   -0.0004    0.0006   -0.0014   -0.0004    0.0024   -0.0003   -0.0003    0.0020
          31   -0.0310   -0.1187    0.0329   -0.0486    0.0137   -0.0015   -0.0043   -0.0179
          32   -0.0534    0.0310   -0.0034    0.0408    0.0042   -0.0045    0.0108   -0.0499
          33    0.0382    0.0050   -0.0177   -0.0043   -0.0072   -0.0006   -0.0056    0.0278
          34   -0.0368   -0.0321   -0.0500    0.0412    0.0108   -0.0014    0.0027   -0.0188
          35    0.0011   -0.0684    0.0125   -0.0178   -0.0026    0.0000    0.0000    0.0037
          36   -0.0070   -0.0702   -0.0072   -0.0008    0.0011    0.0003   -0.0014   -0.0026
          37    0.0214   -0.0347    0.0842    0.1214    0.1673    0.0042   -0.0011    0.0726
          38    0.0193    0.0207   -0.0503   -0.0707    0.0074   -0.0098   -0.0036    0.0391
          39   -0.0236    0.0052   -0.0078   -0.0104   -0.0719    0.0042    0.0008   -0.0499
          40   -0.0058    0.0026    0.0020   -0.0116   -0.0233    0.0005    0.0019   -0.0168
          41    0.0409    0.0164   -0.1253   -0.0892   -0.0835   -0.0176   -0.0168    0.0080
          42   -0.0541    0.0249   -0.0478   -0.0729   -0.1585    0.0071    0.0084   -0.0902
          43   -0.0062    0.0001    0.0090   -0.0028    0.0017   -0.0269   -0.0100   -0.0061
          44   -0.0291   -0.0008    0.0292   -0.0076   -0.0274    0.3426    0.0985    0.0344
          45    0.0627    0.0129   -0.0769   -0.0554    0.1127    0.1671   -0.1158   -0.0891
          46   -0.0288   -0.0216    0.0177    0.0601   -0.0825   -0.2165    0.2121    0.0673
[...]
 TRAVEL      0.1123        C  4 --  H 16          +11.9% ( 39.4%)     3.4%
 RED. MASS   0.4328        C  4 --  H 15          +10.7% ( 37.4%)     3.3%
 EFF. MASS   3.8233

 VIBRATION   46   46A       ATOM PAIR        ENERGY CONTRIBUTION    RADIAL
 FREQ.      1400.56        C  4 --  H 15          +50.6% ( 62.9%)     0.0%
 T-DIPOLE    0.0540        C  4 --  H 17          +22.6% ( 42.0%)    12.7%
 TRAVEL      0.1691        C  4 --  H 16          +18.9% ( 38.5%)     6.8%
 RED. MASS   0.4125        C  1 --  C  4           +5.6% ( 20.9%)    23.2%
 EFF. MASS   1.6839

 VIBRATION   47   47A       ATOM PAIR        ENERGY CONTRIBUTION    RADIAL
 FREQ.      1408.73        C  4 --  H 17          +42.5% ( 57.2%)     1.4%
 T-DIPOLE    0.0618        C  4 --  H 16          +38.6% ( 54.6%)     2.2%
 TRAVEL      0.1696        C  4 --  H 15           +9.2% ( 26.6%)    54.5%
 RED. MASS   0.4068        C  1 --  C  4           +4.9% ( 19.5%)     8.0%
 EFF. MASS   1.6643

 VIBRATION   48   48A       ATOM PAIR        ENERGY CONTRIBUTION    RADIAL
 FREQ.      1414.15        C  1 --  C  4          +11.5% ( 47.8%)    98.6%
 T-DIPOLE    0.1144        C  1 --  C  3          +10.7% ( 46.2%)    23.7%
 TRAVEL      0.0817        C  3 --  C  7           +8.5% ( 41.2%)    99.7%
 RED. MASS   0.8309        C  3 --  H 13           +8.4% ( 41.0%)     2.3%
 EFF. MASS   7.1513

 VIBRATION   49   49A       ATOM PAIR        ENERGY CONTRIBUTION    RADIAL
 FREQ.      1420.46        C  8 --  C  9          +15.5% ( 62.7%)   100.0%
 T-DIPOLE    0.1390        C  2 --  C  6           +7.4% ( 43.4%)    68.6%
 TRAVEL      0.0707        C  6 --  C  8           +7.3% ( 43.1%)    99.7%
 RED. MASS   1.3180        C  5 --  C  9           +7.3% ( 42.9%)    99.8%
 EFF. MASS   9.5043

 VIBRATION   50   50A       ATOM PAIR        ENERGY CONTRIBUTION    RADIAL
 FREQ.      1729.24        C  5 --  C  8          +18.5% ( 73.2%)    99.9%
 T-DIPOLE    0.4494        C  6 --  C  9          +17.9% ( 72.2%)    99.9%
 TRAVEL      0.0569        C  6 --  C  8          +10.7% ( 55.7%)    25.9%
 RED. MASS   2.7211        C  5 --  C  9          +10.7% ( 55.7%)    26.3%
 EFF. MASS  12.0256

 VIBRATION   51   51A       ATOM PAIR        ENERGY CONTRIBUTION    RADIAL
 FREQ.      1787.42        C  6 --  C  9          +18.2% ( 70.6%)    99.8%
 T-DIPOLE    0.3067        C  5 --  C  8          +17.6% ( 69.6%)    99.8%
 TRAVEL      0.0565        C  8 --  C  9          +12.2% ( 57.8%)     0.0%
 RED. MASS   2.6875        C  6 --  C  8          +10.9% ( 54.7%)    68.1%
 EFF. MASS  11.8012        C  5 --  C  9          +10.9% ( 54.7%)    63.6%

 VIBRATION   52   52A       ATOM PAIR        ENERGY CONTRIBUTION    RADIAL
 FREQ.      1860.26        C  7 --  C 10          +45.3% ( 99.3%)    98.9%
 T-DIPOLE    0.2039        C  3 --  C  7          +16.7% ( 60.3%)    54.6%
 TRAVEL      0.0554        C  7 --  H 20          +15.4% ( 57.9%)     3.9%
 RED. MASS   5.2999        C 10 --  H 23          +11.0% ( 48.9%)    10.9%
 EFF. MASS  11.7924        C 10 --  H 24          +10.8% ( 48.4%)    12.7%

 VIBRATION   53   53A       ATOM PAIR        ENERGY CONTRIBUTION    RADIAL
 FREQ.      2859.33        C  1 --  H 11          +75.7% ( 88.5%)   100.0%
 T-DIPOLE    0.1305        C  2 --  H 12          +20.8% ( 46.4%)   100.0%
 TRAVEL      0.1278        C  1 --  C  2           +1.0% ( 10.3%)     1.1%
 RED. MASS   0.6117        C  1 --  C  3           +0.8% (  9.2%)     8.7%
 EFF. MASS   1.4432

 VIBRATION   54   54A       ATOM PAIR        ENERGY CONTRIBUTION    RADIAL
 FREQ.      2865.26        C  2 --  H 12          +76.2% ( 88.6%)   100.0%
 T-DIPOLE    0.2491        C  1 --  H 11          +20.7% ( 46.2%)   100.0%
 TRAVEL      0.1280        C  1 --  C  2           +1.0% ( 10.2%)    18.6%
 RED. MASS   0.6159        C  2 --  C  5           +0.8% (  9.0%)    10.0%
 EFF. MASS   1.4357

 VIBRATION   55   55A       ATOM PAIR        ENERGY CONTRIBUTION    RADIAL
 FREQ.      2940.59        C  3 --  H 14          +50.1% ( 73.5%)    96.6%
 T-DIPOLE    0.0540        C  3 --  H 13          +47.1% ( 71.3%)    96.4%
 TRAVEL      0.1218        C  3 --  C  7           +1.2% ( 11.2%)     0.3%
 RED. MASS   0.5145        C  1 --  C  3           +1.2% ( 11.1%)     0.0%
 EFF. MASS   1.5450

 VIBRATION   56   56A       ATOM PAIR        ENERGY CONTRIBUTION    RADIAL
 FREQ.      3017.05        C  3 --  H 13          +50.4% ( 70.0%)    97.8%
 T-DIPOLE    0.0617        C  3 --  H 14          +47.8% ( 68.1%)    97.5%
 TRAVEL      0.1324        C  3 --  C  7           +0.6% (  7.9%)    30.6%
 RED. MASS   0.4797        C  1 --  C  3           +0.6% (  7.7%)    29.0%
 EFF. MASS   1.2747

 VIBRATION   57   57A       ATOM PAIR        ENERGY CONTRIBUTION    RADIAL
 FREQ.      3039.13        C  7 --  H 20          +95.8% ( 99.2%)   100.0%
 T-DIPOLE    0.2331        C  7 --  C 10           +1.4% ( 12.0%)    30.6%
 TRAVEL      0.1216        C  3 --  C  7           +1.3% ( 11.6%)    14.0%
 RED. MASS   0.9027        C 10 --  H 24           +0.9% (  9.4%)    95.3%
 EFF. MASS   1.4993

 VIBRATION   58   58A       ATOM PAIR        ENERGY CONTRIBUTION    RADIAL
 FREQ.      3076.93        C  4 --  H 16          +65.7% ( 83.7%)    98.9%
 T-DIPOLE    0.0475        C  4 --  H 17          +25.0% ( 51.6%)    90.6%
 TRAVEL      0.1207        C  4 --  H 15           +8.2% ( 29.6%)    68.9%
 RED. MASS   0.5301        C  1 --  C  4           +1.0% ( 10.4%)     0.0%
 EFF. MASS   1.5049

 VIBRATION   59   59A       ATOM PAIR        ENERGY CONTRIBUTION    RADIAL
 FREQ.      3083.13        C  4 --  H 15          +57.3% ( 78.1%)    98.1%
 T-DIPOLE    0.0313        C  4 --  H 17          +39.1% ( 64.5%)    95.4%
 TRAVEL      0.1203        C  4 --  H 16           +2.5% ( 16.4%)    30.2%
 RED. MASS   0.5125        C  1 --  C  4           +1.0% ( 10.5%)     0.0%
 EFF. MASS   1.5103

 VIBRATION   60   60A       ATOM PAIR        ENERGY CONTRIBUTION    RADIAL
 FREQ.      3130.44        C  5 --  H 18          +44.4% ( 68.2%)   100.0%
 T-DIPOLE    0.2758        C  8 --  H 21          +42.5% ( 66.7%)   100.0%
 TRAVEL      0.1208        C  9 --  H 22           +6.4% ( 25.9%)   100.0%
 RED. MASS   0.3872        C  6 --  H 19           +2.5% ( 16.3%)   100.0%
 EFF. MASS   1.4765

 VIBRATION   61   61A       ATOM PAIR        ENERGY CONTRIBUTION    RADIAL
 FREQ.      3133.06        C  9 --  H 22          +51.7% ( 73.6%)   100.0%
 T-DIPOLE    0.4308        C  6 --  H 19          +34.3% ( 59.9%)   100.0%
 TRAVEL      0.1208        C  5 --  H 18           +8.2% ( 29.4%)   100.0%
 RED. MASS   0.3966        C  8 --  H 21           +1.6% ( 13.1%)    99.8%
 EFF. MASS   1.4752

 VIBRATION   62   62A       ATOM PAIR        ENERGY CONTRIBUTION    RADIAL
 FREQ.      3135.02        C 10 --  H 23          +91.9% ( 97.6%)    99.9%
 T-DIPOLE    0.1925        C 10 --  H 24           +6.7% ( 26.4%)    71.3%
 TRAVEL      0.1183        C  7 --  C 10           +1.3% ( 11.7%)    22.3%
 RED. MASS   0.8550
 EFF. MASS   1.5379

 VIBRATION   63   63A       ATOM PAIR        ENERGY CONTRIBUTION    RADIAL
 FREQ.      3144.13        C  8 --  H 21          +29.4% ( 55.8%)    99.9%
 T-DIPOLE    0.5280        C  6 --  H 19          +27.6% ( 54.0%)   100.0%
 TRAVEL      0.1158        C  5 --  H 18          +27.4% ( 53.8%)    99.9%
 RED. MASS   0.2597        C  9 --  H 22           +9.9% ( 32.3%)    99.8%
 EFF. MASS   1.6004

 VIBRATION   64   64A       ATOM PAIR        ENERGY CONTRIBUTION    RADIAL
 FREQ.      3147.34        C 10 --  H 24          +91.9% ( 96.5%)    99.7%
 T-DIPOLE    0.2646        C 10 --  H 23           +5.7% ( 24.0%)    40.6%
 TRAVEL      0.1209        C  7 --  C 10           +1.6% ( 12.7%)    72.9%
 RED. MASS   0.8207        C  7 --  H 20           +0.7% (  8.7%)    94.5%
 EFF. MASS   1.4656

 VIBRATION   65   65A       ATOM PAIR        ENERGY CONTRIBUTION    RADIAL
 FREQ.      3154.65        C  6 --  H 19          +30.3% ( 56.7%)    99.9%
 T-DIPOLE    0.2416        C  9 --  H 22          +26.9% ( 53.4%)   100.0%
 TRAVEL      0.1122        C  8 --  H 21          +21.2% ( 47.5%)   100.0%
 RED. MASS   0.2494        C  5 --  H 18          +14.8% ( 39.6%)    99.9%
 EFF. MASS   1.6990

 VIBRATION   66   66A       ATOM PAIR        ENERGY CONTRIBUTION    RADIAL
 FREQ.      3175.28        C  4 --  H 17          +35.4% ( 57.3%)    97.4%
 T-DIPOLE    0.0447        C  4 --  H 15          +33.7% ( 55.9%)    97.1%
 TRAVEL      0.1368        C  4 --  H 16          +30.6% ( 53.2%)    96.5%
 RED. MASS   0.3280        C  1 --  C  4           +0.3% (  5.0%)    99.6%
 EFF. MASS   1.1349

 SYMMETRY NUMBER FOR POINT-GROUP C1  =  1


          SYSTEM IS A GROUND STATE


    NULL



          MOLECULE IS NOT LINEAR

          THERE ARE 66 GENUINE VIBRATIONS IN THIS SYSTEM
          THIS THERMODYNAMICS CALCULATION IS LIMITED TO
          MOLECULES WHICH HAVE NO INTERNAL ROTATIONS




                    CALCULATED THERMODYNAMIC PROPERTIES
                                          *
   TEMP. (K)   PARTITION FUNCTION   H.O.F.    ENTHALPY  HEAT CAPACITY ENTROPY
                                   KCAL/MOL   CAL/MOLE    CAL/K/MOL  CAL/K/MOL


 298.00  VIB.     0.7578D+03                  4635.7875    33.0646    28.7323
         ROT.     0.7120D+06                   888.2813     2.9808    29.7599
         INT.     0.5395D+09                  5524.0688    36.0454    58.4923
         TRA.     0.1503D+28                  1480.4688     4.9680    40.5931
         TOT.                       37.649    7004.5376    41.0134    99.0854

 200.00  VIB.     0.6029D+02                  2028.7853    20.5400    18.2899
         ROT.     0.3914D+06                   596.1620     2.9808    28.5713
         INT.     0.2360D+08                  2624.9473    23.5208    46.8612
         TRA.     0.8266D+27                   993.6033     4.9680    38.6119
         TOT.                       34.263    3618.5505    28.4888    85.4731

 210.00  VIB.     0.7784D+02                  2239.9004    21.6892    19.3197
         ROT.     0.4212D+06                   625.9700     2.9808    28.7167
         INT.     0.3278D+08                  2865.8705    24.6700    48.0364
         TRA.     0.8893D+27                  1043.2834     4.9680    38.8543
         TOT.                       34.554    3909.1539    29.6380    86.8907

 220.00  VIB.     0.1005D+03                  2462.6903    22.8748    20.3559
         ROT.     0.4516D+06                   655.7781     2.9808    28.8554
         INT.     0.4540D+08                  3118.4685    25.8556    49.2113
         TRA.     0.9536D+27                  1092.9636     4.9680    39.0854
         TOT.                       34.856    4211.4321    30.8236    88.2967

 230.00  VIB.     0.1299D+03                  2697.5125    24.0953    21.3996
         ROT.     0.4827D+06                   685.5862     2.9808    28.9879
         INT.     0.6271D+08                  3383.0988    27.0761    50.3874
         TRA.     0.1019D+28                  1142.6437     4.9680    39.3063
         TOT.                       35.170    4525.7425    32.0441    89.6937

 240.00  VIB.     0.1680D+03                  2944.7030    25.3480    22.4514
         ROT.     0.5146D+06                   715.3943     2.9808    29.1147
         INT.     0.8642D+08                  3660.0973    28.3288    51.5661
         TRA.     0.1087D+28                  1192.3239     4.9680    39.5177
         TOT.                       35.497    4852.4212    33.2968    91.0838

 250.00  VIB.     0.2173D+03                  3204.5689    26.6298    23.5120
         ROT.     0.5471D+06                   745.2024     2.9808    29.2364
         INT.     0.1189D+09                  3949.7713    29.6106    52.7485
         TRA.     0.1155D+28                  1242.0041     4.9680    39.7205
         TOT.                       35.837    5191.7754    34.5786    92.4690

 260.00  VIB.     0.2814D+03                  3477.3827    27.9369    24.5819
         ROT.     0.5802D+06                   775.0105     2.9808    29.3533
         INT.     0.1633D+09                  4252.3932    30.9177    53.9352
         TRA.     0.1225D+28                  1291.6842     4.9680    39.9154
         TOT.                       36.189    5544.0774    35.8857    93.8506

 270.00  VIB.     0.3647D+03                  3763.3786    29.2655    25.6611
         ROT.     0.6140D+06                   804.8186     2.9808    29.4658
         INT.     0.2239D+09                  4568.1972    32.2463    55.1269
         TRA.     0.1297D+28                  1341.3644     4.9680    40.1029
         TOT.                       36.554    5909.5616    37.2143    95.2298

 280.00  VIB.     0.4731D+03                  4062.7503    30.6114    26.7497
         ROT.     0.6484D+06                   834.6267     2.9808    29.5742
         INT.     0.3068D+09                  4897.3771    33.5922    56.3239
         TRA.     0.1369D+28                  1391.0445     4.9680    40.2835
         TOT.                       36.933    6288.4216    38.5602    96.6074

 290.00  VIB.     0.6144D+03                  4375.6505    31.9705    27.8475
         ROT.     0.6835D+06                   864.4348     2.9808    29.6788
         INT.     0.4199D+09                  5240.0853    34.9513    57.5264
         TRA.     0.1443D+28                  1440.7247     4.9680    40.4579
         TOT.                       37.326    6680.8100    39.9193    97.9842

 300.00  VIB.     0.7987D+03                  4702.1908    33.3388    28.9544
         ROT.     0.7191D+06                   894.2429     2.9808    29.7799
         INT.     0.5744D+09                  5596.4337    36.3196    58.7343
         TRA.     0.1518D+28                  1490.4049     4.9680    40.6263
         TOT.                       37.732    7086.8386    41.2876    99.3606

 310.00  VIB.     0.1039D+04                  5042.4432    34.7123    30.0700
         ROT.     0.7554D+06                   924.0510     2.9808    29.8776
         INT.     0.7852D+09                  5966.4942    37.6931    59.9476
         TRA.     0.1595D+28                  1540.0850     4.9680    40.7892
         TOT.                       38.151    7506.5792    42.6611   100.7368

 320.00  VIB.     0.1354D+04                  5396.4422    36.0875    31.1938
         ROT.     0.7922D+06                   953.8591     2.9808    29.9723
         INT.     0.1073D+10                  6350.3014    39.0683    61.1660
         TRA.     0.1673D+28                  1589.7652     4.9680    40.9469
         TOT.                       38.585    7940.0666    44.0363   102.1130

 330.00  VIB.     0.1767D+04                  5764.1871    37.4609    32.3253
         ROT.     0.8297D+06                   983.6672     2.9808    30.0640
         INT.     0.1466D+10                  6747.8543    40.4417    62.3893
         TRA.     0.1752D+28                  1639.4454     4.9680    41.0998
         TOT.                       39.032    8387.2997    45.4098   103.4891

 340.00  VIB.     0.2307D+04                  6145.6445    38.8295    33.4639
         ROT.     0.8677D+06                  1013.4753     2.9808    30.1530
         INT.     0.2002D+10                  7159.1198    41.8103    63.6169
         TRA.     0.1832D+28                  1689.1255     4.9680    41.2481
         TOT.                       39.493    8848.2453    46.7783   104.8650

 350.00  VIB.     0.3017D+04                  6540.7515    40.1904    34.6092
         ROT.     0.9062D+06                  1043.2834     2.9808    30.2394
         INT.     0.2734D+10                  7584.0349    43.1712    64.8485
         TRA.     0.1914D+28                  1738.8057     4.9680    41.3921
         TOT.                       39.968    9322.8406    48.1392   106.2407

 360.00  VIB.     0.3949D+04                  6949.4185    41.5411    35.7603
         ROT.     0.9453D+06                  1073.0915     2.9808    30.3233
         INT.     0.3733D+10                  8022.5100    44.5219    66.0837
         TRA.     0.1996D+28                  1788.4859     4.9680    41.5321
         TOT.                       40.456    9810.9959    49.4900   107.6157

 370.00  VIB.     0.5175D+04                  7371.5326    42.8795    36.9168
         ROT.     0.9850D+06                  1102.8996     2.9808    30.4050
         INT.     0.5097D+10                  8474.4323    45.8603    67.3218
         TRA.     0.2080D+28                  1838.1660     4.9680    41.6682
         TOT.                       40.957   10312.5983    50.8283   108.9900

 380.00  VIB.     0.6789D+04                  7806.9601    44.2035    38.0779
         ROT.     0.1025D+07                  1132.7077     2.9808    30.4845
         INT.     0.6960D+10                  8939.6678    47.1843    68.5624
         TRA.     0.2165D+28                  1887.8462     4.9680    41.8007
         TOT.                       41.472   10827.5140    52.1523   110.3631

 390.00  VIB.     0.8917D+04                  8255.5494    45.5116    39.2431
         ROT.     0.1066D+07                  1162.5158     2.9808    30.5619
         INT.     0.9504D+10                  9418.0652    48.4924    69.8050
         TRA.     0.2251D+28                  1937.5263     4.9680    41.9297
         TOT.                       42.000   11355.5916    53.4604   111.7347

 400.00  VIB.     0.1172D+05                  8717.1339    46.8023    40.4116
         ROT.     0.1107D+07                  1192.3239     2.9808    30.6374
         INT.     0.1298D+11                  9909.4578    49.7831    71.0490
         TRA.     0.2338D+28                  1987.2065     4.9680    42.0555
         TOT.                       42.541   11896.6643    54.7511   113.1046

   *: NOTE: HEATS OF FORMATION ARE RELATIVE TO THE
            ELEMENTS IN THEIR STANDARD STATE AT 298K
              (=  Standard Enthalpy of Formation).

            Hvib:  Zero-point energy is not included.
                   frequencies of less than zero cm-1 are not included.
            Hrot = (3/2)RT
            Htra = (3/2)RT + pV = (5/2)RT

            Heat capacity is Cp, not Cv

           For more information, see: HTTP://OpenMOPAC.net/Manual/thermochemistry.html


           FORCE CONSTANT IN CARTESIAN COORDINATES (Millidynes/A)

    ATOM   CHEMICAL       X               Y               Z
   NUMBER   SYMBOL  FORCE CONSTANT  FORCE CONSTANT  FORCE CONSTANT

      1       C        8.018359        8.117175        8.453385
      2       C        8.759405        8.385507        8.305355
      3       C        8.112515        8.223018        8.924184
      4       C        8.455434        8.359955        8.085792
      5       C        7.294980       12.072055        7.345352
      6       C        7.477865        7.771241       11.487267
      7       C        4.265712       13.741135        9.095614
      8       C        8.287165        9.463378        9.678592
      9       C        8.243442       10.071596        9.120139
     10       C        3.879283       13.550154        9.059871
     11       H        1.056178        1.530324        3.423678
     12       H        1.090820        2.206378        2.509517
     13       H        1.313355        1.802681        3.264198
     14       H        4.866219        0.717535        0.700695
     15       H        5.354079        0.698895        0.729399
     16       H        0.970090        1.604496        4.176386
     17       H        1.286738        4.776617        0.702603
     18       H        0.709515        4.029789        1.713788
     19       H        0.799206        2.004132        3.656878
     20       H        0.613020        1.778166        3.826904
     21       H        2.124579        0.629877        3.706340
     22       H        1.984092        3.849960        0.627574
     23       H        0.645515        1.971084        3.845771
     24       H        0.530005        1.701040        4.248529



 TOTAL CPU TIME:             3.81 SECONDS

 == MOPAC DONE ==
