 *******************************************************************************
 ** Site#: 14399           For non-commercial use only        Version 13.159M **
 *******************************************************************************
 ** Cite this work as: MOPAC2012, James J. P. Stewart, Stewart Computational  **
 ** Chemistry, Version 13.159M web: HTTP://OpenMOPAC.net  Days remaining:   6 **
 *******************************************************************************
 **                                                                           **
 **                                MOPAC2012                                  **
 **                                                                           **
 *******************************************************************************

                            PM3 CALCULATION RESULTS


 *******************************************************************************
 *  CALCULATION DONE:                                Mon Jun  2 14:11:23 2014  *
 *  PM3      - The PM3 Hamiltonian to be used
 *  PRECISE  - CRITERIA TO BE INCREASED BY 100 TIMES
 *  NOSYM    - POINT-GROUP SYMMETRY SET TO C1
 *  T=       - A TIME OF 172800.0 SECONDS REQUESTED
 *  DUMP=N   - RESTART FILE WRITTEN EVERY  7200.000 SECONDS
 *******************************************************************************
pm3  precise nosym
 InChI=1S/C7H12O/c1-3-6-5-8-7(6)4-2/h4,6-7H,2-3,5H2,1H3

   ATOM   CHEMICAL          X               Y               Z
  NUMBER   SYMBOL      (ANGSTROMS)     (ANGSTROMS)     (ANGSTROMS)
 
     1       C         -0.36450000  *  -0.65880000  *  -0.33120000  *
     2       C          0.95350000  *  -0.41450000  *   0.39670000  *
     3       C         -1.60970000  *  -0.02050000  *   0.29420000  *
     4       C         -0.10990000  *  -2.12800000  *   0.12630000  *
     5       C         -1.70940000  *   1.47020000  *  -0.00630000  *
     6       C          2.07490000  *   0.06230000  *  -0.48590000  *
     7       C          2.09950000  *   1.29680000  *  -0.99250000  *
     8       O          1.13540000  *  -1.77110000  *   0.75940000  *
     9       H         -0.32350000  *  -0.56550000  *  -1.44280000  *
    10       H         -1.63490000  *  -0.16890000  *   1.39940000  *
    11       H         -2.50990000  *  -0.52610000  *  -0.12500000  *
    12       H          0.87110000  *   0.21430000  *   1.31540000  *
    13       H          0.06230000  *  -2.82690000  *  -0.72510000  *
    14       H         -0.83460000  *  -2.53110000  *   0.87230000  *
    15       H         -2.66170000  *   1.87470000  *   0.40540000  *
    16       H         -1.69850000  *   1.65800000  *  -1.10430000  *
    17       H         -0.87030000  *   2.02680000  *   0.46850000  *
    18       H          2.89950000  *  -0.61300000  *  -0.71150000  *
    19       H          1.30220000  *   2.00960000  *  -0.79110000  *
    20       H          2.92850000  *   1.61160000  *  -1.62340000  *
 


          CARTESIAN COORDINATES 

    NO.       ATOM         X         Y         Z

     1         C       -0.3645   -0.6588   -0.3312
     2         C        0.9535   -0.4145    0.3967
     3         C       -1.6097   -0.0205    0.2942
     4         C       -0.1099   -2.1280    0.1263
     5         C       -1.7094    1.4702   -0.0063
     6         C        2.0749    0.0623   -0.4859
     7         C        2.0995    1.2968   -0.9925
     8         O        1.1354   -1.7711    0.7594
     9         H       -0.3235   -0.5655   -1.4428
    10         H       -1.6349   -0.1689    1.3994
    11         H       -2.5099   -0.5261   -0.1250
    12         H        0.8711    0.2143    1.3154
    13         H        0.0623   -2.8269   -0.7251
    14         H       -0.8346   -2.5311    0.8723
    15         H       -2.6617    1.8747    0.4054
    16         H       -1.6985    1.6580   -1.1043
    17         H       -0.8703    2.0268    0.4685
    18         H        2.8995   -0.6130   -0.7115
    19         H        1.3022    2.0096   -0.7911
    20         H        2.9285    1.6116   -1.6234

  H: (PM3): J. J. P. STEWART, J. COMP. CHEM. 10, 209 (1989).
  C: (PM3): J. J. P. STEWART, J. COMP. CHEM. 10, 209 (1989).
  O: (PM3): J. J. P. STEWART, J. COMP. CHEM. 10, 209 (1989).

           Empirical Formula: C7 H12 O  =    20 atoms



      MOLECULAR POINT GROUP   :   C1  


      RHF CALCULATION, NO. OF DOUBLY OCCUPIED LEVELS =   23

      Geometry optimization using EF

          DIAGONAL MATRIX USED AS START HESSIAN

 CYCLE:     1 TIME:   0.007 TIME LEFT:  2.00D  GRAD.:   101.157 HEAT:-16.03662
 CYCLE:     2 TIME:   0.010 TIME LEFT:  2.00D  GRAD.:   106.103 HEAT:-17.10465
 CYCLE:     3 TIME:   0.010 TIME LEFT:  2.00D  GRAD.:    75.976 HEAT:-18.78934
 CYCLE:     4 TIME:   0.010 TIME LEFT:  2.00D  GRAD.:    31.083 HEAT:-19.68908
 CYCLE:     5 TIME:   0.005 TIME LEFT:  2.00D  GRAD.:    29.027 HEAT:-19.91080
 CYCLE:     6 TIME:   0.005 TIME LEFT:  2.00D  GRAD.:    27.050 HEAT:-20.15950
 CYCLE:     7 TIME:   0.005 TIME LEFT:  2.00D  GRAD.:    27.164 HEAT:-20.27385
 CYCLE:     8 TIME:   0.009 TIME LEFT:  2.00D  GRAD.:    12.768 HEAT:-20.47030
 CYCLE:     9 TIME:   0.010 TIME LEFT:  2.00D  GRAD.:    10.016 HEAT:-20.51916
 CYCLE:    10 TIME:   0.005 TIME LEFT:  2.00D  GRAD.:     7.294 HEAT:-20.56230
 CYCLE:    11 TIME:   0.005 TIME LEFT:  2.00D  GRAD.:     8.847 HEAT:-20.59231
 CYCLE:    12 TIME:   0.009 TIME LEFT:  2.00D  GRAD.:     9.986 HEAT:-20.60227
 CYCLE:    13 TIME:   0.005 TIME LEFT:  2.00D  GRAD.:     9.448 HEAT:-20.61523
 CYCLE:    14 TIME:   0.010 TIME LEFT:  2.00D  GRAD.:     4.648 HEAT:-20.64085
 CYCLE:    15 TIME:   0.009 TIME LEFT:  2.00D  GRAD.:     3.287 HEAT:-20.64830
 CYCLE:    16 TIME:   0.005 TIME LEFT:  2.00D  GRAD.:     3.539 HEAT:-20.65703
 CYCLE:    17 TIME:   0.005 TIME LEFT:  2.00D  GRAD.:     7.276 HEAT:-20.67312
 CYCLE:    18 TIME:   0.005 TIME LEFT:  2.00D  GRAD.:     5.717 HEAT:-20.68588
 CYCLE:    19 TIME:   0.005 TIME LEFT:  2.00D  GRAD.:     6.188 HEAT:-20.68796
 CYCLE:    20 TIME:   0.005 TIME LEFT:  2.00D  GRAD.:     2.004 HEAT:-20.69930
 CYCLE:    21 TIME:   0.005 TIME LEFT:  2.00D  GRAD.:     2.764 HEAT:-20.70059
 CYCLE:    22 TIME:   0.005 TIME LEFT:  2.00D  GRAD.:     2.101 HEAT:-20.70443
 CYCLE:    23 TIME:   0.006 TIME LEFT:  2.00D  GRAD.:     2.261 HEAT:-20.70969
 CYCLE:    24 TIME:   0.005 TIME LEFT:  2.00D  GRAD.:     2.863 HEAT:-20.71529
 CYCLE:    25 TIME:   0.005 TIME LEFT:  2.00D  GRAD.:     1.914 HEAT:-20.72082
 CYCLE:    26 TIME:   0.005 TIME LEFT:  2.00D  GRAD.:     1.841 HEAT:-20.72475
 CYCLE:    27 TIME:   0.005 TIME LEFT:  2.00D  GRAD.:     2.277 HEAT:-20.73121
 CYCLE:    28 TIME:   0.005 TIME LEFT:  2.00D  GRAD.:     2.042 HEAT:-20.73886
 CYCLE:    29 TIME:   0.005 TIME LEFT:  2.00D  GRAD.:     1.711 HEAT:-20.74649
 CYCLE:    30 TIME:   0.005 TIME LEFT:  2.00D  GRAD.:     1.463 HEAT:-20.75187
 CYCLE:    31 TIME:   0.005 TIME LEFT:  2.00D  GRAD.:     1.164 HEAT:-20.75445
 CYCLE:    32 TIME:   0.005 TIME LEFT:  2.00D  GRAD.:     0.997 HEAT:-20.75632
 CYCLE:    33 TIME:   0.005 TIME LEFT:  2.00D  GRAD.:     1.015 HEAT:-20.75862
 CYCLE:    34 TIME:   0.005 TIME LEFT:  2.00D  GRAD.:     1.041 HEAT:-20.76114
 CYCLE:    35 TIME:   0.005 TIME LEFT:  2.00D  GRAD.:     0.966 HEAT:-20.76300
 CYCLE:    36 TIME:   0.005 TIME LEFT:  2.00D  GRAD.:     0.838 HEAT:-20.76469
 CYCLE:    37 TIME:   0.005 TIME LEFT:  2.00D  GRAD.:     0.901 HEAT:-20.76661
 CYCLE:    38 TIME:   0.005 TIME LEFT:  2.00D  GRAD.:     0.833 HEAT:-20.76809
 CYCLE:    39 TIME:   0.006 TIME LEFT:  2.00D  GRAD.:     0.689 HEAT:-20.76885
 CYCLE:    40 TIME:   0.007 TIME LEFT:  2.00D  GRAD.:     0.468 HEAT:-20.76932
 CYCLE:    41 TIME:   0.005 TIME LEFT:  2.00D  GRAD.:     0.490 HEAT:-20.76976
 CYCLE:    42 TIME:   0.005 TIME LEFT:  2.00D  GRAD.:     0.484 HEAT:-20.77023
 CYCLE:    43 TIME:   0.005 TIME LEFT:  2.00D  GRAD.:     0.406 HEAT:-20.77075
 CYCLE:    44 TIME:   0.009 TIME LEFT:  2.00D  GRAD.:     0.363 HEAT:-20.77112
 CYCLE:    45 TIME:   0.009 TIME LEFT:  2.00D  GRAD.:     0.345 HEAT:-20.77137
 CYCLE:    46 TIME:   0.006 TIME LEFT:  2.00D  GRAD.:     0.304 HEAT:-20.77157
 CYCLE:    47 TIME:   0.005 TIME LEFT:  2.00D  GRAD.:     0.251 HEAT:-20.77171
 CYCLE:    48 TIME:   0.005 TIME LEFT:  2.00D  GRAD.:     0.221 HEAT:-20.77183
 CYCLE:    49 TIME:   0.005 TIME LEFT:  2.00D  GRAD.:     0.217 HEAT:-20.77196
 CYCLE:    50 TIME:   0.009 TIME LEFT:  2.00D  GRAD.:     0.219 HEAT:-20.77208
 CYCLE:    51 TIME:   0.006 TIME LEFT:  2.00D  GRAD.:     0.236 HEAT:-20.77219
 CYCLE:    52 TIME:   0.006 TIME LEFT:  2.00D  GRAD.:     0.257 HEAT:-20.77230
 CYCLE:    53 TIME:   0.006 TIME LEFT:  2.00D  GRAD.:     0.281 HEAT:-20.77246
 CYCLE:    54 TIME:   0.005 TIME LEFT:  2.00D  GRAD.:     0.294 HEAT:-20.77266
 CYCLE:    55 TIME:   0.005 TIME LEFT:  2.00D  GRAD.:     0.301 HEAT:-20.77291
 CYCLE:    56 TIME:   0.006 TIME LEFT:  2.00D  GRAD.:     0.313 HEAT:-20.77317
 CYCLE:    57 TIME:   0.005 TIME LEFT:  2.00D  GRAD.:     0.365 HEAT:-20.77350
 CYCLE:    58 TIME:   0.005 TIME LEFT:  2.00D  GRAD.:     0.366 HEAT:-20.77379
 CYCLE:    59 TIME:   0.005 TIME LEFT:  2.00D  GRAD.:     0.414 HEAT:-20.77427
 CYCLE:    60 TIME:   0.005 TIME LEFT:  2.00D  GRAD.:     0.364 HEAT:-20.77451
 CYCLE:    61 TIME:   0.005 TIME LEFT:  2.00D  GRAD.:     0.597 HEAT:-20.77488
 CYCLE:    62 TIME:   0.005 TIME LEFT:  2.00D  GRAD.:     0.345 HEAT:-20.77537
 CYCLE:    63 TIME:   0.005 TIME LEFT:  2.00D  GRAD.:     0.205 HEAT:-20.77553
 CYCLE:    64 TIME:   0.005 TIME LEFT:  2.00D  GRAD.:     0.221 HEAT:-20.77572
 CYCLE:    65 TIME:   0.005 TIME LEFT:  2.00D  GRAD.:     0.160 HEAT:-20.77578
 CYCLE:    66 TIME:   0.005 TIME LEFT:  2.00D  GRAD.:     0.121 HEAT:-20.77583
 CYCLE:    67 TIME:   0.005 TIME LEFT:  2.00D  GRAD.:     0.075 HEAT:-20.77587
 CYCLE:    68 TIME:   0.005 TIME LEFT:  2.00D  GRAD.:     0.050 HEAT:-20.77590

     RMS GRADIENT =  0.04973  IS LESS THAN CUTOFF =  0.05000



 -------------------------------------------------------------------------------
pm3  precise nosym
 InChI=1S/C7H12O/c1-3-6-5-8-7(6)4-2/h4,6-7H,2-3,5H2,1H3



     GEOMETRY OPTIMISED USING EIGENVECTOR FOLLOWING (EF).     
     SCF FIELD WAS ACHIEVED                                   


                              PM3 CALCULATION
                                                       MOPAC2012 (Version: 13.159M)
                                                       Mon Jun  2 14:11:24 2014
                                                       No. of days left =   6




          FINAL HEAT OF FORMATION =        -20.77590 KCAL/MOL =     -86.92637 KJ/MOL


          TOTAL ENERGY            =      -1307.30092 EV
          ELECTRONIC ENERGY       =      -6309.86282 EV  POINT GROUP:     C1  
          CORE-CORE REPULSION     =       5002.56190 EV
          COSMO AREA              =        161.56 SQUARE ANGSTROMS
          COSMO VOLUME            =        162.11 CUBIC ANGSTROMS

          GRADIENT NORM           =          0.04973
          IONIZATION POTENTIAL    =         10.228836 EV
          HOMO LUMO ENERGIES (EV) =        -10.229  0.959
          NO. OF FILLED LEVELS    =         23
          MOLECULAR WEIGHT        =        112.171

          MOLECULAR DIMENSIONS (Angstroms)

            Atom       Atom       Distance
            H    20    H    14     6.17793
            H    18    H    15     5.78810
            H    12    H     9     3.07511


          SCF CALCULATIONS        =         77
          COMPUTATION TIME        =          0.417 SECONDS




   ATOM   CHEMICAL          X               Y               Z
  NUMBER   SYMBOL      (ANGSTROMS)     (ANGSTROMS)     (ANGSTROMS)
 
     1       C         -0.37967987  *  -0.67305884  *  -0.30045839  *
     2       C          0.98428220  *  -0.39445974  *   0.40688922  *
     3       C         -1.59465187  *  -0.01604343  *   0.31387734  *
     4       C         -0.14825162  *  -2.14939769  *   0.10605588  *
     5       C         -1.68623175  *   1.44846746  *  -0.05158742  *
     6       C          2.08784292  *   0.10008732  *  -0.46189870  *
     7       C          2.08249528  *   1.32196615  *  -0.98169536  *
     8       O          1.11514618  *  -1.81360976  *   0.73033844  *
     9       H         -0.35622294  *  -0.49382689  *  -1.39579636  *
    10       H         -1.57680320  *  -0.13197494  *   1.41650838  *
    11       H         -2.50213846  *  -0.55229538  *  -0.02774576  *
    12       H          0.91710084  *   0.19903268  *   1.34414586  *
    13       H         -0.00623326  *  -2.86661773  *  -0.71493578  *
    14       H         -0.85189967  *  -2.57059088  *   0.83980479  *
    15       H         -2.56864378  *   1.91698235  *   0.40206162  *
    16       H         -1.75777900  *   1.59314462  *  -1.13788370  *
    17       H         -0.80287650  *   2.00467213  *   0.29304084  *
    18       H          2.91535864  *  -0.59723751  *  -0.64276361  *
    19       H          1.27528029  *   2.03238356  *  -0.81771776  *
    20       H          2.88638070  *   1.69542235  *  -1.60828792  *

           Empirical Formula: C7 H12 O  =    20 atoms



      MOLECULAR POINT GROUP   :   C1  


                  EIGENVALUES  
 -41.48064 -34.60031 -33.20325 -28.03332 -25.42786 -22.65443 -20.59697 -19.40072
 -17.53117 -16.88916 -16.59314 -15.47485 -14.96292 -14.61143 -14.14087 -13.78979
 -13.07264 -12.53906 -12.27170 -12.12261 -11.68746 -10.73763 -10.22884   0.95860
   2.76344   2.87932   3.04445   3.45765   3.53674   3.60410   3.76758   3.85377
   3.97666   4.04497   4.10253   4.22757   4.40735   4.56083   4.64598   4.81425
   4.95381   5.15981   5.51207   5.73071


              NET ATOMIC CHARGES AND DIPOLE CONTRIBUTIONS

  ATOM NO.   TYPE          CHARGE      No. of ELECS.   s-Pop       p-Pop       
    1          C          -0.145219        4.1452     1.20564     2.93958
    2          C           0.095914        3.9041     1.17838     2.72571
    3          C          -0.086541        4.0865     1.15561     2.93093
    4          C           0.056486        3.9435     1.16840     2.77512
    5          C          -0.112264        4.1123     1.13863     2.97364
    6          C          -0.150715        4.1507     1.19874     2.95198
    7          C          -0.160847        4.1608     1.18157     2.97927
    8          O          -0.272903        6.2729     1.88335     4.38956
    9          H           0.088645        0.9114     0.91135
   10          H           0.055954        0.9440     0.94405
   11          H           0.052878        0.9471     0.94712
   12          H           0.077313        0.9227     0.92269
   13          H           0.048829        0.9512     0.95117
   14          H           0.050676        0.9493     0.94932
   15          H           0.040906        0.9591     0.95909
   16          H           0.040042        0.9600     0.95996
   17          H           0.040897        0.9591     0.95910
   18          H           0.115077        0.8849     0.88492
   19          H           0.082498        0.9175     0.91750
   20          H           0.082374        0.9176     0.91763
 DIPOLE           X         Y         Z       TOTAL
 POINT-CHG.    -1.153     0.826    -0.624     1.550
 HYBRID        -0.128     0.129    -0.148     0.234
 SUM           -1.280     0.956    -0.772     1.774


          ATOMIC ORBITAL ELECTRON POPULATIONS

    Atom      s        px        py        pz   
    1  C   1.20564   0.95679   0.96824   1.01455
    2  C   1.17838   0.91603   0.85341   0.95627
    3  C   1.15561   0.96682   0.96046   1.00365
    4  C   1.16840   0.87465   0.93871   0.96176
    5  C   1.13863   1.01126   0.95417   1.00821
    6  C   1.19874   0.99078   0.97724   0.98395
    7  C   1.18157   1.01193   0.96378   1.00356
    8  O   1.88335   1.38944   1.20991   1.79021
    9  H   0.91135
   10  H   0.94405
   11  H   0.94712
   12  H   0.92269
   13  H   0.95117
   14  H   0.94932
   15  H   0.95909
   16  H   0.95996
   17  H   0.95910
   18  H   0.88492
   19  H   0.91750
   20  H   0.91763
 *******************************************************************************
 ** Site#: 14399           For non-commercial use only        Version 13.159M **
 *******************************************************************************
 ** Cite this work as: MOPAC2012, James J. P. Stewart, Stewart Computational  **
 ** Chemistry, Version 13.159M web: HTTP://OpenMOPAC.net  Days remaining:   6 **
 *******************************************************************************
 **                                                                           **
 **                                MOPAC2012                                  **
 **                                                                           **
 *******************************************************************************

                            PM3 CALCULATION RESULTS


 *******************************************************************************
 *  CALCULATION DONE:                                Mon Jun  2 14:11:24 2014  *
 *  PM3      - The PM3 Hamiltonian to be used
 *  OLDGEO   - PREVIOUS GEOMETRY TO BE USED
 *  PRECISE  - CRITERIA TO BE INCREASED BY 100 TIMES
 *  NOSYM    - POINT-GROUP SYMMETRY SET TO C1
 *  T=       - A TIME OF 172800.0 SECONDS REQUESTED
 *  DUMP=N   - RESTART FILE WRITTEN EVERY  7200.000 SECONDS
 *  THERMO   - THERMODYNAMIC QUANTITIES TO BE CALCULATED
 *******************************************************************************
oldgeo thermo nosym precise  pm3

   ATOM   CHEMICAL          X               Y               Z
  NUMBER   SYMBOL      (ANGSTROMS)     (ANGSTROMS)     (ANGSTROMS)
 
     1       C         -0.37967987  *  -0.67305884  *  -0.30045839  *
     2       C          0.98428220  *  -0.39445974  *   0.40688922  *
     3       C         -1.59465187  *  -0.01604343  *   0.31387734  *
     4       C         -0.14825162  *  -2.14939769  *   0.10605588  *
     5       C         -1.68623175  *   1.44846746  *  -0.05158742  *
     6       C          2.08784292  *   0.10008732  *  -0.46189870  *
     7       C          2.08249528  *   1.32196615  *  -0.98169536  *
     8       O          1.11514618  *  -1.81360976  *   0.73033844  *
     9       H         -0.35622294  *  -0.49382689  *  -1.39579636  *
    10       H         -1.57680320  *  -0.13197494  *   1.41650838  *
    11       H         -2.50213846  *  -0.55229538  *  -0.02774576  *
    12       H          0.91710084  *   0.19903268  *   1.34414586  *
    13       H         -0.00623326  *  -2.86661773  *  -0.71493578  *
    14       H         -0.85189967  *  -2.57059088  *   0.83980479  *
    15       H         -2.56864378  *   1.91698235  *   0.40206162  *
    16       H         -1.75777900  *   1.59314462  *  -1.13788370  *
    17       H         -0.80287650  *   2.00467213  *   0.29304084  *
    18       H          2.91535864  *  -0.59723751  *  -0.64276361  *
    19       H          1.27528029  *   2.03238356  *  -0.81771776  *
    20       H          2.88638070  *   1.69542235  *  -1.60828792  *
 


          CARTESIAN COORDINATES 

    NO.       ATOM         X         Y         Z

     1         C       -0.3797   -0.6731   -0.3005
     2         C        0.9843   -0.3945    0.4069
     3         C       -1.5947   -0.0160    0.3139
     4         C       -0.1483   -2.1494    0.1061
     5         C       -1.6862    1.4485   -0.0516
     6         C        2.0878    0.1001   -0.4619
     7         C        2.0825    1.3220   -0.9817
     8         O        1.1151   -1.8136    0.7303
     9         H       -0.3562   -0.4938   -1.3958
    10         H       -1.5768   -0.1320    1.4165
    11         H       -2.5021   -0.5523   -0.0277
    12         H        0.9171    0.1990    1.3441
    13         H       -0.0062   -2.8666   -0.7149
    14         H       -0.8519   -2.5706    0.8398
    15         H       -2.5686    1.9170    0.4021
    16         H       -1.7578    1.5931   -1.1379
    17         H       -0.8029    2.0047    0.2930
    18         H        2.9154   -0.5972   -0.6428
    19         H        1.2753    2.0324   -0.8177
    20         H        2.8864    1.6954   -1.6083

  H: (PM3): J. J. P. STEWART, J. COMP. CHEM. 10, 209 (1989).
  C: (PM3): J. J. P. STEWART, J. COMP. CHEM. 10, 209 (1989).
  O: (PM3): J. J. P. STEWART, J. COMP. CHEM. 10, 209 (1989).

           Empirical Formula: C7 H12 O  =    20 atoms



      MOLECULAR POINT GROUP   :   C1  


      RHF CALCULATION, NO. OF DOUBLY OCCUPIED LEVELS =   23



          HEAT OF FORMATION =     -20.775902 KCALS/MOLE


          INTERNAL COORDINATE DERIVATIVES

   NUMBER  ATOM       BOND         ANGLE      DIHEDRAL

     1       C     -0.000382    -0.002367    -0.000136
     2       C     -0.000352    -0.000015    -0.003518
     3       C     -0.006832    -0.001453     0.003072
     4       C      0.002155    -0.002608     0.000659
     5       C      0.000692     0.002842     0.001184
     6       C      0.004038    -0.000025    -0.003041
     7       C      0.005660     0.003045    -0.003976
     8       O     -0.002695    -0.002460    -0.004104
     9       H      0.002538    -0.006726     0.005029
    10       H     -0.003608    -0.003298     0.000306
    11       H     -0.011855     0.009813    -0.000370
    12       H      0.005193    -0.001248    -0.007155
    13       H     -0.020662     0.005280     0.015495
    14       H      0.011791    -0.000087    -0.003764
    15       H      0.002495     0.000624    -0.003808
    16       H      0.000169     0.005584     0.008873
    17       H     -0.009572     0.001659     0.006680
    18       H      0.001470    -0.000180    -0.006383
    19       H     -0.004741    -0.003459    -0.001737
    20       H      0.024497    -0.004920    -0.003305


          GRADIENT NORM =   0.04962


          TIME FOR SCF CALCULATION =    0.00

          TIME FOR DERIVATIVES     =    0.00

          MOLECULAR WEIGHT =  112.17



          ROTATIONAL CONSTANTS IN CM(-1)

          A =    0.07662504   B =    0.06462809   C =    0.03855084



           PRINCIPAL MOMENTS OF INERTIA IN UNITS OF 10**(-40)*GRAM-CM**2

          A =      365.3215   B =      433.1363   C =      726.1261


          ORIENTATION OF MOLECULE IN FORCE CALCULATION

    NO.       ATOM         X         Y         Z

     1          C      -0.7759   -0.1082    0.2438
     2          C       0.7856   -0.1082    0.2438
     3          C      -1.4417    1.2490    0.2438
     4          C      -0.6530   -0.7858    1.6310
     5          C      -1.4259    1.8822   -1.1293
     6          C       1.4442   -0.9269   -0.8112
     7          C       1.4221   -0.5768   -2.0919
     8          O       0.7932   -0.7622    1.5507
     9          H      -1.2196   -0.7559   -0.5411
    10          H      -0.9473    1.9185    0.9766
    11          H      -2.4848    1.1355    0.6000
    12          H       1.2574    0.8949    0.3238
    13          H      -1.0288   -1.8161    1.7075
    14          H      -1.0104   -0.2030    2.4933
    15          H      -1.9076    2.8680   -1.1180
    16          H      -1.9547    1.2652   -1.8681
    17          H      -0.3990    2.0204   -1.4964
    18          H       1.9607   -1.8338   -0.4728
    19          H       0.9180    0.3167   -2.4535
    20          H       1.9071   -1.1613   -2.8674


    FIRST DERIVATIVES WILL BE USED IN THE CALCULATION OF SECOND DERIVATIVES

          ESTIMATED TIME TO COMPLETE CALCULATION =        1.63 SECONDS

    FOR POINT-GROUP C1   THERE ARE   1 UNIQUE SYMMETRY FUNCTIONS.

 STEP:   1 TIME =     0.02 SECS, INTEGRAL =      0.02 TIME LEFT: 172799.97
 STEP:   2 TIME =     0.02 SECS, INTEGRAL =      0.05 TIME LEFT: 172799.95
 STEP:   3 TIME =     0.02 SECS, INTEGRAL =      0.07 TIME LEFT: 172799.92
 STEP:   4 TIME =     0.02 SECS, INTEGRAL =      0.09 TIME LEFT: 172799.90
 STEP:   5 TIME =     0.02 SECS, INTEGRAL =      0.12 TIME LEFT: 172799.88
 STEP:   6 TIME =     0.02 SECS, INTEGRAL =      0.14 TIME LEFT: 172799.85
 STEP:   7 TIME =     0.02 SECS, INTEGRAL =      0.16 TIME LEFT: 172799.83
 STEP:   8 TIME =     0.02 SECS, INTEGRAL =      0.19 TIME LEFT: 172799.81
 STEP:   9 TIME =     0.02 SECS, INTEGRAL =      0.21 TIME LEFT: 172799.79
 STEP:  10 TIME =     0.02 SECS, INTEGRAL =      0.23 TIME LEFT: 172799.76
 STEP:  11 TIME =     0.02 SECS, INTEGRAL =      0.25 TIME LEFT: 172799.74
 STEP:  12 TIME =     0.02 SECS, INTEGRAL =      0.28 TIME LEFT: 172799.72
 STEP:  13 TIME =     0.02 SECS, INTEGRAL =      0.30 TIME LEFT: 172799.69
 STEP:  14 TIME =     0.02 SECS, INTEGRAL =      0.32 TIME LEFT: 172799.67
 STEP:  15 TIME =     0.02 SECS, INTEGRAL =      0.35 TIME LEFT: 172799.65
 STEP:  16 TIME =     0.02 SECS, INTEGRAL =      0.37 TIME LEFT: 172799.62
 STEP:  17 TIME =     0.02 SECS, INTEGRAL =      0.39 TIME LEFT: 172799.60
 STEP:  18 TIME =     0.02 SECS, INTEGRAL =      0.42 TIME LEFT: 172799.58
 STEP:  19 TIME =     0.02 SECS, INTEGRAL =      0.44 TIME LEFT: 172799.55
 STEP:  20 TIME =     0.02 SECS, INTEGRAL =      0.46 TIME LEFT: 172799.53
 STEP:  21 TIME =     0.02 SECS, INTEGRAL =      0.49 TIME LEFT: 172799.51
 STEP:  22 TIME =     0.02 SECS, INTEGRAL =      0.51 TIME LEFT: 172799.48
 STEP:  23 TIME =     0.02 SECS, INTEGRAL =      0.53 TIME LEFT: 172799.46
 STEP:  24 TIME =     0.02 SECS, INTEGRAL =      0.56 TIME LEFT: 172799.44
 STEP:  25 TIME =     0.02 SECS, INTEGRAL =      0.58 TIME LEFT: 172799.41
 STEP:  26 TIME =     0.02 SECS, INTEGRAL =      0.60 TIME LEFT: 172799.39
 STEP:  27 TIME =     0.02 SECS, INTEGRAL =      0.63 TIME LEFT: 172799.37
 STEP:  28 TIME =     0.03 SECS, INTEGRAL =      0.65 TIME LEFT: 172799.34
 STEP:  29 TIME =     0.02 SECS, INTEGRAL =      0.68 TIME LEFT: 172799.32
 STEP:  30 TIME =     0.02 SECS, INTEGRAL =      0.70 TIME LEFT: 172799.29
 STEP:  31 TIME =     0.02 SECS, INTEGRAL =      0.72 TIME LEFT: 172799.27
 STEP:  32 TIME =     0.02 SECS, INTEGRAL =      0.75 TIME LEFT: 172799.25
 STEP:  33 TIME =     0.02 SECS, INTEGRAL =      0.77 TIME LEFT: 172799.22
 STEP:  34 TIME =     0.02 SECS, INTEGRAL =      0.79 TIME LEFT: 172799.20
 STEP:  35 TIME =     0.02 SECS, INTEGRAL =      0.81 TIME LEFT: 172799.18
 STEP:  36 TIME =     0.02 SECS, INTEGRAL =      0.84 TIME LEFT: 172799.15
 STEP:  37 TIME =     0.02 SECS, INTEGRAL =      0.86 TIME LEFT: 172799.13
 STEP:  38 TIME =     0.02 SECS, INTEGRAL =      0.88 TIME LEFT: 172799.11
 STEP:  39 TIME =     0.02 SECS, INTEGRAL =      0.91 TIME LEFT: 172799.08
 STEP:  40 TIME =     0.03 SECS, INTEGRAL =      0.93 TIME LEFT: 172799.06
 STEP:  41 TIME =     0.02 SECS, INTEGRAL =      0.96 TIME LEFT: 172799.04
 STEP:  42 TIME =     0.02 SECS, INTEGRAL =      0.98 TIME LEFT: 172799.01
 STEP:  43 TIME =     0.02 SECS, INTEGRAL =      1.00 TIME LEFT: 172798.99
 STEP:  44 TIME =     0.02 SECS, INTEGRAL =      1.02 TIME LEFT: 172798.97
 STEP:  45 TIME =     0.02 SECS, INTEGRAL =      1.05 TIME LEFT: 172798.94
 STEP:  46 TIME =     0.02 SECS, INTEGRAL =      1.07 TIME LEFT: 172798.92
 STEP:  47 TIME =     0.02 SECS, INTEGRAL =      1.09 TIME LEFT: 172798.90
 STEP:  48 TIME =     0.02 SECS, INTEGRAL =      1.12 TIME LEFT: 172798.88
 STEP:  49 TIME =     0.02 SECS, INTEGRAL =      1.14 TIME LEFT: 172798.85
 STEP:  50 TIME =     0.03 SECS, INTEGRAL =      1.17 TIME LEFT: 172798.83
 STEP:  51 TIME =     0.02 SECS, INTEGRAL =      1.19 TIME LEFT: 172798.80
 STEP:  52 TIME =     0.02 SECS, INTEGRAL =      1.21 TIME LEFT: 172798.78
 STEP:  53 TIME =     0.02 SECS, INTEGRAL =      1.24 TIME LEFT: 172798.76
 STEP:  54 TIME =     0.02 SECS, INTEGRAL =      1.26 TIME LEFT: 172798.73
 STEP:  55 TIME =     0.02 SECS, INTEGRAL =      1.28 TIME LEFT: 172798.71
 STEP:  56 TIME =     0.02 SECS, INTEGRAL =      1.31 TIME LEFT: 172798.69
 STEP:  57 TIME =     0.02 SECS, INTEGRAL =      1.33 TIME LEFT: 172798.66
 STEP:  58 TIME =     0.02 SECS, INTEGRAL =      1.35 TIME LEFT: 172798.64
 STEP:  59 TIME =     0.02 SECS, INTEGRAL =      1.38 TIME LEFT: 172798.62
 STEP:  60 TIME =     0.02 SECS, INTEGRAL =      1.40 TIME LEFT: 172798.59

(To convert to Hartree/Bohr^2, multiply by (10^(-21) x N x a0^2)/(4.184 x 627.51) = 0.0642)


           FORCE MATRIX IN MILLIDYNES/ANGSTROM


                  C  1       C  2       C  3       C  4       C  5       C  6
 ------------------------------------------------------------------------------
     C    1  14.467694
     C    2   3.004571  14.704508
     C    3   4.377233   0.516514  14.511857
     C    4   3.438646   2.309555   0.531835  14.662071
     C    5   0.669668   0.027790   4.467036   0.050217  14.362062
     C    6   0.521175   4.854989   0.036590   0.069874   0.002099  18.231645
     C    7   0.031652   0.828144   0.003458   0.010429   0.010306  11.068226
     O    8   2.084605   3.970318   0.058255   4.403979   0.007042   0.745787
     H    9   4.449187   0.431647   0.428928   0.423188   0.031391   0.019797
     H   10   0.451138   0.025418   4.438194   0.022984   0.436589   0.001662
     H   11   0.431717   0.045854   4.460379   0.020096   0.439946   0.006720
     H   12   0.427408   4.345064   0.021755   0.055847   0.006221   0.408108
     H   13   0.429664   0.058042   0.035361   4.681331   0.007089   0.001833
     H   14   0.438136   0.058369   0.022312   4.644542   0.002399   0.012156
     H   15   0.052958   0.003077   0.450256   0.008334   4.760645   0.000534
     H   16   0.023556   0.003193   0.464697   0.002061   4.724839   0.000691
     H   17   0.019652   0.007143   0.463379   0.002475   4.687179   0.001937
     H   18   0.025960   0.464502   0.003403   0.005691   0.000544   4.805332
     H   19   0.012749   0.103730   0.003606   0.001692   0.010839   0.493616
     H   20   0.013559   0.140103   0.001596   0.002705   0.001066   0.464433


                  C  7       O  8       H  9       H 10       H 11       H 12
 ------------------------------------------------------------------------------
     C    7  18.010210
     O    8   0.064347   8.901640
     H    9   0.006826   0.042205   4.956316
     H   10   0.000736   0.002806   0.042655   5.050667
     H   11   0.000735   0.005376   0.024965   0.568946   5.064277
     H   12   0.025034   0.336132   0.030737   0.022369   0.002816   4.730966
     H   13   0.001218   0.357420   0.022956   0.001427   0.002156   0.010425
     H   14   0.002278   0.359961   0.032214   0.014110   0.006916   0.002083
     H   15   0.000904   0.001896   0.002080   0.030672   0.028807   0.000469
     H   16   0.001091   0.001317   0.021888   0.047913   0.024531   0.000512
     H   17   0.011686   0.002412   0.002185   0.024053   0.048860   0.006735
     H   18   0.452760   0.056886   0.003180   0.000581   0.000877   0.020915
     H   19   5.034711   0.005402   0.001418   0.000437   0.000799   0.011661
     H   20   5.114213   0.007831   0.001403   0.000258   0.000391   0.013370


                  H 13       H 14       H 15       H 16       H 17       H 18
 ------------------------------------------------------------------------------
     H   13   5.143609
     H   14   0.489859   5.115470
     H   15   0.001424   0.000545   5.492271
     H   16   0.000465   0.000453   0.571648   5.465862
     H   17   0.000447   0.000411   0.568795   0.576414   5.422894
     H   18   0.001017   0.001285   0.000139   0.000220   0.000316   5.174476
     H   19   0.000404   0.000347   0.000965   0.002922   0.013754   0.121621
     H   20   0.000292   0.000444   0.000364   0.000288   0.000602   0.083380


                  H 19       H 20
 ------------------------------
     H   19   5.419538
     H   20   0.416861   5.495836


          HEAT OF FORMATION =     -20.775902 KCALS/MOLE

          ZERO POINT ENERGY     108.478 KCAL/MOL


           NORMAL COORDINATE ANALYSIS (Total motion = 1 Angstrom)


   Root No.       1         2         3         4         5         6         7         8

                 1 A       2 A       3 A       4 A       5 A       6 A       7 A       8 A   

                  36.2      74.4     109.2     181.5     217.9     268.8     316.3     428.5
  
           1   -0.0076   -0.0161    0.0029   -0.0106    0.0141    0.0287    0.0085   -0.0225
           2    0.0027   -0.0180    0.0017   -0.0118   -0.0005    0.0031    0.0385   -0.0106
           3    0.0102    0.0083    0.0198    0.0041   -0.0083   -0.0136    0.0197    0.0239
           4   -0.0072   -0.0162    0.0021   -0.0104    0.0124    0.0297    0.0098   -0.0235
           5   -0.0126    0.0030   -0.0119    0.0050    0.0114   -0.0054    0.0350   -0.0044
           6   -0.0100   -0.0128    0.0177   -0.0008    0.0126    0.0148    0.0145    0.0022
           7    0.0064   -0.0312    0.0117   -0.0034    0.0235   -0.0220   -0.0337    0.0057
           8    0.0096   -0.0255    0.0051   -0.0083    0.0030   -0.0225    0.0174    0.0122
           9    0.0065   -0.0045   -0.0171   -0.0013   -0.0015   -0.0265    0.0071   -0.0386
          10    0.0039    0.0117   -0.0015    0.0005    0.0004    0.0065    0.0119    0.0278
          11    0.0147    0.0047    0.0164   -0.0075   -0.0397    0.0198   -0.0179   -0.0391
          12    0.0151    0.0170    0.0270    0.0050   -0.0271   -0.0019   -0.0094    0.0221
          13   -0.0265    0.0529    0.0232    0.0256    0.0102   -0.0191    0.0036   -0.0129
          14   -0.0140    0.0054   -0.0348   -0.0137   -0.0158    0.0285   -0.0146    0.0458
          15   -0.0048    0.0107   -0.0361   -0.0037   -0.0116   -0.0023   -0.0096   -0.0335
          16   -0.0337   -0.0247   -0.0053    0.0009   -0.0314   -0.0032   -0.0207   -0.0077
          17   -0.0295   -0.0068    0.0188    0.0156   -0.0138   -0.0201    0.0192   -0.0015
          18   -0.0135   -0.0107   -0.0096   -0.0013    0.0046    0.0046    0.0071    0.0158
          19    0.0603    0.0044   -0.0332   -0.0083   -0.0317   -0.0175    0.0077    0.0001
          20    0.0296    0.0081    0.0509    0.0104    0.0194    0.0077   -0.0235    0.0007
          21    0.0010   -0.0072   -0.0006   -0.0026    0.0132    0.0124   -0.0038    0.0179
          22    0.0030    0.0105   -0.0015    0.0003    0.0037    0.0077    0.0109    0.0254
          23   -0.0023    0.0250   -0.0413    0.0101    0.0370   -0.0133   -0.0310   -0.0094
          24   -0.0050   -0.0023    0.0031    0.0015    0.0239    0.0107   -0.0160   -0.0059
          25   -0.0251   -0.0182    0.0006   -0.0116    0.0264    0.0559    0.0263   -0.0420
          26   -0.0006   -0.0346   -0.0119   -0.0134    0.0171   -0.0110    0.0445   -0.0217
          27    0.0230    0.0234    0.0315    0.0068   -0.0306   -0.0182    0.0020    0.0447
          28    0.0346   -0.0851    0.0118   -0.0023    0.0410   -0.0751   -0.0816    0.0223
          29    0.0167   -0.0364    0.0224   -0.0139    0.0056   -0.0192    0.0398    0.0128
          30   -0.0190    0.0420   -0.0332    0.0034   -0.0161    0.0063    0.0172   -0.0499
          31    0.0154   -0.0529    0.0091   -0.0087    0.0283   -0.0288   -0.0435    0.0039
          32    0.0268   -0.0442    0.0212    0.0075    0.0157   -0.0795   -0.0124    0.0431
          33    0.0384   -0.0743   -0.0198   -0.0131    0.0156   -0.0625   -0.0316   -0.0345
          34    0.0029   -0.0291    0.0084   -0.0225    0.0207    0.0443    0.0253   -0.0412
          35   -0.0164    0.0109   -0.0165    0.0112    0.0078   -0.0141    0.0239    0.0055
          36   -0.0232   -0.0359    0.0435   -0.0033   -0.0047    0.0220    0.0432   -0.0087
          37   -0.0068    0.0281   -0.0401    0.0139    0.0520   -0.0184    0.0018    0.0603
          38    0.0198    0.0002    0.0324   -0.0123   -0.0634    0.0305   -0.0180   -0.0535
          39    0.0305    0.0372    0.0501    0.0072   -0.0844    0.0154   -0.0553   -0.0052
          40    0.0222    0.0147    0.0350   -0.0048   -0.0616    0.0138    0.0236    0.0345
          41    0.0273    0.0119    0.0448   -0.0108   -0.0943    0.0449   -0.0539   -0.0773
          42    0.0142    0.0134    0.0231    0.0049   -0.0169   -0.0153    0.0190    0.0484
          43   -0.0005    0.0254   -0.0070    0.2382   -0.0061    0.0190    0.0234   -0.0226
          44   -0.0013   -0.0079   -0.0492    0.0896   -0.0238    0.0470   -0.0050    0.0420
          45   -0.0041   -0.0030   -0.0765    0.0312   -0.0256    0.0486   -0.0496    0.0108
          46   -0.0695    0.1249    0.0589   -0.1642    0.0189   -0.0564    0.0080   -0.0219
          47   -0.0125    0.0070   -0.0729    0.0975   -0.0355    0.0805   -0.0253    0.0690
          48    0.0249   -0.0421   -0.0301    0.0398   -0.0016   -0.0185   -0.0043   -0.0454
          49   -0.0360    0.0764    0.0272    0.0272    0.0071   -0.0205    0.0149   -0.0227
          50   -0.0471    0.0415   -0.0135   -0.2333   -0.0038    0.0052   -0.0471    0.0717
          51   -0.0440    0.0898   -0.0172   -0.0835   -0.0160   -0.0142    0.0091   -0.0493
          52   -0.1356   -0.0580    0.0116    0.0201   -0.0900   -0.0409   -0.0654    0.0117
          53   -0.0937   -0.0267    0.0176    0.0269   -0.0547   -0.0491   -0.0031    0.0129
          54   -0.0299   -0.0133   -0.0394   -0.0001   -0.0180   -0.0174    0.0205    0.0255
          55    0.1652    0.0383   -0.0524   -0.0245    0.0222    0.0152    0.0635   -0.0231
          56    0.0948    0.0285    0.0530   -0.0011    0.0641    0.0406   -0.0106   -0.0131
          57    0.0164   -0.0040    0.0305   -0.0084    0.0473    0.0473   -0.0474    0.0161
          58    0.0394   -0.0038   -0.0393    0.0022   -0.0878   -0.0656   -0.0164    0.0304
          59    0.0163    0.0010    0.0774    0.0160    0.0073    0.0038   -0.0849    0.0192
          60   -0.0021   -0.0071   -0.0244   -0.0004   -0.0124   -0.0144    0.0267    0.0234


   Root No.       9        10        11        12        13        14        15        16

                 9 A      10 A      11 A      12 A      13 A      14 A      15 A      16 A   

                 457.3     495.3     633.7     775.5     825.9     891.2     923.9     929.3
  
           1    0.0081    0.0125    0.0215    0.0257    0.0015   -0.0042    0.0121    0.0156
           2   -0.0285    0.0225    0.0041    0.0126    0.0033   -0.0151    0.0016    0.0024
           3   -0.0030    0.0279   -0.0170    0.0342    0.0161   -0.0040   -0.0033    0.0033
           4   -0.0001    0.0132   -0.0065    0.0006    0.0213    0.0139    0.0018   -0.0207
           5    0.0190   -0.0391    0.0152    0.0258    0.0221    0.0211   -0.0091    0.0216
           6    0.0219    0.0098    0.0089   -0.0191    0.0017    0.0075    0.0005   -0.0087
           7    0.0304   -0.0176    0.0129    0.0368   -0.0229   -0.0038   -0.0020    0.0013
           8   -0.0238    0.0140   -0.0129   -0.0167   -0.0176    0.0155    0.0039    0.0012
           9   -0.0163   -0.0034   -0.0013   -0.0068   -0.0091    0.0086    0.0031    0.0014
          10   -0.0096   -0.0100    0.0079   -0.0240   -0.0084   -0.0007   -0.0032   -0.0013
          11   -0.0011   -0.0135    0.0090   -0.0053   -0.0017   -0.0294   -0.0272   -0.0086
          12    0.0143    0.0140   -0.0142    0.0276    0.0110    0.0082    0.0129   -0.0028
          13   -0.0013   -0.0066    0.0027    0.0066   -0.0060    0.0001   -0.0045   -0.0032
          14    0.0110    0.0086   -0.0068   -0.0068   -0.0041    0.0139    0.0053   -0.0006
          15    0.0001   -0.0099    0.0057    0.0016   -0.0016   -0.0045   -0.0037   -0.0027
          16   -0.0247    0.0013   -0.0726    0.0044    0.0047    0.0105   -0.0199   -0.0142
          17    0.0485   -0.0069   -0.0103   -0.0084   -0.0091   -0.0033   -0.0109   -0.0063
          18   -0.0129   -0.0418    0.0068   -0.0014   -0.0054   -0.0061    0.0004   -0.0070
          19    0.0057    0.0150    0.0008    0.0021    0.0038    0.0076   -0.0112    0.0089
          20   -0.0128   -0.0005    0.0051   -0.0032   -0.0052   -0.0101    0.0066   -0.0191
          21   -0.0316   -0.0454    0.0127    0.0006   -0.0056   -0.0107    0.0070   -0.0140
          22   -0.0083   -0.0071    0.0118   -0.0291   -0.0140   -0.0112   -0.0117    0.0108
          23   -0.0064    0.0159   -0.0059    0.0092    0.0041    0.0037    0.0159   -0.0160
          24    0.0213    0.0499   -0.0028   -0.0315   -0.0124   -0.0014   -0.0181    0.0273
          25    0.0289    0.0059    0.0497    0.0271    0.0390    0.0371    0.0589    0.0340
          26   -0.0426    0.0282    0.0075   -0.0071   -0.0253   -0.0034    0.0224    0.0220
          27   -0.0022    0.0249   -0.0376    0.0470    0.0187   -0.0343   -0.0465   -0.0242
          28    0.0599   -0.0675    0.0051   -0.0645    0.1092   -0.0218   -0.0027   -0.0030
          29   -0.0357    0.0358   -0.0148    0.0017   -0.0064   -0.0048    0.0146    0.0316
          30   -0.0234    0.0082    0.0059    0.0421   -0.1026    0.0375   -0.0068   -0.0225
          31    0.0372   -0.0271    0.0158    0.0153    0.0160   -0.0193    0.0061    0.0136
          32   -0.0067   -0.0217   -0.0365   -0.1016    0.0683    0.0314   -0.0158   -0.0228
          33    0.0087   -0.0406    0.0000   -0.0892    0.1214   -0.0314    0.0180    0.0272
          34   -0.0161    0.0523    0.0320    0.0186    0.0625    0.0127    0.0797   -0.0953
          35    0.0238   -0.0579   -0.0028    0.0204    0.0007    0.0181   -0.0482    0.0681
          36    0.0520    0.0082    0.0021   -0.0413    0.0164    0.0361    0.0127   -0.1012
          37   -0.0159    0.0118   -0.0115   -0.0286   -0.0054    0.0179   -0.0037   -0.0647
          38    0.0039   -0.0279    0.0181   -0.0104   -0.0054   -0.0231   -0.0176    0.0151
          39    0.0443   -0.0514   -0.0021   -0.0281   -0.0080    0.1489    0.1120    0.0099
          40   -0.0153   -0.0521    0.0112   -0.0129    0.0023    0.0242    0.0574   -0.0159
          41    0.0273   -0.0691    0.0337   -0.0676   -0.0308    0.0661    0.0371    0.0334
          42   -0.0062    0.0327   -0.0291    0.0737    0.0350   -0.0426   -0.0044   -0.0352
          43   -0.0196    0.0002   -0.0011   -0.0290    0.0348   -0.0081    0.0095    0.0120
          44    0.0023    0.0122   -0.0090   -0.0238    0.0159    0.0100    0.0119    0.0069
          45    0.0492   -0.0190    0.0202    0.0705    0.0297   -0.0704   -0.0361   -0.0016
          46   -0.0089   -0.0071   -0.0029   -0.0355    0.0373   -0.0083    0.0109    0.0099
          47    0.0289    0.0090   -0.0030   -0.0021    0.0665   -0.0408    0.0006    0.0183
          48   -0.0088   -0.0100    0.0065    0.0269   -0.0870    0.0446   -0.0107   -0.0265
          49   -0.0134   -0.0040   -0.0016   -0.0289    0.0324   -0.0091    0.0084    0.0093
          50    0.0436   -0.0010   -0.0003    0.0389   -0.0119   -0.0057   -0.0151   -0.0065
          51   -0.0199   -0.0054   -0.0035   -0.0746    0.0954   -0.0359    0.0223    0.0265
          52   -0.0659    0.0547   -0.0090   -0.0034   -0.0207   -0.0772    0.1618    0.0758
          53    0.0234    0.0166    0.0337   -0.0041   -0.0223   -0.0535    0.0954    0.0744
          54   -0.0122   -0.0610    0.0299    0.0208   -0.0029   -0.0077    0.0087    0.0695
          55    0.0784   -0.0371   -0.1504   -0.0164   -0.0339   -0.0646    0.1170    0.0427
          56   -0.0060   -0.0398   -0.1073    0.0033   -0.0114   -0.0258    0.0596    0.0547
          57   -0.1117   -0.0692   -0.0527    0.0396    0.0290    0.0463   -0.0361    0.1125
          58   -0.0206    0.0903    0.2730   -0.0025    0.0198    0.0157    0.0033   -0.0278
          59   -0.1083    0.0378    0.1343    0.0307    0.0431    0.0612   -0.0430    0.0716
          60    0.0218   -0.0289    0.0854   -0.0267   -0.0316   -0.0586    0.0526   -0.1031


   Root No.      17        18        19        20        21        22        23        24

                17 A      18 A      19 A      20 A      21 A      22 A      23 A      24 A   

                 953.1     959.9     983.5     990.0    1010.3    1024.1    1046.3    1108.2
  
           1   -0.0188   -0.0198   -0.0102    0.0022    0.0035   -0.0036    0.0052    0.0185
           2   -0.0033    0.0018    0.0089    0.0150   -0.0069   -0.0044    0.0105    0.0147
           3   -0.0029    0.0034    0.0201   -0.0240    0.0058    0.0007   -0.0151    0.0042
           4    0.0100    0.0048    0.0026   -0.0251   -0.0175    0.0054   -0.0194   -0.0245
           5    0.0104    0.0002   -0.0041   -0.0120   -0.0195   -0.0025   -0.0127   -0.0154
           6    0.0117    0.0101    0.0065    0.0001    0.0213    0.0037    0.0052   -0.0334
           7   -0.0043   -0.0034    0.0000    0.0114    0.0078    0.0120   -0.0169   -0.0165
           8   -0.0034   -0.0055    0.0034    0.0008   -0.0012    0.0042    0.0001   -0.0115
           9   -0.0031   -0.0025    0.0030   -0.0007   -0.0007    0.0021    0.0001   -0.0059
          10    0.0071    0.0018   -0.0101    0.0242   -0.0359   -0.0010   -0.0065    0.0092
          11    0.0208   -0.0161   -0.0111    0.0019    0.0006   -0.0009    0.0051   -0.0117
          12   -0.0041   -0.0219   -0.0157    0.0080    0.0104   -0.0053    0.0288   -0.0002
          13    0.0086    0.0100    0.0101   -0.0030   -0.0089   -0.0080    0.0131    0.0114
          14   -0.0011   -0.0088   -0.0274   -0.0118    0.0110   -0.0011   -0.0078    0.0071
          15    0.0048    0.0013   -0.0045   -0.0005    0.0004   -0.0022    0.0010    0.0031
          16   -0.0141   -0.0012    0.0019   -0.0036   -0.0070    0.0237    0.0152    0.0090
          17   -0.0064   -0.0006   -0.0007    0.0094    0.0072    0.0102    0.0040    0.0306
          18   -0.0047   -0.0020   -0.0002    0.0003    0.0000    0.0025    0.0007    0.0067
          19    0.0010    0.0032    0.0025    0.0134    0.0146   -0.0424   -0.0134   -0.0099
          20   -0.0151   -0.0054    0.0013   -0.0062   -0.0086   -0.0258   -0.0070   -0.0066
          21   -0.0084   -0.0045    0.0005   -0.0043   -0.0035   -0.0064   -0.0028    0.0011
          22   -0.0022    0.0058    0.0147   -0.0190    0.0467   -0.0004    0.0097    0.0014
          23   -0.0048    0.0180    0.0029    0.0039    0.0195    0.0046   -0.0003   -0.0008
          24   -0.0030    0.0087   -0.0069    0.0034   -0.0312   -0.0033   -0.0049    0.0090
          25   -0.0187   -0.0210   -0.0410   -0.0173    0.0338   -0.0711    0.1631   -0.0158
          26   -0.0362    0.0070    0.0707    0.0568   -0.0034    0.0024    0.0659   -0.0121
          27    0.0245   -0.0010   -0.0120   -0.0476   -0.0157    0.0341   -0.1507    0.0439
          28    0.0195    0.0153   -0.0314   -0.0223   -0.0058   -0.0350    0.0345    0.0385
          29   -0.0535   -0.0359    0.0679    0.0387    0.0058    0.0491   -0.0398   -0.0321
          30    0.0265    0.0130   -0.0335   -0.0127    0.0012   -0.0077    0.0033   -0.0247
          31   -0.0236   -0.0215   -0.0133    0.0278    0.0195    0.0216   -0.0267   -0.0036
          32    0.0616    0.0568    0.0260   -0.0824   -0.0544   -0.0683    0.0860    0.0084
          33   -0.0364   -0.0334   -0.0239    0.0211    0.0153    0.0085   -0.0022    0.0361
          34    0.0539    0.0279    0.0175    0.0011   -0.0014   -0.0491   -0.0611    0.1653
          35   -0.0199   -0.0163   -0.0130   -0.0368   -0.0414    0.0184    0.0104   -0.1084
          36    0.0957    0.0525    0.0180    0.1215    0.1597    0.0616   -0.0243   -0.0315
          37    0.0965   -0.2155    0.0221    0.0859   -0.1123   -0.0120    0.0170   -0.0371
          38   -0.0131    0.0578   -0.0121   -0.0171    0.0217    0.0030   -0.0060    0.0056
          39   -0.0338   -0.0505    0.0941    0.0099   -0.0335   -0.0018   -0.0130    0.0165
          40   -0.0537    0.2272   -0.0859    0.0850   -0.1109    0.0132   -0.0127   -0.0467
          41   -0.0234    0.0071    0.0851   -0.0142   -0.0074    0.0039   -0.0429    0.0332
          42    0.0001    0.0509   -0.1064    0.0398   -0.0120   -0.0031    0.0578   -0.0513
          43   -0.0211   -0.0216   -0.0162    0.0111    0.0149    0.0136   -0.0199   -0.0116
          44   -0.0154   -0.0236   -0.0382   -0.0052    0.0218    0.0092   -0.0234   -0.0044
          45    0.0204    0.0681    0.1765    0.0411   -0.0750   -0.0086    0.0570   -0.0122
          46   -0.0197   -0.0209   -0.0188    0.0093    0.0148    0.0131   -0.0185   -0.0104
          47   -0.0260    0.0039    0.0794    0.0336   -0.0179    0.0195   -0.0018   -0.0321
          48    0.0442    0.0122   -0.0696   -0.0453    0.0070   -0.0330    0.0176    0.0500
          49   -0.0174   -0.0179   -0.0134    0.0106    0.0121    0.0117   -0.0154   -0.0087
          50    0.0209    0.0365    0.0644   -0.0047   -0.0344   -0.0168    0.0353    0.0124
          51   -0.0545   -0.0541   -0.0312    0.0377    0.0382    0.0436   -0.0577   -0.0487
          52    0.0782    0.0101    0.0022   -0.0333   -0.0099   -0.0539   -0.0319   -0.0996
          53    0.0587    0.0065   -0.0056    0.0052    0.0084   -0.0450   -0.0336    0.0124
          54    0.0290   -0.0003   -0.0134    0.0343    0.0091   -0.0264   -0.0287    0.1261
          55    0.0563    0.0027   -0.0089   -0.0414   -0.0345    0.1470    0.0424    0.0192
          56    0.0478    0.0061   -0.0074   -0.0130   -0.0116    0.0891    0.0232    0.0258
          57    0.0661    0.0229   -0.0044    0.0513    0.0545    0.0147   -0.0054    0.0389
          58    0.0104   -0.0031   -0.0090   -0.0466   -0.0437    0.1733    0.0465    0.0209
          59    0.0524    0.0174   -0.0093    0.0124    0.0120    0.1050    0.0248    0.0193
          60   -0.0526   -0.0255    0.0010   -0.0545   -0.0544    0.0294    0.0100    0.0037


   Root No.      25        26        27        28        29        30        31        32

                25 A      26 A      27 A      28 A      29 A      30 A      31 A      32 A   

                1122.6    1123.0    1149.1    1174.3    1184.2    1197.5    1214.0    1243.9
  
           1    0.0059    0.0147    0.0280   -0.0016    0.0127    0.0438    0.0200    0.0228
           2    0.0024    0.0032    0.0039    0.0359    0.0183    0.0230   -0.0083   -0.0270
           3    0.0046   -0.0044   -0.0033    0.0093    0.0592   -0.0376    0.0001    0.0116
           4   -0.0018   -0.0090   -0.0154   -0.0071   -0.0162    0.0021    0.0377    0.0040
           5    0.0034   -0.0034    0.0137    0.0153   -0.0332   -0.0201   -0.0261   -0.0069
           6    0.0015   -0.0039   -0.0324    0.0005    0.0095    0.0204    0.0081   -0.0132
           7   -0.0290   -0.0007   -0.0028    0.0034    0.0059   -0.0173   -0.0081    0.0003
           8   -0.0139    0.0158    0.0057   -0.0299   -0.0159    0.0100   -0.0117   -0.0236
           9    0.0081   -0.0490    0.0149   -0.0339   -0.0003    0.0016    0.0027    0.0198
          10    0.0038    0.0029    0.0161    0.0037   -0.0003   -0.0107   -0.0227    0.0206
          11    0.0002   -0.0088   -0.0082   -0.0106    0.0089   -0.0143    0.0046    0.0060
          12   -0.0066   -0.0025    0.0075    0.0068   -0.0507    0.0105   -0.0004    0.0054
          13    0.0341   -0.0003   -0.0059   -0.0025   -0.0076    0.0043    0.0013   -0.0025
          14    0.0173   -0.0090   -0.0053    0.0063    0.0073   -0.0079    0.0038    0.0083
          15   -0.0072    0.0554   -0.0132    0.0162   -0.0053   -0.0045    0.0014   -0.0002
          16    0.0007    0.0012    0.0089    0.0068   -0.0020   -0.0161   -0.0057   -0.0139
          17   -0.0144   -0.0052   -0.0260   -0.0134    0.0126    0.0222   -0.0032    0.0192
          18   -0.0032   -0.0014   -0.0075   -0.0016    0.0031    0.0078   -0.0074    0.0047
          19    0.0004   -0.0010   -0.0069   -0.0007    0.0017    0.0083   -0.0039    0.0056
          20    0.0042    0.0022    0.0140    0.0017   -0.0067   -0.0147    0.0123   -0.0107
          21    0.0007    0.0004    0.0019    0.0011    0.0002    0.0043   -0.0101    0.0081
          22   -0.0049   -0.0033   -0.0058    0.0024   -0.0140   -0.0005    0.0011   -0.0167
          23    0.0022    0.0027   -0.0005   -0.0018    0.0090    0.0067    0.0056    0.0033
          24   -0.0011   -0.0003    0.0093    0.0048   -0.0097   -0.0129   -0.0108   -0.0054
          25   -0.0028    0.0505    0.0142   -0.1363    0.1438   -0.1119   -0.1034   -0.0492
          26   -0.0207   -0.0884   -0.0530    0.1851   -0.0442   -0.0796    0.0976    0.0963
          27    0.0281    0.0487    0.0524   -0.0344    0.0353    0.1376   -0.0138   -0.0477
          28   -0.0035   -0.0196    0.0104    0.0876    0.0491    0.0215   -0.0018   -0.0336
          29    0.0811    0.1451   -0.0604   -0.1283   -0.0879   -0.0660    0.0123    0.0861
          30   -0.0949   -0.1542    0.0692   -0.0029    0.0380    0.0475   -0.0237   -0.0585
          31    0.0381   -0.0235   -0.0242    0.0081   -0.0022   -0.0147   -0.0227   -0.0390
          32   -0.1113    0.0830    0.0825   -0.0192    0.0202    0.0510    0.0679    0.1138
          33    0.1737   -0.0964   -0.0232   -0.0192   -0.0169    0.0250   -0.0122   -0.0509
          34   -0.0848   -0.0535   -0.0799   -0.0333   -0.1050   -0.0642   -0.1143   -0.0038
          35    0.0364    0.0130    0.0249    0.0269    0.0087    0.0221    0.0487   -0.0055
          36    0.0776    0.0503    0.1823    0.0349    0.0092   -0.0594    0.0012    0.0174
          37    0.0041    0.0004   -0.0596   -0.0068    0.1098    0.0026    0.0410   -0.0306
          38    0.0007   -0.0070    0.0158   -0.0028   -0.0207   -0.0162   -0.0156    0.0188
          39   -0.0031    0.0117   -0.0099    0.0395    0.0012    0.0584    0.0304   -0.0686
          40    0.0068    0.0118   -0.0565   -0.0263    0.0904    0.0064    0.0432   -0.0251
          41    0.0108    0.0090    0.0112    0.0286    0.0785   -0.0169   -0.0271    0.0156
          42   -0.0128   -0.0126   -0.0330   -0.0288   -0.0652    0.0186    0.0469   -0.0200
          43   -0.0258   -0.0086    0.0063   -0.0048    0.0086   -0.0021   -0.0031    0.0051
          44   -0.0113   -0.0136    0.0014    0.0023    0.0149   -0.0115    0.0029    0.0160
          45   -0.0095    0.0404    0.0149   -0.0408   -0.0394    0.0427   -0.0233   -0.0675
          46   -0.0255   -0.0088    0.0046    0.0033    0.0087   -0.0048   -0.0024    0.0026
          47   -0.0399   -0.0689    0.0355   -0.0555   -0.0027    0.0089   -0.0020    0.0177
          48    0.0812    0.1127   -0.0539    0.0613   -0.0087   -0.0110    0.0072   -0.0150
          49   -0.0228    0.0089   -0.0013    0.0078    0.0024   -0.0026   -0.0049   -0.0116
          50    0.0568   -0.0422    0.0104   -0.0398   -0.0119    0.0150    0.0051    0.0142
          51   -0.1478    0.0714    0.0053    0.0287    0.0138   -0.0133   -0.0156   -0.0281
          52    0.0299    0.0028    0.0091    0.0330   -0.0149    0.0187   -0.0641    0.0186
          53   -0.0102   -0.0040   -0.0073   -0.0249   -0.0023   -0.0007    0.0604    0.0000
          54   -0.0366    0.0001    0.0464   -0.0741   -0.0180   -0.1142    0.2650   -0.1042
          55   -0.0016    0.0002    0.0036    0.0058    0.0011   -0.0090   -0.0078   -0.0148
          56   -0.0070   -0.0016   -0.0033   -0.0051    0.0040   -0.0007    0.0047    0.0048
          57   -0.0228   -0.0100   -0.0537   -0.0238    0.0279    0.0644   -0.0273    0.0802
          58   -0.0028   -0.0008    0.0038    0.0002   -0.0015   -0.0036    0.0012    0.0075
          59   -0.0108   -0.0051   -0.0255   -0.0020    0.0048    0.0104   -0.0022   -0.0169
          60    0.0089    0.0057    0.0374    0.0028   -0.0098   -0.0207    0.0048    0.0172


   Root No.      33        34        35        36        37        38        39        40

                33 A      34 A      35 A      36 A      37 A      38 A      39 A      40 A   

                1300.3    1305.1    1364.5    1372.8    1401.7    1405.5    1410.4    1422.8
  
           1   -0.0223   -0.0083   -0.0078   -0.0157    0.0068    0.0003   -0.0005   -0.0091
           2    0.0044   -0.0008    0.0213    0.0182   -0.0178   -0.0033    0.0025    0.0051
           3    0.0036    0.0047   -0.0158   -0.0022    0.0036    0.0018   -0.0009    0.0019
           4    0.0324    0.0151   -0.0164    0.0125    0.0173    0.0035   -0.0039    0.0147
           5   -0.0240    0.0031    0.0082   -0.0108   -0.0025   -0.0006    0.0008   -0.0041
           6    0.0141   -0.0322    0.0335   -0.0111   -0.0261   -0.0053    0.0053   -0.0184
           7   -0.0032   -0.0023    0.0059    0.0025   -0.0202   -0.0016    0.0047    0.0073
           8    0.0188    0.0104   -0.0155   -0.0078    0.0349    0.0031   -0.0095    0.0051
           9   -0.0160   -0.0093    0.0157    0.0115    0.0069   -0.0059    0.0008   -0.0380
          10    0.0520   -0.0223    0.0021    0.0161   -0.0191   -0.0028    0.0032   -0.0087
          11   -0.0123    0.0038   -0.0082    0.0058   -0.0058   -0.0007    0.0013   -0.0066
          12    0.0199   -0.0083    0.0122   -0.0180    0.0162    0.0023   -0.0027    0.0094
          13    0.0016    0.0010   -0.0033   -0.0027    0.0006   -0.0324   -0.0157    0.0010
          14   -0.0032   -0.0022   -0.0053   -0.0052   -0.0043   -0.0162    0.0328   -0.0186
          15   -0.0012   -0.0005    0.0152    0.0165    0.0126   -0.0043    0.0036    0.0439
          16   -0.0092   -0.0053    0.0139   -0.0067   -0.0094   -0.0018    0.0020   -0.0061
          17    0.0092    0.0089   -0.0152    0.0078    0.0092    0.0018   -0.0018    0.0069
          18   -0.0037   -0.0201   -0.0153    0.0064    0.0067    0.0022   -0.0021    0.0042
          19    0.0019    0.0007   -0.0028    0.0014    0.0015    0.0003   -0.0003    0.0010
          20   -0.0004    0.0008    0.0080   -0.0035   -0.0043   -0.0010    0.0010   -0.0028
          21   -0.0045   -0.0044   -0.0174    0.0066    0.0106    0.0025   -0.0025    0.0071
          22   -0.0258    0.0116    0.0007   -0.0021    0.0038    0.0006   -0.0007    0.0032
          23    0.0086   -0.0050    0.0012   -0.0002   -0.0012   -0.0002    0.0002   -0.0010
          24   -0.0157    0.0140   -0.0049    0.0030    0.0036    0.0007   -0.0007    0.0036
          25    0.0413    0.0192   -0.0024    0.0348   -0.0093   -0.0048    0.0006    0.0143
          26   -0.0044    0.0059   -0.0418   -0.0247    0.0138    0.0129   -0.0011   -0.0007
          27   -0.0228   -0.0171    0.0326    0.0037   -0.0125   -0.0091    0.0009   -0.0063
          28    0.0161    0.0081    0.0421    0.0662    0.1531   -0.0144   -0.0476   -0.1179
          29   -0.0475   -0.0244    0.0229    0.0078   -0.0435   -0.0047    0.0201   -0.0208
          30    0.0321    0.0157   -0.0501   -0.0550   -0.0571    0.0108    0.0150    0.0878
          31    0.0207    0.0119   -0.0178   -0.0165   -0.0261    0.0044    0.0042    0.0453
          32   -0.0608   -0.0335   -0.0137   -0.0435   -0.1267    0.0005    0.0432    0.0563
          33    0.0300    0.0185   -0.0672   -0.0745   -0.1011    0.0167    0.0287    0.1265
          34   -0.0707   -0.0182    0.0124   -0.0306   -0.0122   -0.0001    0.0033   -0.0107
          35    0.0296    0.0118    0.0011    0.0077    0.0077    0.0000   -0.0020    0.0049
          36   -0.0322    0.0520   -0.0382    0.0099    0.0292    0.0058   -0.0061    0.0152
          37   -0.1038    0.0217    0.0132   -0.0620    0.0419    0.0058   -0.0064    0.0165
          38    0.0349   -0.0083   -0.0131    0.0372   -0.0307   -0.0042    0.0052   -0.0168
          39   -0.0633    0.0712   -0.0588    0.1512   -0.0939   -0.0127    0.0149   -0.0342
          40   -0.1061    0.0211    0.0113   -0.0678    0.0463    0.0064   -0.0070    0.0160
          41    0.0374   -0.0501    0.0635   -0.1310    0.0833    0.0112   -0.0140    0.0426
          42   -0.0745    0.0482   -0.0370    0.0511   -0.0243   -0.0028    0.0045   -0.0162
          43   -0.0065    0.0009    0.0293    0.0218   -0.0115    0.3210   -0.0417    0.0059
          44   -0.0105   -0.0036    0.0171    0.0122   -0.0109    0.1549   -0.0082   -0.0049
          45    0.0502    0.0245   -0.0807   -0.0684    0.0121    0.0802    0.1557   -0.1196
          46   -0.0073   -0.0068    0.0297    0.0327    0.0460    0.1349    0.2560    0.0317
          47   -0.0214   -0.0126    0.0435    0.0396    0.0185   -0.1831   -0.1070    0.0941
          48    0.0235    0.0158   -0.0566   -0.0541   -0.0464    0.0443   -0.0887   -0.0899
          49    0.0115    0.0062   -0.0310   -0.0295   -0.0188   -0.0529   -0.0248   -0.0481
          50   -0.0129   -0.0019    0.0313    0.0205   -0.0287    0.2111   -0.2547    0.0247
          51    0.0287    0.0169   -0.0692   -0.0679   -0.0619   -0.0385   -0.1572   -0.1054
          52   -0.0154    0.0017   -0.0053   -0.0007    0.0028    0.0007   -0.0008    0.0003
          53    0.0252    0.0127   -0.0070    0.0061    0.0073    0.0011   -0.0013    0.0059
          54    0.0502   -0.0254    0.0401   -0.0085   -0.0198   -0.0041    0.0039   -0.0100
          55   -0.0188   -0.0660   -0.0236    0.0089    0.0083    0.0045   -0.0041    0.0051
          56    0.0105    0.0474    0.0256   -0.0099   -0.0120   -0.0038    0.0043   -0.0074
          57    0.0550    0.2273    0.0625   -0.0233   -0.0206   -0.0120    0.0117   -0.0118
          58    0.0149    0.0700    0.0327   -0.0129   -0.0132   -0.0045    0.0042   -0.0081
          59   -0.0272   -0.1499   -0.0692    0.0279    0.0292    0.0098   -0.0098    0.0179
          60    0.0267    0.1649    0.0657   -0.0269   -0.0242   -0.0092    0.0090   -0.0142


   Root No.      41        42        43        44        45        46        47        48

                41 A      42 A      43 A      44 A      45 A      46 A      47 A      48 A   

                1450.1    1858.7    2900.9    2949.5    2963.6    3002.9    3030.8    3044.2
  
           1   -0.0427    0.0004    0.0008    0.0055   -0.0178   -0.0025   -0.0001   -0.0005
           2    0.0543    0.0009    0.0019    0.0079   -0.0250   -0.0038    0.0007   -0.0006
           3   -0.0244    0.0014    0.0033    0.0098   -0.0310   -0.0047    0.0004    0.0002
           4    0.0391    0.0139   -0.0301    0.0009   -0.0016   -0.0005    0.0000    0.0011
           5   -0.0132   -0.0111   -0.0626    0.0008   -0.0022   -0.0011   -0.0004    0.0007
           6   -0.0401   -0.0340   -0.0052    0.0002   -0.0005   -0.0002    0.0000   -0.0009
           7    0.0216   -0.0005   -0.0008   -0.0388   -0.0145   -0.0005   -0.0173    0.0004
           8   -0.0487    0.0000   -0.0004   -0.0205   -0.0078    0.0001    0.0148   -0.0006
           9    0.0255   -0.0001   -0.0005   -0.0107   -0.0037   -0.0003    0.0304   -0.0012
          10   -0.0216   -0.0034    0.0006    0.0001   -0.0003    0.0019   -0.0008   -0.0235
          11   -0.0196   -0.0013    0.0005   -0.0015    0.0062   -0.0495   -0.0003   -0.0212
          12    0.0288    0.0014   -0.0003   -0.0007    0.0027   -0.0283    0.0009    0.0282
          13   -0.0015    0.0001   -0.0003    0.0022    0.0006    0.0000    0.0027   -0.0001
          14    0.0143    0.0001    0.0000    0.0012    0.0002   -0.0001   -0.0032    0.0002
          15   -0.0240    0.0000    0.0001    0.0005    0.0001    0.0000   -0.0009    0.0001
          16   -0.0131   -0.0197   -0.0005    0.0001   -0.0002    0.0000    0.0000    0.0001
          17    0.0152   -0.0286    0.0007    0.0000    0.0000    0.0001    0.0001   -0.0001
          18    0.0076    0.2383   -0.0007    0.0000    0.0001    0.0000    0.0000    0.0001
          19    0.0019   -0.0014   -0.0001    0.0000    0.0000    0.0000    0.0000    0.0000
          20   -0.0056    0.0515   -0.0002    0.0000    0.0000    0.0000    0.0000    0.0000
          21    0.0148   -0.2006    0.0001    0.0000    0.0000    0.0000    0.0000    0.0000
          22    0.0117    0.0028    0.0001   -0.0001    0.0004    0.0000    0.0000    0.0004
          23   -0.0032   -0.0016    0.0006    0.0001   -0.0003    0.0004    0.0000    0.0001
          24    0.0109   -0.0019   -0.0001   -0.0001    0.0002    0.0003    0.0000   -0.0001
          25    0.0556    0.0060   -0.0166   -0.0709    0.2150    0.0314   -0.0024    0.0019
          26   -0.0710   -0.0004   -0.0301   -0.0951    0.3067    0.0420   -0.0041    0.0028
          27    0.0210   -0.0014   -0.0365   -0.1191    0.3738    0.0578   -0.0035    0.0048
          28   -0.0355    0.0000    0.0032    0.1568    0.0545    0.0004   -0.2040    0.0079
          29    0.0595   -0.0003    0.0066    0.2166    0.0809    0.0022   -0.2428    0.0094
          30   -0.0318   -0.0003    0.0073    0.2390    0.0859    0.0006   -0.2521    0.0104
          31   -0.0080   -0.0008    0.0002    0.3088    0.1196    0.0051    0.4151   -0.0134
          32    0.0462    0.0009    0.0003    0.0311    0.0101    0.0006    0.0615   -0.0023
          33   -0.0251    0.0002   -0.0003   -0.1101   -0.0430   -0.0022   -0.1179    0.0041
          34   -0.0476    0.0000    0.3647   -0.0063    0.0154    0.0046    0.0012   -0.0017
          35    0.0232   -0.0070    0.7432   -0.0130    0.0247    0.0087    0.0039   -0.0035
          36    0.0295    0.0211    0.0737   -0.0015    0.0022    0.0008    0.0006   -0.0005
          37    0.0304    0.0009    0.0003    0.0038   -0.0166    0.1231    0.0044    0.1537
          38   -0.0396   -0.0037    0.0006    0.0098   -0.0441    0.3459    0.0138    0.4793
          39   -0.0546    0.0001    0.0006   -0.0003    0.0018   -0.0361   -0.0007   -0.0198
          40    0.0232    0.0012    0.0032   -0.0048    0.0165   -0.1446    0.0037    0.1131
          41    0.0901    0.0021   -0.0055    0.0075   -0.0286    0.2423   -0.0070   -0.2302
          42   -0.0321    0.0012   -0.0088    0.0108   -0.0396    0.3727   -0.0113   -0.3114
          43   -0.0081   -0.0005   -0.0001    0.0006    0.0008   -0.0001   -0.0170    0.0008
          44    0.0059   -0.0003   -0.0002    0.0000   -0.0014    0.0001    0.0338   -0.0014
          45    0.0211    0.0002    0.0000   -0.0002    0.0000    0.0000    0.0043   -0.0002
          46   -0.0202   -0.0001   -0.0001   -0.0098   -0.0020    0.0004    0.0070   -0.0005
          47   -0.0384    0.0000    0.0001   -0.0129   -0.0041    0.0002    0.0060   -0.0005
          48    0.0409    0.0001    0.0001   -0.0107   -0.0016    0.0006    0.0070   -0.0006
          49    0.0256    0.0003    0.0031   -0.0193   -0.0063   -0.0001   -0.0228    0.0006
          50   -0.0182   -0.0011    0.0007   -0.0009   -0.0003    0.0000   -0.0039    0.0001
          51    0.0542   -0.0003   -0.0019    0.0039    0.0010    0.0000    0.0068   -0.0002
          52   -0.0016    0.0807    0.0027    0.0001   -0.0006    0.0000    0.0005   -0.0010
          53    0.0149   -0.1182   -0.0100   -0.0001    0.0009   -0.0002   -0.0009    0.0018
          54   -0.0142   -0.0313    0.0056    0.0000   -0.0001    0.0002    0.0003   -0.0007
          55    0.0081   -0.0883    0.0011    0.0002    0.0000   -0.0001    0.0003   -0.0001
          56   -0.0142    0.1334   -0.0007   -0.0003    0.0000    0.0002   -0.0006    0.0001
          57   -0.0171    0.0278   -0.0001    0.0001    0.0000   -0.0001    0.0002    0.0000
          58   -0.0142    0.0838   -0.0012    0.0000    0.0000    0.0000    0.0000    0.0001
          59    0.0324   -0.1153    0.0000    0.0000    0.0001    0.0000    0.0000   -0.0001
          60   -0.0236   -0.0640    0.0001   -0.0001    0.0001   -0.0001    0.0000   -0.0001


   Root No.      49        50        51        52        53        54

                49 A      50 A      51 A      52 A      53 A      54 A   

                3046.1    3070.7    3084.7    3122.9    3147.2    3177.1
  
           1   -0.0001    0.0000   -0.0001    0.0000    0.0000   -0.0001
           2    0.0001    0.0000    0.0002    0.0000    0.0000    0.0000
           3    0.0003    0.0002   -0.0003    0.0000    0.0001   -0.0001
           4   -0.0002    0.0001    0.0000   -0.0001   -0.0001    0.0000
           5   -0.0009    0.0001    0.0000   -0.0001    0.0000    0.0001
           6    0.0000    0.0000    0.0000    0.0005    0.0005    0.0000
           7    0.0000   -0.0029    0.0005    0.0002    0.0000    0.0002
           8    0.0000   -0.0007   -0.0014    0.0000    0.0000   -0.0003
           9    0.0001    0.0005   -0.0023   -0.0001    0.0000    0.0003
          10    0.0001    0.0000    0.0000    0.0000    0.0000    0.0000
          11    0.0001    0.0000    0.0000    0.0000    0.0000    0.0000
          12   -0.0002    0.0000    0.0001    0.0000    0.0000    0.0000
          13   -0.0001   -0.0490    0.0103    0.0036   -0.0001    0.0032
          14    0.0000   -0.0102   -0.0431   -0.0012    0.0001   -0.0118
          15    0.0000   -0.0036   -0.0213    0.0006   -0.0001    0.0212
          16    0.0319    0.0000    0.0000    0.0001    0.0030    0.0000
          17   -0.0572    0.0001    0.0000    0.0012   -0.0067    0.0000
          18    0.0258   -0.0002    0.0001   -0.0055    0.0080    0.0001
          19   -0.0028    0.0010   -0.0004    0.0317    0.0274   -0.0006
          20    0.0046   -0.0018    0.0008   -0.0567   -0.0307    0.0011
          21   -0.0004    0.0009   -0.0004    0.0243   -0.0534   -0.0006
          22    0.0003    0.0000    0.0000    0.0000    0.0000    0.0000
          23   -0.0003    0.0000    0.0000    0.0000    0.0000    0.0000
          24   -0.0004    0.0000    0.0000    0.0000   -0.0001    0.0000
          25   -0.0008   -0.0014   -0.0004   -0.0001   -0.0001    0.0009
          26   -0.0012   -0.0010    0.0008    0.0000   -0.0002    0.0007
          27   -0.0013   -0.0021   -0.0008    0.0001   -0.0002    0.0016
          28   -0.0006    0.0012    0.0164    0.0003   -0.0001    0.0014
          29   -0.0007    0.0032    0.0177    0.0002   -0.0001    0.0012
          30   -0.0008    0.0074    0.0228    0.0002   -0.0001    0.0025
          31    0.0010    0.0318   -0.0218   -0.0018    0.0002   -0.0033
          32    0.0002    0.0053   -0.0048   -0.0005    0.0001   -0.0010
          33   -0.0003   -0.0138    0.0063    0.0009   -0.0001    0.0020
          34    0.0044   -0.0008    0.0001    0.0003    0.0000   -0.0004
          35    0.0099   -0.0023    0.0001    0.0008    0.0005   -0.0009
          36    0.0033    0.0001   -0.0001    0.0004    0.0007    0.0001
          37   -0.0005    0.0000    0.0000    0.0000    0.0000    0.0000
          38   -0.0018    0.0001    0.0001   -0.0002    0.0001    0.0000
          39    0.0001    0.0000    0.0000    0.0000    0.0000    0.0000
          40   -0.0005    0.0001    0.0002    0.0001   -0.0001    0.0000
          41    0.0011   -0.0002   -0.0004   -0.0001    0.0001    0.0000
          42    0.0015   -0.0003   -0.0003   -0.0001    0.0001    0.0001
          43    0.0001    0.0238   -0.1870   -0.0144    0.0009   -0.1530
          44   -0.0003   -0.1046    0.3663    0.0320   -0.0018    0.3071
          45    0.0000   -0.0058    0.0041    0.0016   -0.0001    0.0216
          46    0.0000    0.1266    0.1796   -0.0104    0.0005   -0.1558
          47    0.0001    0.1748    0.1843   -0.0145    0.0006   -0.1913
          48    0.0002    0.2023    0.2230   -0.0156    0.0006   -0.2015
          49    0.0010    0.4352   -0.1151   -0.0191    0.0002    0.2709
          50    0.0001    0.0522   -0.0371   -0.0032    0.0001    0.0285
          51   -0.0004   -0.1545    0.0288    0.0075   -0.0001   -0.0797
          52   -0.3834    0.0004   -0.0002    0.0007   -0.0332    0.0000
          53    0.6705   -0.0006    0.0003   -0.0001    0.0591    0.0000
          54   -0.2415    0.0001   -0.0001   -0.0036   -0.0249    0.0001
          55   -0.0044   -0.0121    0.0052   -0.3697    0.0280    0.0076
          56    0.0084    0.0211   -0.0094    0.6559   -0.0448   -0.0135
          57   -0.0056   -0.0086    0.0038   -0.2619    0.0002    0.0053
          58    0.0375    0.0000   -0.0002   -0.0088   -0.3555   -0.0003
          59   -0.0467   -0.0002    0.0002    0.0055    0.4308    0.0005
          60   -0.0542    0.0006   -0.0001    0.0345    0.5597    0.0001


           MASS-WEIGHTED COORDINATE ANALYSIS (NORMAL COORDINATES)


   Root No.       1         2         3         4         5         6         7         8

                 1 A       2 A       3 A       4 A       5 A       6 A       7 A       8 A   

                  36.2      74.4     109.2     181.5     217.9     268.8     316.3     428.5
  
           1   -0.0602   -0.1376    0.0226   -0.0827    0.1166    0.2667    0.0737   -0.1811
           2    0.0211   -0.1534    0.0137   -0.0923   -0.0045    0.0288    0.3337   -0.0850
           3    0.0805    0.0708    0.1557    0.0323   -0.0686   -0.1264    0.1709    0.1924
           4   -0.0572   -0.1379    0.0169   -0.0817    0.1025    0.2759    0.0850   -0.1893
           5   -0.0994    0.0253   -0.0938    0.0392    0.0940   -0.0503    0.3037   -0.0352
           6   -0.0786   -0.1093    0.1396   -0.0062    0.1043    0.1373    0.1261    0.0174
           7    0.0507   -0.2662    0.0919   -0.0265    0.1944   -0.2041   -0.2924    0.0460
           8    0.0756   -0.2177    0.0404   -0.0650    0.0245   -0.2093    0.1512    0.0980
           9    0.0509   -0.0381   -0.1347   -0.0105   -0.0127   -0.2462    0.0617   -0.3102
          10    0.0304    0.1000   -0.0115    0.0038    0.0032    0.0603    0.1034    0.2235
          11    0.1164    0.0397    0.1292   -0.0590   -0.3282    0.1840   -0.1556   -0.3145
          12    0.1195    0.1454    0.2130    0.0391   -0.2245   -0.0173   -0.0817    0.1779
          13   -0.2093    0.4517    0.1831    0.2005    0.0844   -0.1778    0.0315   -0.1036
          14   -0.1105    0.0459   -0.2746   -0.1075   -0.1308    0.2646   -0.1267    0.3686
          15   -0.0376    0.0916   -0.2848   -0.0293   -0.0956   -0.0216   -0.0836   -0.2692
          16   -0.2658   -0.2110   -0.0418    0.0069   -0.2595   -0.0301   -0.1797   -0.0618
          17   -0.2325   -0.0582    0.1484    0.1222   -0.1142   -0.1871    0.1663   -0.0117
          18   -0.1064   -0.0916   -0.0756   -0.0099    0.0379    0.0431    0.0612    0.1273
          19    0.4758    0.0378   -0.2615   -0.0647   -0.2625   -0.1627    0.0670    0.0006
          20    0.2335    0.0692    0.4012    0.0812    0.1607    0.0719   -0.2038    0.0056
          21    0.0077   -0.0618   -0.0049   -0.0205    0.1094    0.1150   -0.0328    0.1444
          22    0.0273    0.1037   -0.0133    0.0027    0.0355    0.0822    0.1092    0.2362
          23   -0.0210    0.2464   -0.3759    0.0910    0.3534   -0.1428   -0.3105   -0.0871
          24   -0.0456   -0.0222    0.0281    0.0132    0.2278    0.1147   -0.1601   -0.0551
          25   -0.0574   -0.0450    0.0013   -0.0263    0.0633    0.1506    0.0660   -0.0979
          26   -0.0014   -0.0855   -0.0271   -0.0305    0.0409   -0.0296    0.1118   -0.0506
          27    0.0525    0.0578    0.0719    0.0154   -0.0732   -0.0489    0.0049    0.1042
          28    0.0790   -0.2104    0.0269   -0.0053    0.0982   -0.2024   -0.2050    0.0519
          29    0.0381   -0.0900    0.0513   -0.0316    0.0133   -0.0517    0.1001    0.0299
          30   -0.0435    0.1037   -0.0758    0.0077   -0.0385    0.0168    0.0432   -0.1164
          31    0.0353   -0.1307    0.0208   -0.0198    0.0677   -0.0776   -0.1094    0.0091
          32    0.0612   -0.1094    0.0483    0.0171    0.0377   -0.2143   -0.0310    0.1006
          33    0.0879   -0.1838   -0.0452   -0.0298    0.0375   -0.1684   -0.0795   -0.0803
          34    0.0066   -0.0719    0.0191   -0.0510    0.0495    0.1195    0.0635   -0.0961
          35   -0.0375    0.0269   -0.0377    0.0254    0.0187   -0.0379    0.0600    0.0127
          36   -0.0531   -0.0887    0.0992   -0.0075   -0.0112    0.0594    0.1084   -0.0202
          37   -0.0154    0.0696   -0.0916    0.0315    0.1245   -0.0495    0.0045    0.1405
          38    0.0452    0.0004    0.0740   -0.0279   -0.1518    0.0822   -0.0453   -0.1247
          39    0.0698    0.0920    0.1145    0.0164   -0.2021    0.0414   -0.1388   -0.0121
          40    0.0507    0.0363    0.0800   -0.0110   -0.1475    0.0371    0.0594    0.0803
          41    0.0625    0.0294    0.1023   -0.0246   -0.2259    0.1210   -0.1353   -0.1801
          42    0.0326    0.0331    0.0529    0.0112   -0.0406   -0.0413    0.0476    0.1128
          43   -0.0011    0.0629   -0.0159    0.5411   -0.0146    0.0512    0.0589   -0.0526
          44   -0.0029   -0.0196   -0.1122    0.2037   -0.0569    0.1266   -0.0125    0.0978
          45   -0.0094   -0.0074   -0.1746    0.0708   -0.0612    0.1309   -0.1247    0.0251
          46   -0.1590    0.3088    0.1345   -0.3731    0.0453   -0.1518    0.0202   -0.0510
          47   -0.0286    0.0173   -0.1664    0.2215   -0.0849    0.2169   -0.0635    0.1608
          48    0.0569   -0.1040   -0.0686    0.0904   -0.0039   -0.0500   -0.0108   -0.1057
          49   -0.0824    0.1890    0.0620    0.0618    0.0170   -0.0551    0.0375   -0.0529
          50   -0.1077    0.1025   -0.0309   -0.5301   -0.0091    0.0141   -0.1182    0.1670
          51   -0.1007    0.2220   -0.0393   -0.1898   -0.0383   -0.0382    0.0229   -0.1149
          52   -0.3102   -0.1433    0.0265    0.0456   -0.2156   -0.1103   -0.1642    0.0273
          53   -0.2142   -0.0659    0.0403    0.0611   -0.1310   -0.1323   -0.0077    0.0300
          54   -0.0685   -0.0329   -0.0900   -0.0003   -0.0430   -0.0468    0.0514    0.0594
          55    0.3779    0.0946   -0.1197   -0.0557    0.0533    0.0410    0.1595   -0.0538
          56    0.2169    0.0705    0.1209   -0.0026    0.1535    0.1094   -0.0266   -0.0306
          57    0.0374   -0.0100    0.0697   -0.0190    0.1134    0.1273   -0.1191    0.0374
          58    0.0902   -0.0095   -0.0898    0.0051   -0.2102   -0.1768   -0.0412    0.0710
          59    0.0373    0.0026    0.1767    0.0364    0.0176    0.0102   -0.2132    0.0448
          60   -0.0048   -0.0175   -0.0556   -0.0009   -0.0296   -0.0388    0.0671    0.0545


   Root No.       9        10        11        12        13        14        15        16

                 9 A      10 A      11 A      12 A      13 A      14 A      15 A      16 A   

                 457.3     495.3     633.7     775.5     825.9     891.2     923.9     929.3
  
           1    0.0690    0.0961    0.1513    0.2168    0.0145   -0.0441    0.1161    0.1479
           2   -0.2412    0.1737    0.0285    0.1061    0.0325   -0.1588    0.0152    0.0231
           3   -0.0257    0.2153   -0.1195    0.2891    0.1601   -0.0422   -0.0320    0.0307
           4   -0.0005    0.1017   -0.0459    0.0048    0.2125    0.1460    0.0174   -0.1957
           5    0.1611   -0.3011    0.1066    0.2178    0.2203    0.2213   -0.0872    0.2040
           6    0.1853    0.0753    0.0627   -0.1612    0.0173    0.0789    0.0052   -0.0823
           7    0.2578   -0.1356    0.0904    0.3104   -0.2281   -0.0397   -0.0196    0.0124
           8   -0.2019    0.1082   -0.0907   -0.1408   -0.1752    0.1630    0.0373    0.0110
           9   -0.1384   -0.0262   -0.0093   -0.0571   -0.0909    0.0902    0.0301    0.0134
          10   -0.0812   -0.0767    0.0555   -0.2024   -0.0837   -0.0070   -0.0304   -0.0120
          11   -0.0090   -0.1038    0.0633   -0.0450   -0.0167   -0.3079   -0.2605   -0.0816
          12    0.1211    0.1083   -0.0999    0.2333    0.1095    0.0865    0.1237   -0.0268
          13   -0.0110   -0.0511    0.0192    0.0560   -0.0596    0.0011   -0.0428   -0.0299
          14    0.0933    0.0665   -0.0477   -0.0574   -0.0406    0.1462    0.0510   -0.0055
          15    0.0007   -0.0766    0.0399    0.0136   -0.0164   -0.0474   -0.0357   -0.0259
          16   -0.2091    0.0102   -0.5102    0.0374    0.0466    0.1103   -0.1909   -0.1345
          17    0.4111   -0.0533   -0.0723   -0.0712   -0.0906   -0.0351   -0.1049   -0.0596
          18   -0.1093   -0.3223    0.0481   -0.0116   -0.0541   -0.0636    0.0039   -0.0664
          19    0.0481    0.1155    0.0053    0.0179    0.0379    0.0792   -0.1075    0.0840
          20   -0.1088   -0.0036    0.0360   -0.0272   -0.0522   -0.1063    0.0633   -0.1805
          21   -0.2677   -0.3497    0.0893    0.0046   -0.0561   -0.1121    0.0670   -0.1324
          22   -0.0812   -0.0634    0.0954   -0.2834   -0.1604   -0.1360   -0.1299    0.1173
          23   -0.0622    0.1419   -0.0480    0.0901    0.0474    0.0445    0.1765   -0.1750
          24    0.2079    0.4443   -0.0225   -0.3066   -0.1424   -0.0164   -0.2004    0.2981
[...]
 T-DIPOLE    0.3551        C  4 --  O  8          +12.3% ( 50.7%)    72.7%
 TRAVEL      0.0851        C  4 --  H 13          +12.2% ( 50.5%)     0.2%
 RED. MASS   1.1853        C  2 --  C  4          +10.4% ( 46.6%)    31.9%
 EFF. MASS   7.1675

 VIBRATION   34   34A       ATOM PAIR        ENERGY CONTRIBUTION    RADIAL
 FREQ.      1305.09        C  7 --  H 19          +18.7% ( 49.5%)     0.2%
 T-DIPOLE    0.1306        C  7 --  H 20          +17.4% ( 47.7%)     0.5%
 TRAVEL      0.1238        C  2 --  O  8           +8.0% ( 32.4%)    92.0%
 RED. MASS   0.3770        C  2 --  C  6           +7.9% ( 32.1%)    72.6%
 EFF. MASS   3.3703

 VIBRATION   35   35A       ATOM PAIR        ENERGY CONTRIBUTION    RADIAL
 FREQ.      1364.51        C  2 --  C  6          +12.0% ( 48.3%)    96.2%
 T-DIPOLE    0.3273        C  1 --  C  2           +8.6% ( 40.8%)     2.7%
 TRAVEL      0.0932        C  2 --  H 12           +7.0% ( 37.0%)     0.1%
 RED. MASS   0.5293        C  2 --  O  8           +6.3% ( 35.1%)    54.3%
 EFF. MASS   5.6855

 VIBRATION   36   36A       ATOM PAIR        ENERGY CONTRIBUTION    RADIAL
 FREQ.      1372.81        C  4 --  H 13          +16.6% ( 47.5%)     2.5%
 T-DIPOLE    0.2524        C  4 --  H 14          +14.4% ( 44.2%)     4.7%
 TRAVEL      0.1231        C  1 --  C  4           +6.1% ( 28.8%)     2.7%
 RED. MASS   0.2449        C  1 --  C  2           +5.9% ( 28.3%)    46.4%
 EFF. MASS   3.2430

 VIBRATION   37   37A       ATOM PAIR        ENERGY CONTRIBUTION    RADIAL
 FREQ.      1401.67        C  3 --  H 10          +15.0% ( 49.0%)     3.4%
 T-DIPOLE    0.1059        C  3 --  H 11          +14.1% ( 47.6%)     4.0%
 TRAVEL      0.1011        C  1 --  C  3           +8.9% ( 37.8%)    99.7%
 RED. MASS   0.4684        C  2 --  C  4           +7.4% ( 34.5%)    92.2%
 EFF. MASS   4.7039

 VIBRATION   38   38A       ATOM PAIR        ENERGY CONTRIBUTION    RADIAL
 FREQ.      1405.49        C  5 --  H 15          +51.2% ( 62.3%)     0.0%
 T-DIPOLE    0.0494        C  5 --  H 16          +21.2% ( 40.1%)     9.4%
 TRAVEL      0.1731        C  5 --  H 17          +19.5% ( 38.4%)    12.4%
 RED. MASS   0.4038        C  3 --  C  5           +5.0% ( 19.5%)     7.4%
 EFF. MASS   1.6004

 VIBRATION   39   39A       ATOM PAIR        ENERGY CONTRIBUTION    RADIAL
 FREQ.      1410.43        C  5 --  H 17          +38.9% ( 55.6%)     0.9%
 T-DIPOLE    0.0742        C  5 --  H 16          +36.6% ( 53.8%)     1.2%
 TRAVEL      0.1657        C  5 --  H 15          +12.0% ( 30.8%)    36.1%
 RED. MASS   0.3762        C  3 --  C  5           +6.3% ( 22.4%)    10.2%
 EFF. MASS   1.7417

 VIBRATION   40   40A       ATOM PAIR        ENERGY CONTRIBUTION    RADIAL
 FREQ.      1422.83        C  3 --  C  5          +16.0% ( 50.2%)    97.4%
 T-DIPOLE    0.0529        C  5 --  H 16          +13.1% ( 45.4%)     4.2%
 TRAVEL      0.0980        C  5 --  H 15          +12.0% ( 43.4%)     3.2%
 RED. MASS   0.6426        C  5 --  H 17          +11.9% ( 43.3%)     3.1%
 EFF. MASS   4.9318        C  3 --  H 10          +11.3% ( 42.2%)     4.8%
                           C  3 --  H 11          +10.9% ( 41.5%)     5.2%

 VIBRATION   41   41A       ATOM PAIR        ENERGY CONTRIBUTION    RADIAL
 FREQ.      1450.13        C  1 --  C  3          +13.5% ( 61.5%)    84.7%
 T-DIPOLE    0.2030        C  1 --  C  2          +11.4% ( 56.5%)    58.2%
 TRAVEL      0.0691        C  1 --  C  4           +9.5% ( 51.5%)    76.3%
 RED. MASS   1.7438        C  1 --  H  9           +8.0% ( 47.5%)     0.0%
 EFF. MASS   9.7256

 VIBRATION   42   42A       ATOM PAIR        ENERGY CONTRIBUTION    RADIAL
 FREQ.      1858.68        C  6 --  C  7          +45.2% ( 99.5%)    98.9%
 T-DIPOLE    0.0661        C  2 --  C  6          +16.6% ( 60.2%)    52.0%
 TRAVEL      0.0554        C  6 --  H 18          +15.4% ( 58.1%)     4.2%
 RED. MASS   5.3118        C  7 --  H 19          +11.0% ( 49.1%)    10.6%
 EFF. MASS  11.8105        C  7 --  H 20          +10.8% ( 48.5%)    13.2%

 VIBRATION   43   43A       ATOM PAIR        ENERGY CONTRIBUTION    RADIAL
 FREQ.      2900.95        C  2 --  H 12          +95.2% ( 99.8%)   100.0%
 T-DIPOLE    0.0686        C  1 --  C  2           +1.1% ( 10.8%)    18.4%
 TRAVEL      0.1261        C  2 --  C  4           +1.1% ( 10.7%)    29.2%
 RED. MASS   0.9222        C  2 --  C  6           +1.1% ( 10.7%)    12.6%
 EFF. MASS   1.4609

 VIBRATION   44   44A       ATOM PAIR        ENERGY CONTRIBUTION    RADIAL
 FREQ.      2949.55        C  3 --  H 10          +47.0% ( 71.2%)    96.9%
 T-DIPOLE    0.0345        C  3 --  H 11          +40.2% ( 65.8%)    95.9%
 TRAVEL      0.1219        C  1 --  H  9           +9.7% ( 32.4%)    99.9%
 RED. MASS   0.4243        C  1 --  C  3           +1.2% ( 11.4%)     1.1%
 EFF. MASS   1.5387

 VIBRATION   45   45A       ATOM PAIR        ENERGY CONTRIBUTION    RADIAL
 FREQ.      2963.55        C  1 --  H  9          +83.6% ( 93.5%)   100.0%
 T-DIPOLE    0.1761        C  3 --  H 10           +5.4% ( 23.7%)    96.9%
 TRAVEL      0.1251        C  3 --  H 11           +5.2% ( 23.3%)    96.6%
 RED. MASS   0.7190        C  1 --  C  3           +1.0% ( 10.1%)    18.6%
 EFF. MASS   1.4532

 VIBRATION   46   46A       ATOM PAIR        ENERGY CONTRIBUTION    RADIAL
 FREQ.      3002.95        C  4 --  H 14          +57.6% ( 79.0%)    97.7%
 T-DIPOLE    0.0139        C  4 --  H 13          +37.3% ( 63.5%)    95.0%
 TRAVEL      0.1195        C  1 --  H  9           +1.5% ( 12.7%)    99.8%
 RED. MASS   0.5305        C  2 --  C  4           +1.2% ( 11.4%)     0.7%
 EFF. MASS   1.5721

 VIBRATION   47   47A       ATOM PAIR        ENERGY CONTRIBUTION    RADIAL
 FREQ.      3030.76        C  3 --  H 11          +52.8% ( 71.6%)    98.1%
 T-DIPOLE    0.0497        C  3 --  H 10          +45.2% ( 66.2%)    97.2%
 TRAVEL      0.1320        C  3 --  C  5           +0.6% (  7.8%)    26.1%
 RED. MASS   0.4792        C  1 --  C  3           +0.6% (  7.7%)    29.3%
 EFF. MASS   1.2760

 VIBRATION   48   48A       ATOM PAIR        ENERGY CONTRIBUTION    RADIAL
 FREQ.      3044.21        C  4 --  H 13          +60.0% ( 77.1%)    98.2%
 T-DIPOLE    0.0379        C  4 --  H 14          +37.6% ( 61.1%)    94.9%
 TRAVEL      0.1307        C  2 --  C  4           +0.8% (  8.8%)    95.5%
 RED. MASS   0.5050        C  4 --  O  8           +0.8% (  8.7%)    36.4%
 EFF. MASS   1.2968

 VIBRATION   49   49A       ATOM PAIR        ENERGY CONTRIBUTION    RADIAL
 FREQ.      3046.10        C  6 --  H 18          +96.2% ( 99.5%)   100.0%
 T-DIPOLE    0.3531        C  6 --  C  7           +1.4% ( 12.1%)    31.1%
 TRAVEL      0.1213        C  2 --  C  6           +1.4% ( 11.8%)    14.8%
 RED. MASS   0.9120        C  7 --  H 20           +0.9% (  9.8%)    95.7%
 EFF. MASS   1.5043

 VIBRATION   50   50A       ATOM PAIR        ENERGY CONTRIBUTION    RADIAL
 FREQ.      3070.73        C  5 --  H 17          +66.2% ( 83.9%)    98.8%
 T-DIPOLE    0.0173        C  5 --  H 16          +27.8% ( 54.4%)    92.2%
 TRAVEL      0.1210        C  5 --  H 15           +4.4% ( 21.6%)    51.4%
 RED. MASS   0.5448        C  3 --  C  5           +1.0% ( 10.2%)     0.0%
 EFF. MASS   1.5002

 VIBRATION   51   51A       ATOM PAIR        ENERGY CONTRIBUTION    RADIAL
 FREQ.      3084.70        C  5 --  H 15          +55.4% ( 76.7%)    98.2%
 T-DIPOLE    0.0181        C  5 --  H 16          +37.6% ( 63.2%)    94.7%
 TRAVEL      0.1206        C  5 --  H 17           +5.6% ( 24.4%)    56.7%
 RED. MASS   0.4793        C  3 --  C  5           +1.0% ( 10.3%)     0.0%
 EFF. MASS   1.5038

 VIBRATION   52   52A       ATOM PAIR        ENERGY CONTRIBUTION    RADIAL
 FREQ.      3122.93        C  7 --  H 19          +96.7% ( 99.7%)   100.0%
 T-DIPOLE    0.2185        C  7 --  H 20           +1.6% ( 12.7%)    27.5%
 TRAVEL      0.1198        C  6 --  C  7           +1.4% ( 11.9%)    37.8%
 RED. MASS   0.9193        C  5 --  H 15           +0.2% (  4.4%)    96.5%
 EFF. MASS   1.5052

 VIBRATION   53   53A       ATOM PAIR        ENERGY CONTRIBUTION    RADIAL
 FREQ.      3147.20        C  7 --  H 20          +96.2% ( 99.2%)   100.0%
 T-DIPOLE    0.2591        C  6 --  C  7           +1.5% ( 12.5%)    55.8%
 TRAVEL      0.1194        C  7 --  H 19           +1.3% ( 11.7%)     0.9%
 RED. MASS   0.9048        C  6 --  H 18           +0.8% (  9.3%)    96.0%
 EFF. MASS   1.5021

 VIBRATION   54   54A       ATOM PAIR        ENERGY CONTRIBUTION    RADIAL
 FREQ.      3177.12        C  5 --  H 15          +39.8% ( 60.7%)    97.9%
 T-DIPOLE    0.0182        C  5 --  H 16          +33.7% ( 55.9%)    97.1%
 TRAVEL      0.1365        C  5 --  H 17          +26.2% ( 49.2%)    95.6%
 RED. MASS   0.3339        C  3 --  C  5           +0.3% (  5.2%)    97.7%
 EFF. MASS   1.1391

 SYMMETRY NUMBER FOR POINT-GROUP C1  =  1


          SYSTEM IS A GROUND STATE


    NULL



          MOLECULE IS NOT LINEAR

          THERE ARE 54 GENUINE VIBRATIONS IN THIS SYSTEM
          THIS THERMODYNAMICS CALCULATION IS LIMITED TO
          MOLECULES WHICH HAVE NO INTERNAL ROTATIONS




                    CALCULATED THERMODYNAMIC PROPERTIES
                                          *
   TEMP. (K)   PARTITION FUNCTION   H.O.F.    ENTHALPY  HEAT CAPACITY ENTROPY
                                   KCAL/MOL   CAL/MOLE    CAL/K/MOL  CAL/K/MOL


 298.00  VIB.     0.4158D+03                  3813.7183    26.4314    24.7811
         ROT.     0.3824D+06                   888.2813     2.9808    28.5247
         INT.     0.1590D+09                  4701.9996    29.4122    53.3058
         TRA.     0.1149D+28                  1480.4688     4.9680    40.0581
         TOT.                      -20.776    6182.4684    34.3802    93.3639

 200.00  VIB.     0.5040D+02                  1720.7066    16.6765    16.3934
         ROT.     0.2102D+06                   596.1620     2.9808    27.3360
         INT.     0.1060D+08                  2316.8685    19.6574    43.7294
         TRA.     0.6315D+27                   993.6033     4.9680    38.0770
         TOT.                      -23.648    3310.4718    24.6254    81.8064

 210.00  VIB.     0.6256D+02                  1891.8152    17.5505    17.2280
         ROT.     0.2262D+06                   625.9700     2.9808    27.4815
         INT.     0.1415D+08                  2517.7852    20.5313    44.7095
         TRA.     0.6794D+27                  1043.2834     4.9680    38.3194
         TOT.                      -23.397    3561.0686    25.4993    83.0289

 220.00  VIB.     0.7762D+02                  2071.8236    18.4565    18.0653
         ROT.     0.2426D+06                   655.7781     2.9808    27.6201
         INT.     0.1883D+08                  2727.6017    21.4373    45.6854
         TRA.     0.7285D+27                  1092.9636     4.9680    38.5505
         TOT.                      -23.138    3820.5653    26.4053    84.2359

 230.00  VIB.     0.9626D+02                  2261.0508    19.3941    18.9063
         ROT.     0.2593D+06                   685.5862     2.9808    27.7526
         INT.     0.2496D+08                  2946.6370    22.3749    46.6589
         TRA.     0.7788D+27                  1142.6437     4.9680    38.7713
         TOT.                      -22.869    4089.2807    27.3429    85.4302

 240.00  VIB.     0.1193D+03                  2459.8062    20.3619    19.7520
         ROT.     0.2764D+06                   715.3943     2.9808    27.8795
         INT.     0.3298D+08                  3175.2006    23.3427    47.6315
         TRA.     0.8301D+27                  1192.3239     4.9680    38.9828
         TOT.                      -22.591    4367.5245    28.3107    86.6143

 250.00  VIB.     0.1479D+03                  2668.3813    21.3576    20.6033
         ROT.     0.2938D+06                   745.2024     2.9808    28.0012
         INT.     0.4347D+08                  3413.5838    24.3384    48.6045
         TRA.     0.8825D+27                  1242.0041     4.9680    39.1856
         TOT.                      -22.303    4655.5878    29.3064    87.7901

 260.00  VIB.     0.1834D+03                  2887.0428    22.3786    21.4608
         ROT.     0.3116D+06                   775.0105     2.9808    28.1181
         INT.     0.5716D+08                  3662.0533    25.3594    49.5789
         TRA.     0.9360D+27                  1291.6842     4.9680    39.3804
         TOT.                      -22.005    4953.7375    30.3275    88.9593

 270.00  VIB.     0.2274D+03                  3116.0279    23.4218    22.3249
         ROT.     0.3298D+06                   804.8186     2.9808    28.2306
         INT.     0.7499D+08                  3920.8465    26.4026    50.5555
         TRA.     0.9905D+27                  1341.3644     4.9680    39.5679
         TOT.                      -21.696    5262.2109    31.3706    90.1234

 280.00  VIB.     0.2820D+03                  3355.5414    24.4837    23.1958
         ROT.     0.3483D+06                   834.6267     2.9808    28.3390
         INT.     0.9822D+08                  4190.1681    27.4645    51.5348
         TRA.     0.1046D+28                  1391.0445     4.9680    39.7486
         TOT.                      -21.377    5581.2126    32.4326    91.2834

 290.00  VIB.     0.3499D+03                  3605.7535    25.5609    24.0737
         ROT.     0.3671D+06                   864.4348     2.9808    28.4436
         INT.     0.1284D+09                  4470.1883    28.5418    52.5173
         TRA.     0.1103D+28                  1440.7247     4.9680    39.9229
         TOT.                      -21.047    5910.9130    33.5098    92.4403

 300.00  VIB.     0.4342D+03                  3866.7996    26.6500    24.9586
         ROT.     0.3862D+06                   894.2429     2.9808    28.5446
         INT.     0.1677D+09                  4761.0425    29.6308    53.5033
         TRA.     0.1160D+28                  1490.4049     4.9680    40.0914
         TOT.                      -20.707    6251.4474    34.5988    93.5946

 310.00  VIB.     0.5391D+03                  4138.7805    27.7474    25.8503
         ROT.     0.4057D+06                   924.0510     2.9808    28.6424
         INT.     0.2187D+09                  5062.8315    30.7282    54.4927
         TRA.     0.1219D+28                  1540.0850     4.9680    40.2543
         TOT.                      -20.355    6602.9166    35.6962    94.7470

 320.00  VIB.     0.6698D+03                  4421.7637    28.8499    26.7487
         ROT.     0.4255D+06                   953.8591     2.9808    28.7370
         INT.     0.2850D+09                  5375.6228    31.8307    55.4857
         TRA.     0.1278D+28                  1589.7652     4.9680    40.4120
         TOT.                      -19.993    6965.3880    36.7987    95.8977

 330.00  VIB.     0.8326D+03                  4715.7848    29.9544    27.6533
         ROT.     0.4456D+06                   983.6672     2.9808    28.8287
         INT.     0.3710D+09                  5699.4520    32.9353    56.4821
         TRA.     0.1338D+28                  1639.4454     4.9680    40.5649
         TOT.                      -19.619    7338.8974    37.9033    97.0470

 340.00  VIB.     0.1036D+04                  5020.8499    31.0582    28.5640
         ROT.     0.4660D+06                  1013.4753     2.9808    28.9177
         INT.     0.4826D+09                  6034.3252    34.0390    57.4817
         TRA.     0.1400D+28                  1689.1255     4.9680    40.7132
         TOT.                      -19.235    7723.4507    39.0070    98.1949

 350.00  VIB.     0.1289D+04                  5336.9377    32.1586    29.4801
         ROT.     0.4867D+06                  1043.2834     2.9808    29.0041
         INT.     0.6274D+09                  6380.2211    35.1394    58.4843
         TRA.     0.1462D+28                  1738.8057     4.9680    40.8572
         TOT.                      -18.839    8119.0268    40.1074    99.3415

 360.00  VIB.     0.1606D+04                  5664.0022    33.2532    30.4014
         ROT.     0.5077D+06                  1073.0915     2.9808    29.0881
         INT.     0.8152D+09                  6737.0937    36.2340    59.4896
         TRA.     0.1525D+28                  1788.4859     4.9680    40.9971
         TOT.                      -18.433    8525.5796    41.2020   100.4867

 370.00  VIB.     0.2001D+04                  6001.9754    34.3400    31.3274
         ROT.     0.5290D+06                  1102.8996     2.9808    29.1698
         INT.     0.1059D+10                  7104.8750    37.3208    60.4972
         TRA.     0.1589D+28                  1838.1660     4.9680    41.1333
         TOT.                      -18.015    8943.0410    42.2888   101.6304

 380.00  VIB.     0.2496D+04                  6350.7693    35.4171    32.2575
         ROT.     0.5506D+06                  1132.7077     2.9808    29.2493
         INT.     0.1374D+10                  7483.4770    38.3979    61.5068
         TRA.     0.1654D+28                  1887.8462     4.9680    41.2658
         TOT.                      -17.587    9371.3232    43.3659   102.7725

 390.00  VIB.     0.3116D+04                  6710.2791    36.4829    33.1913
         ROT.     0.5725D+06                  1162.5158     2.9808    29.3267
         INT.     0.1784D+10                  7872.7949    39.4637    62.5180
         TRA.     0.1720D+28                  1937.5263     4.9680    41.3948
         TOT.                      -17.148    9810.3212    44.4317   103.9128

 400.00  VIB.     0.3891D+04                  7080.3850    37.5361    34.1283
         ROT.     0.5947D+06                  1192.3239     2.9808    29.4022
         INT.     0.2314D+10                  8272.7089    40.5169    63.5304
         TRA.     0.1786D+28                  1987.2065     4.9680    41.5206
         TOT.                      -16.698   10259.9154    45.4849   105.0510

   *: NOTE: HEATS OF FORMATION ARE RELATIVE TO THE
            ELEMENTS IN THEIR STANDARD STATE AT 298K
              (=  Standard Enthalpy of Formation).

            Hvib:  Zero-point energy is not included.
                   frequencies of less than zero cm-1 are not included.
            Hrot = (3/2)RT
            Htra = (3/2)RT + pV = (5/2)RT

            Heat capacity is Cp, not Cv

           For more information, see: HTTP://OpenMOPAC.net/Manual/thermochemistry.html


           FORCE CONSTANT IN CARTESIAN COORDINATES (Millidynes/A)

    ATOM   CHEMICAL       X               Y               Z
   NUMBER   SYMBOL  FORCE CONSTANT  FORCE CONSTANT  FORCE CONSTANT

      1       C        7.765050        8.565001        8.236948
      2       C        8.015736        8.531880        8.490893
      3       C        8.306548        8.343899        8.483212
      4       C        7.816460        8.549563        8.568417
      5       C        8.214835        8.419472        8.238164
      6       C        4.461599        7.707247       15.011973
      7       C        4.040151        7.433587       14.981654
      8       O        6.324903        1.943872        5.126615
      9       H        1.387553        2.123541        2.760064
     10       H        1.626745        2.271044        2.490431
     11       H        4.517139        0.756139        1.091994
     12       H        1.437100        3.836381        0.658374
     13       H        1.057526        4.592693        0.709746
     14       H        1.005481        1.953012        3.379745
     15       H        1.593961        4.471715        0.726593
     16       H        1.784744        2.252246        2.736394
     17       H        4.806804        0.744696        1.172282
     18       H        1.450508        3.627579        1.159798
     19       H        1.445242        3.755620        1.195725
     20       H        1.397881        1.991832        3.082121



 TOTAL CPU TIME:             1.84 SECONDS

 == MOPAC DONE ==
