 *******************************************************************************
 ** Site#: 14399           For non-commercial use only        Version 13.159M **
 *******************************************************************************
 ** Cite this work as: MOPAC2012, James J. P. Stewart, Stewart Computational  **
 ** Chemistry, Version 13.159M web: HTTP://OpenMOPAC.net  Days remaining:   6 **
 *******************************************************************************
 **                                                                           **
 **                                MOPAC2012                                  **
 **                                                                           **
 *******************************************************************************

                            PM3 CALCULATION RESULTS


 *******************************************************************************
 *  CALCULATION DONE:                                Mon Jun  2 11:09:27 2014  *
 *  PM3      - The PM3 Hamiltonian to be used
 *  PRECISE  - CRITERIA TO BE INCREASED BY 100 TIMES
 *  NOSYM    - POINT-GROUP SYMMETRY SET TO C1
 *  T=       - A TIME OF 172800.0 SECONDS REQUESTED
 *  DUMP=N   - RESTART FILE WRITTEN EVERY  7200.000 SECONDS
 *******************************************************************************
pm3  precise nosym
 InChI=1S/C5H10/c1-2-4-5-3-1/h1-5H2

   ATOM   CHEMICAL          X               Y               Z
  NUMBER   SYMBOL      (ANGSTROMS)     (ANGSTROMS)     (ANGSTROMS)
 
     1       C         -0.90060000  *  -0.90850000  *   0.02580000  *
     2       C          0.16200000  *   1.19290000  *  -0.41880000  *
     3       C         -1.12230000  *   0.59190000  *   0.12130000  *
     4       C          0.60180000  *  -1.11850000  *   0.18640000  *
     5       C          1.25040000  *   0.25830000  *   0.08260000  *
     6       H         -1.49170000  *  -1.46270000  *   0.79110000  *
     7       H          0.14030000  *   1.18260000  *  -1.53450000  *
     8       H         -1.22460000  *  -1.26270000  *  -0.98140000  *
     9       H          0.31260000  *   2.24330000  *  -0.07830000  *
    10       H         -1.25370000  *   0.88670000  *   1.18960000  *
    11       H          0.98700000  *  -1.79980000  *  -0.60790000  *
    12       H          1.58430000  *   0.59430000  *   1.09280000  *
    13       H         -2.01840000  *   0.92710000  *  -0.45010000  *
    14       H          0.83430000  *  -1.58520000  *   1.17220000  *
    15       H          2.13870000  *   0.26030000  *  -0.59070000  *
 


          CARTESIAN COORDINATES 

    NO.       ATOM         X         Y         Z

     1         C       -0.9006   -0.9085    0.0258
     2         C        0.1620    1.1929   -0.4188
     3         C       -1.1223    0.5919    0.1213
     4         C        0.6018   -1.1185    0.1864
     5         C        1.2504    0.2583    0.0826
     6         H       -1.4917   -1.4627    0.7911
     7         H        0.1403    1.1826   -1.5345
     8         H       -1.2246   -1.2627   -0.9814
     9         H        0.3126    2.2433   -0.0783
    10         H       -1.2537    0.8867    1.1896
    11         H        0.9870   -1.7998   -0.6079
    12         H        1.5843    0.5943    1.0928
    13         H       -2.0184    0.9271   -0.4501
    14         H        0.8343   -1.5852    1.1722
    15         H        2.1387    0.2603   -0.5907

  H: (PM3): J. J. P. STEWART, J. COMP. CHEM. 10, 209 (1989).
  C: (PM3): J. J. P. STEWART, J. COMP. CHEM. 10, 209 (1989).

           Empirical Formula: C5 H10  =    15 atoms



      MOLECULAR POINT GROUP   :   C1  


      RHF CALCULATION, NO. OF DOUBLY OCCUPIED LEVELS =   15

      Geometry optimization using EF

          DIAGONAL MATRIX USED AS START HESSIAN

 CYCLE:     1 TIME:   0.004 TIME LEFT:  2.00D  GRAD.:    37.958 HEAT:-22.39445
 CYCLE:     2 TIME:   0.007 TIME LEFT:  2.00D  GRAD.:    23.040 HEAT:-22.89889
 CYCLE:     3 TIME:   0.003 TIME LEFT:  2.00D  GRAD.:    26.510 HEAT:-23.01431
 CYCLE:     4 TIME:   0.005 TIME LEFT:  2.00D  GRAD.:    13.231 HEAT:-23.20679
 CYCLE:     5 TIME:   0.003 TIME LEFT:  2.00D  GRAD.:    12.114 HEAT:-23.27387
 CYCLE:     6 TIME:   0.003 TIME LEFT:  2.00D  GRAD.:    16.428 HEAT:-23.30345
 CYCLE:     7 TIME:   0.005 TIME LEFT:  2.00D  GRAD.:     8.109 HEAT:-23.38802
 CYCLE:     8 TIME:   0.005 TIME LEFT:  2.00D  GRAD.:     6.063 HEAT:-23.41311
 CYCLE:     9 TIME:   0.005 TIME LEFT:  2.00D  GRAD.:     5.396 HEAT:-23.42611
 CYCLE:    10 TIME:   0.003 TIME LEFT:  2.00D  GRAD.:     5.498 HEAT:-23.44335
 CYCLE:    11 TIME:   0.003 TIME LEFT:  2.00D  GRAD.:     5.030 HEAT:-23.47032
 CYCLE:    12 TIME:   0.003 TIME LEFT:  2.00D  GRAD.:     7.020 HEAT:-23.51257
 CYCLE:    13 TIME:   0.003 TIME LEFT:  2.00D  GRAD.:     7.139 HEAT:-23.57266
 CYCLE:    14 TIME:   0.003 TIME LEFT:  2.00D  GRAD.:    10.372 HEAT:-23.64609
 CYCLE:    15 TIME:   0.003 TIME LEFT:  2.00D  GRAD.:    14.419 HEAT:-23.66953
 CYCLE:    16 TIME:   0.003 TIME LEFT:  2.00D  GRAD.:    16.968 HEAT:-23.69199
 CYCLE:    17 TIME:   0.003 TIME LEFT:  2.00D  GRAD.:    10.765 HEAT:-23.75487
 CYCLE:    18 TIME:   0.004 TIME LEFT:  2.00D  GRAD.:     6.624 HEAT:-23.82022
 CYCLE:    19 TIME:   0.004 TIME LEFT:  2.00D  GRAD.:     9.177 HEAT:-23.83533
 CYCLE:    20 TIME:   0.003 TIME LEFT:  2.00D  GRAD.:     5.248 HEAT:-23.88385
 CYCLE:    21 TIME:   0.003 TIME LEFT:  2.00D  GRAD.:    10.566 HEAT:-23.89281
 CYCLE:    22 TIME:   0.003 TIME LEFT:  2.00D  GRAD.:     3.147 HEAT:-23.93502
 CYCLE:    23 TIME:   0.003 TIME LEFT:  2.00D  GRAD.:     2.413 HEAT:-23.94135
 CYCLE:    24 TIME:   0.003 TIME LEFT:  2.00D  GRAD.:     1.937 HEAT:-23.94707
 CYCLE:    25 TIME:   0.003 TIME LEFT:  2.00D  GRAD.:     1.379 HEAT:-23.95086
 CYCLE:    26 TIME:   0.003 TIME LEFT:  2.00D  GRAD.:     0.828 HEAT:-23.95334
 CYCLE:    27 TIME:   0.003 TIME LEFT:  2.00D  GRAD.:     0.537 HEAT:-23.95456
 CYCLE:    28 TIME:   0.003 TIME LEFT:  2.00D  GRAD.:     0.453 HEAT:-23.95498
 CYCLE:    29 TIME:   0.003 TIME LEFT:  2.00D  GRAD.:     0.304 HEAT:-23.95535
 CYCLE:    30 TIME:   0.003 TIME LEFT:  2.00D  GRAD.:     0.163 HEAT:-23.95549
 CYCLE:    31 TIME:   0.003 TIME LEFT:  2.00D  GRAD.:     0.106 HEAT:-23.95552
 CYCLE:    32 TIME:   0.003 TIME LEFT:  2.00D  GRAD.:     0.075 HEAT:-23.95554
 CYCLE:    33 TIME:   0.003 TIME LEFT:  2.00D  GRAD.:     0.066 HEAT:-23.95555
 CYCLE:    34 TIME:   0.003 TIME LEFT:  2.00D  GRAD.:     0.060 HEAT:-23.95556
 CYCLE:    35 TIME:   0.003 TIME LEFT:  2.00D  GRAD.:     0.028 HEAT:-23.95556

     RMS GRADIENT =  0.02785  IS LESS THAN CUTOFF =  0.05000



 -------------------------------------------------------------------------------
pm3  precise nosym
 InChI=1S/C5H10/c1-2-4-5-3-1/h1-5H2



     GEOMETRY OPTIMISED USING EIGENVECTOR FOLLOWING (EF).     
     SCF FIELD WAS ACHIEVED                                   


                              PM3 CALCULATION
                                                       MOPAC2012 (Version: 13.159M)
                                                       Mon Jun  2 11:09:27 2014
                                                       No. of days left =   6




          FINAL HEAT OF FORMATION =        -23.95556 KCAL/MOL =    -100.23006 KJ/MOL


          TOTAL ENERGY            =       -747.56768 EV
          ELECTRONIC ENERGY       =      -3188.54678 EV  POINT GROUP:     C1  
          CORE-CORE REPULSION     =       2440.97910 EV
          COSMO AREA              =        119.73 SQUARE ANGSTROMS
          COSMO VOLUME            =        108.03 CUBIC ANGSTROMS

          GRADIENT NORM           =          0.02785
          IONIZATION POTENTIAL    =         11.074921 EV
          HOMO LUMO ENERGIES (EV) =        -11.075  3.507
          NO. OF FILLED LEVELS    =         15
          MOLECULAR WEIGHT        =         70.134

          MOLECULAR DIMENSIONS (Angstroms)

            Atom       Atom       Distance
            H    15    H     6     4.20905
            H    14    H    13     4.08459
            H     9    H     8     3.09652


          SCF CALCULATIONS        =         42
          COMPUTATION TIME        =          0.118 SECONDS




   ATOM   CHEMICAL          X               Y               Z
  NUMBER   SYMBOL      (ANGSTROMS)     (ANGSTROMS)     (ANGSTROMS)
 
     1       C         -0.90333914  *  -0.91941918  *   0.06399448  *
     2       C          0.17189574  *   1.22635198  *  -0.35916328  *
     3       C         -1.14700637  *   0.58615012  *   0.05678824  *
     4       C          0.60538910  *  -1.12520901  *   0.18725185  *
     5       C          1.26603000  *   0.24526046  *   0.04887409  *
     6       H         -1.45141947  *  -1.41376356  *   0.88632074  *
     7       H          0.19238847  *   1.40287684  *  -1.45117969  *
     8       H         -1.28575124  *  -1.38187854  *  -0.86523022  *
     9       H          0.31292645  *   2.21858422  *   0.10548830  *
    10       H         -1.45147585  *   0.93767515  *   1.06068256  *
    11       H          0.97214723  *  -1.82543675  *  -0.58568801  *
    12       H          1.73046584  *   0.55283170  *   1.00452415  *
    13       H         -1.97326350  *   0.86730777  *  -0.62038814  *
    14       H          0.86715829  *  -1.59315361  *   1.15408673  *
    15       H          2.08986111  *   0.22909439  *  -0.68735391  *

           Empirical Formula: C5 H10  =    15 atoms



      MOLECULAR POINT GROUP   :   C1  


                  EIGENVALUES  
 -40.22191 -28.59077 -28.59069 -19.93624 -19.72314 -16.98432 -16.81281 -14.22642
 -14.21697 -12.77305 -12.73931 -12.51441 -12.51336 -11.17766 -11.07492   3.50707
   3.74748   3.77169   3.87746   3.87758   4.03643   4.19283   4.19356   4.36800
   4.36816   5.06148   5.15249   5.22893   5.24320   5.24604


              NET ATOMIC CHARGES AND DIPOLE CONTRIBUTIONS

  ATOM NO.   TYPE          CHARGE      No. of ELECS.   s-Pop       p-Pop       
    1          C          -0.095112        4.0951     1.16310     2.93201
    2          C          -0.095483        4.0955     1.16259     2.93289
    3          C          -0.095493        4.0955     1.16260     2.93290
    4          C          -0.094917        4.0949     1.16342     2.93150
    5          C          -0.095109        4.0951     1.16310     2.93201
    6          H           0.048241        0.9518     0.95176
    7          H           0.047078        0.9529     0.95292
    8          H           0.046537        0.9535     0.95346
    9          H           0.049288        0.9507     0.95071
   10          H           0.047068        0.9529     0.95293
   11          H           0.046910        0.9531     0.95309
   12          H           0.046530        0.9535     0.95347
   13          H           0.049294        0.9507     0.95071
   14          H           0.046911        0.9531     0.95309
   15          H           0.048257        0.9517     0.95174
 DIPOLE           X         Y         Z       TOTAL
 POINT-CHG.    -0.010     0.019    -0.003     0.022
 HYBRID         0.006    -0.012     0.002     0.013
 SUM           -0.004     0.008    -0.001     0.009


          ATOMIC ORBITAL ELECTRON POPULATIONS

    Atom      s        px        py        pz   
    1  C   1.16310   0.95855   0.96013   1.01334
    2  C   1.16259   0.95031   0.97604   1.00654
    3  C   1.16260   0.96829   0.95406   1.01055
    4  C   1.16342   0.95300   0.96587   1.01262
    5  C   1.16310   0.97045   0.95163   1.00993
    6  H   0.95176
    7  H   0.95292
    8  H   0.95346
    9  H   0.95071
   10  H   0.95293
   11  H   0.95309
   12  H   0.95347
   13  H   0.95071
   14  H   0.95309
   15  H   0.95174
 *******************************************************************************
 ** Site#: 14399           For non-commercial use only        Version 13.159M **
 *******************************************************************************
 ** Cite this work as: MOPAC2012, James J. P. Stewart, Stewart Computational  **
 ** Chemistry, Version 13.159M web: HTTP://OpenMOPAC.net  Days remaining:   6 **
 *******************************************************************************
 **                                                                           **
 **                                MOPAC2012                                  **
 **                                                                           **
 *******************************************************************************

                            PM3 CALCULATION RESULTS


 *******************************************************************************
 *  CALCULATION DONE:                                Mon Jun  2 11:09:27 2014  *
 *  PM3      - The PM3 Hamiltonian to be used
 *  OLDGEO   - PREVIOUS GEOMETRY TO BE USED
 *  PRECISE  - CRITERIA TO BE INCREASED BY 100 TIMES
 *  NOSYM    - POINT-GROUP SYMMETRY SET TO C1
 *  T=       - A TIME OF 172800.0 SECONDS REQUESTED
 *  DUMP=N   - RESTART FILE WRITTEN EVERY  7200.000 SECONDS
 *  THERMO   - THERMODYNAMIC QUANTITIES TO BE CALCULATED
 *******************************************************************************
oldgeo thermo nosym precise  pm3

   ATOM   CHEMICAL          X               Y               Z
  NUMBER   SYMBOL      (ANGSTROMS)     (ANGSTROMS)     (ANGSTROMS)
 
     1       C         -0.90333914  *  -0.91941918  *   0.06399448  *
     2       C          0.17189574  *   1.22635198  *  -0.35916328  *
     3       C         -1.14700637  *   0.58615012  *   0.05678824  *
     4       C          0.60538910  *  -1.12520901  *   0.18725185  *
     5       C          1.26603000  *   0.24526046  *   0.04887409  *
     6       H         -1.45141947  *  -1.41376356  *   0.88632074  *
     7       H          0.19238847  *   1.40287684  *  -1.45117969  *
     8       H         -1.28575124  *  -1.38187854  *  -0.86523022  *
     9       H          0.31292645  *   2.21858422  *   0.10548830  *
    10       H         -1.45147585  *   0.93767515  *   1.06068256  *
    11       H          0.97214723  *  -1.82543675  *  -0.58568801  *
    12       H          1.73046584  *   0.55283170  *   1.00452415  *
    13       H         -1.97326350  *   0.86730777  *  -0.62038814  *
    14       H          0.86715829  *  -1.59315361  *   1.15408673  *
    15       H          2.08986111  *   0.22909439  *  -0.68735391  *
 


          CARTESIAN COORDINATES 

    NO.       ATOM         X         Y         Z

     1         C       -0.9033   -0.9194    0.0640
     2         C        0.1719    1.2264   -0.3592
     3         C       -1.1470    0.5862    0.0568
     4         C        0.6054   -1.1252    0.1873
     5         C        1.2660    0.2453    0.0489
     6         H       -1.4514   -1.4138    0.8863
     7         H        0.1924    1.4029   -1.4512
     8         H       -1.2858   -1.3819   -0.8652
     9         H        0.3129    2.2186    0.1055
    10         H       -1.4515    0.9377    1.0607
    11         H        0.9721   -1.8254   -0.5857
    12         H        1.7305    0.5528    1.0045
    13         H       -1.9733    0.8673   -0.6204
    14         H        0.8672   -1.5932    1.1541
    15         H        2.0899    0.2291   -0.6874

  H: (PM3): J. J. P. STEWART, J. COMP. CHEM. 10, 209 (1989).
  C: (PM3): J. J. P. STEWART, J. COMP. CHEM. 10, 209 (1989).

           Empirical Formula: C5 H10  =    15 atoms



      MOLECULAR POINT GROUP   :   C1  


      RHF CALCULATION, NO. OF DOUBLY OCCUPIED LEVELS =   15



          HEAT OF FORMATION =     -23.955559 KCALS/MOLE


          INTERNAL COORDINATE DERIVATIVES

   NUMBER  ATOM       BOND         ANGLE      DIHEDRAL

     1       C      0.001446     0.006593    -0.002656
     2       C      0.009775     0.003332    -0.005985
     3       C      0.000425     0.002763    -0.000487
     4       C      0.000151     0.001443     0.001634
     5       C      0.004507     0.001283    -0.000641
     6       H      0.001769    -0.001298     0.000445
     7       H      0.003284    -0.000722     0.004796
     8       H      0.000063     0.006035     0.002679
     9       H     -0.009453    -0.002286    -0.001673
    10       H     -0.003925    -0.010469    -0.001624
    11       H      0.000436     0.000781     0.003043
    12       H     -0.006618    -0.000773    -0.005329
    13       H     -0.006976    -0.005398     0.002966
    14       H      0.001793     0.003692    -0.001037
    15       H      0.003324    -0.004979     0.003868


          GRADIENT NORM =   0.02786


          TIME FOR SCF CALCULATION =    0.00

          TIME FOR DERIVATIVES     =    0.00

          MOLECULAR WEIGHT =   70.13



          ROTATIONAL CONSTANTS IN CM(-1)

          A =    0.21738717   B =    0.21738002   C =    0.12265967



           PRINCIPAL MOMENTS OF INERTIA IN UNITS OF 10**(-40)*GRAM-CM**2

          A =      128.7692   B =      128.7734   C =      228.2150


          ORIENTATION OF MOLECULE IN FORCE CALCULATION

    NO.       ATOM         X         Y         Z

     1          C      -1.2206    0.3495   -0.2352
     2          C       1.2165    0.3495   -0.2352
     3          C      -0.0013    1.2657   -0.2352
     4          C      -0.7576   -1.0072    0.2929
     5          C       0.7646   -0.9555    0.4121
     6          H      -2.0405    0.7676    0.3764
     7          H       1.5706    0.1715   -1.2682
     8          H      -1.6352    0.2503   -1.2559
     9          H       2.0717    0.8008    0.2990
    10          H      -0.0004    1.9153    0.6604
    11          H      -1.0781   -1.8228   -0.3812
    12          H       1.0743   -0.9934    1.4733
    13          H      -0.0007    1.9520   -1.1008
    14          H      -1.2220   -1.2353    1.2699
    15          H       1.2416   -1.8303   -0.0655


    FIRST DERIVATIVES WILL BE USED IN THE CALCULATION OF SECOND DERIVATIVES

          ESTIMATED TIME TO COMPLETE CALCULATION =        0.62 SECONDS

    FOR POINT-GROUP C1   THERE ARE   1 UNIQUE SYMMETRY FUNCTIONS.

 STEP:   1 TIME =     0.01 SECS, INTEGRAL =      0.01 TIME LEFT: 172799.98
 STEP:   2 TIME =     0.01 SECS, INTEGRAL =      0.02 TIME LEFT: 172799.97
 STEP:   3 TIME =     0.01 SECS, INTEGRAL =      0.04 TIME LEFT: 172799.96
 STEP:   4 TIME =     0.01 SECS, INTEGRAL =      0.05 TIME LEFT: 172799.95
 STEP:   5 TIME =     0.01 SECS, INTEGRAL =      0.06 TIME LEFT: 172799.94
 STEP:   6 TIME =     0.01 SECS, INTEGRAL =      0.07 TIME LEFT: 172799.93
 STEP:   7 TIME =     0.01 SECS, INTEGRAL =      0.08 TIME LEFT: 172799.92
 STEP:   8 TIME =     0.01 SECS, INTEGRAL =      0.09 TIME LEFT: 172799.90
 STEP:   9 TIME =     0.01 SECS, INTEGRAL =      0.10 TIME LEFT: 172799.89
 STEP:  10 TIME =     0.01 SECS, INTEGRAL =      0.11 TIME LEFT: 172799.88
 STEP:  11 TIME =     0.01 SECS, INTEGRAL =      0.13 TIME LEFT: 172799.87
 STEP:  12 TIME =     0.01 SECS, INTEGRAL =      0.14 TIME LEFT: 172799.86
 STEP:  13 TIME =     0.01 SECS, INTEGRAL =      0.15 TIME LEFT: 172799.85
 STEP:  14 TIME =     0.01 SECS, INTEGRAL =      0.16 TIME LEFT: 172799.84
 STEP:  15 TIME =     0.02 SECS, INTEGRAL =      0.18 TIME LEFT: 172799.81
 STEP:  16 TIME =     0.03 SECS, INTEGRAL =      0.22 TIME LEFT: 172799.78
 STEP:  17 TIME =     0.01 SECS, INTEGRAL =      0.23 TIME LEFT: 172799.77
 STEP:  18 TIME =     0.01 SECS, INTEGRAL =      0.24 TIME LEFT: 172799.75
 STEP:  19 TIME =     0.01 SECS, INTEGRAL =      0.26 TIME LEFT: 172799.74
 STEP:  20 TIME =     0.01 SECS, INTEGRAL =      0.27 TIME LEFT: 172799.73
 STEP:  21 TIME =     0.01 SECS, INTEGRAL =      0.28 TIME LEFT: 172799.72
 STEP:  22 TIME =     0.01 SECS, INTEGRAL =      0.29 TIME LEFT: 172799.71
 STEP:  23 TIME =     0.01 SECS, INTEGRAL =      0.30 TIME LEFT: 172799.69
 STEP:  24 TIME =     0.01 SECS, INTEGRAL =      0.31 TIME LEFT: 172799.68
 STEP:  25 TIME =     0.01 SECS, INTEGRAL =      0.33 TIME LEFT: 172799.67
 STEP:  26 TIME =     0.01 SECS, INTEGRAL =      0.34 TIME LEFT: 172799.66
 STEP:  27 TIME =     0.01 SECS, INTEGRAL =      0.35 TIME LEFT: 172799.65
 STEP:  28 TIME =     0.01 SECS, INTEGRAL =      0.36 TIME LEFT: 172799.64
 STEP:  29 TIME =     0.01 SECS, INTEGRAL =      0.37 TIME LEFT: 172799.62
 STEP:  30 TIME =     0.01 SECS, INTEGRAL =      0.38 TIME LEFT: 172799.61
 STEP:  31 TIME =     0.01 SECS, INTEGRAL =      0.39 TIME LEFT: 172799.60
 STEP:  32 TIME =     0.01 SECS, INTEGRAL =      0.41 TIME LEFT: 172799.59
 STEP:  33 TIME =     0.01 SECS, INTEGRAL =      0.42 TIME LEFT: 172799.58
 STEP:  34 TIME =     0.01 SECS, INTEGRAL =      0.43 TIME LEFT: 172799.57
 STEP:  35 TIME =     0.01 SECS, INTEGRAL =      0.44 TIME LEFT: 172799.56
 STEP:  36 TIME =     0.01 SECS, INTEGRAL =      0.45 TIME LEFT: 172799.54
 STEP:  37 TIME =     0.01 SECS, INTEGRAL =      0.46 TIME LEFT: 172799.53
 STEP:  38 TIME =     0.01 SECS, INTEGRAL =      0.48 TIME LEFT: 172799.52
 STEP:  39 TIME =     0.01 SECS, INTEGRAL =      0.49 TIME LEFT: 172799.51
 STEP:  40 TIME =     0.01 SECS, INTEGRAL =      0.50 TIME LEFT: 172799.50
 STEP:  41 TIME =     0.01 SECS, INTEGRAL =      0.51 TIME LEFT: 172799.49
 STEP:  42 TIME =     0.01 SECS, INTEGRAL =      0.52 TIME LEFT: 172799.47
 STEP:  43 TIME =     0.01 SECS, INTEGRAL =      0.53 TIME LEFT: 172799.46
 STEP:  44 TIME =     0.01 SECS, INTEGRAL =      0.54 TIME LEFT: 172799.45
 STEP:  45 TIME =     0.01 SECS, INTEGRAL =      0.56 TIME LEFT: 172799.44

(To convert to Hartree/Bohr^2, multiply by (10^(-21) x N x a0^2)/(4.184 x 627.51) = 0.0642)


           FORCE MATRIX IN MILLIDYNES/ANGSTROM


                  C  1       C  2       C  3       C  4       C  5       H  6
 ------------------------------------------------------------------------------
     C    1  14.384613
     C    2   0.787376  14.458545
     C    3   4.052583   4.086917  14.457895
     C    4   3.984634   0.754395   0.754336  14.335294
     C    5   0.734863   4.052820   0.787874   3.985259  14.389370
     H    6   4.557181   0.039940   0.439037   0.438196   0.030561   5.169717
     H    7   0.012041   4.515111   0.443750   0.013166   0.442352   0.001052
     H    8   4.523652   0.013134   0.443282   0.440448   0.020603   0.587903
     H    9   0.042034   4.564273   0.438384   0.038800   0.437888   0.004670
     H   10   0.442439   0.443771   4.514132   0.013079   0.012074   0.031645
     H   11   0.439344   0.020082   0.031881   4.541608   0.440479   0.022727
     H   12   0.020715   0.443235   0.013184   0.440267   4.523985   0.001395
     H   13   0.438214   0.439258   4.564278   0.038935   0.042198   0.016883
     H   14   0.440765   0.031804   0.019976   4.542353   0.439538   0.028834
     H   15   0.030692   0.439052   0.039938   0.437972   4.557615   0.003184


                  H  7       H  8       H  9       H 10       H 11       H 12
 ------------------------------------------------------------------------------
     H    7   5.121887
     H    8   0.001309   5.126459
     H    9   0.581914   0.001383   5.183009
     H   10   0.041017   0.038793   0.032868   5.120983
     H   11   0.000938   0.026980   0.002474   0.001126   5.146045
     H   12   0.038749   0.001246   0.031862   0.001358   0.031797   5.126603
     H   13   0.032599   0.031606   0.015477   0.582464   0.003250   0.001388
     H   14   0.001154   0.031805   0.003246   0.001007   0.591772   0.026937
     H   15   0.031803   0.001388   0.016785   0.001068   0.028817   0.587990


                  H 13       H 14       H 15
 ------------------------------------------
     H   13   5.182749
     H   14   0.002474   5.146601
     H   15   0.004701   0.022619   5.169894


          HEAT OF FORMATION =     -23.955559 KCALS/MOLE

          ZERO POINT ENERGY      86.646 KCAL/MOL


           NORMAL COORDINATE ANALYSIS (Total motion = 1 Angstrom)


   Root No.       1         2         3         4         5         6         7         8

                 1 A       2 A       3 A       4 A       5 A       6 A       7 A       8 A   

                  56.8     154.0     621.4     650.8     769.4     812.3     821.8     984.6
  
           1    0.0052    0.0068    0.0368   -0.0531    0.0127   -0.0122    0.0179   -0.0173
           2   -0.0104   -0.0045    0.0072    0.0325   -0.0002    0.0125    0.0075   -0.0015
           3   -0.0324   -0.0249    0.0023   -0.0244   -0.0125    0.0194    0.0012   -0.0189
           4    0.0007   -0.0094   -0.0543   -0.0133   -0.0178   -0.0012   -0.0249   -0.0076
           5    0.0089   -0.0123   -0.0078   -0.0317   -0.0034   -0.0144   -0.0084   -0.0092
           6    0.0112   -0.0389    0.0142    0.0172    0.0041   -0.0094   -0.0209    0.0129
           7   -0.0049    0.0020   -0.0064   -0.0291   -0.0016   -0.0102   -0.0061    0.0113
           8    0.0014    0.0025    0.0559   -0.0260    0.0183   -0.0011    0.0172    0.0104
           9    0.0129    0.0418   -0.0044   -0.0006   -0.0021    0.0145   -0.0282    0.0029
          10   -0.0047    0.0009    0.0185    0.0445    0.0099    0.0095    0.0089    0.0077
          11    0.0151    0.0013   -0.0128    0.0595   -0.0129    0.0129   -0.0006   -0.0022
          12    0.0395   -0.0002    0.0020   -0.0173   -0.0195   -0.0038    0.0199    0.0255
          13    0.0026    0.0004    0.0062    0.0527    0.0010    0.0101   -0.0006   -0.0051
          14   -0.0141    0.0139   -0.0345   -0.0321   -0.0162   -0.0151   -0.0180    0.0083
          15   -0.0315    0.0218    0.0148    0.0243   -0.0081   -0.0188    0.0081   -0.0241
          16   -0.0393   -0.0316   -0.0034   -0.0314    0.0704   -0.0966    0.0305    0.0209
          17   -0.0022   -0.0134   -0.0215    0.0148   -0.0308   -0.0076    0.0308    0.0350
          18   -0.0981   -0.0712   -0.0356    0.0211    0.0901   -0.0845    0.0018    0.0080
          19    0.0211   -0.0988   -0.1485   -0.0440   -0.0008    0.0597    0.1187   -0.0513
          20    0.0402   -0.0415   -0.0444   -0.0557    0.0184    0.0471    0.0287    0.0563
          21    0.0128   -0.0645   -0.0138    0.0102    0.0075    0.0030    0.0265   -0.0145
          22    0.0727    0.0676    0.0908   -0.1139   -0.0808    0.1069    0.0029   -0.0825
          23   -0.0498   -0.0096   -0.0147    0.0469    0.0621   -0.0239   -0.0331   -0.0502
          24   -0.0561   -0.0491   -0.0186   -0.0007    0.0227   -0.0290    0.0119    0.0142
          25   -0.0125    0.0421   -0.0019   -0.0148   -0.0286   -0.0369   -0.1138    0.0420
          26    0.0020   -0.0204   -0.0271    0.0186   -0.0181   -0.0274    0.0165   -0.1249
          27    0.0383   -0.1157   -0.0599   -0.0252    0.0345    0.0621    0.1063    0.0314
          28   -0.0268    0.0104   -0.0107   -0.0395   -0.0149    0.0226    0.0191   -0.0734
          29   -0.0226   -0.0767    0.1386   -0.0574    0.0001    0.0658   -0.1034    0.0174
          30    0.0304    0.0994   -0.0668    0.0229    0.0125   -0.0366    0.0645   -0.0029
          31   -0.0592    0.0155    0.0209    0.0620   -0.0842   -0.0269    0.0431    0.0784
          32   -0.0259   -0.0079    0.0109    0.0565   -0.0783    0.0396    0.0405    0.0080
          33    0.1155    0.0044   -0.0292   -0.0196    0.1107   -0.0181   -0.0490   -0.0227
          34    0.0535   -0.0164    0.0380    0.0782   -0.0758   -0.0472    0.0330    0.0168
          35   -0.0768    0.0765   -0.0878   -0.0925    0.0694    0.1022    0.0103    0.0931
          36   -0.0487    0.0289    0.0025    0.0144    0.0205    0.0055    0.0000   -0.0256
          37    0.0045   -0.0012    0.0089    0.0283    0.0164   -0.0290   -0.0240    0.1538
          38    0.0239    0.0756   -0.0133   -0.0012    0.0414   -0.0645    0.1367    0.0048
          39    0.0309    0.1005   -0.0632    0.0206    0.0166   -0.0379    0.0701   -0.0012
          40    0.0356   -0.0128   -0.0108    0.0374    0.0743    0.0493   -0.0349    0.0210
          41    0.1001    0.0120   -0.0306    0.0756    0.1325   -0.0098   -0.0653   -0.0952
          42    0.0788   -0.0044   -0.0171   -0.0186    0.0494    0.0094   -0.0180    0.0084
          43   -0.0365    0.0162    0.0091    0.0175    0.0741    0.0453   -0.0168    0.0056
          44    0.0018   -0.0066   -0.0050   -0.0325   -0.0266   -0.0592   -0.0351   -0.0125
          45   -0.1002    0.0762   -0.0410   -0.0155    0.0896    0.1031    0.0228    0.0257


   Root No.       9        10        11        12        13        14        15        16

                 9 A      10 A      11 A      12 A      13 A      14 A      15 A      16 A   

                 987.0    1004.8    1005.5    1045.3    1062.8    1110.9    1111.3    1135.6
  
           1   -0.0074    0.0038   -0.0299   -0.0472    0.0033   -0.0048   -0.0027   -0.0004
           2    0.0201    0.0133    0.0091    0.0128   -0.0013    0.0041   -0.0012   -0.0050
           3    0.0090   -0.0144    0.0080   -0.0091    0.0004   -0.0049    0.0203   -0.0291
           4   -0.0090   -0.0258   -0.0156    0.0487    0.0015   -0.0017    0.0026   -0.0003
           5    0.0123   -0.0008   -0.0196    0.0133    0.0007    0.0026    0.0026    0.0025
           6    0.0176   -0.0152   -0.0013   -0.0094   -0.0003    0.0126   -0.0097    0.0126
           7    0.0069    0.0073    0.0154   -0.0007    0.0003    0.0006    0.0040    0.0011
           8   -0.0146   -0.0227    0.0122    0.0505    0.0016    0.0056    0.0061    0.0034
           9   -0.0185    0.0231   -0.0065   -0.0090   -0.0005    0.0121    0.0064    0.0107
          10   -0.0173   -0.0178    0.0130   -0.0286   -0.0025    0.0084    0.0049   -0.0002
          11   -0.0214   -0.0188   -0.0176   -0.0379   -0.0032   -0.0112    0.0068    0.0103
          12    0.0037    0.0073   -0.0088    0.0111    0.0010   -0.0176   -0.0018    0.0340
          13    0.0200    0.0184   -0.0105    0.0290   -0.0023   -0.0069   -0.0053   -0.0035
          14   -0.0080    0.0033    0.0298   -0.0373    0.0025    0.0015   -0.0098   -0.0091
          15   -0.0084    0.0067    0.0042    0.0159   -0.0006   -0.0047   -0.0164   -0.0291
          16   -0.0010    0.0381   -0.0836   -0.0798   -0.0281    0.0436   -0.0246    0.0252
          17    0.1364    0.0544   -0.0553   -0.0270   -0.1050    0.1437    0.0013   -0.0532
          18   -0.0636    0.0041   -0.0239   -0.0225    0.0286   -0.0365   -0.0096    0.0376
          19   -0.0544    0.0241    0.0539    0.0445    0.0270    0.0005    0.0328    0.0080
          20   -0.0332    0.0767   -0.0859    0.0273   -0.0745   -0.0708   -0.0557   -0.1115
          21    0.0079   -0.0110    0.0338   -0.0135    0.0212    0.0274    0.0099    0.0352
          22    0.0279    0.0047    0.0372   -0.0424    0.0286   -0.0356    0.0058   -0.0423
          23   -0.0343    0.1184    0.0322    0.0499    0.0757   -0.0902   -0.0925    0.0763
          24   -0.0010   -0.0241   -0.0213   -0.0155   -0.0169    0.0169    0.0273   -0.0201
          25   -0.0049   -0.0809   -0.0290    0.0779   -0.0368   -0.0123   -0.0408   -0.0113
          26    0.0872    0.0537   -0.0425   -0.0075    0.1154    0.0643    0.1115    0.0790
          27   -0.0531    0.0313    0.0429   -0.0348   -0.0355   -0.0219   -0.0334   -0.0342
          28   -0.0016    0.0352    0.1193    0.0138   -0.0816    0.0696   -0.0677    0.1155
          29   -0.0640    0.0449   -0.0077    0.0519    0.0007    0.0249    0.0130    0.0248
          30    0.0199   -0.0263    0.0075   -0.0097    0.0004   -0.0004    0.0023   -0.0048
          31   -0.0956    0.0431    0.0522    0.0003   -0.0776    0.0345    0.1236    0.0681
          32    0.0221   -0.0521   -0.0812   -0.0714    0.0434   -0.0612   -0.0726    0.0314
          33   -0.0105    0.0202    0.0511    0.0357   -0.0205    0.0287    0.0369   -0.0238
          34   -0.0437    0.1146    0.0073    0.0629    0.0639    0.0732   -0.0953   -0.0872
          35    0.0003    0.0477   -0.0361   -0.0219    0.0469    0.0570   -0.0268    0.0193
          36    0.0110   -0.0206   -0.0034    0.0074   -0.0187   -0.0260    0.0077   -0.0039
          37    0.0636    0.0509    0.0581   -0.0223    0.1259   -0.0626    0.1267   -0.0839
          38    0.0316   -0.0841    0.0295    0.0809    0.0039   -0.0105   -0.0010   -0.0169
          39    0.0185   -0.0287    0.0085    0.0129    0.0012   -0.0003    0.0016   -0.0053
          40    0.0482   -0.0924    0.0824   -0.0752    0.0690    0.0702   -0.1172   -0.0180
          41   -0.0595    0.0246   -0.0074   -0.0279   -0.0540   -0.0054    0.0854   -0.0734
          42    0.0254   -0.0193    0.0272   -0.0071    0.0236    0.0119   -0.0408    0.0062
          43    0.1426    0.0302    0.0300    0.0063   -0.0935   -0.1278    0.0155    0.0648
          44    0.0523    0.0221    0.0893   -0.0712   -0.0569   -0.0841   -0.0155   -0.0009
          45    0.0056   -0.0155   -0.0693    0.0515    0.0181    0.0298    0.0133    0.0233


   Root No.      17        18        19        20        21        22        23        24

                17 A      18 A      19 A      20 A      21 A      22 A      23 A      24 A   

                1141.9    1145.1    1148.1    1269.6    1300.4    1310.3    1329.7    1329.7
  
           1    0.0072   -0.0147    0.0013   -0.0064    0.0066   -0.0226    0.0164   -0.0055
           2    0.0086   -0.0133    0.0216   -0.0211    0.0529   -0.0336    0.0311    0.0183
           3    0.0223    0.0009   -0.0019    0.0037   -0.0138    0.0099   -0.0065   -0.0045
           4   -0.0025   -0.0161    0.0082   -0.0070    0.0086   -0.0216   -0.0143   -0.0121
           5    0.0020    0.0274    0.0101    0.0215    0.0217    0.0524    0.0378   -0.0062
           6    0.0358    0.0089   -0.0107   -0.0058   -0.0038   -0.0169   -0.0108    0.0018
           7   -0.0067    0.0282   -0.0077   -0.0234   -0.0188    0.0591   -0.0061    0.0412
           8   -0.0143   -0.0110   -0.0144   -0.0001   -0.0137   -0.0028   -0.0128   -0.0025
           9   -0.0326   -0.0132   -0.0054    0.0005    0.0064    0.0025    0.0037    0.0005
          10   -0.0006    0.0062    0.0205    0.0174    0.0570    0.0088   -0.0269    0.0151
          11   -0.0005    0.0098   -0.0118   -0.0110   -0.0384    0.0108    0.0083   -0.0200
          12   -0.0007   -0.0035    0.0108    0.0070    0.0159   -0.0031   -0.0059    0.0089
          13    0.0003   -0.0061   -0.0203    0.0181   -0.0492   -0.0268    0.0171    0.0269
          14    0.0011   -0.0159   -0.0075    0.0116   -0.0216   -0.0314   -0.0019    0.0239
          15   -0.0238    0.0078    0.0063   -0.0058    0.0079    0.0090    0.0000   -0.0096
          16   -0.0351   -0.0438    0.0117    0.0319   -0.0519   -0.0324    0.0000   -0.0666
          17   -0.0345   -0.0894    0.0654    0.0862   -0.0519    0.0484   -0.0841   -0.0402
          18   -0.0051    0.0110   -0.0187   -0.0184   -0.0169   -0.0535    0.0463   -0.0397
          19   -0.0807   -0.0956   -0.0200    0.0254    0.0519    0.0195    0.0179   -0.0709
          20   -0.0254    0.1780    0.0799   -0.0748   -0.0088   -0.0931   -0.0783   -0.0236
          21    0.0140   -0.0439   -0.0324    0.0219    0.0127    0.0233    0.0208   -0.0102
          22    0.0922   -0.0118    0.0511    0.0242   -0.0605   -0.0221    0.0094   -0.0676
          23    0.0950   -0.0473    0.1362    0.0768   -0.0584    0.0779   -0.0847   -0.0084
          24   -0.0205    0.0030   -0.0328   -0.0182    0.0219   -0.0047    0.0101    0.0190
          25    0.0520   -0.0172    0.0034    0.0325    0.0570    0.0022    0.0269   -0.0644
          26   -0.0422    0.0705    0.0170   -0.0901   -0.0104   -0.0511   -0.0956    0.0072
          27   -0.0148   -0.0240   -0.0123    0.0253   -0.0479    0.0302    0.0348    0.0648
          28   -0.0053    0.2077   -0.0745    0.0819    0.0287   -0.0973    0.0110   -0.0812
          29   -0.0847   -0.0335   -0.0141    0.0003   -0.0411   -0.0103   -0.0651   -0.0136
          30    0.0182    0.0025   -0.0056    0.0001    0.0221    0.0068    0.0358    0.0075
          31    0.0810   -0.0040    0.1025   -0.0678   -0.0795    0.0354    0.0305   -0.0761
          32   -0.0510    0.0153   -0.0631    0.0479    0.0465    0.0433   -0.0646    0.0031
          33    0.0224   -0.0063    0.0348   -0.0237   -0.0220   -0.0481    0.0505    0.0191
          34    0.0697   -0.0291   -0.1178   -0.0669    0.0387    0.0796    0.0168   -0.0822
          35    0.1124   -0.0151   -0.0858   -0.0446    0.0751   -0.0006   -0.0688   -0.0197
          36   -0.0402    0.0146    0.0323    0.0170   -0.0166   -0.0176    0.0020    0.0187
          37   -0.0466    0.0794   -0.0140    0.0990    0.0151   -0.0559    0.0194   -0.1029
          38    0.0447    0.0085   -0.0094   -0.0016   -0.0666   -0.0197   -0.0788   -0.0153
          39    0.0147    0.0014   -0.0036   -0.0005   -0.0316   -0.0097   -0.0428   -0.0085
          40   -0.0793    0.0087    0.0986   -0.0712   -0.0739    0.0396    0.0296   -0.0797
          41    0.0595    0.0088   -0.0665    0.0436    0.0538    0.0595   -0.0745   -0.0111
          42   -0.0247   -0.0019    0.0357   -0.0223   -0.0247    0.0182    0.0049   -0.0305
          43   -0.0208   -0.0665   -0.0655   -0.0733    0.0254    0.0686    0.0035   -0.0897
          44   -0.0366   -0.0601   -0.0359   -0.0537    0.0522    0.0006   -0.0518   -0.0396
          45    0.0244    0.0322    0.0123    0.0225   -0.0479    0.0385    0.0687   -0.0054


   Root No.      25        26        27        28        29        30        31        32

                25 A      26 A      27 A      28 A      29 A      30 A      31 A      32 A   

                1405.6    1405.8    1426.2    1426.5    1434.7    2965.3    2966.9    2981.0
  
           1    0.0133    0.0211   -0.0042   -0.0252   -0.0162   -0.0029    0.0022   -0.0030
           2   -0.0123    0.0037    0.0166    0.0008    0.0017    0.0045   -0.0034    0.0046
           3    0.0065    0.0029   -0.0058   -0.0059   -0.0047    0.0150   -0.0114    0.0153
           4   -0.0196    0.0121   -0.0211   -0.0118    0.0188   -0.0011   -0.0039   -0.0019
           5   -0.0088   -0.0095    0.0062   -0.0163    0.0028   -0.0017   -0.0062   -0.0032
           6    0.0079    0.0009    0.0035    0.0094   -0.0071   -0.0046   -0.0168   -0.0085
           7    0.0022   -0.0130    0.0103    0.0145   -0.0015    0.0000    0.0000    0.0000
           8    0.0237    0.0056   -0.0203    0.0159    0.0203   -0.0003    0.0010    0.0008
           9   -0.0013   -0.0005    0.0003   -0.0004    0.0004   -0.0058    0.0182    0.0144
          10   -0.0108   -0.0152   -0.0163    0.0123   -0.0085    0.0016    0.0001    0.0003
          11    0.0052   -0.0216   -0.0206   -0.0092   -0.0113   -0.0067   -0.0002   -0.0010
          12   -0.0026    0.0063    0.0059    0.0048    0.0033   -0.0188   -0.0005   -0.0029
          13    0.0163   -0.0063    0.0188   -0.0088    0.0078   -0.0010   -0.0008    0.0012
          14   -0.0047    0.0199    0.0001    0.0208   -0.0127    0.0067    0.0057   -0.0081
          15    0.0037   -0.0101    0.0013   -0.0117    0.0079    0.0136    0.0115   -0.0166
          16   -0.0483   -0.0615    0.0148    0.0701    0.0525    0.0833   -0.0623    0.0871
          17    0.0121   -0.0139   -0.0352    0.0117    0.0053   -0.0411    0.0323   -0.0426
          18   -0.0790   -0.0811    0.0478    0.0966    0.0728   -0.0602    0.0448   -0.0614
          19    0.1095   -0.0500    0.0847    0.0638   -0.0865   -0.0139   -0.0493   -0.0250
          20    0.0549    0.0028    0.0120    0.0583   -0.0354    0.0082    0.0249    0.0104
          21    0.0308   -0.0186    0.0309    0.0151   -0.0278    0.0392    0.1455    0.0738
          22   -0.0759   -0.0947    0.0316    0.1051    0.0753   -0.0488    0.0371   -0.0514
          23    0.0494    0.0231   -0.0501   -0.0319   -0.0279   -0.0125    0.0080   -0.0125
          24    0.0286    0.0390   -0.0094   -0.0447   -0.0311   -0.1193    0.0926   -0.1218
          25    0.0615   -0.0291    0.0527    0.0313   -0.0536    0.0267    0.0949    0.0489
          26   -0.0038    0.0191   -0.0304    0.0239    0.0104    0.0128    0.0494    0.0267
          27   -0.1062    0.0351   -0.0692   -0.0798    0.0871    0.0160    0.0565    0.0283
          28   -0.0044    0.0238   -0.0215   -0.0309    0.0022   -0.0013   -0.0005   -0.0017
          29   -0.1054   -0.0245    0.0730   -0.0593   -0.0766    0.0289   -0.0905   -0.0726
          30    0.0797    0.0184   -0.0577    0.0465    0.0604    0.0402   -0.1254   -0.0984
          31    0.0216    0.0705    0.0673   -0.0281    0.0400    0.0444    0.0004    0.0086
          32   -0.0074    0.0566    0.0487    0.0231    0.0317    0.1121    0.0046    0.0164
          33   -0.0014   -0.1099   -0.0995   -0.0145   -0.0613    0.0917    0.0029    0.0143
          34   -0.0554    0.0486   -0.0572    0.0462   -0.0407   -0.0339   -0.0305    0.0428
          35    0.0556   -0.1037    0.0296   -0.1030    0.0732    0.0047    0.0030   -0.0069
          36    0.0203   -0.0209    0.0195   -0.0220    0.0176   -0.1194   -0.1017    0.1454
          37   -0.0031    0.0176   -0.0231   -0.0352    0.0030    0.0009    0.0003    0.0011
          38   -0.0971   -0.0219    0.0699   -0.0561   -0.0774   -0.0248    0.0763    0.0627
          39   -0.0841   -0.0194    0.0623   -0.0498   -0.0675    0.0302   -0.0924   -0.0745
          40    0.0206    0.0562    0.0521   -0.0300    0.0325   -0.0640   -0.0002   -0.0119
          41   -0.0037    0.1165    0.1052    0.0235    0.0649   -0.0319   -0.0015   -0.0042
          42    0.0095    0.0593    0.0552   -0.0083    0.0333    0.1334    0.0029    0.0210
          43   -0.0427    0.0342   -0.0523    0.0329   -0.0306    0.0457    0.0394   -0.0574
          44    0.0094   -0.0319   -0.0084   -0.0331    0.0231   -0.0849   -0.0699    0.1045
          45   -0.0663    0.1039   -0.0429    0.1066   -0.0805   -0.0445   -0.0372    0.0536


   Root No.      33        34        35        36        37        38        39

                33 A      34 A      35 A      36 A      37 A      38 A      39 A   

                2981.1    2992.1    3059.5    3059.6    3063.6    3063.6    3069.0
  
           1   -0.0017    0.0022   -0.0109    0.0077   -0.0084    0.0096   -0.0082
           2    0.0027   -0.0034    0.0032   -0.0020    0.0026   -0.0025    0.0024
           3    0.0092   -0.0113   -0.0025    0.0016   -0.0018    0.0020   -0.0016
           4   -0.0036   -0.0028   -0.0031   -0.0125   -0.0024    0.0128    0.0088
           5   -0.0057   -0.0045   -0.0010   -0.0033   -0.0004    0.0035    0.0025
           6   -0.0152   -0.0119    0.0009    0.0031    0.0005   -0.0031   -0.0019
           7    0.0000    0.0000   -0.0002   -0.0001   -0.0001    0.0003    0.0000
           8   -0.0007   -0.0007   -0.0047    0.0129    0.0122    0.0055    0.0091
           9   -0.0125   -0.0129    0.0006   -0.0017   -0.0017   -0.0008   -0.0015
          10   -0.0015    0.0009    0.0082    0.0007    0.0034    0.0073   -0.0049
          11    0.0063   -0.0039    0.0110    0.0005    0.0049    0.0095   -0.0065
          12    0.0175   -0.0109   -0.0032   -0.0002   -0.0015   -0.0028    0.0019
          13   -0.0002    0.0008    0.0065    0.0054   -0.0078    0.0011    0.0052
          14    0.0017   -0.0053   -0.0077   -0.0069    0.0097   -0.0010   -0.0064
          15    0.0036   -0.0108    0.0037    0.0032   -0.0045    0.0004    0.0028
          16    0.0511   -0.0640    0.0939   -0.0654    0.0755   -0.0847    0.0712
          17   -0.0271    0.0318   -0.0499    0.0359   -0.0396    0.0460   -0.0380
          18   -0.0359    0.0444   -0.0810    0.0564   -0.0647    0.0728   -0.0610
          19   -0.0464   -0.0368    0.0082    0.0319    0.0059   -0.0336   -0.0220
          20    0.0232    0.0171   -0.0065   -0.0241   -0.0041    0.0254    0.0167
          21    0.1307    0.1022   -0.0305   -0.1210   -0.0233    0.1270    0.0834
          22   -0.0302    0.0383    0.0359   -0.0248    0.0284   -0.0319    0.0263
          23   -0.0052    0.0084    0.0139   -0.0092    0.0112   -0.0119    0.0102
          24   -0.0742    0.0897    0.1098   -0.0767    0.0867   -0.0983    0.0808
          25    0.0894    0.0703    0.0294    0.1152    0.0217   -0.1234   -0.0834
          26    0.0453    0.0360    0.0154    0.0643    0.0133   -0.0682   -0.0461
          27    0.0521    0.0402    0.0213    0.0834    0.0156   -0.0887   -0.0597
          28   -0.0017   -0.0001   -0.0004   -0.0002   -0.0003    0.0005    0.0000
          29    0.0629    0.0654    0.0238   -0.0653   -0.0633   -0.0287   -0.0454
          30    0.0851    0.0871    0.0388   -0.1063   -0.1028   -0.0466   -0.0740
          31   -0.0424    0.0269   -0.0383   -0.0017   -0.0180   -0.0344    0.0231
          32   -0.1065    0.0662   -0.1069   -0.0067   -0.0484   -0.0968    0.0644
          33   -0.0852    0.0525   -0.1002   -0.0058   -0.0457   -0.0904    0.0604
          34   -0.0111    0.0283   -0.0252   -0.0225    0.0326   -0.0033   -0.0204
          35    0.0001   -0.0050   -0.0029   -0.0028    0.0038   -0.0001   -0.0024
          36   -0.0311    0.0946   -0.1036   -0.0903    0.1323   -0.0154   -0.0835
          37    0.0011    0.0000   -0.0008   -0.0004   -0.0005    0.0010    0.0000
          38   -0.0548   -0.0569    0.0319   -0.0876   -0.0863   -0.0394   -0.0641
          39    0.0651    0.0667   -0.0458    0.1258    0.1232    0.0561    0.0911
          40    0.0605   -0.0379   -0.0590   -0.0032   -0.0273   -0.0531    0.0355
          41    0.0316   -0.0201   -0.0223   -0.0017   -0.0098   -0.0205    0.0135
          42   -0.1250    0.0775    0.1379    0.0088    0.0625    0.1248   -0.0831
          43    0.0134   -0.0377   -0.0491   -0.0439    0.0642   -0.0067   -0.0411
          44   -0.0208    0.0679    0.0951    0.0827   -0.1226    0.0149    0.0788
          45   -0.0115    0.0344    0.0598    0.0527   -0.0772    0.0088    0.0495


           MASS-WEIGHTED COORDINATE ANALYSIS (NORMAL COORDINATES)


   Root No.       1         2         3         4         5         6         7         8

                 1 A       2 A       3 A       4 A       5 A       6 A       7 A       8 A   

                  56.8     154.0     621.4     650.8     769.4     812.3     821.8     984.6
  
           1    0.0479    0.0612    0.2859   -0.3514    0.1217   -0.1248    0.1655   -0.1706
           2   -0.0956   -0.0399    0.0560    0.2153   -0.0015    0.1271    0.0698   -0.0145
           3   -0.2970   -0.2237    0.0176   -0.1617   -0.1197    0.1980    0.0113   -0.1860
           4    0.0067   -0.0844   -0.4224   -0.0881   -0.1707   -0.0122   -0.2306   -0.0745
           5    0.0815   -0.1107   -0.0609   -0.2096   -0.0321   -0.1471   -0.0773   -0.0907
           6    0.1025   -0.3489    0.1104    0.1137    0.0395   -0.0962   -0.1930    0.1270
           7   -0.0451    0.0178   -0.0501   -0.1926   -0.0154   -0.1036   -0.0564    0.1109
           8    0.0126    0.0227    0.4344   -0.1718    0.1755   -0.0108    0.1588    0.1022
           9    0.1186    0.3753   -0.0343   -0.0037   -0.0202    0.1478   -0.2609    0.0286
          10   -0.0434    0.0084    0.1436    0.2946    0.0948    0.0973    0.0821    0.0758
          11    0.1380    0.0120   -0.0993    0.3938   -0.1238    0.1314   -0.0053   -0.0221
          12    0.3621   -0.0014    0.0152   -0.1148   -0.1868   -0.0383    0.1837    0.2511
          13    0.0238    0.0038    0.0480    0.3487    0.0096    0.1029   -0.0053   -0.0501
          14   -0.1294    0.1249   -0.2682   -0.2127   -0.1546   -0.1537   -0.1667    0.0816
          15   -0.2889    0.1953    0.1147    0.1611   -0.0775   -0.1916    0.0750   -0.2380
          16   -0.1042   -0.0822   -0.0076   -0.0602    0.1952   -0.2851    0.0816    0.0598
          17   -0.0058   -0.0348   -0.0483    0.0284   -0.0854   -0.0226    0.0825    0.0999
          18   -0.2603   -0.1850   -0.0802    0.0405    0.2498   -0.2495    0.0049    0.0229
          19    0.0561   -0.2569   -0.3345   -0.0844   -0.0023    0.1763    0.3181   -0.1465
          20    0.1068   -0.1079   -0.1000   -0.1069    0.0509    0.1390    0.0769    0.1606
          21    0.0340   -0.1677   -0.0311    0.0196    0.0207    0.0088    0.0711   -0.0413
          22    0.1931    0.1757    0.2045   -0.2185   -0.2239    0.3158    0.0077   -0.2356
          23   -0.1321   -0.0250   -0.0330    0.0900    0.1720   -0.0705   -0.0887   -0.1434
          24   -0.1490   -0.1277   -0.0419   -0.0014    0.0630   -0.0856    0.0318    0.0405
          25   -0.0332    0.1094   -0.0043   -0.0285   -0.0792   -0.1091   -0.3050    0.1199
          26    0.0053   -0.0529   -0.0611    0.0357   -0.0503   -0.0808    0.0443   -0.3565
          27    0.1018   -0.3008   -0.1350   -0.0483    0.0957    0.1834    0.2848    0.0896
          28   -0.0711    0.0270   -0.0241   -0.0757   -0.0412    0.0666    0.0511   -0.2094
          29   -0.0600   -0.1995    0.3122   -0.1100    0.0004    0.1942   -0.2771    0.0498
          30    0.0806    0.2584   -0.1504    0.0440    0.0347   -0.1081    0.1729   -0.0083
          31   -0.1572    0.0403    0.0470    0.1189   -0.2333   -0.0795    0.1155    0.2237
          32   -0.0689   -0.0206    0.0245    0.1084   -0.2171    0.1169    0.1086    0.0228
          33    0.3065    0.0115   -0.0658   -0.0377    0.3069   -0.0535   -0.1312   -0.0649
          34    0.1420   -0.0425    0.0856    0.1500   -0.2100   -0.1394    0.0885    0.0479
          35   -0.2038    0.1989   -0.1977   -0.1774    0.1924    0.3017    0.0276    0.2657
          36   -0.1294    0.0752    0.0057    0.0276    0.0569    0.0162    0.0001   -0.0730
          37    0.0120   -0.0031    0.0200    0.0544    0.0455   -0.0857   -0.0644    0.4390
          38    0.0634    0.1965   -0.0300   -0.0022    0.1147   -0.1904    0.3663    0.0137
          39    0.0819    0.2611   -0.1424    0.0395    0.0459   -0.1120    0.1878   -0.0034
          40    0.0944   -0.0334   -0.0243    0.0717    0.2060    0.1455   -0.0936    0.0599
          41    0.2658    0.0311   -0.0690    0.1449    0.3674   -0.0290   -0.1750   -0.2717
          42    0.2091   -0.0115   -0.0386   -0.0357    0.1370    0.0277   -0.0482    0.0241
          43   -0.0968    0.0422    0.0205    0.0336    0.2055    0.1339   -0.0449    0.0160
          44    0.0048   -0.0171   -0.0114   -0.0624   -0.0738   -0.1750   -0.0939   -0.0358
          45   -0.2660    0.1981   -0.0924   -0.0298    0.2483    0.3046    0.0611    0.0735


   Root No.       9        10        11        12        13        14        15        16

                 9 A      10 A      11 A      12 A      13 A      14 A      15 A      16 A   

                 987.0    1004.8    1005.5    1045.3    1062.8    1110.9    1111.3    1135.6
  
           1   -0.0723    0.0374   -0.2903   -0.3574    0.0354   -0.0504   -0.0274   -0.0037
           2    0.1955    0.1304    0.0880    0.0971   -0.0141    0.0432   -0.0117   -0.0495
           3    0.0873   -0.1406    0.0773   -0.0687    0.0040   -0.0505    0.2032   -0.2894
           4   -0.0876   -0.2528   -0.1516    0.3688    0.0163   -0.0182    0.0262   -0.0032
           5    0.1194   -0.0082   -0.1906    0.1009    0.0080    0.0269    0.0259    0.0252
           6    0.1712   -0.1484   -0.0121   -0.0711   -0.0037    0.1314   -0.0974    0.1256
           7    0.0671    0.0717    0.1499   -0.0054    0.0028    0.0066    0.0404    0.0113
           8   -0.1416   -0.2218    0.1185    0.3821    0.0175    0.0587    0.0607    0.0338
           9   -0.1799    0.2261   -0.0631   -0.0679   -0.0057    0.1256    0.0643    0.1065
          10   -0.1683   -0.1742    0.1267   -0.2166   -0.0269    0.0870    0.0490   -0.0023
          11   -0.2084   -0.1840   -0.1707   -0.2870   -0.0351   -0.1164    0.0683    0.1023
          12    0.0358    0.0714   -0.0857    0.0843    0.0104   -0.1833   -0.0184    0.3387
          13    0.1948    0.1801   -0.1015    0.2196   -0.0248   -0.0716   -0.0535   -0.0347
          14   -0.0782    0.0320    0.2894   -0.2824    0.0277    0.0159   -0.0987   -0.0908
          15   -0.0817    0.0654    0.0405    0.1205   -0.0063   -0.0491   -0.1645   -0.2899
          16   -0.0028    0.1080   -0.2352   -0.1749   -0.0884    0.1317   -0.0716    0.0727
          17    0.3842    0.1543   -0.1556   -0.0593   -0.3309    0.4337    0.0038   -0.1534
          18   -0.1792    0.0117   -0.0673   -0.0493    0.0901   -0.1101   -0.0279    0.1084
          19   -0.1532    0.0685    0.1515    0.0977    0.0852    0.0015    0.0952    0.0230
          20   -0.0935    0.2175   -0.2416    0.0598   -0.2345   -0.2138   -0.1619   -0.3213
          21    0.0223   -0.0311    0.0950   -0.0296    0.0668    0.0827    0.0286    0.1016
          22    0.0787    0.0133    0.1045   -0.0931    0.0900   -0.1073    0.0168   -0.1219
          23   -0.0964    0.3359    0.0906    0.1093    0.2384   -0.2722   -0.2687    0.2198
          24   -0.0029   -0.0683   -0.0600   -0.0339   -0.0534    0.0510    0.0793   -0.0579
          25   -0.0137   -0.2295   -0.0817    0.1708   -0.1160   -0.0371   -0.1187   -0.0327
          26    0.2455    0.1524   -0.1196   -0.0164    0.3636    0.1940    0.3241    0.2277
          27   -0.1494    0.0888    0.1207   -0.0763   -0.1119   -0.0660   -0.0969   -0.0987
          28   -0.0046    0.0999    0.3355    0.0303   -0.2570    0.2100   -0.1966    0.3329
          29   -0.1801    0.1272   -0.0216    0.1139    0.0023    0.0753    0.0376    0.0715
          30    0.0559   -0.0747    0.0212   -0.0213    0.0012   -0.0012    0.0068   -0.0138
          31   -0.2691    0.1222    0.1469    0.0007   -0.2446    0.1042    0.3592    0.1964
          32    0.0622   -0.1478   -0.2284   -0.1566    0.1367   -0.1848   -0.2109    0.0904
          33   -0.0296    0.0573    0.1437    0.0782   -0.0647    0.0866    0.1071   -0.0685
          34   -0.1229    0.3250    0.0207    0.1379    0.2013    0.2208   -0.2768   -0.2513
          35    0.0009    0.1352   -0.1016   -0.0480    0.1478    0.1721   -0.0778    0.0556
          36    0.0309   -0.0585   -0.0096    0.0163   -0.0591   -0.0786    0.0223   -0.0112
          37    0.1789    0.1444    0.1633   -0.0489    0.3966   -0.1891    0.3682   -0.2419
          38    0.0889   -0.2386    0.0829    0.1775    0.0124   -0.0318   -0.0029   -0.0486
          39    0.0521   -0.0815    0.0238    0.0282    0.0038   -0.0010    0.0047   -0.0154
          40    0.1358   -0.2621    0.2317   -0.1649    0.2175    0.2118   -0.3407   -0.0518
          41   -0.1676    0.0697   -0.0209   -0.0611   -0.1703   -0.0162    0.2483   -0.2116
          42    0.0714   -0.0548    0.0766   -0.0156    0.0745    0.0358   -0.1186    0.0180
          43    0.4016    0.0858    0.0843    0.0138   -0.2947   -0.3856    0.0451    0.1868
          44    0.1473    0.0627    0.2512   -0.1562   -0.1793   -0.2539   -0.0451   -0.0026
          45    0.0157   -0.0438   -0.1950    0.1130    0.0571    0.0901    0.0387    0.0671


   Root No.      17        18        19        20        21        22        23        24

                17 A      18 A      19 A      20 A      21 A      22 A      23 A      24 A   

                1141.9    1145.1    1148.1    1269.6    1300.4    1310.3    1329.7    1329.7
  
           1    0.0684   -0.1270    0.0130   -0.0669    0.0505   -0.1788    0.1590   -0.0531
           2    0.0821   -0.1154    0.2094   -0.2204    0.4024   -0.2658    0.3012    0.1772
           3    0.2121    0.0078   -0.0182    0.0386   -0.1047    0.0783   -0.0624   -0.0438
           4   -0.0234   -0.1391    0.0794   -0.0732    0.0653   -0.1708   -0.1386   -0.1174
           5    0.0195    0.2374    0.0976    0.2244    0.1649    0.4138    0.3660   -0.0598
           6    0.3415    0.0774   -0.1032   -0.0600   -0.0292   -0.1338   -0.1042    0.0176
           7   -0.0638    0.2444   -0.0749   -0.2440   -0.1434    0.4670   -0.0593    0.3989
           8   -0.1366   -0.0953   -0.1392   -0.0010   -0.1045   -0.0218   -0.1238   -0.0244
           9   -0.3109   -0.1144   -0.0521    0.0057    0.0490    0.0198    0.0362    0.0046
          10   -0.0053    0.0540    0.1986    0.1815    0.4337    0.0699   -0.2606    0.1457
          11   -0.0050    0.0851   -0.1141   -0.1148   -0.2925    0.0853    0.0807   -0.1937
          12   -0.0068   -0.0300    0.1044    0.0732    0.1211   -0.0244   -0.0569    0.0863
          13    0.0025   -0.0524   -0.1961    0.1886   -0.3748   -0.2120    0.1655    0.2602
          14    0.0102   -0.1377   -0.0729    0.1206   -0.1643   -0.2479   -0.0179    0.2315
          15   -0.2266    0.0675    0.0611   -0.0606    0.0602    0.0712   -0.0003   -0.0931
          16   -0.0970   -0.1098    0.0328    0.0963   -0.1144   -0.0743    0.0001   -0.1866
          17   -0.0952   -0.2242    0.1834    0.2604   -0.1145    0.1109   -0.2359   -0.1126
          18   -0.0140    0.0275   -0.0523   -0.0555   -0.0373   -0.1226    0.1299   -0.1112
          19   -0.2229   -0.2396   -0.0561    0.0768    0.1144    0.0447    0.0501   -0.1987
          20   -0.0701    0.4462    0.2242   -0.2258   -0.0194   -0.2131   -0.2194   -0.0662
          21    0.0386   -0.1101   -0.0909    0.0662    0.0280    0.0534    0.0584   -0.0285
          22    0.2545   -0.0297    0.1434    0.0732   -0.1334   -0.0507    0.0262   -0.1894
          23    0.2623   -0.1185    0.3820    0.2320   -0.1287    0.1783   -0.2374   -0.0235
          24   -0.0565    0.0074   -0.0921   -0.0551    0.0484   -0.0108    0.0282    0.0533
          25    0.1435   -0.0431    0.0096    0.0982    0.1257    0.0051    0.0753   -0.1806
          26   -0.1166    0.1768    0.0476   -0.2722   -0.0230   -0.1169   -0.2680    0.0202
          27   -0.0409   -0.0602   -0.0345    0.0763   -0.1056    0.0691    0.0975    0.1816
          28   -0.0147    0.5207   -0.2090    0.2474    0.0632   -0.2228    0.0308   -0.2276
          29   -0.2339   -0.0839   -0.0397    0.0010   -0.0906   -0.0235   -0.1825   -0.0382
          30    0.0502    0.0064   -0.0157    0.0003    0.0488    0.0156    0.1003    0.0209
          31    0.2236   -0.0099    0.2873   -0.2046   -0.1754    0.0810    0.0856   -0.2133
          32   -0.1407    0.0385   -0.1771    0.1446    0.1026    0.0991   -0.1812    0.0088
          33    0.0619   -0.0158    0.0975   -0.0717   -0.0486   -0.1101    0.1416    0.0536
          34    0.1925   -0.0730   -0.3303   -0.2019    0.0853    0.1822    0.0472   -0.2303
          35    0.3103   -0.0378   -0.2407   -0.1346    0.1656   -0.0014   -0.1929   -0.0552
          36   -0.1111    0.0367    0.0907    0.0513   -0.0367   -0.0402    0.0055    0.0524
          37   -0.1287    0.1990   -0.0392    0.2991    0.0333   -0.1279    0.0545   -0.2884
          38    0.1233    0.0213   -0.0264   -0.0048   -0.1468   -0.0452   -0.2209   -0.0428
          39    0.0406    0.0036   -0.0102   -0.0016   -0.0696   -0.0223   -0.1201   -0.0237
          40   -0.2190    0.0217    0.2766   -0.2150   -0.1630    0.0907    0.0831   -0.2234
          41    0.1643    0.0220   -0.1866    0.1316    0.1187    0.1362   -0.2089   -0.0312
          42   -0.0683   -0.0048    0.1001   -0.0674   -0.0545    0.0416    0.0136   -0.0855
          43   -0.0574   -0.1667   -0.1838   -0.2213    0.0561    0.1571    0.0097   -0.2514
          44   -0.1011   -0.1507   -0.1007   -0.1623    0.1151    0.0013   -0.1452   -0.1109
          45    0.0674    0.0808    0.0346    0.0679   -0.1055    0.0882    0.1926   -0.0152


   Root No.      25        26        27        28        29        30        31        32

                25 A      26 A      27 A      28 A      29 A      30 A      31 A      32 A   

                1405.6    1405.8    1426.2    1426.5    1434.7    2965.3    2966.9    2981.0
  
           1    0.1328    0.2079   -0.0427   -0.2535   -0.1746   -0.0289    0.0218   -0.0298
           2   -0.1225    0.0367    0.1700    0.0079    0.0182    0.0445   -0.0331    0.0459
           3    0.0645    0.0282   -0.0588   -0.0599   -0.0504    0.1494   -0.1115    0.1539
           4   -0.1961    0.1195   -0.2160   -0.1185    0.2027   -0.0107   -0.0386   -0.0196
           5   -0.0880   -0.0935    0.0634   -0.1641    0.0298   -0.0172   -0.0608   -0.0318
           6    0.0787    0.0087    0.0356    0.0949   -0.0762   -0.0459   -0.1638   -0.0853
           7    0.0224   -0.1284    0.1049    0.1462   -0.0156    0.0001    0.0002   -0.0001
           8    0.2363    0.0554   -0.2077    0.1597    0.2181   -0.0033    0.0100    0.0085
           9   -0.0134   -0.0048    0.0034   -0.0039    0.0039   -0.0582    0.1774    0.1447
          10   -0.1083   -0.1498   -0.1664    0.1239   -0.0913    0.0164    0.0006    0.0029
          11    0.0515   -0.2129   -0.2108   -0.0922   -0.1218   -0.0669   -0.0016   -0.0100
          12   -0.0263    0.0625    0.0602    0.0483    0.0354   -0.1874   -0.0051   -0.0297
          13    0.1630   -0.0621    0.1923   -0.0885    0.0842   -0.0097   -0.0080    0.0119
          14   -0.0471    0.1958    0.0015    0.2093   -0.1366    0.0668    0.0555   -0.0818
          15    0.0374   -0.0995    0.0135   -0.1181    0.0847    0.1360    0.1125   -0.1670
          16   -0.1396   -0.1758    0.0438    0.2045    0.1637    0.2407   -0.1762    0.2542
          17    0.0350   -0.0397   -0.1042    0.0343    0.0166   -0.1189    0.0913   -0.1243
          18   -0.2287   -0.2316    0.1414    0.2817    0.2269   -0.1740    0.1269   -0.1793
          19    0.3168   -0.1429    0.2505    0.1862   -0.2699   -0.0401   -0.1396   -0.0729
          20    0.1587    0.0079    0.0355    0.1700   -0.1103    0.0236    0.0704    0.0303
          21    0.0891   -0.0531    0.0913    0.0440   -0.0867    0.1134    0.4116    0.2153
          22   -0.2196   -0.2705    0.0935    0.3065    0.2349   -0.1409    0.1051   -0.1501
          23    0.1430    0.0661   -0.1483   -0.0929   -0.0870   -0.0360    0.0225   -0.0366
          24    0.0828    0.1115   -0.0277   -0.1303   -0.0970   -0.3447    0.2621   -0.3555
          25    0.1779   -0.0830    0.1559    0.0915   -0.1673    0.0771    0.2684    0.1428
          26   -0.0110    0.0546   -0.0899    0.0698    0.0325    0.0371    0.1398    0.0778
          27   -0.3071    0.1004   -0.2047   -0.2328    0.2716    0.0464    0.1599    0.0826
          28   -0.0128    0.0680   -0.0635   -0.0900    0.0067   -0.0039   -0.0014   -0.0051
          29   -0.3049   -0.0700    0.2159   -0.1731   -0.2387    0.0836   -0.2561   -0.2118
          30    0.2307    0.0527   -0.1707    0.1355    0.1884    0.1161   -0.3547   -0.2872
          31    0.0624    0.2013    0.1991   -0.0820    0.1247    0.1282    0.0011    0.0250
          32   -0.0215    0.1617    0.1441    0.0674    0.0989    0.3241    0.0131    0.0479
          33   -0.0041   -0.3138   -0.2944   -0.0422   -0.1911    0.2651    0.0083    0.0419
          34   -0.1602    0.1387   -0.1692    0.1348   -0.1269   -0.0980   -0.0864    0.1250
          35    0.1608   -0.2962    0.0875   -0.3004    0.2283    0.0137    0.0086   -0.0200
          36    0.0586   -0.0598    0.0576   -0.0641    0.0548   -0.3449   -0.2878    0.4243
          37   -0.0089    0.0502   -0.0683   -0.1026    0.0094    0.0027    0.0007    0.0032
          38   -0.2808   -0.0627    0.2069   -0.1637   -0.2413   -0.0717    0.2159    0.1830
          39   -0.2432   -0.0554    0.1843   -0.1452   -0.2106    0.0872   -0.2615   -0.2174
          40    0.0595    0.1606    0.1543   -0.0876    0.1014   -0.1849   -0.0005   -0.0348
          41   -0.0108    0.3329    0.3112    0.0685    0.2024   -0.0922   -0.0042   -0.0124
          42    0.0274    0.1694    0.1634   -0.0241    0.1037    0.3854    0.0082    0.0613
          43   -0.1235    0.0976   -0.1547    0.0960   -0.0955    0.1322    0.1114   -0.1676
          44    0.0272   -0.0911   -0.0249   -0.0965    0.0720   -0.2454   -0.1979    0.3050
          45   -0.1917    0.2969   -0.1269    0.3110   -0.2512   -0.1286   -0.1053    0.1563


   Root No.      33        34        35        36        37        38        39

                33 A      34 A      35 A      36 A      37 A      38 A      39 A   

                2981.1    2992.1    3059.5    3059.6    3063.6    3063.6    3069.0
  
           1   -0.0173    0.0241   -0.1104    0.0764   -0.0843    0.0945   -0.0906
           2    0.0278   -0.0371    0.0324   -0.0198    0.0262   -0.0249    0.0261
           3    0.0933   -0.1244   -0.0252    0.0160   -0.0184    0.0198   -0.0181
           4   -0.0363   -0.0313   -0.0312   -0.1237   -0.0241    0.1258    0.0977
           5   -0.0575   -0.0491   -0.0105   -0.0331   -0.0037    0.0350    0.0276
           6   -0.1550   -0.1317    0.0088    0.0312    0.0051   -0.0307   -0.0212
           7   -0.0002   -0.0001   -0.0020   -0.0007   -0.0012    0.0026    0.0001
           8   -0.0071   -0.0076   -0.0476    0.1282    0.1227    0.0544    0.1013
           9   -0.1271   -0.1425    0.0058   -0.0168   -0.0167   -0.0078   -0.0169
          10   -0.0153    0.0104    0.0829    0.0068    0.0344    0.0718   -0.0546
          11    0.0636   -0.0428    0.1105    0.0052    0.0497    0.0933   -0.0726
          12    0.1783   -0.1203   -0.0322   -0.0018   -0.0148   -0.0272    0.0213
          13   -0.0023    0.0085    0.0652    0.0536   -0.0790    0.0113    0.0573
          14    0.0171   -0.0585   -0.0776   -0.0683    0.0978   -0.0095   -0.0710
          15    0.0361   -0.1192    0.0372    0.0321   -0.0454    0.0044    0.0313
          16    0.1507   -0.2045    0.2743   -0.1877    0.2205   -0.2419    0.2285
          17   -0.0799    0.1018   -0.1458    0.1029   -0.1157    0.1315   -0.1220
          18   -0.1059    0.1419   -0.2366    0.1620   -0.1889    0.2079   -0.1960
          19   -0.1367   -0.1175    0.0240    0.0916    0.0173   -0.0960   -0.0706
          20    0.0684    0.0547   -0.0190   -0.0691   -0.0119    0.0727    0.0536
          21    0.3850    0.3265   -0.0891   -0.3474   -0.0680    0.3629    0.2677
          22   -0.0889    0.1225    0.1047   -0.0711    0.0831   -0.0911    0.0846
          23   -0.0153    0.0268    0.0407   -0.0265    0.0328   -0.0341    0.0327
          24   -0.2186    0.2866    0.3206   -0.2201    0.2532   -0.2809    0.2593
          25    0.2635    0.2247    0.0859    0.3307    0.0635   -0.3526   -0.2679
          26    0.1334    0.1151    0.0450    0.1846    0.0388   -0.1949   -0.1481
          27    0.1534    0.1286    0.0622    0.2393    0.0457   -0.2533   -0.1918
          28   -0.0051   -0.0002   -0.0011   -0.0006   -0.0009    0.0015    0.0000
          29    0.1852    0.2089    0.0696   -0.1874   -0.1849   -0.0819   -0.1458
          30    0.2507    0.2783    0.1132   -0.3053   -0.3004   -0.1331   -0.2375
          31   -0.1250    0.0859   -0.1118   -0.0050   -0.0525   -0.0982    0.0742
          32   -0.3137    0.2114   -0.3120   -0.0191   -0.1415   -0.2766    0.2069
          33   -0.2511    0.1679   -0.2927   -0.0167   -0.1336   -0.2583    0.1939
          34   -0.0326    0.0905   -0.0737   -0.0646    0.0952   -0.0096   -0.0656
          35    0.0004   -0.0161   -0.0083   -0.0081    0.0112   -0.0002   -0.0076
          36   -0.0916    0.3023   -0.3024   -0.2593    0.3866   -0.0441   -0.2680
          37    0.0032    0.0000   -0.0024   -0.0010   -0.0015    0.0029    0.0001
          38   -0.1614   -0.1818    0.0930   -0.2514   -0.2520   -0.1125   -0.2057
          39    0.1917    0.2131   -0.1337    0.3612    0.3600    0.1604    0.2927
          40    0.1782   -0.1212   -0.1721   -0.0092   -0.0796   -0.1518    0.1141
          41    0.0931   -0.0641   -0.0650   -0.0050   -0.0287   -0.0585    0.0434
          42   -0.3683    0.2475    0.4027    0.0253    0.1826    0.3565   -0.2669
          43    0.0394   -0.1206   -0.1433   -0.1259    0.1874   -0.0193   -0.1319
          44   -0.0613    0.2171    0.2776    0.2375   -0.3583    0.0426    0.2530
          45   -0.0338    0.1098    0.1747    0.1512   -0.2256    0.0251    0.1588


          DESCRIPTION OF VIBRATIONS


 VIBRATION    1    1A       ATOM PAIR        ENERGY CONTRIBUTION    RADIAL
 FREQ.        56.84        C  4 --  C  5          +16.2% (999.0%)     0.0%
 T-DIPOLE    0.0077        C  1 --  C  4          +16.1% (999.0%)     0.0%
 TRAVEL      0.0337        C  4 --  H 14          +10.3% (812.3%)    82.0%
 RED. MASS   0.5818        C  4 --  H 11          +10.2% (812.1%)    81.9%
 EFF. MASS1041.6436

 VIBRATION    2    2A       ATOM PAIR        ENERGY CONTRIBUTION    RADIAL
 FREQ.       153.98        C  2 --  C  3          +17.9% (398.5%)     0.0%
 T-DIPOLE    0.0048        C  1 --  C  3          +12.3% (330.1%)     0.0%
 TRAVEL      0.0545        C  2 --  C  5          +12.2% (328.2%)     0.0%
 RED. MASS   0.6054        C  3 --  H 13           +9.3% (287.5%)    89.2%
 EFF. MASS 147.2285

 VIBRATION    3    3A       ATOM PAIR        ENERGY CONTRIBUTION    RADIAL
 FREQ.       621.42        C  2 --  C  3          +15.0% (105.7%)     0.0%
 T-DIPOLE    0.1230        C  2 --  C  5          +10.9% ( 89.9%)     0.6%
 TRAVEL      0.0907        C  1 --  C  3          +10.7% ( 89.2%)     0.7%
 RED. MASS   1.1234        C  2 --  H  7           +9.8% ( 85.4%)    94.7%
 EFF. MASS  13.1773

 VIBRATION    4    4A       ATOM PAIR        ENERGY CONTRIBUTION    RADIAL
 FREQ.       650.78        C  1 --  C  4          +14.6% (108.0%)     0.6%
 T-DIPOLE    0.0133        C  4 --  C  5          +14.5% (107.6%)     0.7%
 TRAVEL      0.0810        C  1 --  C  3           +8.4% ( 81.8%)     5.6%
 RED. MASS   1.8013        C  2 --  C  5           +8.2% ( 80.9%)     5.9%
 EFF. MASS  15.7746

 VIBRATION    5    5A       ATOM PAIR        ENERGY CONTRIBUTION    RADIAL
 FREQ.       769.40        C  4 --  H 11          +17.3% ( 73.2%)     5.2%
 T-DIPOLE    0.0722        C  4 --  H 14          +17.3% ( 73.1%)     5.3%
 TRAVEL      0.1520        C  5 --  H 15           +8.7% ( 51.8%)    10.0%
 RED. MASS   0.2032        C  1 --  H  6           +8.6% ( 51.5%)     9.4%
 EFF. MASS   3.7930

 VIBRATION    6    6A       ATOM PAIR        ENERGY CONTRIBUTION    RADIAL
 FREQ.       812.28        C  1 --  H  8          +12.3% ( 61.1%)     4.2%
 T-DIPOLE    0.0158        C  5 --  H 12          +12.1% ( 60.7%)     4.3%
 TRAVEL      0.1369        C  1 --  H  6          +11.9% ( 60.1%)    13.8%
 RED. MASS   0.2332        C  5 --  H 15          +11.7% ( 59.7%)    14.3%
 EFF. MASS   4.4326

 VIBRATION    7    7A       ATOM PAIR        ENERGY CONTRIBUTION    RADIAL
 FREQ.       821.76        C  2 --  H  7          +13.7% ( 67.0%)     2.3%
 T-DIPOLE    0.0339        C  3 --  H 10          +13.5% ( 66.5%)     2.3%
 TRAVEL      0.1240        C  2 --  H  9          +12.8% ( 64.8%)    20.0%
 RED. MASS   0.3597        C  3 --  H 13          +12.6% ( 64.3%)    20.3%
 EFF. MASS   5.3361

 VIBRATION    8    8A       ATOM PAIR        ENERGY CONTRIBUTION    RADIAL
 FREQ.       984.65        C  3 --  H 13          +11.0% ( 48.1%)     0.8%
 T-DIPOLE    0.0095        C  2 --  H  9           +9.4% ( 44.3%)     0.5%
 TRAVEL      0.1198        C  1 --  C  4           +9.2% ( 43.8%)    21.5%
 RED. MASS   0.2624        C  4 --  C  5           +9.0% ( 43.6%)     9.6%
 EFF. MASS   4.7746

 VIBRATION    9    9A       ATOM PAIR        ENERGY CONTRIBUTION    RADIAL
 FREQ.       986.99        C  5 --  H 15          +10.5% ( 47.9%)    16.8%
 T-DIPOLE    0.0123        C  1 --  H  6          +10.4% ( 47.8%)    14.6%
 TRAVEL      0.1144        C  4 --  C  5           +8.6% ( 43.3%)    78.4%
 RED. MASS   0.2834        C  1 --  C  4           +8.3% ( 42.8%)    55.5%
 EFF. MASS   5.2192

 VIBRATION   10   10A       ATOM PAIR        ENERGY CONTRIBUTION    RADIAL
 FREQ.      1004.78        C  2 --  C  3          +12.1% ( 53.1%)    51.6%
 T-DIPOLE    0.0315        C  1 --  C  3           +8.5% ( 44.4%)    13.1%
 TRAVEL      0.1068        C  3 --  H 10           +8.2% ( 43.8%)     0.7%
 RED. MASS   0.3721        C  2 --  H  7           +7.6% ( 42.0%)     1.1%
 EFF. MASS   5.8878

 VIBRATION   11   11A       ATOM PAIR        ENERGY CONTRIBUTION    RADIAL
 FREQ.      1005.50        C  2 --  C  5          +10.0% ( 48.4%)    69.0%
 T-DIPOLE    0.0342        C  1 --  C  4           +9.2% ( 46.5%)    33.6%
 TRAVEL      0.1054        C  1 --  C  3           +8.8% ( 45.6%)    63.9%
 RED. MASS   0.3766        C  4 --  C  5           +8.7% ( 45.3%)    14.6%
 EFF. MASS   6.0385

 VIBRATION   12   12A       ATOM PAIR        ENERGY CONTRIBUTION    RADIAL
 FREQ.      1045.32        C  2 --  C  3          +11.7% ( 62.3%)   100.0%
 T-DIPOLE    0.0112        C  2 --  C  5          +11.2% ( 61.0%)    99.9%
 TRAVEL      0.0756        C  1 --  C  3          +11.2% ( 60.9%)    99.9%
 RED. MASS   1.2649        C  4 --  C  5          +10.5% ( 59.0%)    99.9%
 EFF. MASS  11.2828        C  1 --  C  4          +10.5% ( 58.9%)   100.0%

 VIBRATION   13   13A       ATOM PAIR        ENERGY CONTRIBUTION    RADIAL
 FREQ.      1062.78        C  2 --  H  9          +15.4% ( 40.7%)     0.1%
 T-DIPOLE    0.0009        C  3 --  H 13          +15.3% ( 40.6%)     0.1%
 TRAVEL      0.2434        C  1 --  H  6          +12.3% ( 36.5%)     0.3%
 RED. MASS   0.1128        C  5 --  H 15          +12.0% ( 36.0%)     0.3%
 EFF. MASS   1.0708

 VIBRATION   14   14A       ATOM PAIR        ENERGY CONTRIBUTION    RADIAL
 FREQ.      1110.95        C  5 --  H 15          +17.6% ( 46.1%)     0.1%
 T-DIPOLE    0.0339        C  1 --  H  6          +17.2% ( 45.7%)     0.2%
 TRAVEL      0.1678        C  1 --  H  8           +8.0% ( 31.1%)     1.7%
 RED. MASS   0.1713        C  5 --  H 12           +7.8% ( 30.6%)     2.1%
 EFF. MASS   2.1549

 VIBRATION   15   15A       ATOM PAIR        ENERGY CONTRIBUTION    RADIAL
 FREQ.      1111.30        C  4 --  H 14          +15.9% ( 43.9%)     0.7%
 T-DIPOLE    0.0346        C  4 --  H 11          +15.4% ( 43.2%)     0.8%
 TRAVEL      0.1664        C  3 --  H 13          +10.8% ( 36.2%)     0.0%
 RED. MASS   0.1664        C  2 --  H  9          +10.4% ( 35.5%)     0.1%
 EFF. MASS   2.1901

 VIBRATION   16   16A       ATOM PAIR        ENERGY CONTRIBUTION    RADIAL
 FREQ.      1135.60        C  4 --  C  5          +12.7% ( 47.6%)     1.8%
 T-DIPOLE    0.0407        C  1 --  C  4          +12.3% ( 46.8%)     1.6%
 TRAVEL      0.1097        C  4 --  H 11           +7.7% ( 37.0%)    19.4%
 RED. MASS   0.4392        C  4 --  H 14           +7.6% ( 36.7%)    19.2%
 EFF. MASS   4.9323

 VIBRATION   17   17A       ATOM PAIR        ENERGY CONTRIBUTION    RADIAL
 FREQ.      1141.94        C  2 --  C  3          +13.5% ( 48.9%)     0.8%
 T-DIPOLE    0.0341        C  1 --  C  3          +10.5% ( 43.1%)    16.6%
 TRAVEL      0.1075        C  2 --  C  5          +10.1% ( 42.3%)    17.9%
 RED. MASS   0.4688        C  5 --  H 12           +8.5% ( 38.9%)    16.9%
 EFF. MASS   5.1105

 VIBRATION   18   18A       ATOM PAIR        ENERGY CONTRIBUTION    RADIAL
 FREQ.      1145.14        C  3 --  H 10          +19.1% ( 51.0%)    12.0%
 T-DIPOLE    0.0145        C  2 --  H  7          +18.6% ( 50.3%)    13.4%
 TRAVEL      0.1227        C  2 --  C  3          +13.9% ( 43.5%)    87.1%
 RED. MASS   0.3423        C  1 --  C  3           +8.2% ( 33.4%)    62.3%
 EFF. MASS   3.9096

 VIBRATION   19   19A       ATOM PAIR        ENERGY CONTRIBUTION    RADIAL
 FREQ.      1148.09        C  5 --  H 12          +12.6% ( 40.2%)     0.0%
 T-DIPOLE    0.0130        C  1 --  H  8          +12.6% ( 40.1%)     0.0%
 TRAVEL      0.1271        C  4 --  H 11           +9.7% ( 35.2%)     5.2%
 RED. MASS   0.2180        C  4 --  H 14           +9.6% ( 35.0%)     4.1%
 EFF. MASS   3.6353

 VIBRATION   20   20A       ATOM PAIR        ENERGY CONTRIBUTION    RADIAL
 FREQ.      1269.61        C  3 --  H 13           +9.4% ( 36.4%)     0.0%
 T-DIPOLE    0.0047        C  2 --  H  9           +9.4% ( 36.4%)     0.0%
 TRAVEL      0.1363        C  1 --  H  6           +8.5% ( 34.6%)     0.0%
 RED. MASS   0.2408        C  5 --  H 15           +8.5% ( 34.5%)     0.0%
 EFF. MASS   2.8604

 VIBRATION   21   21A       ATOM PAIR        ENERGY CONTRIBUTION    RADIAL
 FREQ.      1300.42        C  1 --  C  4          +16.0% ( 61.3%)    96.7%
 T-DIPOLE    0.0101        C  4 --  C  5          +15.8% ( 61.0%)    96.4%
 TRAVEL      0.0779        C  4 --  H 14          +10.6% ( 49.9%)     0.0%
 RED. MASS   1.7559        C  4 --  H 11          +10.6% ( 49.9%)     0.0%
 EFF. MASS   8.5484

 VIBRATION   22   22A       ATOM PAIR        ENERGY CONTRIBUTION    RADIAL
 FREQ.      1310.31        C  2 --  C  3          +15.4% ( 59.1%)    96.0%
 T-DIPOLE    0.0023        C  2 --  C  5          +11.7% ( 51.4%)    91.9%
 TRAVEL      0.0794        C  1 --  C  3          +11.6% ( 51.2%)    91.5%
 RED. MASS   1.4537        C  3 --  H 10           +9.1% ( 45.4%)     0.0%
 EFF. MASS   8.1595

 VIBRATION   23   23A       ATOM PAIR        ENERGY CONTRIBUTION    RADIAL
 FREQ.      1329.66        C  2 --  H  9          +12.6% ( 44.4%)     0.0%
 T-DIPOLE    0.0373        C  2 --  H  7          +10.6% ( 40.8%)     0.0%
 TRAVEL      0.1020        C  1 --  H  6           +9.4% ( 38.4%)     0.1%
 RED. MASS   0.6191        C  1 --  H  8           +8.6% ( 36.6%)     0.1%
 EFF. MASS   4.8774

 VIBRATION   24   24A       ATOM PAIR        ENERGY CONTRIBUTION    RADIAL
 FREQ.      1329.72        C  3 --  H 13          +12.2% ( 43.8%)     0.0%
 T-DIPOLE    0.0369        C  3 --  H 10          +10.4% ( 40.3%)     0.0%
 TRAVEL      0.1019        C  5 --  H 15          +10.2% ( 39.9%)     0.1%
 RED. MASS   0.6183        C  5 --  H 12           +9.2% ( 37.9%)     0.0%
 EFF. MASS   4.8812

 VIBRATION   25   25A       ATOM PAIR        ENERGY CONTRIBUTION    RADIAL
 FREQ.      1405.62        C  3 --  H 10          +13.2% ( 38.0%)     4.1%
 T-DIPOLE    0.0085        C  3 --  H 13          +12.3% ( 36.8%)     6.2%
 TRAVEL      0.1300        C  2 --  H  7          +12.0% ( 36.3%)     4.1%
 RED. MASS   0.1930        C  2 --  H  9          +11.3% ( 35.2%)     6.1%
 EFF. MASS   2.8371

 VIBRATION   26   26A       ATOM PAIR        ENERGY CONTRIBUTION    RADIAL
 FREQ.      1405.76        C  4 --  H 14          +14.5% ( 40.7%)     5.4%
 T-DIPOLE    0.0047        C  4 --  H 11          +14.5% ( 40.7%)     5.5%
 TRAVEL      0.1249        C  5 --  H 12          +10.1% ( 33.9%)     4.4%
 RED. MASS   0.2256        C  5 --  H 15           +9.6% ( 33.1%)     5.5%
 EFF. MASS   3.0739

 VIBRATION   27   27A       ATOM PAIR        ENERGY CONTRIBUTION    RADIAL
 FREQ.      1426.22        C  4 --  H 14          +12.4% ( 39.0%)     5.9%
 T-DIPOLE    0.0377        C  4 --  H 11          +12.4% ( 38.9%)     6.0%
 TRAVEL      0.1158        C  3 --  H 13           +7.5% ( 30.4%)     5.7%
 RED. MASS   0.2401        C  3 --  H 10           +7.5% ( 30.4%)     4.9%
 EFF. MASS   3.5254

 VIBRATION   28   28A       ATOM PAIR        ENERGY CONTRIBUTION    RADIAL
 FREQ.      1426.55        C  1 --  H  6          +10.5% ( 36.0%)     6.1%
 T-DIPOLE    0.0376        C  1 --  H  8          +10.4% ( 35.8%)     5.6%
 TRAVEL      0.1152        C  5 --  H 15          +10.0% ( 35.1%)     5.6%
 RED. MASS   0.2433        C  5 --  H 12           +9.9% ( 34.9%)     5.6%
 EFF. MASS   3.5620

 VIBRATION   29   29A       ATOM PAIR        ENERGY CONTRIBUTION    RADIAL
 FREQ.      1434.67        C  2 --  H  9           +9.7% ( 32.0%)     5.3%
 T-DIPOLE    0.0003        C  3 --  H 13           +9.7% ( 31.9%)     5.3%
 TRAVEL      0.1284        C  3 --  H 10           +9.0% ( 30.8%)     5.8%
 RED. MASS   0.1573        C  2 --  H  7           +9.0% ( 30.8%)     5.8%
 EFF. MASS   2.8526

 VIBRATION   30   30A       ATOM PAIR        ENERGY CONTRIBUTION    RADIAL
 FREQ.      2965.26        C  4 --  H 11          +20.6% ( 47.5%)    96.2%
 T-DIPOLE    0.0009        C  4 --  H 14          +20.6% ( 47.4%)    96.2%
 TRAVEL      0.1205        C  1 --  H  8          +14.9% ( 40.3%)    97.0%
 RED. MASS   0.1641        C  5 --  H 12          +13.7% ( 38.6%)    97.0%
 EFF. MASS   1.5656        C  1 --  H  6          +11.2% ( 34.9%)    95.3%
                           C  5 --  H 15          +10.3% ( 33.5%)    95.6%

 VIBRATION   31   31A       ATOM PAIR        ENERGY CONTRIBUTION    RADIAL
 FREQ.      2966.94        C  2 --  H  7          +20.5% ( 47.2%)    97.3%
 T-DIPOLE    0.0015        C  3 --  H 10          +20.2% ( 46.9%)    97.3%
 TRAVEL      0.1206        C  2 --  H  9          +12.9% ( 37.5%)    94.7%
 RED. MASS   0.1534        C  3 --  H 13          +12.7% ( 37.2%)    94.7%
 EFF. MASS   1.5625

 VIBRATION   32   32A       ATOM PAIR        ENERGY CONTRIBUTION    RADIAL
 FREQ.      2980.96        C  5 --  H 12          +20.9% ( 47.4%)    97.3%
 T-DIPOLE    0.0039        C  1 --  H  8          +16.0% ( 41.5%)    97.3%
 TRAVEL      0.1216        C  5 --  H 15          +15.9% ( 41.3%)    96.0%
 RED. MASS   0.1517        C  3 --  H 10          +13.5% ( 38.1%)    97.6%
 EFF. MASS   1.5293        C  1 --  H  6          +12.3% ( 36.3%)    95.7%

 VIBRATION   33   33A       ATOM PAIR        ENERGY CONTRIBUTION    RADIAL
 FREQ.      2981.05        C  4 --  H 11          +19.1% ( 45.3%)    96.6%
 T-DIPOLE    0.0067        C  4 --  H 14          +19.0% ( 45.2%)    96.5%
 TRAVEL      0.1216        C  2 --  H  7          +18.2% ( 44.2%)    97.6%
 RED. MASS   0.1532        C  2 --  H  9          +12.2% ( 36.2%)    95.2%
 EFF. MASS   1.5301        C  3 --  H 10          +10.3% ( 33.3%)    97.5%

 VIBRATION   34   34A       ATOM PAIR        ENERGY CONTRIBUTION    RADIAL
 FREQ.      2992.11        C  2 --  H  7          +13.1% ( 37.4%)    97.7%
 T-DIPOLE    0.0194        C  3 --  H 10          +12.9% ( 37.0%)    97.7%
 TRAVEL      0.1217        C  5 --  H 12          +10.7% ( 33.7%)    97.4%
 RED. MASS   0.1070        C  1 --  H  8          +10.5% ( 33.4%)    97.4%
 EFF. MASS   1.5212

 VIBRATION   35   35A       ATOM PAIR        ENERGY CONTRIBUTION    RADIAL
 FREQ.      3059.49        C  4 --  H 14          +20.3% ( 44.5%)    97.7%
 T-DIPOLE    0.0033        C  4 --  H 11          +20.3% ( 44.4%)    97.7%
 TRAVEL      0.1308        C  1 --  H  6          +16.0% ( 39.4%)    98.4%
 RED. MASS   0.1503        C  5 --  H 15          +13.4% ( 36.1%)    98.1%
 EFF. MASS   1.2885        C  1 --  H  8          +11.9% ( 34.0%)    96.7%

 VIBRATION   36   36A       ATOM PAIR        ENERGY CONTRIBUTION    RADIAL
 FREQ.      3059.61        C  2 --  H  9          +21.1% ( 45.3%)    98.6%
 T-DIPOLE    0.0063        C  3 --  H 13          +20.3% ( 44.5%)    98.6%
 TRAVEL      0.1307        C  2 --  H  7          +13.7% ( 36.5%)    96.0%
 RED. MASS   0.1439        C  3 --  H 10          +13.1% ( 35.7%)    95.9%
 EFF. MASS   1.2894

 VIBRATION   37   37A       ATOM PAIR        ENERGY CONTRIBUTION    RADIAL
 FREQ.      3063.56        C  5 --  H 15          +22.3% ( 46.5%)    98.3%
 T-DIPOLE    0.0481        C  3 --  H 13          +20.2% ( 44.3%)    98.7%
 TRAVEL      0.1317        C  5 --  H 12          +16.2% ( 39.7%)    96.8%
 RED. MASS   0.1508        C  3 --  H 10          +12.7% ( 35.1%)    96.1%
 EFF. MASS   1.2688        C  1 --  H  6          +10.2% ( 31.4%)    98.5%

 VIBRATION   38   38A       ATOM PAIR        ENERGY CONTRIBUTION    RADIAL
 FREQ.      3063.61        C  2 --  H  9          +23.7% ( 47.9%)    98.7%
 T-DIPOLE    0.0474        C  4 --  H 14          +15.9% ( 39.2%)    97.9%
 TRAVEL      0.1317        C  4 --  H 11          +15.8% ( 39.1%)    97.9%
 RED. MASS   0.1526        C  2 --  H  7          +14.9% ( 38.0%)    96.1%
 EFF. MASS   1.2685        C  1 --  H  6          +12.4% ( 34.7%)    98.5%

 VIBRATION   39   39A       ATOM PAIR        ENERGY CONTRIBUTION    RADIAL
 FREQ.      3068.96        C  2 --  H  9          +13.7% ( 36.4%)    98.8%
 T-DIPOLE    0.0040        C  3 --  H 13          +13.4% ( 36.1%)    98.8%
 TRAVEL      0.1300        C  5 --  H 15          +11.1% ( 32.8%)    98.3%
 RED. MASS   0.1010        C  1 --  H  6          +11.0% ( 32.7%)    98.5%
 EFF. MASS   1.3000

 SYMMETRY NUMBER FOR POINT-GROUP C1  =  1


          SYSTEM IS A GROUND STATE


    NULL



          MOLECULE IS NOT LINEAR

          THERE ARE 39 GENUINE VIBRATIONS IN THIS SYSTEM
          THIS THERMODYNAMICS CALCULATION IS LIMITED TO
          MOLECULES WHICH HAVE NO INTERNAL ROTATIONS




                    CALCULATED THERMODYNAMIC PROPERTIES
                                          *
   TEMP. (K)   PARTITION FUNCTION   H.O.F.    ENTHALPY  HEAT CAPACITY ENTROPY
                                   KCAL/MOL   CAL/MOLE    CAL/K/MOL  CAL/K/MOL


 298.00  VIB.     0.1014D+02                  1507.4203    12.6382     9.6619
         ROT.     0.6940D+05                   888.2813     2.9808    25.1333
         INT.     0.7037D+06                  2395.7017    15.6190    34.7953
         TRA.     0.5678D+27                  1480.4688     4.9680    38.6583
         TOT.                      -23.956    3876.1705    20.5870    73.4536

 200.00  VIB.     0.4616D+01                   618.5615     6.0359     6.1325
         ROT.     0.3816D+05                   596.1620     2.9808    23.9447
         INT.     0.1761D+06                  1214.7235     9.0167    30.0771
         TRA.     0.3122D+27                   993.6033     4.9680    36.6771
         TOT.                      -25.623    2208.3267    13.9847    66.7543

 210.00  VIB.     0.4990D+01                   681.4198     6.5435     6.4390
         ROT.     0.4105D+05                   625.9700     2.9808    24.0901
         INT.     0.2048D+06                  1307.3899     9.5244    30.5291
         TRA.     0.3359D+27                  1043.2834     4.9680    36.9195
         TOT.                      -25.481    2350.6733    14.4924    67.4487

 220.00  VIB.     0.5394D+01                   749.5845     7.0968     6.7560
         ROT.     0.4402D+05                   655.7781     2.9808    24.2288
         INT.     0.2374D+06                  1405.3626    10.0776    30.9848
         TRA.     0.3602D+27                  1092.9636     4.9680    37.1507
         TOT.                      -25.333    2498.3262    15.0457    68.1355

 230.00  VIB.     0.5832D+01                   823.5007     7.6934     7.0845
         ROT.     0.4705D+05                   685.5862     2.9808    24.3613
         INT.     0.2744D+06                  1509.0869    10.6742    31.4458
         TRA.     0.3850D+27                  1142.6437     4.9680    37.3715
         TOT.                      -25.180    2651.7307    15.6422    68.8173

 240.00  VIB.     0.6309D+01                   903.5874     8.3304     7.4253
         ROT.     0.5016D+05                   715.3943     2.9808    24.4881
         INT.     0.3164D+06                  1618.9818    11.3112    31.9134
         TRA.     0.4104D+27                  1192.3239     4.9680    37.5829
         TOT.                      -25.020    2811.3057    16.2792    69.4963

 250.00  VIB.     0.6830D+01                   990.2324     9.0045     7.7789
         ROT.     0.5332D+05                   745.2024     2.9808    24.6098
         INT.     0.3642D+06                  1735.4348    11.9853    32.3887
         TRA.     0.4363D+27                  1242.0041     4.9680    37.7857
         TOT.                      -24.854    2977.4389    16.9533    70.1744

 260.00  VIB.     0.7400D+01                  1083.7884     9.7120     8.1457
         ROT.     0.5655D+05                   775.0105     2.9808    24.7267
         INT.     0.4185D+06                  1858.7989    12.6928    32.8724
         TRA.     0.4628D+27                  1291.6842     4.9680    37.9806
         TOT.                      -24.681    3150.4831    17.6608    70.8530

 270.00  VIB.     0.8026D+01                  1184.5711    10.4492     8.5260
         ROT.     0.5985D+05                   804.8186     2.9808    24.8392
         INT.     0.4803D+06                  1989.3897    13.4300    33.3652
         TRA.     0.4897D+27                  1341.3644     4.9680    38.1681
         TOT.                      -24.501    3330.7541    18.3980    71.5333

 280.00  VIB.     0.8715D+01                  1292.8577    11.2121     8.9197
         ROT.     0.6320D+05                   834.6267     2.9808    24.9476
         INT.     0.5508D+06                  2127.4844    14.1929    33.8673
         TRA.     0.5172D+27                  1391.0445     4.9680    38.3488
         TOT.                      -24.313    3518.5290    19.1609    72.2161

 290.00  VIB.     0.9475D+01                  1408.8867    11.9970     9.3268
         ROT.     0.6662D+05                   864.4348     2.9808    25.0522
         INT.     0.6312D+06                  2273.3215    14.9778    34.3790
         TRA.     0.5451D+27                  1440.7247     4.9680    38.5231
         TOT.                      -24.118    3714.0462    19.9458    72.9021

 300.00  VIB.     0.1032D+02                  1532.8585    12.8001     9.7470
         ROT.     0.7010D+05                   894.2429     2.9808    25.1533
         INT.     0.7231D+06                  2427.1014    15.7809    34.9003
         TRA.     0.5736D+27                  1490.4049     4.9680    38.6915
         TOT.                      -23.914    3917.5063    20.7489    73.5918

 310.00  VIB.     0.1125D+02                  1664.9369    13.6177    10.1800
         ROT.     0.7363D+05                   924.0510     2.9808    25.2510
         INT.     0.8281D+06                  2588.9879    16.5985    35.4310
         TRA.     0.6025D+27                  1540.0850     4.9680    38.8544
         TOT.                      -23.703    4129.0730    21.5666    74.2855

 320.00  VIB.     0.1228D+02                  1805.2504    14.4466    10.6254
         ROT.     0.7722D+05                   953.8591     2.9808    25.3457
         INT.     0.9483D+06                  2759.1095    17.4274    35.9711
         TRA.     0.6319D+27                  1589.7652     4.9680    39.0121
         TOT.                      -23.483    4348.8747    22.3954    74.9832

 330.00  VIB.     0.1343D+02                  1953.8948    15.2834    11.0828
         ROT.     0.8087D+05                   983.6672     2.9808    25.4374
         INT.     0.1086D+07                  2937.5620    18.2642    36.5201
         TRA.     0.6617D+27                  1639.4454     4.9680    39.1650
         TOT.                      -23.255    4577.0074    23.2322    75.6852

 340.00  VIB.     0.1471D+02                  2110.9352    16.1253    11.5515
         ROT.     0.8457D+05                  1013.4753     2.9808    25.5264
         INT.     0.1244D+07                  3124.4105    19.1061    37.0779
         TRA.     0.6920D+27                  1689.1255     4.9680    39.3133
         TOT.                      -23.018    4813.5361    24.0741    76.3912

 350.00  VIB.     0.1614D+02                  2276.4088    16.9696    12.0311
         ROT.     0.8833D+05                  1043.2834     2.9808    25.6128
         INT.     0.1426D+07                  3319.6922    19.9504    37.6439
         TRA.     0.7228D+27                  1738.8057     4.9680    39.4573
         TOT.                      -22.773    5058.4979    24.9184    77.1012

 360.00  VIB.     0.1774D+02                  2450.3272    17.8139    12.5210
         ROT.     0.9214D+05                  1073.0915     2.9808    25.6968
         INT.     0.1634D+07                  3523.4188    20.7947    38.2178
         TRA.     0.7540D+27                  1788.4859     4.9680    39.5973
         TOT.                      -22.520    5311.9046    25.7627    77.8151

 370.00  VIB.     0.1952D+02                  2632.6795    18.6560    13.0206
         ROT.     0.9601D+05                  1102.8996     2.9808    25.7784
         INT.     0.1874D+07                  3735.5791    21.6368    38.7990
         TRA.     0.7856D+27                  1838.1660     4.9680    39.7334
         TOT.                      -22.258    5573.7451    26.6048    78.5324

 380.00  VIB.     0.2152D+02                  2823.4341    19.4941    13.5292
         ROT.     0.9993D+05                  1132.7077     2.9808    25.8579
         INT.     0.2151D+07                  3956.1418    22.4749    39.3872
         TRA.     0.8177D+27                  1887.8462     4.9680    39.8659
         TOT.                      -21.988    5843.9879    27.4429    79.2531

 390.00  VIB.     0.2377D+02                  3022.5418    20.3264    14.0464
         ROT.     0.1039D+06                  1162.5158     2.9808    25.9353
         INT.     0.2470D+07                  4185.0576    23.3072    39.9817
         TRA.     0.8501D+27                  1937.5263     4.9680    39.9950
         TOT.                      -21.709    6122.5839    28.2752    79.9767

 400.00  VIB.     0.2629D+02                  3229.9377    21.1515    14.5714
         ROT.     0.1079D+06                  1192.3239     2.9808    26.0108
         INT.     0.2837D+07                  4422.2616    24.1323    40.5822
         TRA.     0.8830D+27                  1987.2065     4.9680    40.1207
         TOT.                      -21.422    6409.4681    29.1003    80.7030

   *: NOTE: HEATS OF FORMATION ARE RELATIVE TO THE
            ELEMENTS IN THEIR STANDARD STATE AT 298K
              (=  Standard Enthalpy of Formation).

            Hvib:  Zero-point energy is not included.
                   frequencies of less than zero cm-1 are not included.
            Hrot = (3/2)RT
            Htra = (3/2)RT + pV = (5/2)RT

            Heat capacity is Cp, not Cv

           For more information, see: HTTP://OpenMOPAC.net/Manual/thermochemistry.html


           FORCE CONSTANT IN CARTESIAN COORDINATES (Millidynes/A)

    ATOM   CHEMICAL       X               Y               Z
   NUMBER   SYMBOL  FORCE CONSTANT  FORCE CONSTANT  FORCE CONSTANT

      1       C        8.997178        7.613191        8.219446
      2       C        9.069690        7.681600        8.199644
      3       C        7.478574        9.136068        8.335450
      4       C        7.985320        8.502385        8.261235
      5       C        7.984289        8.582131        8.271305
      6       H        3.014966        1.329892        2.146453
      7       H        1.081997        0.849202        4.513346
      8       H        1.232865        0.765010        4.446362
      9       H        3.246006        1.436693        1.824061
     10       H        0.728855        2.088666        3.625315
     11       H        1.040037        2.998303        2.424095
     12       H        1.021887        0.698966        4.723311
     13       H        0.702045        2.302407        3.500201
     14       H        1.437651        0.848778        4.177146
     15       H        1.480654        3.400533        1.610218



 TOTAL CPU TIME:             0.69 SECONDS

 == MOPAC DONE ==
