 *******************************************************************************
 ** Site#: 14399           For non-commercial use only        Version 13.159M **
 *******************************************************************************
 ** Cite this work as: MOPAC2012, James J. P. Stewart, Stewart Computational  **
 ** Chemistry, Version 13.159M web: HTTP://OpenMOPAC.net  Days remaining:   6 **
 *******************************************************************************
 **                                                                           **
 **                                MOPAC2012                                  **
 **                                                                           **
 *******************************************************************************

                            PM3 CALCULATION RESULTS


 *******************************************************************************
 *  CALCULATION DONE:                                Mon Jun  2 14:10:57 2014  *
 *  PM3      - The PM3 Hamiltonian to be used
 *  PRECISE  - CRITERIA TO BE INCREASED BY 100 TIMES
 *  NOSYM    - POINT-GROUP SYMMETRY SET TO C1
 *  T=       - A TIME OF 172800.0 SECONDS REQUESTED
 *  DUMP=N   - RESTART FILE WRITTEN EVERY  7200.000 SECONDS
 *******************************************************************************
pm3  precise nosym
 InChI=1S/C8H14/c1-3-7-5-6-8(7)4-2/h3,7-8H,1,4-6H2,2H3

   ATOM   CHEMICAL          X               Y               Z
  NUMBER   SYMBOL      (ANGSTROMS)     (ANGSTROMS)     (ANGSTROMS)
 
     1       C         -0.51480000  *  -0.52380000  *   0.52100000  *
     2       C          0.83220000  *  -0.13920000  *  -0.09720000  *
     3       C         -0.01620000  *  -2.00290000  *   0.55420000  *
     4       C          1.36580000  *  -1.51090000  *   0.14910000  *
     5       C         -1.74890000  *  -0.28790000  *  -0.35790000  *
     6       C         -2.10970000  *   1.19000000  *  -0.45850000  *
     7       C          1.55010000  *   0.95500000  *   0.64980000  *
     8       C          1.99350000  *   2.05880000  *   0.04440000  *
     9       H         -0.66860000  *  -0.14780000  *   1.56220000  *
    10       H          0.76090000  *   0.05540000  *  -1.19590000  *
    11       H         -2.61200000  *  -0.83410000  *   0.08770000  *
    12       H         -1.59740000  *  -0.69600000  *  -1.38470000  *
    13       H         -0.04480000  *  -2.45250000  *   1.57400000  *
    14       H         -0.47240000  *  -2.66020000  *  -0.22360000  *
    15       H          2.09070000  *  -1.59270000  *   0.99420000  *
    16       H          1.74990000  *  -2.00940000  *  -0.77160000  *
    17       H         -3.02540000  *   1.31360000  *  -1.07990000  *
    18       H         -1.28750000  *   1.76910000  *  -0.93720000  *
    19       H         -2.31400000  *   1.61810000  *   0.54930000  *
    20       H          1.70790000  *   0.85030000  *   1.72310000  *
    21       H          1.85710000  *   2.21830000  *  -1.02400000  *
    22       H          2.50360000  *   2.82870000  *   0.62020000  *
 


          CARTESIAN COORDINATES 

    NO.       ATOM         X         Y         Z

     1         C       -0.5148   -0.5238    0.5210
     2         C        0.8322   -0.1392   -0.0972
     3         C       -0.0162   -2.0029    0.5542
     4         C        1.3658   -1.5109    0.1491
     5         C       -1.7489   -0.2879   -0.3579
     6         C       -2.1097    1.1900   -0.4585
     7         C        1.5501    0.9550    0.6498
     8         C        1.9935    2.0588    0.0444
     9         H       -0.6686   -0.1478    1.5622
    10         H        0.7609    0.0554   -1.1959
    11         H       -2.6120   -0.8341    0.0877
    12         H       -1.5974   -0.6960   -1.3847
    13         H       -0.0448   -2.4525    1.5740
    14         H       -0.4724   -2.6602   -0.2236
    15         H        2.0907   -1.5927    0.9942
    16         H        1.7499   -2.0094   -0.7716
    17         H       -3.0254    1.3136   -1.0799
    18         H       -1.2875    1.7691   -0.9372
    19         H       -2.3140    1.6181    0.5493
    20         H        1.7079    0.8503    1.7231
    21         H        1.8571    2.2183   -1.0240
    22         H        2.5036    2.8287    0.6202

  H: (PM3): J. J. P. STEWART, J. COMP. CHEM. 10, 209 (1989).
  C: (PM3): J. J. P. STEWART, J. COMP. CHEM. 10, 209 (1989).

           Empirical Formula: C8 H14  =    22 atoms



      MOLECULAR POINT GROUP   :   C1  


      RHF CALCULATION, NO. OF DOUBLY OCCUPIED LEVELS =   23

      Geometry optimization using EF

          DIAGONAL MATRIX USED AS START HESSIAN

 CYCLE:     1 TIME:   0.009 TIME LEFT:  2.00D  GRAD.:   104.539 HEAT: 8.693025
 CYCLE:     2 TIME:   0.011 TIME LEFT:  2.00D  GRAD.:   108.134 HEAT: 7.574675
 CYCLE:     3 TIME:   0.011 TIME LEFT:  2.00D  GRAD.:    70.937 HEAT: 5.653649
 CYCLE:     4 TIME:   0.011 TIME LEFT:  2.00D  GRAD.:    33.351 HEAT: 4.724835
 CYCLE:     5 TIME:   0.006 TIME LEFT:  2.00D  GRAD.:    31.823 HEAT: 4.352797
 CYCLE:     6 TIME:   0.006 TIME LEFT:  2.00D  GRAD.:    39.456 HEAT: 4.060335
 CYCLE:     7 TIME:   0.006 TIME LEFT:  2.00D  GRAD.:    41.514 HEAT: 3.946091
 CYCLE:     8 TIME:   0.011 TIME LEFT:  2.00D  GRAD.:    16.584 HEAT: 3.481455
 CYCLE:     9 TIME:   0.011 TIME LEFT:  2.00D  GRAD.:    13.262 HEAT: 3.414213
 CYCLE:    10 TIME:   0.006 TIME LEFT:  2.00D  GRAD.:    11.554 HEAT: 3.365075
 CYCLE:    11 TIME:   0.006 TIME LEFT:  2.00D  GRAD.:    14.247 HEAT: 3.352166
 CYCLE:    12 TIME:   0.011 TIME LEFT:  2.00D  GRAD.:     5.738 HEAT: 3.300523
 CYCLE:    13 TIME:   0.011 TIME LEFT:  2.00D  GRAD.:     4.024 HEAT: 3.285690
 CYCLE:    14 TIME:   0.006 TIME LEFT:  2.00D  GRAD.:     5.498 HEAT: 3.274359
 CYCLE:    15 TIME:   0.006 TIME LEFT:  2.00D  GRAD.:     5.373 HEAT: 3.252900
 CYCLE:    16 TIME:   0.006 TIME LEFT:  2.00D  GRAD.:     8.909 HEAT: 3.245460
 CYCLE:    17 TIME:   0.006 TIME LEFT:  2.00D  GRAD.:     6.428 HEAT: 3.218302
 CYCLE:    18 TIME:   0.016 TIME LEFT:  2.00D  GRAD.:     4.076 HEAT: 3.204973
 CYCLE:    19 TIME:   0.011 TIME LEFT:  2.00D  GRAD.:     3.455 HEAT: 3.199475
 CYCLE:    20 TIME:   0.006 TIME LEFT:  2.00D  GRAD.:     3.092 HEAT: 3.191420
 CYCLE:    21 TIME:   0.006 TIME LEFT:  2.00D  GRAD.:     6.024 HEAT: 3.177636
 CYCLE:    22 TIME:   0.006 TIME LEFT:  2.00D  GRAD.:     5.316 HEAT: 3.160707
 CYCLE:    23 TIME:   0.006 TIME LEFT:  2.00D  GRAD.:     5.374 HEAT: 3.146521
 CYCLE:    24 TIME:   0.006 TIME LEFT:  2.00D  GRAD.:     5.683 HEAT: 3.131030
 CYCLE:    25 TIME:   0.006 TIME LEFT:  2.00D  GRAD.:     5.542 HEAT: 3.120301
 CYCLE:    26 TIME:   0.006 TIME LEFT:  2.00D  GRAD.:     6.613 HEAT: 3.112207
 CYCLE:    27 TIME:   0.006 TIME LEFT:  2.00D  GRAD.:     6.807 HEAT: 3.101122
 CYCLE:    28 TIME:   0.006 TIME LEFT:  2.00D  GRAD.:     3.739 HEAT: 3.082434
 CYCLE:    29 TIME:   0.006 TIME LEFT:  2.00D  GRAD.:     3.028 HEAT: 3.067155
 CYCLE:    30 TIME:   0.006 TIME LEFT:  2.00D  GRAD.:     3.628 HEAT: 3.042131
 CYCLE:    31 TIME:   0.006 TIME LEFT:  2.00D  GRAD.:     4.293 HEAT: 3.019041
 CYCLE:    32 TIME:   0.006 TIME LEFT:  2.00D  GRAD.:     2.824 HEAT: 3.003341
 CYCLE:    33 TIME:   0.006 TIME LEFT:  2.00D  GRAD.:     2.942 HEAT: 2.989599
 CYCLE:    34 TIME:   0.006 TIME LEFT:  2.00D  GRAD.:     2.385 HEAT: 2.978886
 CYCLE:    35 TIME:   0.006 TIME LEFT:  2.00D  GRAD.:     1.914 HEAT: 2.971951
 CYCLE:    36 TIME:   0.006 TIME LEFT:  2.00D  GRAD.:     2.226 HEAT: 2.962862
 CYCLE:    37 TIME:   0.006 TIME LEFT:  2.00D  GRAD.:     2.312 HEAT: 2.955148
 CYCLE:    38 TIME:   0.006 TIME LEFT:  2.00D  GRAD.:     1.892 HEAT: 2.947803
 CYCLE:    39 TIME:   0.006 TIME LEFT:  2.00D  GRAD.:     1.662 HEAT: 2.942263
 CYCLE:    40 TIME:   0.006 TIME LEFT:  2.00D  GRAD.:     2.024 HEAT: 2.936097
 CYCLE:    41 TIME:   0.006 TIME LEFT:  2.00D  GRAD.:     2.311 HEAT: 2.927119
 CYCLE:    42 TIME:   0.006 TIME LEFT:  2.00D  GRAD.:     2.241 HEAT: 2.917430
 CYCLE:    43 TIME:   0.006 TIME LEFT:  2.00D  GRAD.:     1.700 HEAT: 2.909136
 CYCLE:    44 TIME:   0.006 TIME LEFT:  2.00D  GRAD.:     1.639 HEAT: 2.902621
 CYCLE:    45 TIME:   0.006 TIME LEFT:  2.00D  GRAD.:     1.597 HEAT: 2.897677
 CYCLE:    46 TIME:   0.006 TIME LEFT:  2.00D  GRAD.:     1.639 HEAT: 2.893137
 CYCLE:    47 TIME:   0.006 TIME LEFT:  2.00D  GRAD.:     1.054 HEAT: 2.889545
 CYCLE:    48 TIME:   0.006 TIME LEFT:  2.00D  GRAD.:     0.890 HEAT: 2.887420
 CYCLE:    49 TIME:   0.006 TIME LEFT:  2.00D  GRAD.:     0.796 HEAT: 2.886204
 CYCLE:    50 TIME:   0.006 TIME LEFT:  2.00D  GRAD.:     0.674 HEAT: 2.884614
 CYCLE:    51 TIME:   0.006 TIME LEFT:  2.00D  GRAD.:     0.556 HEAT: 2.883516
 CYCLE:    52 TIME:   0.006 TIME LEFT:  2.00D  GRAD.:     0.535 HEAT: 2.882670
 CYCLE:    53 TIME:   0.006 TIME LEFT:  2.00D  GRAD.:     0.445 HEAT: 2.882044
 CYCLE:    54 TIME:   0.006 TIME LEFT:  2.00D  GRAD.:     0.390 HEAT: 2.881524
 CYCLE:    55 TIME:   0.006 TIME LEFT:  2.00D  GRAD.:     0.387 HEAT: 2.881042
 CYCLE:    56 TIME:   0.006 TIME LEFT:  2.00D  GRAD.:     0.319 HEAT: 2.880727
 CYCLE:    57 TIME:   0.006 TIME LEFT:  2.00D  GRAD.:     0.248 HEAT: 2.880534
 CYCLE:    58 TIME:   0.006 TIME LEFT:  2.00D  GRAD.:     0.232 HEAT: 2.880397
 CYCLE:    59 TIME:   0.006 TIME LEFT:  2.00D  GRAD.:     0.244 HEAT: 2.880253
 CYCLE:    60 TIME:   0.006 TIME LEFT:  2.00D  GRAD.:     0.241 HEAT: 2.880128
 CYCLE:    61 TIME:   0.006 TIME LEFT:  2.00D  GRAD.:     0.227 HEAT: 2.880010
 CYCLE:    62 TIME:   0.006 TIME LEFT:  2.00D  GRAD.:     0.244 HEAT: 2.879869
 CYCLE:    63 TIME:   0.006 TIME LEFT:  2.00D  GRAD.:     0.260 HEAT: 2.879736
 CYCLE:    64 TIME:   0.006 TIME LEFT:  2.00D  GRAD.:     0.296 HEAT: 2.879517
 CYCLE:    65 TIME:   0.006 TIME LEFT:  2.00D  GRAD.:     0.233 HEAT: 2.879418
 CYCLE:    66 TIME:   0.006 TIME LEFT:  2.00D  GRAD.:     0.371 HEAT: 2.879239
 CYCLE:    67 TIME:   0.006 TIME LEFT:  2.00D  GRAD.:     0.270 HEAT: 2.879119
 CYCLE:    68 TIME:   0.006 TIME LEFT:  2.00D  GRAD.:     0.154 HEAT: 2.878916
 CYCLE:    69 TIME:   0.006 TIME LEFT:  2.00D  GRAD.:     0.185 HEAT: 2.878773
 CYCLE:    70 TIME:   0.006 TIME LEFT:  2.00D  GRAD.:     0.221 HEAT: 2.878620
 CYCLE:    71 TIME:   0.006 TIME LEFT:  2.00D  GRAD.:     0.224 HEAT: 2.878463
 CYCLE:    72 TIME:   0.006 TIME LEFT:  2.00D  GRAD.:     0.224 HEAT: 2.878217
 CYCLE:    73 TIME:   0.006 TIME LEFT:  2.00D  GRAD.:     0.202 HEAT: 2.878117
 CYCLE:    74 TIME:   0.006 TIME LEFT:  2.00D  GRAD.:     0.223 HEAT: 2.877946
 CYCLE:    75 TIME:   0.006 TIME LEFT:  2.00D  GRAD.:     0.203 HEAT: 2.877870
 CYCLE:    76 TIME:   0.010 TIME LEFT:  2.00D  GRAD.:     0.189 HEAT: 2.877632
 CYCLE:    77 TIME:   0.006 TIME LEFT:  2.00D  GRAD.:     0.147 HEAT: 2.877559
 CYCLE:    78 TIME:   0.006 TIME LEFT:  2.00D  GRAD.:     0.119 HEAT: 2.877490
 CYCLE:    79 TIME:   0.006 TIME LEFT:  2.00D  GRAD.:     0.112 HEAT: 2.877426
 CYCLE:    80 TIME:   0.006 TIME LEFT:  2.00D  GRAD.:     0.106 HEAT: 2.877367
 CYCLE:    81 TIME:   0.006 TIME LEFT:  2.00D  GRAD.:     0.110 HEAT: 2.877325
 CYCLE:    82 TIME:   0.006 TIME LEFT:  2.00D  GRAD.:     0.097 HEAT: 2.877305
 CYCLE:    83 TIME:   0.006 TIME LEFT:  2.00D  GRAD.:     0.137 HEAT: 2.877265
 CYCLE:    84 TIME:   0.006 TIME LEFT:  2.00D  GRAD.:     0.124 HEAT: 2.877235
 CYCLE:    85 TIME:   0.006 TIME LEFT:  2.00D  GRAD.:     0.176 HEAT: 2.877129
 CYCLE:    86 TIME:   0.006 TIME LEFT:  2.00D  GRAD.:     0.163 HEAT: 2.877074
 CYCLE:    87 TIME:   0.006 TIME LEFT:  2.00D  GRAD.:     0.194 HEAT: 2.876950
 CYCLE:    88 TIME:   0.006 TIME LEFT:  2.00D  GRAD.:     0.235 HEAT: 2.876828
 CYCLE:    89 TIME:   0.006 TIME LEFT:  2.00D  GRAD.:     0.335 HEAT: 2.876475
 CYCLE:    90 TIME:   0.006 TIME LEFT:  2.00D  GRAD.:     0.389 HEAT: 2.876139
 CYCLE:    91 TIME:   0.006 TIME LEFT:  2.00D  GRAD.:     0.466 HEAT: 2.875388
 CYCLE:    92 TIME:   0.006 TIME LEFT:  2.00D  GRAD.:     0.315 HEAT: 2.874968
 CYCLE:    93 TIME:   0.006 TIME LEFT:  2.00D  GRAD.:     0.219 HEAT: 2.874582
 CYCLE:    94 TIME:   0.006 TIME LEFT:  2.00D  GRAD.:     0.185 HEAT: 2.874481
 CYCLE:    95 TIME:   0.006 TIME LEFT:  2.00D  GRAD.:     0.176 HEAT: 2.874342
 CYCLE:    96 TIME:   0.006 TIME LEFT:  2.00D  GRAD.:     0.152 HEAT: 2.874287
 CYCLE:    97 TIME:   0.006 TIME LEFT:  2.00D  GRAD.:     0.193 HEAT: 2.874241
 CYCLE:    98 TIME:   0.006 TIME LEFT:  2.00D  GRAD.:     0.159 HEAT: 2.874189
 CYCLE:    99 TIME:   0.006 TIME LEFT:  2.00D  GRAD.:     0.269 HEAT: 2.874040
 CYCLE:   100 TIME:   0.006 TIME LEFT:  2.00D  GRAD.:     0.243 HEAT: 2.873914
 CYCLE:   101 TIME:   0.006 TIME LEFT:  2.00D  GRAD.:     0.391 HEAT: 2.873279
 CYCLE:   102 TIME:   0.006 TIME LEFT:  2.00D  GRAD.:     0.340 HEAT: 2.873058
 CYCLE:   103 TIME:   0.006 TIME LEFT:  2.00D  GRAD.:     0.555 HEAT: 2.871450
 CYCLE:   104 TIME:   0.006 TIME LEFT:  2.00D  GRAD.:     0.700 HEAT: 2.870619
 CYCLE:   105 TIME:   0.012 TIME LEFT:  2.00D  GRAD.:     2.326 HEAT: 2.868447
 CYCLE:   106 TIME:   0.006 TIME LEFT:  2.00D  GRAD.:     1.023 HEAT: 2.865537
 CYCLE:   107 TIME:   0.006 TIME LEFT:  2.00D  GRAD.:     1.282 HEAT: 2.860902
 CYCLE:   108 TIME:   0.006 TIME LEFT:  2.00D  GRAD.:     1.500 HEAT: 2.851864
 CYCLE:   109 TIME:   0.006 TIME LEFT:  2.00D  GRAD.:     5.342 HEAT: 2.850614
 CYCLE:   110 TIME:   0.016 TIME LEFT:  2.00D  GRAD.:     2.775 HEAT: 2.848350
 CYCLE:   111 TIME:   0.006 TIME LEFT:  2.00D  GRAD.:     1.777 HEAT: 2.841296
 CYCLE:   112 TIME:   0.006 TIME LEFT:  2.00D  GRAD.:     4.680 HEAT: 2.841601
 CYCLE:   113 TIME:   0.006 TIME LEFT:  2.00D  GRAD.:     4.480 HEAT: 2.839840
 CYCLE:   114 TIME:   0.006 TIME LEFT:  2.00D  GRAD.:     1.915 HEAT: 2.831570
 CYCLE:   115 TIME:   0.006 TIME LEFT:  2.00D  GRAD.:     2.328 HEAT: 2.828672
 CYCLE:   116 TIME:   0.006 TIME LEFT:  2.00D  GRAD.:     3.341 HEAT: 2.825809
 CYCLE:   117 TIME:   0.006 TIME LEFT:  2.00D  GRAD.:     1.957 HEAT: 2.821228
 CYCLE:   118 TIME:   0.006 TIME LEFT:  2.00D  GRAD.:     0.838 HEAT: 2.817586
 CYCLE:   119 TIME:   0.006 TIME LEFT:  2.00D  GRAD.:     1.460 HEAT: 2.811994
 CYCLE:   120 TIME:   0.006 TIME LEFT:  2.00D  GRAD.:     1.744 HEAT: 2.807568
 CYCLE:   121 TIME:   0.006 TIME LEFT:  2.00D  GRAD.:     1.341 HEAT: 2.803184
 CYCLE:   122 TIME:   0.006 TIME LEFT:  2.00D  GRAD.:     1.133 HEAT: 2.801511
 CYCLE:   123 TIME:   0.006 TIME LEFT:  2.00D  GRAD.:     0.711 HEAT: 2.800309
 CYCLE:   124 TIME:   0.006 TIME LEFT:  2.00D  GRAD.:     0.462 HEAT: 2.799142
 CYCLE:   125 TIME:   0.006 TIME LEFT:  2.00D  GRAD.:     0.349 HEAT: 2.798434
 CYCLE:   126 TIME:   0.006 TIME LEFT:  2.00D  GRAD.:     0.368 HEAT: 2.798137
 CYCLE:   127 TIME:   0.006 TIME LEFT:  2.00D  GRAD.:     0.380 HEAT: 2.797913
 CYCLE:   128 TIME:   0.006 TIME LEFT:  2.00D  GRAD.:     0.100 HEAT: 2.797858
 CYCLE:   129 TIME:   0.006 TIME LEFT:  2.00D  GRAD.:     0.333 HEAT: 2.797842
 CYCLE:   130 TIME:   0.006 TIME LEFT:  2.00D  GRAD.:     0.092 HEAT: 2.797809
 CYCLE:   131 TIME:   0.006 TIME LEFT:  2.00D  GRAD.:     0.047 HEAT: 2.797796

     RMS GRADIENT =  0.04733  IS LESS THAN CUTOFF =  0.05000



 -------------------------------------------------------------------------------
pm3  precise nosym
 InChI=1S/C8H14/c1-3-7-5-6-8(7)4-2/h3,7-8H,1,4-6H2,2H3



     GEOMETRY OPTIMISED USING EIGENVECTOR FOLLOWING (EF).     
     SCF FIELD WAS ACHIEVED                                   


                              PM3 CALCULATION
                                                       MOPAC2012 (Version: 13.159M)
                                                       Mon Jun  2 14:10:57 2014
                                                       No. of days left =   6




          FINAL HEAT OF FORMATION =          2.79780 KCAL/MOL =      11.70598 KJ/MOL


          TOTAL ENERGY            =      -1163.65951 EV
          ELECTRONIC ENERGY       =      -6110.20379 EV  POINT GROUP:     C1  
          CORE-CORE REPULSION     =       4946.54428 EV
          COSMO AREA              =        169.56 SQUARE ANGSTROMS
          COSMO VOLUME            =        172.21 CUBIC ANGSTROMS

          GRADIENT NORM           =          0.04733
          IONIZATION POTENTIAL    =         10.063492 EV
          HOMO LUMO ENERGIES (EV) =        -10.063  1.114
          NO. OF FILLED LEVELS    =         23
          MOLECULAR WEIGHT        =        110.199

          MOLECULAR DIMENSIONS (Angstroms)

            Atom       Atom       Distance
            H    22    H    14     6.32371
            H    22    H    14     6.28520
            H    16    H     9     3.05952


          SCF CALCULATIONS        =        145
          COMPUTATION TIME        =          0.868 SECONDS




   ATOM   CHEMICAL          X               Y               Z
  NUMBER   SYMBOL      (ANGSTROMS)     (ANGSTROMS)     (ANGSTROMS)
 
     1       C         -0.48464097  *  -0.47440730  *   0.51618233  *
     2       C          0.89207353  *  -0.15992626  *  -0.14799318  *
     3       C         -0.05010093  *  -1.94897078  *   0.69277009  *
     4       C          1.32546324  *  -1.62833309  *   0.08065685  *
     5       C         -1.69388919  *  -0.27125561  *  -0.37186517  *
     6       C         -2.02666265  *   1.19436960  *  -0.54061585  *
     7       C          1.68958814  *   0.86174778  *   0.57543577  *
     8       C          1.72831874  *   2.13444500  *   0.19685638  *
     9       H         -0.62780148  *   0.05760528  *   1.48075728  *
    10       H          0.80282210  *   0.10474133  *  -1.22415837  *
    11       H         -2.55705173  *  -0.81056151  *   0.06627361  *
    12       H         -1.52328933  *  -0.73813974  *  -1.36292735  *
    13       H         -0.02380961  *  -2.29712246  *   1.73581988  *
    14       H         -0.65085539  *  -2.67474615  *   0.12291331  *
    15       H          2.17687893  *  -1.75940308  *   0.76646028  *
    16       H          1.56320376  *  -2.18120928  *  -0.84013621  *
    17       H         -2.88202556  *   1.33433765  *  -1.21338070  *
    18       H         -1.17801249  *   1.75214638  *  -0.96228096  *
    19       H         -2.28082535  *   1.66589966  *   0.41799498  *
    20       H          2.24295512  *   0.51565978  *   1.45713582  *
    21       H          1.18813955  *   2.51238596  *  -0.66797005  *
    22       H          2.30049569  *   2.88770733  *   0.72928684  *

           Empirical Formula: C8 H14  =    22 atoms



      MOLECULAR POINT GROUP   :   C1  


                  EIGENVALUES  
 -41.37218 -33.70168 -32.18048 -25.39813 -24.59074 -21.53417 -20.09149 -18.85325
 -16.95230 -16.31598 -15.31160 -15.20826 -14.42645 -14.10764 -13.78539 -13.15410
 -12.48473 -12.20032 -12.07854 -11.60524 -11.46215 -11.27707 -10.06349   1.11445
   3.26072   3.35706   3.50966   3.62064   3.74615   3.86276   3.95444   3.99041
   4.07391   4.17374   4.30311   4.32281   4.42093   4.48289   4.53568   4.83270
   4.90942   4.98866   5.29497   5.43553   5.79936   5.92492


              NET ATOMIC CHARGES AND DIPOLE CONTRIBUTIONS

  ATOM NO.   TYPE          CHARGE      No. of ELECS.   s-Pop       p-Pop       
    1          C          -0.088788        4.0888     1.19391     2.89488
    2          C          -0.066969        4.0670     1.18270     2.88427
    3          C          -0.110751        4.1108     1.17404     2.93671
    4          C          -0.105052        4.1051     1.17338     2.93167
    5          C          -0.088359        4.0884     1.15700     2.93135
    6          C          -0.112344        4.1123     1.13872     2.97363
    7          C          -0.125595        4.1256     1.19397     2.93162
    8          C          -0.165702        4.1657     1.18326     2.98245
    9          H           0.077158        0.9228     0.92284
   10          H           0.079902        0.9201     0.92010
   11          H           0.049698        0.9503     0.95030
   12          H           0.050828        0.9492     0.94917
   13          H           0.055295        0.9447     0.94470
   14          H           0.058341        0.9417     0.94166
   15          H           0.058817        0.9412     0.94118
   16          H           0.055353        0.9446     0.94465
   17          H           0.037074        0.9629     0.96293
   18          H           0.041354        0.9586     0.95865
   19          H           0.038912        0.9611     0.96109
   20          H           0.099344        0.9007     0.90066
   21          H           0.082157        0.9178     0.91784
   22          H           0.079327        0.9207     0.92067
 DIPOLE           X         Y         Z       TOTAL
 POINT-CHG.    -0.128    -0.150    -0.005     0.197
 HYBRID         0.003     0.038     0.016     0.041
 SUM           -0.125    -0.112     0.011     0.168


          ATOMIC ORBITAL ELECTRON POPULATIONS

    Atom      s        px        py        pz   
    1  C   1.19391   0.93744   0.96443   0.99301
    2  C   1.18270   0.95283   0.93918   0.99227
    3  C   1.17404   0.96986   0.95923   1.00763
    4  C   1.17338   0.96604   0.95800   1.00763
    5  C   1.15700   0.97208   0.96561   0.99366
    6  C   1.13872   1.00586   0.95851   1.00926
    7  C   1.19397   0.98608   0.95601   0.98953
    8  C   1.18326   1.01036   0.96111   1.01098
    9  H   0.92284
   10  H   0.92010
   11  H   0.95030
   12  H   0.94917
   13  H   0.94470
   14  H   0.94166
   15  H   0.94118
   16  H   0.94465
   17  H   0.96293
   18  H   0.95865
   19  H   0.96109
   20  H   0.90066
   21  H   0.91784
   22  H   0.92067
 *******************************************************************************
 ** Site#: 14399           For non-commercial use only        Version 13.159M **
 *******************************************************************************
 ** Cite this work as: MOPAC2012, James J. P. Stewart, Stewart Computational  **
 ** Chemistry, Version 13.159M web: HTTP://OpenMOPAC.net  Days remaining:   6 **
 *******************************************************************************
 **                                                                           **
 **                                MOPAC2012                                  **
 **                                                                           **
 *******************************************************************************

                            PM3 CALCULATION RESULTS


 *******************************************************************************
 *  CALCULATION DONE:                                Mon Jun  2 14:10:57 2014  *
 *  PM3      - The PM3 Hamiltonian to be used
 *  OLDGEO   - PREVIOUS GEOMETRY TO BE USED
 *  PRECISE  - CRITERIA TO BE INCREASED BY 100 TIMES
 *  NOSYM    - POINT-GROUP SYMMETRY SET TO C1
 *  T=       - A TIME OF 172800.0 SECONDS REQUESTED
 *  DUMP=N   - RESTART FILE WRITTEN EVERY  7200.000 SECONDS
 *  THERMO   - THERMODYNAMIC QUANTITIES TO BE CALCULATED
 *******************************************************************************
oldgeo thermo nosym precise  pm3

   ATOM   CHEMICAL          X               Y               Z
  NUMBER   SYMBOL      (ANGSTROMS)     (ANGSTROMS)     (ANGSTROMS)
 
     1       C         -0.48464097  *  -0.47440730  *   0.51618233  *
     2       C          0.89207353  *  -0.15992626  *  -0.14799318  *
     3       C         -0.05010093  *  -1.94897078  *   0.69277009  *
     4       C          1.32546324  *  -1.62833309  *   0.08065685  *
     5       C         -1.69388919  *  -0.27125561  *  -0.37186517  *
     6       C         -2.02666265  *   1.19436960  *  -0.54061585  *
     7       C          1.68958814  *   0.86174778  *   0.57543577  *
     8       C          1.72831874  *   2.13444500  *   0.19685638  *
     9       H         -0.62780148  *   0.05760528  *   1.48075728  *
    10       H          0.80282210  *   0.10474133  *  -1.22415837  *
    11       H         -2.55705173  *  -0.81056151  *   0.06627361  *
    12       H         -1.52328933  *  -0.73813974  *  -1.36292735  *
    13       H         -0.02380961  *  -2.29712246  *   1.73581988  *
    14       H         -0.65085539  *  -2.67474615  *   0.12291331  *
    15       H          2.17687893  *  -1.75940308  *   0.76646028  *
    16       H          1.56320376  *  -2.18120928  *  -0.84013621  *
    17       H         -2.88202556  *   1.33433765  *  -1.21338070  *
    18       H         -1.17801249  *   1.75214638  *  -0.96228096  *
    19       H         -2.28082535  *   1.66589966  *   0.41799498  *
    20       H          2.24295512  *   0.51565978  *   1.45713582  *
    21       H          1.18813955  *   2.51238596  *  -0.66797005  *
    22       H          2.30049569  *   2.88770733  *   0.72928684  *
 


          CARTESIAN COORDINATES 

    NO.       ATOM         X         Y         Z

     1         C       -0.4846   -0.4744    0.5162
     2         C        0.8921   -0.1599   -0.1480
     3         C       -0.0501   -1.9490    0.6928
     4         C        1.3255   -1.6283    0.0807
     5         C       -1.6939   -0.2713   -0.3719
     6         C       -2.0267    1.1944   -0.5406
     7         C        1.6896    0.8617    0.5754
     8         C        1.7283    2.1344    0.1969
     9         H       -0.6278    0.0576    1.4808
    10         H        0.8028    0.1047   -1.2242
    11         H       -2.5571   -0.8106    0.0663
    12         H       -1.5233   -0.7381   -1.3629
    13         H       -0.0238   -2.2971    1.7358
    14         H       -0.6509   -2.6747    0.1229
    15         H        2.1769   -1.7594    0.7665
    16         H        1.5632   -2.1812   -0.8401
    17         H       -2.8820    1.3343   -1.2134
    18         H       -1.1780    1.7521   -0.9623
    19         H       -2.2808    1.6659    0.4180
    20         H        2.2430    0.5157    1.4571
    21         H        1.1881    2.5124   -0.6680
    22         H        2.3005    2.8877    0.7293

  H: (PM3): J. J. P. STEWART, J. COMP. CHEM. 10, 209 (1989).
  C: (PM3): J. J. P. STEWART, J. COMP. CHEM. 10, 209 (1989).

           Empirical Formula: C8 H14  =    22 atoms



      MOLECULAR POINT GROUP   :   C1  


      RHF CALCULATION, NO. OF DOUBLY OCCUPIED LEVELS =   23



          HEAT OF FORMATION =       2.797796 KCALS/MOLE


          INTERNAL COORDINATE DERIVATIVES

   NUMBER  ATOM       BOND         ANGLE      DIHEDRAL

     1       C      0.000493     0.002732    -0.000764
     2       C      0.003112     0.004227     0.001289
     3       C      0.005619    -0.001641    -0.004323
     4       C      0.003787     0.002345    -0.005370
     5       C     -0.000804     0.005261     0.000421
     6       C      0.001797     0.002563     0.004649
     7       C      0.013113    -0.008430     0.013872
     8       C     -0.006268    -0.002504     0.002422
     9       H      0.001999    -0.005598    -0.000915
    10       H     -0.001867    -0.006282     0.000039
    11       H     -0.017380    -0.000312     0.008507
    12       H      0.001753    -0.008948     0.003554
    13       H      0.003598    -0.000424     0.001095
    14       H      0.007557    -0.004780    -0.004194
    15       H     -0.009677     0.003800     0.005689
    16       H     -0.005484     0.002591     0.001428
    17       H      0.003633     0.009859    -0.003321
    18       H      0.002641     0.000086    -0.001058
    19       H     -0.005389    -0.005748    -0.006774
    20       H     -0.001815     0.006613    -0.013481
    21       H      0.004378     0.005870    -0.001096
    22       H     -0.004795    -0.001279    -0.001669


          GRADIENT NORM =   0.04555


          TIME FOR SCF CALCULATION =    0.00

          TIME FOR DERIVATIVES     =    0.00

          MOLECULAR WEIGHT =  110.20



          ROTATIONAL CONSTANTS IN CM(-1)

          A =    0.07359775   B =    0.06400475   C =    0.03775132



           PRINCIPAL MOMENTS OF INERTIA IN UNITS OF 10**(-40)*GRAM-CM**2

          A =      380.3482   B =      437.3546   C =      741.5046


          ORIENTATION OF MOLECULE IN FORCE CALCULATION

    NO.       ATOM         X         Y         Z

     1          C      -0.8097    0.3020   -0.0250
     2          C       0.7509    0.3020   -0.0250
     3          C      -0.7986    1.8494   -0.0250
     4          C       0.7400    1.8493   -0.0726
     5          C      -1.4576   -0.3279    1.1898
     6          C      -1.3840   -1.8378    1.1458
     7          C       1.3524   -0.3694   -1.2042
     8          C       1.8042   -1.6178   -1.1596
     9          H      -1.2393   -0.1320   -0.9529
    10          H       1.1835   -0.1012    0.9165
    11          H      -2.5142    0.0012    1.2456
    12          H      -0.9794    0.0484    2.1166
    13          H      -1.2895    2.3111   -0.8943
    14          H      -1.2323    2.3104    0.8760
    15          H       1.1728    2.2885   -0.9849
    16          H       1.2302    2.3343    0.7844
    17          H      -1.8240   -2.2851    2.0459
    18          H      -0.3434   -2.1866    1.0766
    19          H      -1.9212   -2.2453    0.2790
    20          H       1.3956    0.2162   -2.1309
    21          H       1.7719   -2.2281   -0.2601
    22          H       2.2342   -2.1172   -2.0221


    FIRST DERIVATIVES WILL BE USED IN THE CALCULATION OF SECOND DERIVATIVES

          ESTIMATED TIME TO COMPLETE CALCULATION =        2.31 SECONDS

    FOR POINT-GROUP C1   THERE ARE   1 UNIQUE SYMMETRY FUNCTIONS.

 STEP:   1 TIME =     0.03 SECS, INTEGRAL =      0.03 TIME LEFT: 172799.96
 STEP:   2 TIME =     0.03 SECS, INTEGRAL =      0.06 TIME LEFT: 172799.93
 STEP:   3 TIME =     0.03 SECS, INTEGRAL =      0.08 TIME LEFT: 172799.91
 STEP:   4 TIME =     0.03 SECS, INTEGRAL =      0.11 TIME LEFT: 172799.88
 STEP:   5 TIME =     0.03 SECS, INTEGRAL =      0.14 TIME LEFT: 172799.85
 STEP:   6 TIME =     0.03 SECS, INTEGRAL =      0.17 TIME LEFT: 172799.82
 STEP:   7 TIME =     0.03 SECS, INTEGRAL =      0.20 TIME LEFT: 172799.79
 STEP:   8 TIME =     0.03 SECS, INTEGRAL =      0.23 TIME LEFT: 172799.77
 STEP:   9 TIME =     0.03 SECS, INTEGRAL =      0.25 TIME LEFT: 172799.74
 STEP:  10 TIME =     0.03 SECS, INTEGRAL =      0.28 TIME LEFT: 172799.71
 STEP:  11 TIME =     0.03 SECS, INTEGRAL =      0.30 TIME LEFT: 172799.69
 STEP:  12 TIME =     0.03 SECS, INTEGRAL =      0.33 TIME LEFT: 172799.66
 STEP:  13 TIME =     0.03 SECS, INTEGRAL =      0.36 TIME LEFT: 172799.63
 STEP:  14 TIME =     0.03 SECS, INTEGRAL =      0.38 TIME LEFT: 172799.61
 STEP:  15 TIME =     0.03 SECS, INTEGRAL =      0.41 TIME LEFT: 172799.58
 STEP:  16 TIME =     0.03 SECS, INTEGRAL =      0.44 TIME LEFT: 172799.56
 STEP:  17 TIME =     0.03 SECS, INTEGRAL =      0.46 TIME LEFT: 172799.53
 STEP:  18 TIME =     0.03 SECS, INTEGRAL =      0.49 TIME LEFT: 172799.50
 STEP:  19 TIME =     0.03 SECS, INTEGRAL =      0.51 TIME LEFT: 172799.48
 STEP:  20 TIME =     0.03 SECS, INTEGRAL =      0.54 TIME LEFT: 172799.45
 STEP:  21 TIME =     0.03 SECS, INTEGRAL =      0.57 TIME LEFT: 172799.42
 STEP:  22 TIME =     0.03 SECS, INTEGRAL =      0.59 TIME LEFT: 172799.40
 STEP:  23 TIME =     0.03 SECS, INTEGRAL =      0.62 TIME LEFT: 172799.37
 STEP:  24 TIME =     0.03 SECS, INTEGRAL =      0.65 TIME LEFT: 172799.34
 STEP:  25 TIME =     0.03 SECS, INTEGRAL =      0.68 TIME LEFT: 172799.31
 STEP:  26 TIME =     0.03 SECS, INTEGRAL =      0.71 TIME LEFT: 172799.29
 STEP:  27 TIME =     0.03 SECS, INTEGRAL =      0.73 TIME LEFT: 172799.26
 STEP:  28 TIME =     0.03 SECS, INTEGRAL =      0.76 TIME LEFT: 172799.23
 STEP:  29 TIME =     0.03 SECS, INTEGRAL =      0.79 TIME LEFT: 172799.21
 STEP:  30 TIME =     0.03 SECS, INTEGRAL =      0.81 TIME LEFT: 172799.18
 STEP:  31 TIME =     0.03 SECS, INTEGRAL =      0.84 TIME LEFT: 172799.15
 STEP:  32 TIME =     0.03 SECS, INTEGRAL =      0.86 TIME LEFT: 172799.13
 STEP:  33 TIME =     0.03 SECS, INTEGRAL =      0.89 TIME LEFT: 172799.10
 STEP:  34 TIME =     0.03 SECS, INTEGRAL =      0.92 TIME LEFT: 172799.07
 STEP:  35 TIME =     0.03 SECS, INTEGRAL =      0.95 TIME LEFT: 172799.05
 STEP:  36 TIME =     0.03 SECS, INTEGRAL =      0.97 TIME LEFT: 172799.02
 STEP:  37 TIME =     0.03 SECS, INTEGRAL =      1.00 TIME LEFT: 172798.99
 STEP:  38 TIME =     0.03 SECS, INTEGRAL =      1.03 TIME LEFT: 172798.97
 STEP:  39 TIME =     0.03 SECS, INTEGRAL =      1.05 TIME LEFT: 172798.94
 STEP:  40 TIME =     0.03 SECS, INTEGRAL =      1.08 TIME LEFT: 172798.91
 STEP:  41 TIME =     0.03 SECS, INTEGRAL =      1.11 TIME LEFT: 172798.89
 STEP:  42 TIME =     0.03 SECS, INTEGRAL =      1.13 TIME LEFT: 172798.86
 STEP:  43 TIME =     0.03 SECS, INTEGRAL =      1.16 TIME LEFT: 172798.83
 STEP:  44 TIME =     0.03 SECS, INTEGRAL =      1.19 TIME LEFT: 172798.80
 STEP:  45 TIME =     0.03 SECS, INTEGRAL =      1.21 TIME LEFT: 172798.78
 STEP:  46 TIME =     0.03 SECS, INTEGRAL =      1.24 TIME LEFT: 172798.75
 STEP:  47 TIME =     0.03 SECS, INTEGRAL =      1.27 TIME LEFT: 172798.72
 STEP:  48 TIME =     0.03 SECS, INTEGRAL =      1.30 TIME LEFT: 172798.70
 STEP:  49 TIME =     0.03 SECS, INTEGRAL =      1.32 TIME LEFT: 172798.67
 STEP:  50 TIME =     0.03 SECS, INTEGRAL =      1.35 TIME LEFT: 172798.64
 STEP:  51 TIME =     0.03 SECS, INTEGRAL =      1.38 TIME LEFT: 172798.62
 STEP:  52 TIME =     0.03 SECS, INTEGRAL =      1.40 TIME LEFT: 172798.59
 STEP:  53 TIME =     0.03 SECS, INTEGRAL =      1.43 TIME LEFT: 172798.56
 STEP:  54 TIME =     0.03 SECS, INTEGRAL =      1.45 TIME LEFT: 172798.54
 STEP:  55 TIME =     0.03 SECS, INTEGRAL =      1.48 TIME LEFT: 172798.51
 STEP:  56 TIME =     0.03 SECS, INTEGRAL =      1.51 TIME LEFT: 172798.48
 STEP:  57 TIME =     0.03 SECS, INTEGRAL =      1.53 TIME LEFT: 172798.46
 STEP:  58 TIME =     0.03 SECS, INTEGRAL =      1.56 TIME LEFT: 172798.43
 STEP:  59 TIME =     0.03 SECS, INTEGRAL =      1.59 TIME LEFT: 172798.40
 STEP:  60 TIME =     0.03 SECS, INTEGRAL =      1.61 TIME LEFT: 172798.38
 STEP:  61 TIME =     0.03 SECS, INTEGRAL =      1.64 TIME LEFT: 172798.35
 STEP:  62 TIME =     0.03 SECS, INTEGRAL =      1.67 TIME LEFT: 172798.32
 STEP:  63 TIME =     0.03 SECS, INTEGRAL =      1.70 TIME LEFT: 172798.29
 STEP:  64 TIME =     0.03 SECS, INTEGRAL =      1.72 TIME LEFT: 172798.27
 STEP:  65 TIME =     0.03 SECS, INTEGRAL =      1.75 TIME LEFT: 172798.24
 STEP:  66 TIME =     0.03 SECS, INTEGRAL =      1.78 TIME LEFT: 172798.21

(To convert to Hartree/Bohr^2, multiply by (10^(-21) x N x a0^2)/(4.184 x 627.51) = 0.0642)


           FORCE MATRIX IN MILLIDYNES/ANGSTROM


                  C  1       C  2       C  3       C  4       C  5       C  6
 ------------------------------------------------------------------------------
     C    1  14.377912
     C    2   3.041646  14.790176
     C    3   3.487527   1.810780  14.436823
     C    4   1.814007   3.463455   3.753051  14.428447
     C    5   4.319741   0.533722   0.541855   0.041240  14.495519
     C    6   0.662358   0.030599   0.050832   0.004994   4.461068  14.360159
     C    7   0.579584   5.042583   0.042295   0.570311   0.032723   0.003502
     C    8   0.028023   0.857669   0.005733   0.046745   0.004597   0.006718
     H    9   4.418647   0.438040   0.427693   0.025931   0.429444   0.031739
     H   10   0.439174   4.382738   0.025913   0.425613   0.031672   0.008616
     H   11   0.431455   0.046633   0.018661   0.003486   4.456170   0.439981
     H   12   0.449608   0.023997   0.019995   0.001818   4.435176   0.437533
     H   13   0.442180   0.030382   4.708453   0.444527   0.032714   0.006066
     H   14   0.452918   0.029101   4.668984   0.445546   0.029896   0.002679
     H   15   0.029284   0.452469   0.445850   4.667429   0.001879   0.000603
     H   16   0.030256   0.443621   0.445002   4.706427   0.003719   0.000692
     H   17   0.052200   0.002050   0.008573   0.000735   0.450771   4.757134
     H   18   0.022276   0.007713   0.001954   0.000587   0.463428   4.680362
     H   19   0.022753   0.002215   0.001611   0.000515   0.463397   4.727484
     H   20   0.011455   0.439287   0.001414   0.033816   0.001706   0.000558
     H   21   0.013116   0.099623   0.001329   0.005545   0.002062   0.008969
     H   22   0.017695   0.134904   0.001695   0.011281   0.002265   0.000328


                  C  7       C  8       H  9       H 10       H 11       H 12
 ------------------------------------------------------------------------------
     C    7  18.270776
     C    8  11.050962  18.020463
     H    9   0.032941   0.004289   4.921482
     H   10   0.432558   0.047599   0.029192   4.881319
     H   11   0.006253   0.001595   0.025043   0.003035   5.066041
     H   12   0.001033   0.000661   0.042274   0.026700   0.570541   5.053040
     H   13   0.003751   0.001004   0.027164   0.001135   0.001778   0.001229
     H   14   0.002911   0.000580   0.031144   0.002537   0.010719   0.016029
     H   15   0.031989   0.003328   0.002543   0.030575   0.000556   0.000546
     H   16   0.033042   0.005901   0.001157   0.027979   0.000662   0.000815
     H   17   0.000631   0.001240   0.001923   0.000532   0.027532   0.031412
     H   18   0.002553   0.007043   0.002169   0.011737   0.048387   0.023006
     H   19   0.000884   0.000588   0.020616   0.000550   0.025747   0.047637
     H   20   4.784053   0.453206   0.003961   0.032611   0.000387   0.000560
     H   21   0.492833   5.047941   0.000791   0.025549   0.000648   0.000295
     H   22   0.462075   5.112529   0.001080   0.004981   0.000351   0.000092


                  H 13       H 14       H 15       H 16       H 17       H 18
 ------------------------------------------------------------------------------
     H   13   5.329454
     H   14   0.555527   5.298639
     H   15   0.023490   0.032854   5.297406
     H   16   0.032377   0.023376   0.556554   5.327072
     H   17   0.001126   0.000666   0.000137   0.000140   5.490620
     H   18   0.000412   0.000460   0.000235   0.000241   0.565293   5.417579
     H   19   0.000367   0.000434   0.000109   0.000208   0.570109   0.575335
     H   20   0.000690   0.000768   0.029436   0.001816   0.000138   0.000369
     H   21   0.000152   0.000185   0.000691   0.000961   0.000620   0.010263
     H   22   0.000332   0.000230   0.000746   0.001441   0.000277   0.000580


                  H 19       H 20       H 21       H 22
 ------------------------------------------------------
     H   19   5.469123
     H   20   0.000339   5.152773
     H   21   0.000560   0.119420   5.441471
     H   22   0.000358   0.079398   0.418350   5.497973


          HEAT OF FORMATION =       2.797796 KCALS/MOLE

          ZERO POINT ENERGY     124.671 KCAL/MOL


           NORMAL COORDINATE ANALYSIS (Total motion = 1 Angstrom)


   Root No.       1         2         3         4         5         6         7         8

                 1 A       2 A       3 A       4 A       5 A       6 A       7 A       8 A   

                  89.5      92.2     108.6     197.9     232.4     290.2     315.3     415.7
  
           1   -0.0116   -0.0080   -0.0120    0.0077   -0.0026    0.0256   -0.0172    0.0170
           2   -0.0023    0.0078    0.0194   -0.0049   -0.0017   -0.0067    0.0068   -0.0106
           3   -0.0097    0.0106   -0.0046    0.0061   -0.0070    0.0205    0.0238   -0.0114
           4   -0.0115   -0.0083   -0.0124    0.0078   -0.0009    0.0260   -0.0153    0.0188
           5   -0.0226   -0.0048    0.0001    0.0038   -0.0023    0.0124   -0.0151    0.0034
           6    0.0012   -0.0108   -0.0035   -0.0061   -0.0103    0.0322    0.0220    0.0050
           7    0.0084    0.0045    0.0074    0.0006    0.0006    0.0113   -0.0011   -0.0275
           8   -0.0022    0.0077    0.0194   -0.0041   -0.0005   -0.0069    0.0048   -0.0195
           9   -0.0107    0.0216    0.0248    0.0193    0.0315   -0.0102   -0.0128    0.0221
          10    0.0095    0.0032    0.0068   -0.0013   -0.0021    0.0111   -0.0021   -0.0279
          11   -0.0215   -0.0049   -0.0001    0.0038   -0.0020    0.0118   -0.0149    0.0112
          12    0.0296   -0.0220   -0.0064   -0.0209   -0.0174   -0.0185   -0.0243    0.0162
          13   -0.0251    0.0035   -0.0193   -0.0061   -0.0218   -0.0266   -0.0135    0.0047
          14    0.0139   -0.0002   -0.0047   -0.0038   -0.0002   -0.0107    0.0104    0.0292
          15   -0.0081    0.0125   -0.0217   -0.0005   -0.0156   -0.0111    0.0280   -0.0063
          16    0.0068   -0.0257    0.0539   -0.0215   -0.0108   -0.0084    0.0139    0.0066
          17    0.0145   -0.0009   -0.0016   -0.0043    0.0004   -0.0113    0.0124    0.0365
          18    0.0335   -0.0188   -0.0140    0.0157    0.0227    0.0017   -0.0225   -0.0147
          19   -0.0140   -0.0234   -0.0196    0.0112    0.0299   -0.0220    0.0128    0.0042
          20   -0.0002   -0.0171   -0.0173    0.0048    0.0052    0.0038   -0.0034   -0.0279
          21   -0.0132   -0.0111    0.0032   -0.0055    0.0003    0.0126    0.0292    0.0109
          22    0.0342    0.0525   -0.0123    0.0068    0.0098   -0.0087    0.0143    0.0109
          23    0.0169    0.0114   -0.0141    0.0032   -0.0023    0.0089   -0.0041   -0.0284
          24   -0.0267    0.0184    0.0227   -0.0095   -0.0092   -0.0134   -0.0276   -0.0180
          25   -0.0128   -0.0234   -0.0147    0.0090   -0.0018    0.0568   -0.0226    0.0342
          26   -0.0012    0.0201    0.0444    0.0019    0.0156   -0.0187   -0.0017   -0.0202
          27   -0.0093    0.0118   -0.0152    0.0020   -0.0146    0.0098    0.0298   -0.0149
          28   -0.0218   -0.0012   -0.0200    0.0144   -0.0075    0.0425   -0.0211    0.0238
          29   -0.0482    0.0008    0.0008    0.0134    0.0032    0.0329   -0.0034    0.0167
          30   -0.0052   -0.0113    0.0006   -0.0053   -0.0048    0.0312    0.0290    0.0077
          31   -0.0327    0.0110   -0.0359   -0.0052   -0.0263   -0.0341   -0.0159    0.0073
          32   -0.0056    0.0191   -0.0533    0.0039   -0.0087   -0.0238   -0.0010    0.0401
          33   -0.0387    0.0399   -0.0536   -0.0208   -0.0450   -0.0719    0.0393   -0.0173
          34   -0.0518    0.0293   -0.0631   -0.0192   -0.0460   -0.0814   -0.0121    0.0031
          35    0.0470   -0.0266    0.0205   -0.0025    0.0211    0.0004   -0.0012    0.0367
          36   -0.0077    0.0099   -0.0092    0.0056   -0.0115    0.0119    0.0314   -0.0083
          37    0.0384   -0.0173   -0.0054   -0.0270   -0.0307   -0.0002   -0.0023   -0.0501
          38    0.0022    0.0191    0.0438    0.0034    0.0272   -0.0305   -0.0121   -0.0043
          39   -0.0254    0.0400    0.0451    0.0391    0.0644   -0.0164   -0.0214    0.0435
          40   -0.0107    0.0349    0.0333    0.0245    0.0348    0.0125    0.0112   -0.0333
          41    0.0056    0.0036    0.0065   -0.0159   -0.0260    0.0060    0.0329   -0.0580
          42   -0.0239    0.0384    0.0439    0.0372    0.0617   -0.0164   -0.0217    0.0408
          43    0.0406   -0.0202   -0.0076   -0.0301   -0.0354   -0.0007   -0.0073   -0.0462
          44   -0.0091   -0.0168   -0.0092   -0.0044   -0.0093   -0.0158   -0.0500    0.0301
          45    0.0505   -0.0388   -0.0177   -0.0388   -0.0373   -0.0380   -0.0446    0.0176
          46   -0.0078    0.0327    0.0319    0.0209    0.0298    0.0116    0.0127   -0.0395
          47   -0.0452   -0.0015   -0.0034    0.0171    0.0055    0.0498    0.0105    0.0162
          48    0.0530   -0.0409   -0.0189   -0.0413   -0.0402   -0.0407   -0.0477    0.0199
          49   -0.0042   -0.0069    0.0414   -0.1914    0.0657    0.0239    0.0151    0.0065
          50    0.0294   -0.0105   -0.0192    0.0065    0.0240   -0.0079   -0.0338    0.0246
          51    0.0355   -0.0144   -0.0289   -0.0617    0.0720    0.0192   -0.0455   -0.0214
          52    0.0153   -0.0338    0.0726   -0.0148   -0.0130   -0.0053    0.0222    0.0092
          53    0.0334   -0.0176    0.0459   -0.0203    0.0082    0.0030    0.0371    0.0436
          54    0.0656   -0.0569    0.0262    0.2045   -0.0494   -0.0248   -0.0275   -0.0175
          55    0.0344   -0.0591    0.1056    0.1284   -0.0764   -0.0278    0.0315    0.0110
          56   -0.0191    0.0257   -0.0297    0.0002   -0.0307   -0.0282    0.0357    0.0452
          57    0.0322   -0.0106   -0.0328   -0.0794    0.0783    0.0218   -0.0448   -0.0218
          58   -0.0579   -0.0994   -0.0324    0.0213    0.0823   -0.0931    0.0545   -0.0389
          59    0.0033   -0.0503   -0.0340    0.0091    0.0232   -0.0061    0.0322   -0.0409
          60   -0.0131   -0.0356   -0.0078   -0.0025    0.0139    0.0023    0.0521    0.0001
          61    0.0768    0.1265    0.0010   -0.0052   -0.0394    0.0635   -0.0149    0.0726
          62    0.0135    0.0440    0.0024   -0.0014   -0.0234    0.0123   -0.0627   -0.0383
          63   -0.0275    0.0431    0.0345   -0.0131   -0.0253   -0.0090   -0.0693   -0.0231
          64    0.0343    0.0469   -0.0179    0.0126    0.0402   -0.0676    0.0469   -0.0418
          65    0.0357    0.0039   -0.0281    0.0069    0.0119    0.0109    0.0556   -0.0180
          66   -0.0375    0.0199    0.0281   -0.0087   -0.0024   -0.0441   -0.0466   -0.0512


   Root No.       9        10        11        12        13        14        15        16

                 9 A      10 A      11 A      12 A      13 A      14 A      15 A      16 A   

                 451.0     499.2     644.1     748.2     821.6     844.8     886.4     930.3
  
           1   -0.0108   -0.0010    0.0273   -0.0213   -0.0059   -0.0060   -0.0088    0.0081
           2    0.0185   -0.0231   -0.0056   -0.0272    0.0045   -0.0095   -0.0001   -0.0018
           3   -0.0298   -0.0319    0.0041   -0.0224   -0.0008   -0.0063   -0.0187    0.0012
           4   -0.0144   -0.0066    0.0002   -0.0105    0.0181   -0.0129    0.0080   -0.0141
           5    0.0072   -0.0206    0.0030    0.0293   -0.0009    0.0084   -0.0002   -0.0071
           6    0.0200    0.0292    0.0087   -0.0193    0.0127   -0.0127    0.0161    0.0109
           7   -0.0016    0.0064    0.0004    0.0284   -0.0006    0.0095    0.0024    0.0047
           8    0.0257   -0.0280   -0.0087   -0.0300    0.0020   -0.0163    0.0080    0.0005
           9   -0.0040    0.0074    0.0031   -0.0064    0.0046    0.0229   -0.0131   -0.0063
          10   -0.0009    0.0059    0.0020    0.0280   -0.0027    0.0102   -0.0008    0.0027
          11    0.0107   -0.0321    0.0130    0.0320    0.0025    0.0149    0.0129    0.0196
          12   -0.0014   -0.0124    0.0024   -0.0056    0.0102    0.0194    0.0138    0.0064
          13    0.0324    0.0176    0.0143   -0.0246   -0.0275    0.0073   -0.0016    0.0012
          14   -0.0152    0.0152    0.0038   -0.0014   -0.0017    0.0004    0.0002    0.0005
          15   -0.0257   -0.0122   -0.0131    0.0180   -0.0107    0.0007    0.0182    0.0000
          16   -0.0043    0.0072    0.0018   -0.0032   -0.0063    0.0024    0.0015   -0.0010
          17   -0.0211    0.0203    0.0062   -0.0012   -0.0013    0.0040   -0.0079   -0.0009
          18    0.0173   -0.0066   -0.0029    0.0034   -0.0013    0.0000    0.0101   -0.0007
          19   -0.0097   -0.0131   -0.0633   -0.0078    0.0023   -0.0015    0.0073   -0.0381
          20   -0.0153    0.0310   -0.0221   -0.0028   -0.0028   -0.0008   -0.0031   -0.0173
          21    0.0406    0.0105   -0.0055    0.0178   -0.0119    0.0031   -0.0110   -0.0144
          22    0.0068   -0.0195    0.0029   -0.0015    0.0030   -0.0007    0.0062   -0.0044
          23   -0.0111    0.0333    0.0031   -0.0003   -0.0044   -0.0008   -0.0071   -0.0073
          24   -0.0173    0.0147    0.0031    0.0037   -0.0065    0.0030   -0.0145   -0.0145
          25   -0.0063    0.0126    0.0479   -0.0326    0.0192   -0.0374    0.0037    0.0227
          26    0.0370   -0.0269   -0.0172   -0.0476    0.0164    0.0029   -0.0136   -0.0217
          27   -0.0391   -0.0353   -0.0019   -0.0062   -0.0171    0.0017   -0.0162    0.0033
          28   -0.0429   -0.0256    0.0369   -0.0235    0.0370   -0.0399   -0.0197   -0.0169
          29    0.0141   -0.0301    0.0134    0.0547    0.0024   -0.0060   -0.0113   -0.0210
          30    0.0358    0.0335   -0.0041   -0.0022    0.0041   -0.0063    0.0225    0.0060
          31    0.0390    0.0260    0.0137   -0.0154    0.0046   -0.0017   -0.0190    0.0061
          32   -0.0035    0.0347    0.0097    0.0139    0.0675   -0.0190   -0.0509    0.0154
          33    0.0253    0.0212   -0.0497    0.0789    0.1260   -0.0321    0.0033   -0.0046
          34    0.0789    0.0571   -0.0100    0.0298    0.1053   -0.0233   -0.0324    0.0012
          35   -0.0207    0.0206    0.0108   -0.0113   -0.0724    0.0306    0.0446   -0.0132
          36   -0.0457   -0.0333   -0.0036   -0.0052   -0.0464    0.0030    0.0142    0.0059
          37    0.0030   -0.0152   -0.0126    0.0053    0.0337    0.1230    0.0162   -0.0119
          38    0.0498    0.0146   -0.0208    0.0133   -0.0053   -0.0756    0.0871    0.0160
          39    0.0065    0.0439    0.0045    0.0328   -0.0207   -0.0782    0.0225    0.0127
          40    0.0036    0.0351   -0.0075    0.0563   -0.0354   -0.1198   -0.0015    0.0068
          41    0.0106   -0.0676   -0.0197   -0.0847    0.0156    0.0251   -0.0572   -0.0331
          42    0.0063    0.0429    0.0051    0.0368   -0.0203   -0.0668    0.0207    0.0131
          43    0.0018   -0.0173    0.0001    0.0554   -0.0414   -0.1172   -0.0095    0.0064
          44   -0.0111   -0.0784    0.0167    0.0849   -0.0296   -0.0158   -0.0481   -0.0140
          45   -0.0110   -0.0477    0.0040    0.0342   -0.0258   -0.0615   -0.0221   -0.0090
          46    0.0054    0.0343   -0.0064    0.0001    0.0192    0.1277   -0.0073   -0.0116
          47    0.0228    0.0073    0.0162    0.0001    0.0490    0.0512    0.0910    0.0674
          48   -0.0122   -0.0525    0.0053    0.0319   -0.0305   -0.0737   -0.0284   -0.0134
          49   -0.0254    0.0010   -0.0034    0.0183    0.0349   -0.0106   -0.0099    0.0035
          50    0.0332    0.0261    0.0254   -0.0529   -0.0041    0.0045   -0.0638    0.0001
          51    0.0351   -0.0072    0.0041   -0.0129    0.0177   -0.0064   -0.0240    0.0020
          52   -0.0167    0.0053   -0.0041    0.0151    0.0290   -0.0081   -0.0111    0.0031
          53   -0.0610    0.0130   -0.0112    0.0519    0.0915   -0.0234   -0.0359    0.0094
          54    0.0394   -0.0025   -0.0008   -0.0065    0.0238   -0.0081   -0.0230    0.0022
          55   -0.0146    0.0075   -0.0075    0.0213    0.0413   -0.0119   -0.0147    0.0046
          56   -0.0394    0.0236    0.0045   -0.0002   -0.0871    0.0321    0.0686   -0.0121
          57    0.0331   -0.0084    0.0036   -0.0123    0.0127   -0.0054   -0.0183    0.0016
          58   -0.0316   -0.0360    0.0118    0.0000   -0.0155    0.0131   -0.0496    0.2855
          59   -0.0096    0.0430    0.0110   -0.0142   -0.0053   -0.0103   -0.0107    0.1190
          60    0.0415    0.0172    0.0187    0.0103   -0.0140   -0.0025   -0.0181    0.0872
          61    0.0519   -0.0143   -0.1773    0.0205   -0.0333    0.0192   -0.0568    0.1782
          62   -0.0583    0.0492   -0.0779   -0.0416    0.0173   -0.0178    0.0376    0.1143
          63   -0.0491    0.0260   -0.0584   -0.0251    0.0081   -0.0085    0.0157    0.0761
          64   -0.0177   -0.0340    0.2913   -0.0012    0.0355   -0.0119    0.0408    0.0088
          65    0.0434    0.0193    0.1261    0.0509   -0.0310    0.0186   -0.0688   -0.0626
          66   -0.0623    0.0169    0.0756   -0.0268    0.0255   -0.0145    0.0392    0.0248


   Root No.      17        18        19        20        21        22        23        24

                17 A      18 A      19 A      20 A      21 A      22 A      23 A      24 A   

                 945.3     976.4     985.3    1010.7    1029.4    1039.9    1054.5    1060.4
  
           1    0.0138   -0.0250   -0.0069   -0.0056   -0.0037    0.0042   -0.0066    0.0158
           2   -0.0038    0.0069    0.0090   -0.0059    0.0060    0.0209    0.0294    0.0197
           3   -0.0117   -0.0023    0.0094    0.0038   -0.0029    0.0022   -0.0027    0.0025
           4    0.0114    0.0311    0.0044    0.0013    0.0070   -0.0041    0.0208    0.0086
           5    0.0041    0.0075    0.0012    0.0114    0.0043    0.0217    0.0008   -0.0319
           6   -0.0099    0.0059   -0.0038   -0.0010   -0.0023   -0.0018    0.0024    0.0059
           7   -0.0094    0.0018   -0.0010   -0.0036   -0.0046   -0.0448   -0.0101    0.0064
           8    0.0238   -0.0113   -0.0095    0.0077   -0.0052   -0.0048   -0.0250   -0.0045
           9   -0.0067    0.0059   -0.0121   -0.0074    0.0001   -0.0008   -0.0024   -0.0168
          10   -0.0084   -0.0031    0.0050   -0.0011    0.0034    0.0449    0.0117   -0.0026
          11   -0.0196   -0.0155    0.0047   -0.0130   -0.0050   -0.0055   -0.0111    0.0201
          12    0.0065   -0.0038    0.0146   -0.0020   -0.0016    0.0025   -0.0122   -0.0103
          13   -0.0043   -0.0118   -0.0003   -0.0005    0.0080   -0.0098    0.0143   -0.0143
          14    0.0009   -0.0022    0.0006    0.0007    0.0005   -0.0001   -0.0004    0.0035
          15    0.0100   -0.0059    0.0021    0.0071    0.0042   -0.0019    0.0022    0.0035
          16   -0.0081    0.0117    0.0052    0.0053   -0.0056    0.0038   -0.0120    0.0073
          17   -0.0100    0.0043    0.0049    0.0049   -0.0013   -0.0003   -0.0025   -0.0033
          18    0.0129    0.0030   -0.0148   -0.0165   -0.0014    0.0051    0.0063    0.0011
          19   -0.0064   -0.0060    0.0032   -0.0014    0.0314    0.0000   -0.0107    0.0024
          20    0.0023   -0.0009    0.0028   -0.0018    0.0117   -0.0009   -0.0035    0.0023
          21   -0.0034   -0.0035   -0.0114    0.0074    0.0088    0.0000    0.0041   -0.0032
          22   -0.0104   -0.0083   -0.0027    0.0017   -0.0538    0.0023    0.0085   -0.0055
          23    0.0038   -0.0009    0.0003   -0.0008   -0.0195   -0.0013    0.0054    0.0005
          24    0.0199    0.0033    0.0151   -0.0094   -0.0161   -0.0057    0.0006    0.0100
          25    0.0553   -0.0162   -0.0394    0.0128   -0.0519    0.0940   -0.1215    0.0310
          26   -0.0272    0.0544   -0.0124   -0.0812    0.0226   -0.0301    0.1404    0.0414
          27   -0.0189   -0.0279    0.0350    0.0318    0.0121   -0.0166   -0.0008   -0.0144
          28    0.0499    0.0990    0.0012    0.0393   -0.0534   -0.0504    0.0282   -0.0648
          29   -0.0108    0.0508   -0.0577    0.0750   -0.0055   -0.0227    0.0290   -0.1374
          30   -0.0340   -0.0083   -0.0290    0.0094    0.0222    0.0017    0.0111   -0.0049
          31    0.0030   -0.0387   -0.0080   -0.0083    0.0129   -0.0176    0.0163   -0.0218
          32    0.0238   -0.0994   -0.0220   -0.0216    0.0242   -0.0352    0.0180   -0.0322
          33   -0.0050    0.0768    0.0084    0.0065   -0.0371    0.0531   -0.0560    0.0671
          34   -0.0049    0.0318   -0.0164   -0.0210   -0.0260    0.0198   -0.0356    0.0084
          35    0.0051    0.0695   -0.0334   -0.0292   -0.0249    0.0042   -0.0353   -0.0174
          36    0.0076   -0.0575    0.0246    0.0300    0.0318   -0.0181    0.0413    0.0014
          37    0.0368    0.0190   -0.0199    0.0708   -0.0116   -0.1146    0.0311   -0.0207
          38    0.0963   -0.0193    0.0282    0.1092   -0.0133   -0.0639    0.0237    0.0199
          39    0.0061   -0.0097    0.0204    0.0057   -0.0006    0.0084   -0.0014    0.0100
          40   -0.0325    0.0127    0.0092   -0.0432   -0.0057   -0.0812   -0.1023   -0.0246
          41   -0.0188    0.0313   -0.0586   -0.0643   -0.0035   -0.0502   -0.1142   -0.0732
          42    0.0043   -0.0111    0.0204    0.0107   -0.0013    0.0046   -0.0001    0.0050
          43   -0.0295   -0.0047    0.0246   -0.0366    0.0065    0.0853    0.0223   -0.1196
          44   -0.0410    0.0117   -0.0810    0.0320   -0.0034   -0.0592    0.0114    0.1536
          45   -0.0155    0.0088   -0.0192    0.0022    0.0009   -0.0038    0.0045    0.0001
          46    0.0340   -0.0273   -0.0331    0.0645   -0.0001    0.1133   -0.0264    0.0395
          47   -0.0292   -0.0122    0.1042   -0.0836   -0.0083   -0.0588   -0.0108   -0.0537
          48   -0.0139    0.0098   -0.0220    0.0010    0.0022   -0.0076    0.0091    0.0056
          49    0.0185   -0.0333   -0.0130   -0.0134    0.0092   -0.0075    0.0190   -0.0096
          50   -0.1030    0.0274    0.0984    0.0999   -0.0049   -0.0106   -0.0492    0.0114
          51   -0.0222   -0.0069    0.0253    0.0240    0.0040   -0.0052   -0.0025    0.0016
          52    0.0099   -0.0219   -0.0061   -0.0057    0.0066   -0.0062    0.0103   -0.0085
          53    0.0458   -0.0853   -0.0337   -0.0327    0.0317   -0.0264    0.0618   -0.0486
          54   -0.0191   -0.0084    0.0241    0.0235    0.0039   -0.0044   -0.0026    0.0028
          55    0.0153   -0.0314   -0.0085   -0.0089    0.0102   -0.0083    0.0158   -0.0104
          56    0.0245    0.0728   -0.0541   -0.0557   -0.0295    0.0307   -0.0158    0.0117
          57   -0.0188   -0.0048    0.0229    0.0222    0.0029   -0.0029   -0.0038    0.0047
          58    0.0515    0.0466    0.0239   -0.0075   -0.0843    0.0141    0.0173   -0.0271
          59   -0.0199    0.0074   -0.0437    0.0148   -0.0306   -0.0216    0.0314    0.0359
          60   -0.0152    0.0041   -0.0401    0.0176   -0.0234   -0.0126    0.0273    0.0172
          61    0.0638    0.0504    0.0232   -0.0104    0.1833   -0.0040   -0.0340    0.0156
          62   -0.0658   -0.0017   -0.0634    0.0340    0.0704    0.0106    0.0056   -0.0208
          63   -0.0275    0.0040   -0.0291    0.0146    0.0530    0.0024   -0.0006   -0.0038
          64   -0.0113    0.0290   -0.0193    0.0135    0.2180    0.0046   -0.0278   -0.0021
          65    0.1031    0.0375    0.0614   -0.0322    0.0775   -0.0199   -0.0150    0.0326
          66   -0.0397   -0.0006   -0.0304    0.0155    0.0632    0.0059   -0.0048   -0.0066


   Root No.      25        26        27        28        29        30        31        32

                25 A      26 A      27 A      28 A      29 A      30 A      31 A      32 A   

                1093.5    1125.7    1129.5    1147.7    1176.8    1184.2    1195.2    1208.2
  
           1   -0.0189   -0.0035   -0.0008    0.0128    0.0247   -0.0030   -0.0155   -0.0288
           2    0.0081    0.0081    0.0021   -0.0079   -0.0140   -0.0257    0.0276    0.0204
           3   -0.0081    0.0070   -0.0051    0.0231   -0.0191   -0.0342    0.0021   -0.0053
           4    0.0203    0.0016    0.0059   -0.0291   -0.0165    0.0263   -0.0153   -0.0132
           5    0.0116   -0.0003   -0.0067   -0.0211   -0.0081   -0.0085    0.0095   -0.0349
           6    0.0041   -0.0005    0.0039   -0.0071   -0.0059   -0.0033   -0.0277    0.0195
           7   -0.0053   -0.0012   -0.0030    0.0042    0.0095   -0.0169    0.0024    0.0013
           8   -0.0064   -0.0062    0.0038    0.0088    0.0054    0.0270   -0.0244    0.0006
           9   -0.0246    0.0084    0.0157   -0.0164   -0.0081    0.0155   -0.0002    0.0054
          10    0.0044    0.0030    0.0042    0.0004   -0.0111    0.0113    0.0046    0.0150
          11   -0.0081   -0.0017    0.0049    0.0184    0.0030    0.0130   -0.0122    0.0092
          12    0.0286   -0.0064   -0.0146    0.0114    0.0128   -0.0075    0.0061    0.0000
          13    0.0123   -0.0234    0.0191    0.0007   -0.0087   -0.0084    0.0059    0.0116
          14    0.0097    0.0527    0.0171   -0.0052    0.0127   -0.0012    0.0059    0.0030
          15    0.0040   -0.0022    0.0171   -0.0184    0.0340    0.0134    0.0080   -0.0031
          16   -0.0090    0.0260   -0.0258   -0.0043    0.0029    0.0064   -0.0020   -0.0019
          17   -0.0113   -0.0550   -0.0167    0.0024   -0.0108    0.0038   -0.0043   -0.0010
          18   -0.0041   -0.0051   -0.0203    0.0037   -0.0146   -0.0035   -0.0001    0.0039
          19   -0.0073    0.0009   -0.0005    0.0112    0.0014   -0.0030    0.0031    0.0145
          20   -0.0030    0.0004   -0.0001    0.0036   -0.0006   -0.0042   -0.0007    0.0019
          21    0.0005    0.0017   -0.0026    0.0108   -0.0030    0.0012    0.0230   -0.0403
          22    0.0053   -0.0005   -0.0003   -0.0047   -0.0013    0.0014   -0.0001   -0.0028
          23    0.0005    0.0001    0.0001   -0.0034    0.0007   -0.0058   -0.0045   -0.0093
          24   -0.0006   -0.0005    0.0028   -0.0010    0.0010    0.0089   -0.0034    0.0179
          25   -0.0661   -0.0416    0.0225   -0.0823    0.0418   -0.0950    0.1721    0.0780
          26   -0.0223   -0.0391   -0.0476    0.0197    0.1894   -0.0340   -0.0003   -0.0897
          27    0.0284    0.0478    0.0090    0.0539   -0.1234    0.0126   -0.0749   -0.0050
          28    0.0259    0.0131   -0.0220    0.1592    0.0222    0.0597    0.1017    0.0483
          29    0.0002    0.0052   -0.0436    0.0259    0.1163   -0.0787   -0.0641    0.1697
          30   -0.0033   -0.0037    0.0010   -0.0750    0.0294   -0.0505   -0.1177    0.0775
          31    0.0100    0.0324   -0.0235   -0.0049   -0.0127   -0.0063    0.0046    0.0116
          32    0.0111    0.2392   -0.1216   -0.0288    0.0000    0.0105    0.0046    0.0077
          33   -0.0406   -0.0310    0.0323    0.0026    0.0449    0.0095   -0.0225   -0.0385
          34   -0.0211    0.0219    0.0019    0.0543   -0.0453   -0.0406   -0.0177   -0.0156
          35    0.0366    0.1003    0.1995    0.0752    0.0160   -0.0638   -0.0227   -0.0404
          36    0.0091   -0.0443   -0.0476   -0.0796    0.0539    0.0544    0.0311    0.0276
          37   -0.1157    0.0197    0.0247   -0.0512   -0.0590   -0.0432    0.0387   -0.0311
          38   -0.0413    0.0013   -0.0061    0.0073   -0.0486   -0.0262   -0.0027   -0.0417
          39    0.0197    0.0009   -0.0058    0.0155    0.0009   -0.0001   -0.0085    0.0008
          40    0.1320   -0.0405   -0.0486   -0.0290    0.0017   -0.0438    0.0454   -0.0316
          41    0.0549   -0.0263    0.0086   -0.0805   -0.0119    0.0712    0.0045   -0.0158
          42    0.0111    0.0012   -0.0085    0.0147   -0.0041   -0.0205    0.0051   -0.0011
          43   -0.1215    0.0225    0.0371    0.0150    0.0094    0.0703   -0.0326   -0.0026
          44    0.0317   -0.0027    0.0171   -0.0329   -0.0549   -0.0124   -0.0081    0.0566
          45   -0.0131    0.0028    0.0075   -0.0073   -0.0051    0.0062   -0.0109    0.0151
          46    0.1079   -0.0259   -0.0379    0.0640    0.0413    0.0185   -0.0522    0.0030
          47   -0.0291    0.0080    0.0068   -0.0019   -0.0191    0.0111    0.0661    0.0353
          48   -0.0191    0.0048    0.0087   -0.0145   -0.0049   -0.0097   -0.0075   -0.0057
          49    0.0123   -0.0114    0.0257    0.0009    0.0002   -0.0077    0.0045    0.0000
          50   -0.0231   -0.0423   -0.0042   -0.0199    0.0476    0.0290   -0.0083   -0.0185
          51    0.0003   -0.0160    0.0116   -0.0068    0.0157    0.0035    0.0018   -0.0039
          52    0.0054   -0.0171    0.0088    0.0029   -0.0049   -0.0033   -0.0004    0.0012
          53    0.0271   -0.1827    0.0742    0.0268   -0.0403   -0.0259   -0.0014    0.0094
          54    0.0035   -0.0054    0.0191   -0.0094    0.0196    0.0055    0.0036   -0.0036
          55    0.0134   -0.0089    0.0302    0.0028   -0.0007   -0.0079    0.0028    0.0015
          56   -0.0532   -0.0439   -0.1492    0.0226   -0.0708   -0.0010   -0.0179    0.0033
          57    0.0021    0.0090    0.0084   -0.0110    0.0178    0.0077    0.0037   -0.0005
          58    0.0174   -0.0024   -0.0031   -0.0508   -0.0013   -0.0676   -0.0731   -0.0310
          59    0.0067    0.0015    0.0129    0.0345   -0.0010    0.1491    0.0933    0.0693
          60    0.0079    0.0023    0.0055    0.0276   -0.0039    0.0938    0.0783   -0.0021
          61   -0.0152    0.0010    0.0010    0.0147    0.0015    0.0009   -0.0005    0.0338
          62   -0.0013    0.0033   -0.0066    0.0095    0.0033   -0.0176    0.0180   -0.0661
          63   -0.0023    0.0017   -0.0017    0.0092    0.0019    0.0022    0.0137   -0.0203
          64   -0.0063    0.0016   -0.0028    0.0091   -0.0045   -0.0021    0.0080   -0.0122
          65   -0.0121   -0.0004    0.0065   -0.0052    0.0138    0.0070   -0.0227    0.0421
          66    0.0008    0.0010   -0.0022    0.0075   -0.0079    0.0008    0.0124   -0.0184


   Root No.      33        34        35        36        37        38        39        40

                33 A      34 A      35 A      36 A      37 A      38 A      39 A      40 A   

                1212.0    1237.8    1267.7    1284.6    1312.9    1371.5    1402.1    1405.4
  
           1    0.0304   -0.0108    0.0106   -0.0252   -0.0162    0.0157    0.0008   -0.0018
           2    0.0083   -0.0191   -0.0178   -0.0071    0.0089    0.0283   -0.0119    0.0060
           3    0.0131    0.0206   -0.0017    0.0074    0.0038   -0.0191    0.0045   -0.0012
           4    0.0066    0.0010   -0.0092    0.0135    0.0209    0.0020   -0.0196    0.0096
           5    0.0148    0.0055   -0.0115    0.0208   -0.0203   -0.0164    0.0278   -0.0137
           6   -0.0330    0.0084   -0.0101   -0.0004   -0.0148   -0.0086    0.0257   -0.0125
           7    0.0022   -0.0277   -0.0189    0.0376    0.0019   -0.0048   -0.0038    0.0028
           8   -0.0027   -0.0136    0.0200    0.0296   -0.0025   -0.0098    0.0090   -0.0047
           9   -0.0067   -0.0082   -0.0018   -0.0036   -0.0014    0.0034    0.0001   -0.0002
          10   -0.0045    0.0110    0.0513   -0.0099   -0.0120   -0.0027    0.0047   -0.0024
          11   -0.0254    0.0102   -0.0297   -0.0145    0.0185    0.0064   -0.0105    0.0051
          12    0.0152   -0.0012    0.0031   -0.0004    0.0040    0.0012   -0.0044    0.0022
          13   -0.0081    0.0001   -0.0063   -0.0010   -0.0010   -0.0048    0.0120   -0.0036
          14    0.0035   -0.0211   -0.0121   -0.0255   -0.0147   -0.0236    0.0049   -0.0061
          15   -0.0121    0.0075    0.0079    0.0114    0.0059    0.0060   -0.0208    0.0046
          16   -0.0006    0.0015    0.0023    0.0017    0.0009    0.0050   -0.0042   -0.0220
          17   -0.0007    0.0031    0.0022    0.0019   -0.0004   -0.0250   -0.0086    0.0049
          18    0.0034   -0.0057   -0.0038   -0.0044   -0.0020   -0.0031   -0.0055   -0.0181
          19   -0.0003    0.0043   -0.0006   -0.0024    0.0049   -0.0043    0.0090   -0.0043
          20   -0.0078    0.0009   -0.0024    0.0010   -0.0232    0.0042   -0.0045    0.0026
          21   -0.0087   -0.0184    0.0139   -0.0036    0.0075    0.0095   -0.0199    0.0096
          22    0.0018    0.0010   -0.0017    0.0017    0.0024   -0.0028    0.0051   -0.0027
          23   -0.0082   -0.0078    0.0066   -0.0028   -0.0054    0.0090   -0.0171    0.0084
          24    0.0095    0.0078   -0.0055    0.0014   -0.0011   -0.0017    0.0032   -0.0015
          25   -0.0409    0.0278   -0.0171    0.0426    0.0388   -0.0152   -0.0179    0.0074
          26   -0.0145    0.0921    0.0200    0.0005   -0.0234   -0.0497    0.0207   -0.0172
          27    0.0591   -0.0499   -0.0068   -0.0266   -0.0064    0.0321   -0.0023    0.0051
          28   -0.1525   -0.0366    0.0189   -0.0358   -0.0245    0.0138    0.0267   -0.0096
          29    0.0968   -0.0183    0.0401   -0.0362    0.0094    0.0291   -0.0419    0.0228
          30    0.0774    0.0156    0.0008   -0.0028    0.0192    0.0052   -0.0258    0.0119
          31   -0.0195    0.0272    0.0040    0.0246    0.0133    0.0205    0.0167   -0.0012
          32   -0.0454    0.0760    0.0237    0.0696    0.0376    0.0700    0.0281    0.0031
          33    0.0600   -0.0557   -0.0016   -0.0589   -0.0315    0.0778    0.1107   -0.0249
          34    0.0251    0.0290    0.0069    0.0209    0.0105   -0.0770   -0.1083    0.0181
          35    0.0190    0.0807    0.0309    0.0612    0.0298    0.0702    0.0239    0.0016
          36   -0.0343   -0.0477   -0.0160   -0.0348   -0.0180    0.0135    0.0441   -0.0122
          37   -0.0001    0.0549   -0.0595   -0.0865   -0.0020    0.0202    0.0346   -0.0197
          38    0.0126    0.1047    0.0341   -0.0879    0.0024   -0.0087   -0.0389    0.0214
          39    0.0041    0.0076    0.0264    0.0042    0.0025   -0.0100   -0.0411    0.0232
          40    0.0251    0.0482   -0.0504   -0.0916    0.0014    0.0261    0.0311   -0.0185
          41   -0.0095    0.0494    0.0342   -0.1078   -0.0027    0.0158   -0.0465    0.0239
          42    0.0081   -0.0036   -0.0223    0.0053   -0.0002    0.0048    0.0399   -0.0220
          43   -0.0359    0.0321   -0.1086   -0.0344    0.0444   -0.0001   -0.0198    0.0104
          44   -0.0509    0.0211    0.1302   -0.0156   -0.0371   -0.0248    0.0256   -0.0120
          45   -0.0127    0.0122    0.0045   -0.0126    0.0032   -0.0106    0.0014    0.0000
          46   -0.0412    0.0507   -0.1047   -0.0336    0.0421   -0.0048   -0.0147    0.0081
          47    0.0435   -0.0010    0.1439   -0.0178   -0.0119   -0.0108   -0.0062    0.0034
          48   -0.0041   -0.0157   -0.0055    0.0142   -0.0093    0.0099    0.0047   -0.0030
          49   -0.0002   -0.0035   -0.0046   -0.0083   -0.0023   -0.0406    0.0579    0.2560
          50   -0.0189    0.0495    0.0325    0.0556    0.0289    0.1044   -0.0092   -0.0164
          51   -0.0054    0.0121    0.0068    0.0141    0.0092    0.0309    0.0260    0.1125
          52   -0.0024    0.0076    0.0033    0.0105    0.0070    0.0407    0.0082   -0.0278
          53   -0.0047    0.0229    0.0069    0.0330    0.0215    0.1098    0.0127   -0.0985
          54   -0.0030   -0.0002    0.0023   -0.0010    0.0029    0.0083    0.0735    0.1893
          55   -0.0004   -0.0015   -0.0051   -0.0059   -0.0065   -0.0490   -0.0241    0.0467
          56    0.0089    0.0150    0.0103    0.0281    0.0224    0.0975    0.0519    0.0973
          57   -0.0022   -0.0073   -0.0019   -0.0094   -0.0061   -0.0177   -0.0128   -0.0832
          58   -0.0778   -0.0256    0.0189   -0.0102    0.0033    0.0062   -0.0102    0.0049
          59    0.1664    0.0622   -0.0567    0.0332   -0.0127   -0.0163    0.0247   -0.0116
          60    0.0944    0.0173   -0.0177    0.0154    0.0157   -0.0023   -0.0037    0.0017
          61   -0.0007    0.0210   -0.0242    0.0114   -0.1092    0.0162   -0.0193    0.0130
          62   -0.0154   -0.0478    0.0546   -0.0307    0.1998   -0.0269    0.0314   -0.0186
          63    0.0041   -0.0175    0.0242   -0.0156    0.1242   -0.0239    0.0334   -0.0182
          64   -0.0085    0.0009   -0.0062    0.0065   -0.0370    0.0054   -0.0075    0.0044
          65    0.0274   -0.0062    0.0282   -0.0250    0.2012   -0.0399    0.0543   -0.0287
          66   -0.0152    0.0048   -0.0175    0.0151   -0.1283    0.0294   -0.0434    0.0228


   Root No.      41        42        43        44        45        46        47        48

                41 A      42 A      43 A      44 A      45 A      46 A      47 A      48 A   

                1412.0    1413.0    1416.2    1428.1    1460.1    1860.4    2936.5    2946.7
  
           1    0.0045   -0.0029    0.0175    0.0037    0.0274    0.0015    0.0046   -0.0096
           2    0.0023   -0.0031    0.0126    0.0129    0.0301    0.0002    0.0058   -0.0096
           3   -0.0041    0.0019   -0.0199   -0.0078   -0.0243    0.0003    0.0112   -0.0202
           4   -0.0015   -0.0085   -0.0140    0.0028   -0.0265    0.0177   -0.0188   -0.0042
           5    0.0013    0.0082    0.0097   -0.0091    0.0279   -0.0290    0.0181    0.0032
           6    0.0023    0.0085    0.0167   -0.0032    0.0244   -0.0262   -0.0415   -0.0079
           7   -0.0081    0.0136   -0.0131   -0.0090    0.0228   -0.0026    0.0004    0.0000
           8    0.0083   -0.0178    0.0030    0.0040   -0.0246    0.0019   -0.0002   -0.0003
           9    0.0010   -0.0001    0.0039    0.0003    0.0031   -0.0001   -0.0009    0.0017
          10   -0.0035    0.0160    0.0133    0.0062   -0.0229    0.0023   -0.0002    0.0001
          11   -0.0071    0.0176    0.0050    0.0075   -0.0249    0.0002    0.0005    0.0003
          12   -0.0003   -0.0020   -0.0036    0.0003   -0.0030   -0.0011    0.0031    0.0006
          13   -0.0019    0.0046   -0.0169   -0.0006   -0.0121   -0.0006   -0.0047    0.0255
          14    0.0010    0.0018   -0.0035   -0.0431   -0.0247   -0.0001   -0.0005    0.0013
          15    0.0021   -0.0073    0.0278    0.0026    0.0190    0.0003   -0.0030    0.0151
          16   -0.0185   -0.0048    0.0017   -0.0006    0.0003    0.0001   -0.0001   -0.0016
          17   -0.0085   -0.0024   -0.0027    0.0472    0.0132    0.0000    0.0000    0.0000
          18    0.0212    0.0069   -0.0059    0.0007   -0.0013    0.0000    0.0002   -0.0009
          19    0.0005    0.0035    0.0046   -0.0012    0.0059   -0.0900    0.0000   -0.0002
          20   -0.0005   -0.0011   -0.0016    0.0007   -0.0009    0.2136   -0.0010   -0.0002
          21   -0.0010   -0.0075   -0.0113    0.0031   -0.0153    0.0337    0.0015    0.0003
          22    0.0004    0.0017    0.0022   -0.0012    0.0044    0.0686    0.0000    0.0000
          23   -0.0009   -0.0060   -0.0080    0.0034   -0.0139   -0.1875    0.0001    0.0000
          24    0.0001    0.0014    0.0019   -0.0003    0.0016    0.0030   -0.0003   -0.0001
          25   -0.0090   -0.0005   -0.0370   -0.0049   -0.0380    0.0075   -0.0629    0.1185
          26   -0.0029   -0.0017   -0.0119   -0.0204   -0.0320   -0.0016   -0.0653    0.1170
          27    0.0045   -0.0006    0.0173    0.0122    0.0364   -0.0030   -0.1387    0.2451
          28    0.0052    0.0120    0.0267    0.0093    0.0345   -0.0176    0.2361    0.0463
          29   -0.0035   -0.0043   -0.0067    0.0150   -0.0274    0.0353   -0.2162   -0.0416
          30   -0.0027   -0.0070   -0.0086    0.0037   -0.0280    0.0169    0.4995    0.0963
          31   -0.0025    0.0055   -0.0233    0.0339    0.0018   -0.0009    0.0322   -0.2057
          32    0.0003    0.0072   -0.0342    0.0846    0.0211   -0.0006   -0.0107    0.0660
          33    0.0081    0.0339   -0.1139    0.0619   -0.0181    0.0008   -0.0018    0.0131
          34   -0.0058   -0.0352    0.1173   -0.0745    0.0215    0.0004    0.0201   -0.1003
          35   -0.0014    0.0023   -0.0243    0.0828    0.0283   -0.0002    0.0171   -0.0816
          36    0.0057    0.0161   -0.0450   -0.0009   -0.0219   -0.0003    0.0407   -0.1969
          37    0.0392   -0.0638    0.0580    0.0354   -0.0541    0.0001    0.0037   -0.0060
          38   -0.0462    0.0842   -0.0518   -0.0326    0.0428    0.0007   -0.0026    0.0036
          39   -0.0489    0.0876   -0.0586   -0.0400    0.0733   -0.0028    0.0069   -0.0098
          40    0.0424   -0.0709    0.0624    0.0403   -0.0582    0.0001   -0.0010    0.0058
          41   -0.0426    0.0850   -0.0306   -0.0283    0.0676    0.0002    0.0006   -0.0046
          42    0.0457   -0.0837    0.0502    0.0364   -0.0749    0.0022    0.0022   -0.0109
          43    0.0203   -0.0862   -0.0663   -0.0286    0.0588    0.0023    0.0088    0.0027
          44    0.0327   -0.0962   -0.0441   -0.0312    0.0719   -0.0043    0.0062    0.0021
          45    0.0271   -0.0940   -0.0571   -0.0308    0.0743   -0.0048   -0.0180   -0.0054
          46    0.0183   -0.0789   -0.0628   -0.0272    0.0550   -0.0021   -0.0117   -0.0021
          47    0.0275   -0.0968   -0.0577   -0.0244    0.0406    0.0028   -0.0075   -0.0012
          48   -0.0289    0.1047    0.0673    0.0331   -0.0754   -0.0025   -0.0195   -0.0031
          49    0.0335    0.0033    0.0103    0.0142    0.0040   -0.0001    0.0000   -0.0004
          50    0.1233    0.0261    0.0218   -0.0875   -0.0033    0.0002    0.0001    0.0003
          51    0.0885    0.0187    0.0117   -0.0488   -0.0052    0.0000   -0.0002    0.0000
          52   -0.0361   -0.0087    0.0053   -0.0440   -0.0111    0.0000    0.0017    0.0136
          53   -0.0544   -0.0102    0.0046   -0.1087   -0.0276   -0.0001   -0.0015   -0.0026
          54   -0.2026   -0.0577    0.0313   -0.0160   -0.0028   -0.0003   -0.0001   -0.0011
          55    0.2340    0.0600   -0.0195    0.0373    0.0106   -0.0001   -0.0014    0.0072
          56    0.0076    0.0002    0.0172   -0.1121   -0.0225    0.0000   -0.0006    0.0035
          57   -0.1475   -0.0363    0.0015    0.0384    0.0064    0.0001   -0.0016    0.0113
          58    0.0000   -0.0054   -0.0042    0.0017   -0.0053    0.0347   -0.0011   -0.0003
          59   -0.0011    0.0142    0.0125   -0.0037    0.0124    0.0104    0.0125    0.0026
          60   -0.0013    0.0008   -0.0038    0.0006   -0.0085   -0.1324   -0.0158   -0.0032
          61   -0.0029   -0.0053   -0.0066    0.0043   -0.0088   -0.0374    0.0004    0.0000
          62    0.0039    0.0085    0.0109   -0.0055    0.0133   -0.0173   -0.0020   -0.0006
          63    0.0031    0.0104    0.0136   -0.0058    0.0190    0.1514    0.0009    0.0005
          64   -0.0009   -0.0029   -0.0037    0.0008   -0.0029    0.0485    0.0002    0.0001
          65    0.0042    0.0170    0.0235   -0.0082    0.0263   -0.0175   -0.0008   -0.0001
          66   -0.0034   -0.0139   -0.0190    0.0073   -0.0256   -0.1420   -0.0007   -0.0001


   Root No.      49        50        51        52        53        54        55        56

                49 A      50 A      51 A      52 A      53 A      54 A      55 A      56 A   

                2955.2    3028.4    3031.2    3039.8    3043.1    3069.7    3084.6    3103.2
  
           1   -0.0111    0.0005   -0.0001   -0.0002   -0.0006    0.0000    0.0000    0.0003
           2   -0.0110    0.0006    0.0000   -0.0002   -0.0007    0.0002   -0.0003    0.0008
           3   -0.0232    0.0011    0.0009   -0.0005   -0.0015    0.0001    0.0001    0.0000
           4   -0.0022   -0.0005   -0.0001   -0.0008   -0.0005    0.0002    0.0000    0.0001
           5    0.0017    0.0005    0.0003    0.0010    0.0005   -0.0001    0.0000   -0.0007
           6   -0.0044   -0.0012   -0.0005   -0.0018   -0.0012    0.0003    0.0000   -0.0001
           7    0.0000    0.0000   -0.0003    0.0001    0.0003    0.0000    0.0001   -0.0140
           8   -0.0003    0.0009    0.0001   -0.0003   -0.0012    0.0000    0.0000    0.0133
           9    0.0021    0.0276    0.0010   -0.0077   -0.0282    0.0000    0.0001   -0.0019
          10    0.0002    0.0000    0.0000    0.0008    0.0002    0.0000    0.0000   -0.0172
          11    0.0002    0.0002    0.0000    0.0005    0.0004    0.0000    0.0000   -0.0167
          12    0.0004   -0.0295   -0.0008   -0.0036   -0.0268    0.0001    0.0000   -0.0018
          13   -0.0262    0.0004   -0.0180   -0.0001   -0.0001   -0.0031    0.0005    0.0000
          14   -0.0011   -0.0002    0.0199    0.0001   -0.0002    0.0008   -0.0014   -0.0001
          15   -0.0156   -0.0004    0.0268    0.0001    0.0000   -0.0003   -0.0024   -0.0001
          16    0.0013   -0.0001    0.0028    0.0000   -0.0001   -0.0498    0.0081    0.0000
          17    0.0001    0.0000    0.0007    0.0000    0.0000   -0.0003    0.0006    0.0000
          18    0.0007    0.0001   -0.0033    0.0000    0.0000   -0.0084   -0.0491    0.0000
          19   -0.0002    0.0000    0.0000    0.0008   -0.0001    0.0000    0.0000    0.0000
          20   -0.0001    0.0012   -0.0001    0.0329   -0.0027   -0.0001    0.0000    0.0004
          21    0.0002   -0.0013    0.0002   -0.0460    0.0041    0.0000    0.0000   -0.0005
          22    0.0000    0.0000    0.0000   -0.0005    0.0001    0.0000    0.0000    0.0000
          23    0.0000   -0.0001    0.0000   -0.0016    0.0001    0.0009   -0.0003    0.0000
          24    0.0000    0.0001    0.0000    0.0039   -0.0004   -0.0012    0.0004    0.0001
          25    0.1320   -0.0064   -0.0024    0.0026    0.0076   -0.0013   -0.0003   -0.0001
          26    0.1320   -0.0085   -0.0015    0.0029    0.0096   -0.0014   -0.0010    0.0005
[...]
 T-DIPOLE    0.0443        C  2 --  H 10          +10.4% ( 43.0%)     0.2%
 TRAVEL      0.0947        C  2 --  C  4           +9.5% ( 41.1%)    47.6%
 RED. MASS   0.6417        C  1 --  C  2           +8.7% ( 39.5%)    17.1%
 EFF. MASS   5.3624

 VIBRATION   40   40A       ATOM PAIR        ENERGY CONTRIBUTION    RADIAL
 FREQ.      1405.42        C  6 --  H 17          +38.2% ( 58.6%)     0.4%
 T-DIPOLE    0.0489        C  6 --  H 18          +23.1% ( 45.6%)     5.6%
 TRAVEL      0.1509        C  6 --  H 19           +9.8% ( 29.6%)    24.6%
 RED. MASS   0.3530        C  5 --  C  6           +4.3% ( 19.6%)    12.9%
 EFF. MASS   2.1078

 VIBRATION   41   41A       ATOM PAIR        ENERGY CONTRIBUTION    RADIAL
 FREQ.      1412.01        C  6 --  H 19          +41.3% ( 57.3%)     0.2%
 T-DIPOLE    0.0592        C  6 --  H 18          +25.0% ( 44.6%)     3.4%
 TRAVEL      0.1689        C  6 --  H 17          +13.4% ( 32.7%)    23.8%
 RED. MASS   0.3225        C  5 --  C  6           +4.4% ( 18.7%)     9.1%
 EFF. MASS   1.6730

 VIBRATION   42   42A       ATOM PAIR        ENERGY CONTRIBUTION    RADIAL
 FREQ.      1412.98        C  4 --  H 16          +17.5% ( 44.2%)     3.2%
 T-DIPOLE    0.0237        C  4 --  H 15          +16.9% ( 43.4%)     4.1%
 TRAVEL      0.1401        C  3 --  H 14          +13.4% ( 38.6%)     3.7%
 RED. MASS   0.2165        C  3 --  H 13          +13.0% ( 38.0%)     4.1%
 EFF. MASS   2.4317

 VIBRATION   43   43A       ATOM PAIR        ENERGY CONTRIBUTION    RADIAL
 FREQ.      1416.15        C  5 --  H 12          +11.5% ( 42.1%)     4.2%
 T-DIPOLE    0.0208        C  1 --  C  5          +11.5% ( 42.0%)    95.8%
 TRAVEL      0.1035        C  5 --  H 11          +10.4% ( 40.0%)     5.6%
 RED. MASS   0.3739        C  1 --  C  2           +7.3% ( 33.5%)    42.6%
 EFF. MASS   4.4476

 VIBRATION   44   44A       ATOM PAIR        ENERGY CONTRIBUTION    RADIAL
 FREQ.      1428.08        C  5 --  C  6          +19.3% ( 56.2%)    99.5%
 T-DIPOLE    0.0361        C  6 --  H 19          +13.4% ( 46.8%)     3.8%
 TRAVEL      0.0946        C  6 --  H 18          +13.0% ( 46.1%)     3.0%
 RED. MASS   0.8650        C  6 --  H 17          +11.3% ( 43.1%)     4.4%
 EFF. MASS   5.2710        C  5 --  H 12          +10.8% ( 42.0%)     2.6%
                           C  5 --  H 11          +10.7% ( 41.8%)     2.4%

 VIBRATION   45   45A       ATOM PAIR        ENERGY CONTRIBUTION    RADIAL
 FREQ.      1460.10        C  1 --  C  2           +9.4% ( 47.5%)    55.0%
 T-DIPOLE    0.0470        C  1 --  C  5           +8.5% ( 45.1%)    86.1%
 TRAVEL      0.0772        C  1 --  C  4           +7.7% ( 42.9%)    93.4%
 RED. MASS   0.9044        C  2 --  C  3           +7.5% ( 42.4%)    91.9%
 EFF. MASS   7.7406

 VIBRATION   46   46A       ATOM PAIR        ENERGY CONTRIBUTION    RADIAL
 FREQ.      1860.43        C  7 --  C  8          +44.9% ( 99.1%)    98.8%
 T-DIPOLE    0.1542        C  2 --  C  7          +16.9% ( 60.8%)    54.5%
 TRAVEL      0.0554        C  7 --  H 20          +15.4% ( 58.1%)     3.8%
 RED. MASS   5.2818        C  8 --  H 21          +10.8% ( 48.7%)    10.6%
 EFF. MASS  11.7980        C  8 --  H 22          +10.6% ( 48.1%)    12.8%

 VIBRATION   47   47A       ATOM PAIR        ENERGY CONTRIBUTION    RADIAL
 FREQ.      2936.48        C  2 --  H 10          +87.4% ( 95.7%)   100.0%
 T-DIPOLE    0.0777        C  1 --  H  9           +6.9% ( 26.8%)   100.0%
 TRAVEL      0.1256        C  1 --  C  2           +1.1% ( 10.8%)    15.8%
 RED. MASS   0.7841        C  2 --  C  4           +1.0% ( 10.2%)    13.7%
 EFF. MASS   1.4545

 VIBRATION   48   48A       ATOM PAIR        ENERGY CONTRIBUTION    RADIAL
 FREQ.      2946.71        C  1 --  H  9          +40.1% ( 65.4%)   100.0%
 T-DIPOLE    0.0862        C  5 --  H 12          +27.1% ( 53.7%)    96.8%
 TRAVEL      0.1236        C  5 --  H 11          +23.2% ( 49.7%)    95.9%
 RED. MASS   0.3062        C  2 --  H 10           +6.0% ( 25.2%)    99.9%
 EFF. MASS   1.4985

 VIBRATION   49   49A       ATOM PAIR        ENERGY CONTRIBUTION    RADIAL
 FREQ.      2955.23        C  1 --  H  9          +47.1% ( 70.5%)   100.0%
 T-DIPOLE    0.0795        C  5 --  H 12          +25.2% ( 51.6%)    96.9%
 TRAVEL      0.1239        C  5 --  H 11          +22.7% ( 49.0%)    96.2%
 RED. MASS   0.3520        C  2 --  H 10           +1.5% ( 12.7%)    99.8%
 EFF. MASS   1.4854

 VIBRATION   50   50A       ATOM PAIR        ENERGY CONTRIBUTION    RADIAL
 FREQ.      3028.39        C  4 --  H 15          +28.9% ( 56.2%)    97.4%
 T-DIPOLE    0.0210        C  3 --  H 14          +25.3% ( 52.6%)    97.4%
 TRAVEL      0.1197        C  4 --  H 16          +22.2% ( 49.3%)    95.8%
 RED. MASS   0.2620        C  3 --  H 13          +19.5% ( 46.2%)    95.8%
 EFF. MASS   1.5537

 VIBRATION   51   51A       ATOM PAIR        ENERGY CONTRIBUTION    RADIAL
 FREQ.      3031.19        C  5 --  H 11          +52.5% ( 71.4%)    98.1%
 T-DIPOLE    0.0246        C  5 --  H 12          +45.4% ( 66.4%)    97.3%
 TRAVEL      0.1320        C  5 --  C  6           +0.6% (  7.8%)    25.9%
 RED. MASS   0.4790        C  1 --  C  5           +0.6% (  7.7%)    29.3%
 EFF. MASS   1.2758

 VIBRATION   52   52A       ATOM PAIR        ENERGY CONTRIBUTION    RADIAL
 FREQ.      3039.75        C  7 --  H 20          +94.2% ( 98.5%)   100.0%
 T-DIPOLE    0.2532        C  7 --  C  8           +1.4% ( 12.0%)    30.8%
 TRAVEL      0.1214        C  2 --  C  7           +1.3% ( 11.7%)    15.3%
 RED. MASS   0.8752        C  3 --  H 14           +0.9% (  9.8%)    97.7%
 EFF. MASS   1.5052

 VIBRATION   53   53A       ATOM PAIR        ENERGY CONTRIBUTION    RADIAL
 FREQ.      3043.06        C  3 --  H 14          +29.0% ( 55.9%)    97.7%
 T-DIPOLE    0.0765        C  4 --  H 15          +25.8% ( 52.7%)    97.7%
 TRAVEL      0.1204        C  3 --  H 13          +21.0% ( 47.5%)    95.9%
 RED. MASS   0.2548        C  4 --  H 16          +19.1% ( 45.4%)    96.0%
 EFF. MASS   1.5296

 VIBRATION   54   54A       ATOM PAIR        ENERGY CONTRIBUTION    RADIAL
 FREQ.      3069.69        C  6 --  H 18          +67.8% ( 84.9%)    98.8%
 T-DIPOLE    0.0238        C  6 --  H 19          +26.0% ( 52.6%)    91.5%
 TRAVEL      0.1210        C  6 --  H 17           +4.7% ( 22.3%)    53.9%
 RED. MASS   0.5567        C  5 --  C  6           +1.0% ( 10.2%)     0.0%
 EFF. MASS   1.4993

 VIBRATION   55   55A       ATOM PAIR        ENERGY CONTRIBUTION    RADIAL
 FREQ.      3084.56        C  6 --  H 17          +55.3% ( 76.7%)    98.1%
 T-DIPOLE    0.0027        C  6 --  H 19          +38.4% ( 63.9%)    94.9%
 TRAVEL      0.1206        C  6 --  H 18           +4.8% ( 22.6%)    52.1%
 RED. MASS   0.4843        C  5 --  C  6           +1.0% ( 10.3%)     0.0%
 EFF. MASS   1.5040

 VIBRATION   56   56A       ATOM PAIR        ENERGY CONTRIBUTION    RADIAL
 FREQ.      3103.17        C  4 --  H 16          +34.6% ( 58.3%)    98.1%
 T-DIPOLE    0.0664        C  4 --  H 15          +24.8% ( 49.4%)    95.9%
 TRAVEL      0.1302        C  3 --  H 13          +22.7% ( 47.3%)    98.1%
 RED. MASS   0.2591        C  3 --  H 14          +15.9% ( 39.5%)    95.8%
 EFF. MASS   1.2815

 VIBRATION   57   57A       ATOM PAIR        ENERGY CONTRIBUTION    RADIAL
 FREQ.      3104.77        C  3 --  H 13          +34.0% ( 57.8%)    98.0%
 T-DIPOLE    0.0760        C  3 --  H 14          +25.3% ( 49.9%)    96.1%
 TRAVEL      0.1298        C  4 --  H 16          +21.8% ( 46.3%)    98.0%
 RED. MASS   0.2572        C  4 --  H 15          +16.7% ( 40.5%)    96.2%
 EFF. MASS   1.2889

 VIBRATION   58   58A       ATOM PAIR        ENERGY CONTRIBUTION    RADIAL
 FREQ.      3128.08        C  8 --  H 21          +96.3% ( 99.5%)   100.0%
 T-DIPOLE    0.2018        C  8 --  H 22           +2.2% ( 15.1%)    41.1%
 TRAVEL      0.1194        C  7 --  C  8           +1.4% ( 11.8%)    34.0%
 RED. MASS   0.9154
 EFF. MASS   1.5114

 VIBRATION   59   59A       ATOM PAIR        ENERGY CONTRIBUTION    RADIAL
 FREQ.      3147.59        C  8 --  H 22          +95.9% ( 98.9%)    99.9%
 T-DIPOLE    0.2449        C  8 --  H 21           +1.8% ( 13.5%)     1.2%
 TRAVEL      0.1198        C  7 --  C  8           +1.5% ( 12.6%)    59.6%
 RED. MASS   0.8949        C  7 --  H 20           +0.8% (  8.8%)    95.3%
 EFF. MASS   1.4929

 VIBRATION   60   60A       ATOM PAIR        ENERGY CONTRIBUTION    RADIAL
 FREQ.      3176.29        C  6 --  H 17          +39.6% ( 60.6%)    97.9%
 T-DIPOLE    0.0131        C  6 --  H 19          +34.9% ( 56.8%)    97.3%
 TRAVEL      0.1365        C  6 --  H 18          +25.2% ( 48.3%)    95.4%
 RED. MASS   0.3354        C  5 --  C  6           +0.3% (  5.2%)    97.3%
 EFF. MASS   1.1391

 SYMMETRY NUMBER FOR POINT-GROUP C1  =  1


          SYSTEM IS A GROUND STATE


    NULL



          MOLECULE IS NOT LINEAR

          THERE ARE 60 GENUINE VIBRATIONS IN THIS SYSTEM
          THIS THERMODYNAMICS CALCULATION IS LIMITED TO
          MOLECULES WHICH HAVE NO INTERNAL ROTATIONS




                    CALCULATED THERMODYNAMIC PROPERTIES
                                          *
   TEMP. (K)   PARTITION FUNCTION   H.O.F.    ENTHALPY  HEAT CAPACITY ENTROPY
                                   KCAL/MOL   CAL/MOLE    CAL/K/MOL  CAL/K/MOL


 298.00  VIB.     0.1457D+03                  3734.4703    27.1893    22.4310
         ROT.     0.3962D+06                   888.2813     2.9808    28.5952
         INT.     0.5772D+08                  4622.7516    30.1701    51.0262
         TRA.     0.1118D+28                  1480.4688     4.9680    40.0052
         TOT.                        2.798    6103.2205    35.1381    91.0314

 200.00  VIB.     0.1924D+02                  1609.6715    16.6449    13.9243
         ROT.     0.2178D+06                   596.1620     2.9808    27.4065
         INT.     0.4191D+07                  2205.8335    19.6257    41.3308
         TRA.     0.6149D+27                   993.6033     4.9680    38.0241
         TOT.                       -0.106    3199.4367    24.5937    79.3549

 210.00  VIB.     0.2356D+02                  1780.7558    17.5780    14.7588
         ROT.     0.2344D+06                   625.9700     2.9808    27.5520
         INT.     0.5523D+07                  2406.7258    20.5588    42.3108
         TRA.     0.6616D+27                  1043.2834     4.9680    38.2665
         TOT.                        0.145    3450.0092    25.5269    80.5773

 220.00  VIB.     0.2888D+02                  1961.3543    18.5478    15.5988
         ROT.     0.2513D+06                   655.7781     2.9808    27.6906
         INT.     0.7259D+07                  2617.1324    21.5286    43.2894
         TRA.     0.7094D+27                  1092.9636     4.9680    38.4976
         TOT.                        0.405    3710.0960    26.4966    81.7870

 230.00  VIB.     0.3543D+02                  2151.8334    19.5540    16.4453
         ROT.     0.2686D+06                   685.5862     2.9808    27.8231
         INT.     0.9518D+07                  2837.4197    22.5349    44.2685
         TRA.     0.7583D+27                  1142.6437     4.9680    38.7185
         TOT.                        0.675    3980.0634    27.5029    82.9869

 240.00  VIB.     0.4350D+02                  2352.5528    20.5955    17.2994
         ROT.     0.2864D+06                   715.3943     2.9808    27.9500
         INT.     0.1246D+08                  3067.9471    23.5764    45.2494
         TRA.     0.8083D+27                  1192.3239     4.9680    38.9299
         TOT.                        0.955    4260.2710    28.5444    84.1793

 250.00  VIB.     0.5345D+02                  2563.8550    21.6702    18.1619
         ROT.     0.3044D+06                   745.2024     2.9808    28.0717
         INT.     0.1627D+08                  3309.0574    24.6510    46.2335
         TRA.     0.8594D+27                  1242.0041     4.9680    39.1327
         TOT.                        1.246    4551.0615    29.6190    85.3662

 260.00  VIB.     0.6573D+02                  2786.0580    22.7752    19.0332
         ROT.     0.3229D+06                   775.0105     2.9808    28.1886
         INT.     0.2122D+08                  3561.0685    25.7560    47.2218
         TRA.     0.9114D+27                  1291.6842     4.9680    39.3276
         TOT.                        1.547    4852.7527    30.7240    86.5494

 270.00  VIB.     0.8092D+02                  3019.4491    23.9072    19.9139
         ROT.     0.3417D+06                   804.8186     2.9808    28.3011
         INT.     0.2765D+08                  3824.2677    26.8880    48.2150
         TRA.     0.9645D+27                  1341.3644     4.9680    39.5150
         TOT.                        1.860    5165.6321    31.8561    87.7300

 280.00  VIB.     0.9973D+02                  3264.2808    25.0627    20.8042
         ROT.     0.3608D+06                   834.6267     2.9808    28.4095
         INT.     0.3599D+08                  4098.9076    28.0435    49.2137
         TRA.     0.1019D+28                  1391.0445     4.9680    39.6957
         TOT.                        2.185    5489.9521    33.0115    88.9094

 290.00  VIB.     0.1230D+03                  3520.7682    26.2377    21.7041
         ROT.     0.3803D+06                   864.4348     2.9808    28.5141
         INT.     0.4680D+08                  4385.2031    29.2186    50.2182
         TRA.     0.1074D+28                  1440.7247     4.9680    39.8701
         TOT.                        2.521    5825.9278    34.1866    90.0883

 300.00  VIB.     0.1520D+03                  3789.0881    27.4285    22.6136
         ROT.     0.4002D+06                   894.2429     2.9808    28.6151
         INT.     0.6082D+08                  4683.3310    30.4093    51.2288
         TRA.     0.1130D+28                  1490.4049     4.9680    40.0385
         TOT.                        2.868    6173.7359    35.3774    91.2673

 310.00  VIB.     0.1880D+03                  4069.3785    28.6312    23.5326
         ROT.     0.4204D+06                   924.0510     2.9808    28.7129
         INT.     0.7902D+08                  4993.4295    31.6120    52.2455
         TRA.     0.1187D+28                  1540.0850     4.9680    40.2014
         TOT.                        3.228    6533.5146    36.5801    92.4469

 320.00  VIB.     0.2328D+03                  4361.7402    29.8422    24.4607
         ROT.     0.4409D+06                   953.8591     2.9808    28.8075
         INT.     0.1026D+09                  5315.5994    32.8230    53.2682
         TRA.     0.1244D+28                  1589.7652     4.9680    40.3591
         TOT.                        3.600    6905.3646    37.7910    93.6273

 330.00  VIB.     0.2886D+03                  4666.2379    31.0579    25.3976
         ROT.     0.4617D+06                   983.6672     2.9808    28.8993
         INT.     0.1332D+09                  5649.9051    34.0387    54.2968
         TRA.     0.1303D+28                  1639.4454     4.9680    40.5120
         TOT.                        3.984    7289.3505    39.0067    94.8088

 340.00  VIB.     0.3583D+03                  4982.9023    32.2750    26.3428
         ROT.     0.4828D+06                  1013.4753     2.9808    28.9882
         INT.     0.1730D+09                  5996.3776    35.2558    55.3311
         TRA.     0.1363D+28                  1689.1255     4.9680    40.6603
         TOT.                        4.380    7685.5031    40.2238    95.9914

 350.00  VIB.     0.4453D+03                  5311.7327    33.4906    27.2960
         ROT.     0.5043D+06                  1043.2834     2.9808    29.0746
         INT.     0.2246D+09                  6355.0161    36.4714    56.3706
         TRA.     0.1424D+28                  1738.8057     4.9680    40.8043
         TOT.                        4.788    8093.8218    41.4394    97.1749

 360.00  VIB.     0.5543D+03                  5652.6999    34.7019    28.2564
         ROT.     0.5261D+06                  1073.0915     2.9808    29.1586
         INT.     0.2916D+09                  6725.7914    37.6827    57.4150
         TRA.     0.1485D+28                  1788.4859     4.9680    40.9443
         TOT.                        5.209    8514.2772    42.6507    98.3593

 370.00  VIB.     0.6907D+03                  6005.7483    35.9065    29.2237
         ROT.     0.5481D+06                  1102.8996     2.9808    29.2403
         INT.     0.3786D+09                  7108.6479    38.8873    58.4639
         TRA.     0.1547D+28                  1838.1660     4.9680    41.0804
         TOT.                        5.641    8946.8139    43.8553    99.5443

 380.00  VIB.     0.8619D+03                  6370.7995    37.1021    30.1971
         ROT.     0.5705D+06                  1132.7077     2.9808    29.3198
         INT.     0.4917D+09                  7503.5072    40.0829    59.5169
         TRA.     0.1610D+28                  1887.8462     4.9680    41.2129
         TOT.                        6.086    9391.3534    45.0509   100.7298

 390.00  VIB.     0.1077D+04                  6747.7545    38.2869    31.1762
         ROT.     0.5932D+06                  1162.5158     2.9808    29.3972
         INT.     0.6388D+09                  7910.2703    41.2677    60.5734
         TRA.     0.1674D+28                  1937.5263     4.9680    41.3419
         TOT.                        6.542    9847.7966    46.2358   101.9153

 400.00  VIB.     0.1347D+04                  7136.4965    39.4593    32.1604
         ROT.     0.6161D+06                  1192.3239     2.9808    29.4727
         INT.     0.8299D+09                  8328.8204    42.4401    61.6330
         TRA.     0.1739D+28                  1987.2065     4.9680    41.4677
         TOT.                        7.011   10316.0269    47.4081   103.1007

   *: NOTE: HEATS OF FORMATION ARE RELATIVE TO THE
            ELEMENTS IN THEIR STANDARD STATE AT 298K
              (=  Standard Enthalpy of Formation).

            Hvib:  Zero-point energy is not included.
                   frequencies of less than zero cm-1 are not included.
            Hrot = (3/2)RT
            Htra = (3/2)RT + pV = (5/2)RT

            Heat capacity is Cp, not Cv

           For more information, see: HTTP://OpenMOPAC.net/Manual/thermochemistry.html


           FORCE CONSTANT IN CARTESIAN COORDINATES (Millidynes/A)

    ATOM   CHEMICAL       X               Y               Z
   NUMBER   SYMBOL  FORCE CONSTANT  FORCE CONSTANT  FORCE CONSTANT

      1       C        7.623500        8.202659        8.680146
      2       C        7.485733        8.382287        9.187729
      3       C        8.093801        7.866921        8.589489
      4       C        8.073236        7.855653        8.602065
      5       C        8.316058        8.487344        8.301777
      6       C        8.208010        8.310143        8.350655
      7       C        4.564583       14.013374        8.753813
      8       C        4.033819       13.896864        8.568355
      9       H        1.348603        1.350094        3.563777
     10       H        1.357354        1.268462        3.604806
     11       H        4.615683        1.064781        0.695976
     12       H        1.576067        1.185280        3.635962
     13       H        1.566732        1.466098        3.601987
     14       H        1.363492        1.480788        3.773846
     15       H        1.361608        1.410687        3.848563
     16       H        1.563934        1.547556        3.521991
     17       H        1.443076        1.431228        3.919644
     18       H        4.901232        1.137325        0.688303
     19       H        1.828925        1.306644        3.647193
     20       H        0.429823        1.936108        3.846924
     21       H        0.415659        2.133856        3.896039
     22       H        1.147485        1.638253        3.695363



 TOTAL CPU TIME:             2.67 SECONDS

 == MOPAC DONE ==
