 *******************************************************************************
 ** Site#: 14399           For non-commercial use only        Version 13.159M **
 *******************************************************************************
 ** Cite this work as: MOPAC2012, James J. P. Stewart, Stewart Computational  **
 ** Chemistry, Version 13.159M web: HTTP://OpenMOPAC.net  Days remaining:   6 **
 *******************************************************************************
 **                                                                           **
 **                                MOPAC2012                                  **
 **                                                                           **
 *******************************************************************************

                            PM3 CALCULATION RESULTS


 *******************************************************************************
 *  CALCULATION DONE:                                Mon Jun  2 11:13:24 2014  *
 *  PM3      - The PM3 Hamiltonian to be used
 *  PRECISE  - CRITERIA TO BE INCREASED BY 100 TIMES
 *  NOSYM    - POINT-GROUP SYMMETRY SET TO C1
 *  T=       - A TIME OF 172800.0 SECONDS REQUESTED
 *  DUMP=N   - RESTART FILE WRITTEN EVERY  7200.000 SECONDS
 *******************************************************************************
pm3  precise nosym
 InChI=1S/C10H12/c1-2-3-4-7-10-8-5-6-9-10/h2-6,8-10H,1,7H2

   ATOM   CHEMICAL          X               Y               Z
  NUMBER   SYMBOL      (ANGSTROMS)     (ANGSTROMS)     (ANGSTROMS)
 
     1       C         -1.43320000  *  -0.82910000  *   0.27430000  *
     2       C         -0.24100000  *  -0.64180000  *  -0.67060000  *
     3       C         -1.60280000  *   0.31030000  *   1.23450000  *
     4       C         -2.73970000  *  -0.75380000  *  -0.45510000  *
     5       C          1.06760000  *  -0.76590000  *   0.05470000  *
     6       C         -2.76970000  *   0.90860000  *   1.06610000  *
     7       C         -3.48680000  *   0.23740000  *   0.00070000  *
     8       C          1.94910000  *   0.23340000  *   0.12220000  *
     9       C          3.22100000  *   0.08750000  *   0.84590000  *
    10       C          4.10020000  *   1.08170000  *   0.92220000  *
    11       H         -1.36790000  *  -1.79710000  *   0.82390000  *
    12       H         -0.26040000  *  -1.43950000  *  -1.44860000  *
    13       H         -0.33060000  *   0.32850000  *  -1.21610000  *
    14       H         -0.87200000  *   0.61030000  *   1.97890000  *
    15       H         -3.04590000  *  -1.42470000  *  -1.25170000  *
    16       H          1.28240000  *  -1.71420000  *   0.54150000  *
    17       H         -3.12700000  *   1.75700000  *   1.64030000  *
    18       H         -4.47590000  *   0.49460000  *  -0.36360000  *
    19       H          1.72570000  *   1.18120000  *  -0.36190000  *
    20       H          3.45950000  *  -0.85300000  *   1.33610000  *
    21       H          5.03050000  *   0.94430000  *   1.46420000  *
    22       H          3.91700000  *   2.04420000  *   0.45340000  *
 


          CARTESIAN COORDINATES 

    NO.       ATOM         X         Y         Z

     1         C       -1.4332   -0.8291    0.2743
     2         C       -0.2410   -0.6418   -0.6706
     3         C       -1.6028    0.3103    1.2345
     4         C       -2.7397   -0.7538   -0.4551
     5         C        1.0676   -0.7659    0.0547
     6         C       -2.7697    0.9086    1.0661
     7         C       -3.4868    0.2374    0.0007
     8         C        1.9491    0.2334    0.1222
     9         C        3.2210    0.0875    0.8459
    10         C        4.1002    1.0817    0.9222
    11         H       -1.3679   -1.7971    0.8239
    12         H       -0.2604   -1.4395   -1.4486
    13         H       -0.3306    0.3285   -1.2161
    14         H       -0.8720    0.6103    1.9789
    15         H       -3.0459   -1.4247   -1.2517
    16         H        1.2824   -1.7142    0.5415
    17         H       -3.1270    1.7570    1.6403
    18         H       -4.4759    0.4946   -0.3636
    19         H        1.7257    1.1812   -0.3619
    20         H        3.4595   -0.8530    1.3361
    21         H        5.0305    0.9443    1.4642
    22         H        3.9170    2.0442    0.4534

  H: (PM3): J. J. P. STEWART, J. COMP. CHEM. 10, 209 (1989).
  C: (PM3): J. J. P. STEWART, J. COMP. CHEM. 10, 209 (1989).

           Empirical Formula: C10 H12  =    22 atoms



      MOLECULAR POINT GROUP   :   C1  


      RHF CALCULATION, NO. OF DOUBLY OCCUPIED LEVELS =   26

      Geometry optimization using EF

          DIAGONAL MATRIX USED AS START HESSIAN

 CYCLE:     1 TIME:   0.010 TIME LEFT:  2.00D  GRAD.:   111.148 HEAT: 65.63052
 CYCLE:     2 TIME:   0.020 TIME LEFT:  2.00D  GRAD.:    69.946 HEAT: 64.09180
 CYCLE:     3 TIME:   0.007 TIME LEFT:  2.00D  GRAD.:    43.064 HEAT: 63.05031
 CYCLE:     4 TIME:   0.013 TIME LEFT:  2.00D  GRAD.:    44.068 HEAT: 62.74048
 CYCLE:     5 TIME:   0.007 TIME LEFT:  2.00D  GRAD.:    41.112 HEAT: 62.48738
 CYCLE:     6 TIME:   0.007 TIME LEFT:  2.00D  GRAD.:    34.376 HEAT: 62.17866
 CYCLE:     7 TIME:   0.007 TIME LEFT:  2.00D  GRAD.:    40.782 HEAT: 62.13264
 CYCLE:     8 TIME:   0.007 TIME LEFT:  2.00D  GRAD.:    32.136 HEAT: 61.90880
 CYCLE:     9 TIME:   0.013 TIME LEFT:  2.00D  GRAD.:    17.845 HEAT: 61.72283
 CYCLE:    10 TIME:   0.013 TIME LEFT:  2.00D  GRAD.:    14.580 HEAT: 61.68033
 CYCLE:    11 TIME:   0.007 TIME LEFT:  2.00D  GRAD.:    12.519 HEAT: 61.64375
 CYCLE:    12 TIME:   0.007 TIME LEFT:  2.00D  GRAD.:    16.088 HEAT: 61.63987
 CYCLE:    13 TIME:   0.007 TIME LEFT:  2.00D  GRAD.:     7.966 HEAT: 61.59315
 CYCLE:    14 TIME:   0.013 TIME LEFT:  2.00D  GRAD.:     9.097 HEAT: 61.58928
 CYCLE:    15 TIME:   0.007 TIME LEFT:  2.00D  GRAD.:     5.176 HEAT: 61.56927
 CYCLE:    16 TIME:   0.018 TIME LEFT:  2.00D  GRAD.:     3.884 HEAT: 61.56398
 CYCLE:    17 TIME:   0.006 TIME LEFT:  2.00D  GRAD.:     2.373 HEAT: 61.55826
 CYCLE:    18 TIME:   0.007 TIME LEFT:  2.00D  GRAD.:     5.912 HEAT: 61.54459
 CYCLE:    19 TIME:   0.007 TIME LEFT:  2.00D  GRAD.:     9.045 HEAT: 61.54191
 CYCLE:    20 TIME:   0.013 TIME LEFT:  2.00D  GRAD.:     6.975 HEAT: 61.53212
 CYCLE:    21 TIME:   0.014 TIME LEFT:  2.00D  GRAD.:     4.848 HEAT: 61.52332
 CYCLE:    22 TIME:   0.009 TIME LEFT:  2.00D  GRAD.:     3.834 HEAT: 61.51975
 CYCLE:    23 TIME:   0.007 TIME LEFT:  2.00D  GRAD.:     2.387 HEAT: 61.51436
 CYCLE:    24 TIME:   0.007 TIME LEFT:  2.00D  GRAD.:     2.959 HEAT: 61.51210
 CYCLE:    25 TIME:   0.007 TIME LEFT:  2.00D  GRAD.:     2.834 HEAT: 61.50871
 CYCLE:    26 TIME:   0.007 TIME LEFT:  2.00D  GRAD.:     2.088 HEAT: 61.50516
 CYCLE:    27 TIME:   0.007 TIME LEFT:  2.00D  GRAD.:     2.798 HEAT: 61.50431
 CYCLE:    28 TIME:   0.007 TIME LEFT:  2.00D  GRAD.:     1.923 HEAT: 61.50142
 CYCLE:    29 TIME:   0.007 TIME LEFT:  2.00D  GRAD.:     2.219 HEAT: 61.49969
 CYCLE:    30 TIME:   0.007 TIME LEFT:  2.00D  GRAD.:     1.567 HEAT: 61.49660
 CYCLE:    31 TIME:   0.007 TIME LEFT:  2.00D  GRAD.:     2.604 HEAT: 61.49213
 CYCLE:    32 TIME:   0.007 TIME LEFT:  2.00D  GRAD.:     2.084 HEAT: 61.48855
 CYCLE:    33 TIME:   0.007 TIME LEFT:  2.00D  GRAD.:     1.907 HEAT: 61.48597
 CYCLE:    34 TIME:   0.007 TIME LEFT:  2.00D  GRAD.:     1.668 HEAT: 61.48263
 CYCLE:    35 TIME:   0.007 TIME LEFT:  2.00D  GRAD.:     1.608 HEAT: 61.47870
 CYCLE:    36 TIME:   0.009 TIME LEFT:  2.00D  GRAD.:     1.477 HEAT: 61.47470
 CYCLE:    37 TIME:   0.007 TIME LEFT:  2.00D  GRAD.:     1.235 HEAT: 61.47107
 CYCLE:    38 TIME:   0.007 TIME LEFT:  2.00D  GRAD.:     1.114 HEAT: 61.46814
 CYCLE:    39 TIME:   0.007 TIME LEFT:  2.00D  GRAD.:     1.045 HEAT: 61.46596
 CYCLE:    40 TIME:   0.007 TIME LEFT:  2.00D  GRAD.:     1.031 HEAT: 61.46410
 CYCLE:    41 TIME:   0.007 TIME LEFT:  2.00D  GRAD.:     1.076 HEAT: 61.46190
 CYCLE:    42 TIME:   0.007 TIME LEFT:  2.00D  GRAD.:     1.095 HEAT: 61.45931
 CYCLE:    43 TIME:   0.007 TIME LEFT:  2.00D  GRAD.:     0.957 HEAT: 61.45699
 CYCLE:    44 TIME:   0.007 TIME LEFT:  2.00D  GRAD.:     0.876 HEAT: 61.45510
 CYCLE:    45 TIME:   0.007 TIME LEFT:  2.00D  GRAD.:     1.033 HEAT: 61.45304
 CYCLE:    46 TIME:   0.007 TIME LEFT:  2.00D  GRAD.:     1.320 HEAT: 61.45018
 CYCLE:    47 TIME:   0.007 TIME LEFT:  2.00D  GRAD.:     1.493 HEAT: 61.44613
 CYCLE:    48 TIME:   0.007 TIME LEFT:  2.00D  GRAD.:     1.392 HEAT: 61.44120
 CYCLE:    49 TIME:   0.008 TIME LEFT:  2.00D  GRAD.:     1.036 HEAT: 61.43885
 CYCLE:    50 TIME:   0.008 TIME LEFT:  2.00D  GRAD.:     0.935 HEAT: 61.43611
 CYCLE:    51 TIME:   0.007 TIME LEFT:  2.00D  GRAD.:     0.943 HEAT: 61.43481
 CYCLE:    52 TIME:   0.007 TIME LEFT:  2.00D  GRAD.:     0.915 HEAT: 61.43225
 CYCLE:    53 TIME:   0.007 TIME LEFT:  2.00D  GRAD.:     0.869 HEAT: 61.43037
 CYCLE:    54 TIME:   0.007 TIME LEFT:  2.00D  GRAD.:     0.825 HEAT: 61.42871
 CYCLE:    55 TIME:   0.007 TIME LEFT:  2.00D  GRAD.:     0.898 HEAT: 61.42675
 CYCLE:    56 TIME:   0.007 TIME LEFT:  2.00D  GRAD.:     1.029 HEAT: 61.42456
 CYCLE:    57 TIME:   0.007 TIME LEFT:  2.00D  GRAD.:     1.161 HEAT: 61.42219
 CYCLE:    58 TIME:   0.007 TIME LEFT:  2.00D  GRAD.:     1.270 HEAT: 61.41901
 CYCLE:    59 TIME:   0.007 TIME LEFT:  2.00D  GRAD.:     1.393 HEAT: 61.41477
 CYCLE:    60 TIME:   0.007 TIME LEFT:  2.00D  GRAD.:     1.499 HEAT: 61.40927
 CYCLE:    61 TIME:   0.008 TIME LEFT:  2.00D  GRAD.:     1.536 HEAT: 61.40263
 CYCLE:    62 TIME:   0.010 TIME LEFT:  2.00D  GRAD.:     1.493 HEAT: 61.39701
 CYCLE:    63 TIME:   0.007 TIME LEFT:  2.00D  GRAD.:     1.364 HEAT: 61.39212
 CYCLE:    64 TIME:   0.007 TIME LEFT:  2.00D  GRAD.:     1.246 HEAT: 61.38780
 CYCLE:    65 TIME:   0.007 TIME LEFT:  2.00D  GRAD.:     1.207 HEAT: 61.38392
 CYCLE:    66 TIME:   0.007 TIME LEFT:  2.00D  GRAD.:     0.917 HEAT: 61.38134
 CYCLE:    67 TIME:   0.007 TIME LEFT:  2.00D  GRAD.:     0.995 HEAT: 61.37969
 CYCLE:    68 TIME:   0.007 TIME LEFT:  2.00D  GRAD.:     0.748 HEAT: 61.37843
 CYCLE:    69 TIME:   0.007 TIME LEFT:  2.00D  GRAD.:     0.836 HEAT: 61.37685
 CYCLE:    70 TIME:   0.007 TIME LEFT:  2.00D  GRAD.:     1.072 HEAT: 61.37443
 CYCLE:    71 TIME:   0.007 TIME LEFT:  2.00D  GRAD.:     1.085 HEAT: 61.37199
 CYCLE:    72 TIME:   0.008 TIME LEFT:  2.00D  GRAD.:     0.887 HEAT: 61.36904
 CYCLE:    73 TIME:   0.007 TIME LEFT:  2.00D  GRAD.:     0.703 HEAT: 61.36773
 CYCLE:    74 TIME:   0.007 TIME LEFT:  2.00D  GRAD.:     0.776 HEAT: 61.36580
 CYCLE:    75 TIME:   0.007 TIME LEFT:  2.00D  GRAD.:     0.606 HEAT: 61.36517
 CYCLE:    76 TIME:   0.007 TIME LEFT:  2.00D  GRAD.:     0.647 HEAT: 61.36345
 CYCLE:    77 TIME:   0.007 TIME LEFT:  2.00D  GRAD.:     0.505 HEAT: 61.36287
 CYCLE:    78 TIME:   0.007 TIME LEFT:  2.00D  GRAD.:     0.415 HEAT: 61.36177
 CYCLE:    79 TIME:   0.007 TIME LEFT:  2.00D  GRAD.:     0.483 HEAT: 61.36121
 CYCLE:    80 TIME:   0.007 TIME LEFT:  2.00D  GRAD.:     0.563 HEAT: 61.36020
 CYCLE:    81 TIME:   0.007 TIME LEFT:  2.00D  GRAD.:     0.554 HEAT: 61.35953
 CYCLE:    82 TIME:   0.007 TIME LEFT:  2.00D  GRAD.:     0.718 HEAT: 61.35818
 CYCLE:    83 TIME:   0.007 TIME LEFT:  2.00D  GRAD.:     0.765 HEAT: 61.35705
 CYCLE:    84 TIME:   0.007 TIME LEFT:  2.00D  GRAD.:     1.121 HEAT: 61.35292
 CYCLE:    85 TIME:   0.007 TIME LEFT:  2.00D  GRAD.:     0.780 HEAT: 61.35160
 CYCLE:    86 TIME:   0.007 TIME LEFT:  2.00D  GRAD.:     0.631 HEAT: 61.34964
 CYCLE:    87 TIME:   0.007 TIME LEFT:  2.00D  GRAD.:     0.679 HEAT: 61.34852
 CYCLE:    88 TIME:   0.007 TIME LEFT:  2.00D  GRAD.:     0.478 HEAT: 61.34651
 CYCLE:    89 TIME:   0.007 TIME LEFT:  2.00D  GRAD.:     0.300 HEAT: 61.34600
 CYCLE:    90 TIME:   0.008 TIME LEFT:  2.00D  GRAD.:     0.278 HEAT: 61.34580
 CYCLE:    91 TIME:   0.007 TIME LEFT:  2.00D  GRAD.:     0.265 HEAT: 61.34566
 CYCLE:    92 TIME:   0.007 TIME LEFT:  2.00D  GRAD.:     0.352 HEAT: 61.34539
 CYCLE:    93 TIME:   0.007 TIME LEFT:  2.00D  GRAD.:     0.304 HEAT: 61.34515
 CYCLE:    94 TIME:   0.007 TIME LEFT:  2.00D  GRAD.:     0.322 HEAT: 61.34482
 CYCLE:    95 TIME:   0.007 TIME LEFT:  2.00D  GRAD.:     0.239 HEAT: 61.34470
 CYCLE:    96 TIME:   0.007 TIME LEFT:  2.00D  GRAD.:     0.228 HEAT: 61.34456
 CYCLE:    97 TIME:   0.007 TIME LEFT:  2.00D  GRAD.:     0.234 HEAT: 61.34447
 CYCLE:    98 TIME:   0.007 TIME LEFT:  2.00D  GRAD.:     0.353 HEAT: 61.34417
 CYCLE:    99 TIME:   0.007 TIME LEFT:  2.00D  GRAD.:     0.332 HEAT: 61.34400
 CYCLE:   100 TIME:   0.007 TIME LEFT:  2.00D  GRAD.:     0.315 HEAT: 61.34375
 CYCLE:   101 TIME:   0.007 TIME LEFT:  2.00D  GRAD.:     0.249 HEAT: 61.34363
 CYCLE:   102 TIME:   0.007 TIME LEFT:  2.00D  GRAD.:     0.306 HEAT: 61.34332
 CYCLE:   103 TIME:   0.007 TIME LEFT:  2.00D  GRAD.:     0.371 HEAT: 61.34299
 CYCLE:   104 TIME:   0.007 TIME LEFT:  2.00D  GRAD.:     0.469 HEAT: 61.34240
 CYCLE:   105 TIME:   0.007 TIME LEFT:  2.00D  GRAD.:     0.467 HEAT: 61.34185
 CYCLE:   106 TIME:   0.007 TIME LEFT:  2.00D  GRAD.:     0.600 HEAT: 61.34078
 CYCLE:   107 TIME:   0.007 TIME LEFT:  2.00D  GRAD.:     0.636 HEAT: 61.34022
 CYCLE:   108 TIME:   0.007 TIME LEFT:  2.00D  GRAD.:     0.881 HEAT: 61.33901
 CYCLE:   109 TIME:   0.007 TIME LEFT:  2.00D  GRAD.:     0.742 HEAT: 61.33787
 CYCLE:   110 TIME:   0.007 TIME LEFT:  2.00D  GRAD.:     0.604 HEAT: 61.33660
 CYCLE:   111 TIME:   0.007 TIME LEFT:  2.00D  GRAD.:     0.526 HEAT: 61.33556
 CYCLE:   112 TIME:   0.007 TIME LEFT:  2.00D  GRAD.:     0.269 HEAT: 61.33535
 CYCLE:   113 TIME:   0.007 TIME LEFT:  2.00D  GRAD.:     0.252 HEAT: 61.33526
 CYCLE:   114 TIME:   0.007 TIME LEFT:  2.00D  GRAD.:     0.163 HEAT: 61.33512
 CYCLE:   115 TIME:   0.007 TIME LEFT:  2.00D  GRAD.:     0.108 HEAT: 61.33504
 CYCLE:   116 TIME:   0.007 TIME LEFT:  2.00D  GRAD.:     0.072 HEAT: 61.33500
 CYCLE:   117 TIME:   0.007 TIME LEFT:  2.00D  GRAD.:     0.077 HEAT: 61.33501
 CYCLE:   118 TIME:   0.007 TIME LEFT:  2.00D  GRAD.:     0.032 HEAT: 61.33500

     RMS GRADIENT =  0.03230  IS LESS THAN CUTOFF =  0.05000



 -------------------------------------------------------------------------------
pm3  precise nosym
 InChI=1S/C10H12/c1-2-3-4-7-10-8-5-6-9-10/h2-6,8-10H,1,7H2



     GEOMETRY OPTIMISED USING EIGENVECTOR FOLLOWING (EF).     
     SCF FIELD WAS ACHIEVED                                   


                              PM3 CALCULATION
                                                       MOPAC2012 (Version: 13.159M)
                                                       Mon Jun  2 11:13:25 2014
                                                       No. of days left =   6




          FINAL HEAT OF FORMATION =         61.33500 KCAL/MOL =     256.62563 KJ/MOL


          TOTAL ENERGY            =      -1367.73656 EV
          ELECTRONIC ENERGY       =      -7033.92770 EV  POINT GROUP:     C1  
          CORE-CORE REPULSION     =       5666.19113 EV
          COSMO AREA              =        195.50 SQUARE ANGSTROMS
          COSMO VOLUME            =        193.07 CUBIC ANGSTROMS

          GRADIENT NORM           =          0.03230
          IONIZATION POTENTIAL    =          9.236705 EV
          HOMO LUMO ENERGIES (EV) =         -9.237  0.132
          NO. OF FILLED LEVELS    =         26
          MOLECULAR WEIGHT        =        132.205

          MOLECULAR DIMENSIONS (Angstroms)

            Atom       Atom       Distance
            H    21    H    18     9.98312
            H    17    H    12     4.63365
            H    22    H    11     3.54499


          SCF CALCULATIONS        =        129
          COMPUTATION TIME        =          0.908 SECONDS




   ATOM   CHEMICAL          X               Y               Z
  NUMBER   SYMBOL      (ANGSTROMS)     (ANGSTROMS)     (ANGSTROMS)
 
     1       C         -1.43739418  *  -0.74810490  *   0.28473159  *
     2       C         -0.22151348  *  -0.47192117  *  -0.58997424  *
     3       C         -1.72420757  *   0.36025278  *   1.27068588  *
     4       C         -2.71596088  *  -0.80323458  *  -0.51923558  *
     5       C          1.04950108  *  -0.64626941  *   0.16249812  *
     6       C         -2.97529646  *   0.82965503  *   1.07490561  *
     7       C         -3.59308191  *   0.10473271  *  -0.03970262  *
     8       C          2.04231905  *   0.24917358  *   0.12121991  *
     9       C          3.29020542  *   0.05034577  *   0.84268989  *
    10       C          4.28310791  *   0.93674966  *   0.80199287  *
    11       H         -1.31076250  *  -1.70893671  *   0.83889819  *
    12       H         -0.21894945  *  -1.17757014  *  -1.44593681  *
    13       H         -0.29610421  *   0.54171053  *  -1.03183893  *
    14       H         -0.99039675  *   0.68748444  *   2.00413117  *
    15       H         -2.85180812  *  -1.49448054  *  -1.34811797  *
    16       H          1.14088938  *  -1.56635934  *   0.75452912  *
    17       H         -3.48230857  *   1.61683525  *   1.62929112  *
    18       H         -4.60361316  *   0.30072347  *  -0.39258554  *
    19       H          1.94810555  *   1.17265257  *  -0.46567461  *
    20       H          3.38286811  *  -0.87167392  *   1.43051633  *
    21       H          5.21590628  *   0.79380613  *   1.33849403  *
    22       H          4.23293540  *   1.86129849  *   0.23321844  *

           Empirical Formula: C10 H12  =    22 atoms



      MOLECULAR POINT GROUP   :   C1  


                  EIGENVALUES  
 -40.63671 -36.38781 -32.26296 -27.73280 -27.20837 -23.61345 -20.26846 -19.95918
 -18.91344 -18.63579 -17.92638 -16.46979 -16.00382 -14.96243 -14.27181 -13.95330
 -13.75988 -13.48353 -12.86890 -12.62566 -12.45543 -12.08256 -11.66268 -11.07076
  -9.28605  -9.23670   0.13151   0.33955   1.99256   2.07727   3.09295   3.33114
   3.36464   3.57210   3.63239   3.67406   3.75085   3.91050   4.02247   4.05288
   4.31241   4.32397   4.43279   4.63013   4.69535   5.08716   5.32943   5.73937
   5.76655   5.94933   6.03153   6.13120


              NET ATOMIC CHARGES AND DIPOLE CONTRIBUTIONS

  ATOM NO.   TYPE          CHARGE      No. of ELECS.   s-Pop       p-Pop       
    1          C          -0.032978        4.0330     1.16564     2.86733
    2          C          -0.041243        4.0412     1.14402     2.89723
    3          C          -0.153308        4.1533     1.20979     2.94352
    4          C          -0.164251        4.1643     1.21018     2.95407
    5          C          -0.137494        4.1375     1.19861     2.93888
    6          C          -0.122353        4.1224     1.19273     2.92963
    7          C          -0.114847        4.1148     1.19248     2.92237
    8          C          -0.118852        4.1189     1.18342     2.93543
    9          C          -0.106126        4.1061     1.18096     2.92517
   10          C          -0.150421        4.1504     1.18375     2.96667
   11          H           0.091522        0.9085     0.90848
   12          H           0.058700        0.9413     0.94130
   13          H           0.063209        0.9368     0.93679
   14          H           0.120187        0.8798     0.87981
   15          H           0.117016        0.8830     0.88298
   16          H           0.101272        0.8987     0.89873
   17          H           0.114264        0.8857     0.88574
   18          H           0.113687        0.8863     0.88631
   19          H           0.104461        0.8955     0.89554
   20          H           0.097310        0.9027     0.90269
   21          H           0.078901        0.9211     0.92110
   22          H           0.081345        0.9187     0.91865
 DIPOLE           X         Y         Z       TOTAL
 POINT-CHG.     0.200    -0.246    -0.122     0.340
 HYBRID        -0.016    -0.049     0.039     0.064
 SUM            0.184    -0.295    -0.084     0.358


          ATOMIC ORBITAL ELECTRON POPULATIONS

    Atom      s        px        py        pz   
    1  C   1.16564   0.93990   0.97964   0.94779
    2  C   1.14402   0.91286   1.02139   0.96298
    3  C   1.20979   0.97492   0.97543   0.99318
    4  C   1.21018   0.96470   0.99596   0.99340
    5  C   1.19861   0.95731   0.98723   0.99434
    6  C   1.19273   0.95942   0.99189   0.97832
    7  C   1.19248   0.98164   0.97067   0.97007
    8  C   1.18342   0.94770   0.98914   0.99859
    9  C   1.18096   0.94714   0.98832   0.98970
   10  C   1.18375   0.97744   0.98534   1.00389
   11  H   0.90848
   12  H   0.94130
   13  H   0.93679
   14  H   0.87981
   15  H   0.88298
   16  H   0.89873
   17  H   0.88574
   18  H   0.88631
   19  H   0.89554
   20  H   0.90269
   21  H   0.92110
   22  H   0.91865
 *******************************************************************************
 ** Site#: 14399           For non-commercial use only        Version 13.159M **
 *******************************************************************************
 ** Cite this work as: MOPAC2012, James J. P. Stewart, Stewart Computational  **
 ** Chemistry, Version 13.159M web: HTTP://OpenMOPAC.net  Days remaining:   6 **
 *******************************************************************************
 **                                                                           **
 **                                MOPAC2012                                  **
 **                                                                           **
 *******************************************************************************

                            PM3 CALCULATION RESULTS


 *******************************************************************************
 *  CALCULATION DONE:                                Mon Jun  2 11:13:25 2014  *
 *  PM3      - The PM3 Hamiltonian to be used
 *  OLDGEO   - PREVIOUS GEOMETRY TO BE USED
 *  PRECISE  - CRITERIA TO BE INCREASED BY 100 TIMES
 *  NOSYM    - POINT-GROUP SYMMETRY SET TO C1
 *  T=       - A TIME OF 172800.0 SECONDS REQUESTED
 *  DUMP=N   - RESTART FILE WRITTEN EVERY  7200.000 SECONDS
 *  THERMO   - THERMODYNAMIC QUANTITIES TO BE CALCULATED
 *******************************************************************************
oldgeo thermo nosym precise  pm3

   ATOM   CHEMICAL          X               Y               Z
  NUMBER   SYMBOL      (ANGSTROMS)     (ANGSTROMS)     (ANGSTROMS)
 
     1       C         -1.43739418  *  -0.74810490  *   0.28473159  *
     2       C         -0.22151348  *  -0.47192117  *  -0.58997424  *
     3       C         -1.72420757  *   0.36025278  *   1.27068588  *
     4       C         -2.71596088  *  -0.80323458  *  -0.51923558  *
     5       C          1.04950108  *  -0.64626941  *   0.16249812  *
     6       C         -2.97529646  *   0.82965503  *   1.07490561  *
     7       C         -3.59308191  *   0.10473271  *  -0.03970262  *
     8       C          2.04231905  *   0.24917358  *   0.12121991  *
     9       C          3.29020542  *   0.05034577  *   0.84268989  *
    10       C          4.28310791  *   0.93674966  *   0.80199287  *
    11       H         -1.31076250  *  -1.70893671  *   0.83889819  *
    12       H         -0.21894945  *  -1.17757014  *  -1.44593681  *
    13       H         -0.29610421  *   0.54171053  *  -1.03183893  *
    14       H         -0.99039675  *   0.68748444  *   2.00413117  *
    15       H         -2.85180812  *  -1.49448054  *  -1.34811797  *
    16       H          1.14088938  *  -1.56635934  *   0.75452912  *
    17       H         -3.48230857  *   1.61683525  *   1.62929112  *
    18       H         -4.60361316  *   0.30072347  *  -0.39258554  *
    19       H          1.94810555  *   1.17265257  *  -0.46567461  *
    20       H          3.38286811  *  -0.87167392  *   1.43051633  *
    21       H          5.21590628  *   0.79380613  *   1.33849403  *
    22       H          4.23293540  *   1.86129849  *   0.23321844  *
 


          CARTESIAN COORDINATES 

    NO.       ATOM         X         Y         Z

     1         C       -1.4374   -0.7481    0.2847
     2         C       -0.2215   -0.4719   -0.5900
     3         C       -1.7242    0.3603    1.2707
     4         C       -2.7160   -0.8032   -0.5192
     5         C        1.0495   -0.6463    0.1625
     6         C       -2.9753    0.8297    1.0749
     7         C       -3.5931    0.1047   -0.0397
     8         C        2.0423    0.2492    0.1212
     9         C        3.2902    0.0503    0.8427
    10         C        4.2831    0.9367    0.8020
    11         H       -1.3108   -1.7089    0.8389
    12         H       -0.2189   -1.1776   -1.4459
    13         H       -0.2961    0.5417   -1.0318
    14         H       -0.9904    0.6875    2.0041
    15         H       -2.8518   -1.4945   -1.3481
    16         H        1.1409   -1.5664    0.7545
    17         H       -3.4823    1.6168    1.6293
    18         H       -4.6036    0.3007   -0.3926
    19         H        1.9481    1.1727   -0.4657
    20         H        3.3829   -0.8717    1.4305
    21         H        5.2159    0.7938    1.3385
    22         H        4.2329    1.8613    0.2332

  H: (PM3): J. J. P. STEWART, J. COMP. CHEM. 10, 209 (1989).
  C: (PM3): J. J. P. STEWART, J. COMP. CHEM. 10, 209 (1989).

           Empirical Formula: C10 H12  =    22 atoms



      MOLECULAR POINT GROUP   :   C1  


      RHF CALCULATION, NO. OF DOUBLY OCCUPIED LEVELS =   26



          HEAT OF FORMATION =      61.334998 KCALS/MOLE


          INTERNAL COORDINATE DERIVATIVES

   NUMBER  ATOM       BOND         ANGLE      DIHEDRAL

     1       C     -0.000775     0.004193    -0.001313
     2       C     -0.002402    -0.001813     0.004859
     3       C      0.001572    -0.000964     0.004760
     4       C      0.002799     0.001664     0.005332
     5       C      0.005425     0.002055     0.003794
     6       C     -0.002580    -0.003626    -0.010502
     7       C      0.002685     0.008887     0.003753
     8       C     -0.010165    -0.003931    -0.003422
     9       C      0.000892    -0.003799     0.002799
    10       C      0.006125     0.005934    -0.003460
    11       H     -0.001297    -0.002292     0.001479
    12       H      0.007415     0.004513     0.005677
    13       H      0.002671     0.002092     0.001315
    14       H      0.003686     0.002879     0.002750
    15       H     -0.006790    -0.000877    -0.005538
    16       H     -0.002123    -0.003978    -0.001129
    17       H     -0.003067    -0.002109    -0.002664
    18       H      0.003298    -0.003858     0.002952
    19       H     -0.000731    -0.000160     0.000528
    20       H      0.001412     0.000918    -0.013713
    21       H     -0.007124    -0.003129    -0.002522
    22       H     -0.000926    -0.002598     0.004265


          GRADIENT NORM =   0.03511


          TIME FOR SCF CALCULATION =    0.01

          TIME FOR DERIVATIVES     =    0.00

          MOLECULAR WEIGHT =  132.20



          ROTATIONAL CONSTANTS IN CM(-1)

          A =    0.14452669   B =    0.01755011   C =    0.01645007



           PRINCIPAL MOMENTS OF INERTIA IN UNITS OF 10**(-40)*GRAM-CM**2

          A =      193.6858   B =     1595.0203   C =     1701.6815


          ORIENTATION OF MOLECULE IN FORCE CALCULATION

    NO.       ATOM         X         Y         Z

     1          C      -1.1191   -0.8408   -0.4516
     2          C       0.4040   -0.8408   -0.4516
     3          C      -1.7133    0.5483   -0.4516
     4          C      -1.6881   -1.4348   -1.7195
     5          C       0.9548   -0.4726    0.8799
     6          C      -2.5145    0.6995   -1.5283
     7          C      -2.4991   -0.5359   -2.3177
     8          C       1.9335    0.4261    1.0336
     9          C       2.4793    0.7554    2.3417
    10          C       3.4560    1.6466    2.4998
    11          H      -1.5105   -1.4077    0.4269
    12          H       0.7696   -1.8555   -0.7112
    13          H       0.7820   -0.1686   -1.2475
    14          H      -1.4894    1.2742    0.3271
    15          H      -1.4459   -2.4430   -2.0485
    16          H       0.5210   -0.9910    1.7450
    17          H      -3.0949    1.5774   -1.8046
    18          H      -3.0676   -0.6645   -3.2366
    19          H       2.3628    0.9495    0.1688
    20          H       2.0485    0.2335    3.2056
    21          H       3.8667    1.8963    3.4732
    22          H       3.9103    2.1852    1.6726


    FIRST DERIVATIVES WILL BE USED IN THE CALCULATION OF SECOND DERIVATIVES

          ESTIMATED TIME TO COMPLETE CALCULATION =        2.71 SECONDS

    FOR POINT-GROUP C1   THERE ARE   1 UNIQUE SYMMETRY FUNCTIONS.

 STEP:   1 TIME =     0.03 SECS, INTEGRAL =      0.03 TIME LEFT: 172799.96
 STEP:   2 TIME =     0.03 SECS, INTEGRAL =      0.06 TIME LEFT: 172799.93
 STEP:   3 TIME =     0.03 SECS, INTEGRAL =      0.10 TIME LEFT: 172799.89
 STEP:   4 TIME =     0.03 SECS, INTEGRAL =      0.13 TIME LEFT: 172799.86
 STEP:   5 TIME =     0.03 SECS, INTEGRAL =      0.16 TIME LEFT: 172799.83
 STEP:   6 TIME =     0.03 SECS, INTEGRAL =      0.19 TIME LEFT: 172799.80
 STEP:   7 TIME =     0.03 SECS, INTEGRAL =      0.22 TIME LEFT: 172799.77
 STEP:   8 TIME =     0.03 SECS, INTEGRAL =      0.25 TIME LEFT: 172799.74
 STEP:   9 TIME =     0.03 SECS, INTEGRAL =      0.29 TIME LEFT: 172799.70
 STEP:  10 TIME =     0.03 SECS, INTEGRAL =      0.32 TIME LEFT: 172799.67
 STEP:  11 TIME =     0.03 SECS, INTEGRAL =      0.35 TIME LEFT: 172799.64
 STEP:  12 TIME =     0.03 SECS, INTEGRAL =      0.38 TIME LEFT: 172799.61
 STEP:  13 TIME =     0.03 SECS, INTEGRAL =      0.42 TIME LEFT: 172799.57
 STEP:  14 TIME =     0.03 SECS, INTEGRAL =      0.45 TIME LEFT: 172799.54
 STEP:  15 TIME =     0.03 SECS, INTEGRAL =      0.48 TIME LEFT: 172799.51
 STEP:  16 TIME =     0.03 SECS, INTEGRAL =      0.51 TIME LEFT: 172799.48
 STEP:  17 TIME =     0.03 SECS, INTEGRAL =      0.54 TIME LEFT: 172799.45
 STEP:  18 TIME =     0.03 SECS, INTEGRAL =      0.58 TIME LEFT: 172799.41
 STEP:  19 TIME =     0.03 SECS, INTEGRAL =      0.61 TIME LEFT: 172799.38
 STEP:  20 TIME =     0.03 SECS, INTEGRAL =      0.64 TIME LEFT: 172799.35
 STEP:  21 TIME =     0.03 SECS, INTEGRAL =      0.67 TIME LEFT: 172799.32
 STEP:  22 TIME =     0.03 SECS, INTEGRAL =      0.71 TIME LEFT: 172799.28
 STEP:  23 TIME =     0.03 SECS, INTEGRAL =      0.74 TIME LEFT: 172799.25
 STEP:  24 TIME =     0.03 SECS, INTEGRAL =      0.77 TIME LEFT: 172799.22
 STEP:  25 TIME =     0.03 SECS, INTEGRAL =      0.80 TIME LEFT: 172799.19
 STEP:  26 TIME =     0.03 SECS, INTEGRAL =      0.83 TIME LEFT: 172799.16
 STEP:  27 TIME =     0.03 SECS, INTEGRAL =      0.87 TIME LEFT: 172799.12
 STEP:  28 TIME =     0.04 SECS, INTEGRAL =      0.91 TIME LEFT: 172799.08
 STEP:  29 TIME =     0.04 SECS, INTEGRAL =      0.94 TIME LEFT: 172799.05
 STEP:  30 TIME =     0.03 SECS, INTEGRAL =      0.97 TIME LEFT: 172799.02
 STEP:  31 TIME =     0.03 SECS, INTEGRAL =      1.01 TIME LEFT: 172798.98
 STEP:  32 TIME =     0.04 SECS, INTEGRAL =      1.05 TIME LEFT: 172798.94
 STEP:  33 TIME =     0.03 SECS, INTEGRAL =      1.08 TIME LEFT: 172798.91
 STEP:  34 TIME =     0.03 SECS, INTEGRAL =      1.11 TIME LEFT: 172798.88
 STEP:  35 TIME =     0.03 SECS, INTEGRAL =      1.14 TIME LEFT: 172798.85
 STEP:  36 TIME =     0.03 SECS, INTEGRAL =      1.18 TIME LEFT: 172798.81
 STEP:  37 TIME =     0.03 SECS, INTEGRAL =      1.21 TIME LEFT: 172798.78
 STEP:  38 TIME =     0.03 SECS, INTEGRAL =      1.24 TIME LEFT: 172798.75
 STEP:  39 TIME =     0.03 SECS, INTEGRAL =      1.27 TIME LEFT: 172798.72
 STEP:  40 TIME =     0.03 SECS, INTEGRAL =      1.31 TIME LEFT: 172798.68
 STEP:  41 TIME =     0.03 SECS, INTEGRAL =      1.34 TIME LEFT: 172798.65
 STEP:  42 TIME =     0.03 SECS, INTEGRAL =      1.37 TIME LEFT: 172798.62
 STEP:  43 TIME =     0.03 SECS, INTEGRAL =      1.40 TIME LEFT: 172798.59
 STEP:  44 TIME =     0.03 SECS, INTEGRAL =      1.44 TIME LEFT: 172798.55
 STEP:  45 TIME =     0.03 SECS, INTEGRAL =      1.47 TIME LEFT: 172798.52
 STEP:  46 TIME =     0.03 SECS, INTEGRAL =      1.50 TIME LEFT: 172798.49
 STEP:  47 TIME =     0.03 SECS, INTEGRAL =      1.53 TIME LEFT: 172798.46
 STEP:  48 TIME =     0.03 SECS, INTEGRAL =      1.56 TIME LEFT: 172798.42
 STEP:  49 TIME =     0.03 SECS, INTEGRAL =      1.60 TIME LEFT: 172798.39
 STEP:  50 TIME =     0.03 SECS, INTEGRAL =      1.63 TIME LEFT: 172798.36
 STEP:  51 TIME =     0.03 SECS, INTEGRAL =      1.66 TIME LEFT: 172798.33
 STEP:  52 TIME =     0.03 SECS, INTEGRAL =      1.69 TIME LEFT: 172798.30
 STEP:  53 TIME =     0.03 SECS, INTEGRAL =      1.73 TIME LEFT: 172798.26
 STEP:  54 TIME =     0.03 SECS, INTEGRAL =      1.76 TIME LEFT: 172798.23
 STEP:  55 TIME =     0.03 SECS, INTEGRAL =      1.79 TIME LEFT: 172798.20
 STEP:  56 TIME =     0.03 SECS, INTEGRAL =      1.82 TIME LEFT: 172798.17
 STEP:  57 TIME =     0.03 SECS, INTEGRAL =      1.86 TIME LEFT: 172798.13
 STEP:  58 TIME =     0.03 SECS, INTEGRAL =      1.89 TIME LEFT: 172798.10
 STEP:  59 TIME =     0.03 SECS, INTEGRAL =      1.92 TIME LEFT: 172798.07
 STEP:  60 TIME =     0.03 SECS, INTEGRAL =      1.95 TIME LEFT: 172798.04
 STEP:  61 TIME =     0.04 SECS, INTEGRAL =      1.99 TIME LEFT: 172798.00
 STEP:  62 TIME =     0.03 SECS, INTEGRAL =      2.02 TIME LEFT: 172797.97
 STEP:  63 TIME =     0.03 SECS, INTEGRAL =      2.05 TIME LEFT: 172797.94
 STEP:  64 TIME =     0.04 SECS, INTEGRAL =      2.09 TIME LEFT: 172797.90
 STEP:  65 TIME =     0.03 SECS, INTEGRAL =      2.12 TIME LEFT: 172797.87
 STEP:  66 TIME =     0.03 SECS, INTEGRAL =      2.15 TIME LEFT: 172797.84

(To convert to Hartree/Bohr^2, multiply by (10^(-21) x N x a0^2)/(4.184 x 627.51) = 0.0642)


           FORCE MATRIX IN MILLIDYNES/ANGSTROM


                  C  1       C  2       C  3       C  4       C  5       C  6
 ------------------------------------------------------------------------------
     C    1  14.845917
     C    2   3.982584  14.646238
     C    3   4.138381   0.596154  17.913328
     C    4   4.122880   0.606814   1.093109  17.909465
     C    5   0.686179   4.960603   0.035814   0.049012  18.031664
     C    6   1.206768   0.052186   9.789241   1.570371   0.009156  18.320318
     C    7   1.206160   0.049040   1.571761   9.796199   0.010180   5.146789
     C    8   0.040320   0.833335   0.005463   0.008994  10.395114   0.001359
     C    9   0.020724   0.143313   0.002632   0.004046   1.075870   0.001251
     C   10   0.003023   0.016120   0.001953   0.002019   0.103966   0.001197
     H   11   4.222583   0.447632   0.387084   0.386384   0.039057   0.051231
     H   12   0.445127   4.404312   0.045453   0.033536   0.407573   0.007567
     H   13   0.439023   4.460675   0.020420   0.013034   0.458418   0.005580
     H   14   0.406170   0.009452   5.078823   0.042287   0.008364   0.442643
     H   15   0.403498   0.013194   0.042349   5.076627   0.002558   0.099201
     H   16   0.027495   0.430396   0.004191   0.002560   4.756693   0.001994
     H   17   0.112854   0.016305   0.446584   0.049056   0.001330   5.071316
     H   18   0.111825   0.016012   0.049570   0.446595   0.002695   0.418865
     H   19   0.007996   0.080806   0.001794   0.001854   0.465792   0.001240
     H   20   0.000886   0.002507   0.000667   0.001069   0.041378   0.000421
     H   21   0.001645   0.010162   0.000807   0.000433   0.008296   0.000644
     H   22   0.001145   0.005329   0.000581   0.000645   0.005534   0.000830


                  C  7       C  8       C  9       C 10       H 11       H 12
 ------------------------------------------------------------------------------
     C    7  18.324551
     C    8   0.002267  18.476996
     C    9   0.001594   5.595130  18.462104
     C   10   0.001181   1.076452  10.784333  17.893242
     H   11   0.051180   0.002810   0.001315   0.000736   4.708576
     H   12   0.006023   0.033032   0.020302   0.002055   0.019327   4.995045
     H   13   0.004517   0.049281   0.003458   0.001303   0.042138   0.555473
     H   14   0.099998   0.003302   0.001011   0.000942   0.011051   0.001674
     H   15   0.443454   0.000658   0.000484   0.000401   0.011182   0.010931
     H   16   0.000995   0.467823   0.087971   0.006430   0.027973   0.017171
     H   17   0.419553   0.000557   0.000475   0.000526   0.014356   0.002628
     H   18   5.070916   0.000804   0.000409   0.000474   0.013939   0.000611
     H   19   0.001283   4.750549   0.443933   0.038363   0.000702   0.009461
     H   20   0.000385   0.445561   4.772898   0.451842   0.000318   0.000720
     H   21   0.000487   0.135663   0.459996   5.114108   0.000275   0.001605
     H   22   0.000658   0.099989   0.488294   5.076624   0.000251   0.000837


                  H 13       H 14       H 15       H 16       H 17       H 18
 ------------------------------------------------------------------------------
     H   13   5.058979
     H   14   0.002734   5.474073
     H   15   0.002090   0.010153   5.477040
     H   16   0.037712   0.001570   0.000951   5.140235
     H   17   0.000902   0.041337   0.005291   0.000464   5.461757
     H   18   0.000504   0.005433   0.040825   0.000250   0.009595   5.460696
     H   19   0.029922   0.001351   0.000304   0.101139   0.000343   0.000301
     H   20   0.000661   0.000739   0.000150   0.028596   0.000147   0.000076
     H   21   0.000285   0.000345   0.000112   0.004318   0.000178   0.000151
     H   22   0.000263   0.000463   0.000193   0.002785   0.000198   0.000141


                  H 19       H 20       H 21       H 22
 ------------------------------------------------------
     H   19   5.124881
     H   20   0.035644   5.141776
     H   21   0.002352   0.077046   5.498326
     H   22   0.025589   0.114494   0.419810   5.469968


          HEAT OF FORMATION =      61.334998 KCALS/MOLE

          ZERO POINT ENERGY     117.089 KCAL/MOL


           NORMAL COORDINATE ANALYSIS (Total motion = 1 Angstrom)


   Root No.       1         2         3         4         5         6         7         8

                 1 A       2 A       3 A       4 A       5 A       6 A       7 A       8 A   

                  43.0      79.9     113.1     150.6     186.2     235.5     272.6     335.0
  
           1   -0.0031   -0.0109    0.0135    0.0125   -0.0187   -0.0001    0.0070    0.0209
           2    0.0194   -0.0216   -0.0037   -0.0031   -0.0187   -0.0151   -0.0228    0.0235
           3   -0.0017   -0.0013   -0.0030   -0.0163    0.0265   -0.0142   -0.0128    0.0135
           4   -0.0030   -0.0113    0.0136    0.0124   -0.0166   -0.0012    0.0063    0.0103
           5    0.0493   -0.0054   -0.0110   -0.0111    0.0119   -0.0256    0.0374    0.0057
           6   -0.0041    0.0215   -0.0157   -0.0069   -0.0157    0.0153   -0.0186   -0.0089
           7   -0.0308   -0.0245    0.0251    0.0159   -0.0117    0.0192    0.0243    0.0175
           8    0.0075   -0.0275    0.0012   -0.0019   -0.0155   -0.0078   -0.0164    0.0218
           9   -0.0225    0.0256   -0.0025   -0.0042    0.0257   -0.0101    0.0011    0.0078
          10    0.0071    0.0202   -0.0073   -0.0045   -0.0178   -0.0104   -0.0221    0.0448
          11   -0.0115    0.0084   -0.0061    0.0021   -0.0172   -0.0041   -0.0164    0.0059
          12    0.0080   -0.0297    0.0080   -0.0104    0.0257   -0.0156   -0.0023    0.0202
          13   -0.0035   -0.0264    0.0124   -0.0073    0.0022   -0.0171   -0.0280   -0.0407
          14    0.0333    0.0208   -0.0103    0.0246    0.0277    0.0388    0.0141    0.0250
          15    0.0004    0.0204   -0.0155   -0.0083   -0.0305    0.0048    0.0054   -0.0043
          16   -0.0345   -0.0014    0.0113   -0.0117    0.0353    0.0045    0.0310   -0.0029
          17   -0.0248   -0.0036    0.0014   -0.0027    0.0067    0.0004    0.0057   -0.0096
          18   -0.0244    0.0118    0.0079    0.0162   -0.0056    0.0023    0.0005    0.0189
          19   -0.0109    0.0270   -0.0099   -0.0260    0.0302   -0.0187   -0.0137    0.0278
          20   -0.0366    0.0189   -0.0036   -0.0010    0.0055    0.0007   -0.0006   -0.0113
          21   -0.0054   -0.0230    0.0152    0.0134   -0.0044    0.0016    0.0090    0.0204
          22    0.0130   -0.0102   -0.0423    0.0360    0.0173   -0.0132   -0.0119   -0.0236
          23    0.0137    0.0059    0.0467   -0.0220    0.0121    0.0377   -0.0085    0.0014
          24    0.0102    0.0053   -0.0021   -0.0110   -0.0338   -0.0061    0.0267   -0.0180
          25    0.0192   -0.0029   -0.0431   -0.0207   -0.0080    0.0270    0.0024   -0.0250
          26   -0.0116    0.0228    0.0321    0.0189   -0.0034   -0.0163   -0.0066   -0.0316
          27    0.0141   -0.0022    0.0021    0.0029   -0.0186   -0.0077    0.0196   -0.0153
          28    0.0425    0.0364    0.0232   -0.0038   -0.0106    0.0069    0.0005   -0.0299
          29   -0.0390   -0.0158   -0.0413   -0.0028   -0.0099    0.0000    0.0041   -0.0264
          30    0.0240   -0.0265    0.0050    0.0197    0.0278    0.0220   -0.0221   -0.0302
          31    0.0086   -0.0186    0.0190    0.0087    0.0059   -0.0164    0.0276    0.0193
          32    0.0245   -0.0497    0.0034   -0.0043   -0.0230   -0.0132   -0.0352    0.0342
          33    0.0068   -0.0231    0.0042   -0.0179    0.0331   -0.0197   -0.0121    0.0206
          34    0.0154    0.0019    0.0094    0.0097   -0.0009   -0.0041    0.0577    0.0088
          35    0.0606   -0.0060   -0.0119   -0.0200    0.0192   -0.0440    0.0676   -0.0015
          36   -0.0227    0.0419   -0.0171    0.0250   -0.0217    0.0823   -0.0608    0.0161
          37   -0.0172   -0.0083    0.0122    0.0249   -0.0510    0.0210   -0.0224    0.0231
          38    0.0703   -0.0146   -0.0119   -0.0342    0.0187   -0.0749    0.0909   -0.0119
          39    0.0069    0.0150   -0.0170   -0.0200   -0.0262   -0.0152    0.0124   -0.0177
          40   -0.0451   -0.0483    0.0428    0.0364   -0.0310    0.0430    0.0471    0.0205
          41    0.0240   -0.0478    0.0038   -0.0016   -0.0264   -0.0091   -0.0242    0.0332
          42   -0.0338    0.0514   -0.0100   -0.0104    0.0414   -0.0156    0.0020   -0.0038
          43    0.0267    0.0345   -0.0189   -0.0043   -0.0437   -0.0180   -0.0537    0.0793
          44   -0.0118    0.0190   -0.0094    0.0058   -0.0288   -0.0028   -0.0245    0.0137
          45    0.0233   -0.0518    0.0098   -0.0215    0.0422   -0.0249   -0.0001    0.0211
          46   -0.0145   -0.0452    0.0554   -0.0686   -0.0045   -0.0153   -0.0599   -0.0793
          47    0.0346    0.0504   -0.0598    0.0935    0.0472    0.0560    0.0186    0.0631
          48   -0.0043    0.0284   -0.0233    0.0028   -0.0213    0.0167   -0.0086   -0.0007
          49   -0.0515   -0.0023    0.0147   -0.0208    0.0668    0.0104    0.0616   -0.0340
          50   -0.0403   -0.0005    0.0045   -0.0038    0.0211    0.0070    0.0245   -0.0296
          51   -0.0377    0.0236    0.0108    0.0318   -0.0260    0.0108   -0.0036    0.0209
          52   -0.0091    0.0480   -0.0241   -0.0482    0.0560   -0.0364   -0.0373    0.0371
          53   -0.0621    0.0401   -0.0046   -0.0015    0.0193    0.0055    0.0071   -0.0236
          54   -0.0029   -0.0389    0.0242    0.0272   -0.0223    0.0119    0.0225    0.0166
          55    0.0244    0.0039   -0.0820    0.1078    0.0393   -0.0236    0.0052    0.0028
          56    0.0137   -0.0233    0.0965   -0.0904    0.0021    0.0479   -0.0210   -0.0241
          57    0.0159   -0.0055    0.0085   -0.0163   -0.0278   -0.0043    0.0264   -0.0201
          58    0.0042   -0.0276   -0.0942   -0.0827   -0.0318    0.0793    0.0247   -0.0033
          59   -0.0082    0.0663    0.0754    0.0694   -0.0143   -0.0887   -0.0043   -0.0595
          60    0.0087    0.0116    0.0029    0.0027   -0.0363   -0.0247    0.0311   -0.0219
          61    0.0480    0.0468    0.0300   -0.0502   -0.0410    0.0346    0.0310    0.0024
          62   -0.0594   -0.0064   -0.0625    0.0254   -0.0307   -0.0629    0.0240   -0.0397
          63    0.0269   -0.0333    0.0076    0.0320    0.0461    0.0267   -0.0403   -0.0410
          64    0.0580    0.0611    0.0766    0.0574    0.0172   -0.0394   -0.0313   -0.0670
          65   -0.0432   -0.0594   -0.0867   -0.0503    0.0046    0.0768   -0.0048   -0.0074
          66    0.0298   -0.0414    0.0049    0.0225    0.0528    0.0469   -0.0459   -0.0385


   Root No.       9        10        11        12        13        14        15        16

                 9 A      10 A      11 A      12 A      13 A      14 A      15 A      16 A   

                 449.0     503.2     532.1     564.6     625.4     748.3     800.6     813.8
  
           1    0.0070    0.0025   -0.0261    0.0278    0.0053    0.0095    0.0010   -0.0004
           2    0.0079   -0.0022   -0.0192    0.0044    0.0058   -0.0232    0.0233    0.0150
           3   -0.0036   -0.0044    0.0146   -0.0179   -0.0082    0.0321   -0.0175   -0.0021
           4    0.0154    0.0014   -0.0282    0.0322   -0.0004    0.0317   -0.0008   -0.0005
           5   -0.0239    0.0014    0.0096    0.0160    0.0015   -0.0152    0.0256    0.0058
           6   -0.0250   -0.0119    0.0195    0.0371   -0.0073   -0.0061   -0.0011    0.0004
           7   -0.0166    0.0253    0.0313   -0.0091   -0.0002   -0.0161   -0.0123    0.0309
           8   -0.0010    0.0068    0.0028   -0.0113    0.0017   -0.0231    0.0037    0.0128
           9    0.0041   -0.0140   -0.0171   -0.0041    0.0048   -0.0185    0.0321    0.0023
          10   -0.0219   -0.0242    0.0012   -0.0301    0.0017   -0.0099   -0.0112   -0.0384
          11   -0.0043   -0.0134   -0.0030   -0.0041   -0.0039    0.0259   -0.0107   -0.0096
          12    0.0154    0.0138   -0.0112    0.0065    0.0014    0.0241   -0.0097    0.0075
          13    0.0103   -0.0206    0.0249    0.0182   -0.0209   -0.0015   -0.0017   -0.0001
          14    0.0185   -0.0111    0.0157    0.0047    0.0128   -0.0002   -0.0001    0.0009
          15   -0.0306    0.0064   -0.0079    0.0406   -0.0025    0.0051    0.0051    0.0048
          16   -0.0121   -0.0271   -0.0127   -0.0071    0.0036   -0.0253   -0.0004    0.0323
          17   -0.0005   -0.0133   -0.0104    0.0020   -0.0004    0.0087   -0.0256   -0.0184
          18   -0.0001    0.0229    0.0150   -0.0046    0.0023   -0.0129    0.0208   -0.0017
          19    0.0131    0.0306    0.0050    0.0011    0.0037   -0.0181   -0.0085   -0.0334
          20    0.0086    0.0143    0.0037    0.0119   -0.0019    0.0094   -0.0117   -0.0167
          21   -0.0130   -0.0196   -0.0071   -0.0166    0.0029    0.0013   -0.0092   -0.0086
          22    0.0073   -0.0157    0.0230    0.0149   -0.0153   -0.0073    0.0045    0.0021
          23    0.0096   -0.0124    0.0154    0.0152    0.0048    0.0059   -0.0084   -0.0003
          24    0.0268    0.0028   -0.0029   -0.0235    0.0045    0.0009    0.0004   -0.0009
          25   -0.0025    0.0129   -0.0093   -0.0174    0.0373    0.0036   -0.0029   -0.0007
          26   -0.0081    0.0154   -0.0175   -0.0179   -0.0344   -0.0046    0.0023    0.0001
          27    0.0414   -0.0157    0.0207   -0.0128   -0.0073   -0.0037   -0.0034   -0.0006
          28    0.0004    0.0141   -0.0134   -0.0229   -0.0011   -0.0008   -0.0016   -0.0007
          29    0.0009    0.0105   -0.0086   -0.0186    0.0068   -0.0010   -0.0004   -0.0005
          30   -0.0143    0.0154   -0.0137   -0.0150    0.0031   -0.0011   -0.0018   -0.0004
          31    0.0250    0.0067   -0.0511    0.0393    0.0102    0.0576    0.0307    0.0018
          32    0.0193    0.0274   -0.0047    0.0024    0.0052   -0.0280   -0.0057    0.0628
          33    0.0125    0.0168    0.0108   -0.0127   -0.0056    0.0494   -0.0224    0.0298
          34   -0.0200    0.0167   -0.0086    0.0514   -0.0073    0.0703   -0.0598   -0.0109
          35   -0.0532    0.0144    0.0202    0.0238   -0.0140    0.0071   -0.0189    0.0007
          36    0.0368   -0.0380    0.0071    0.0361    0.0398   -0.0353    0.0822    0.0066
          37    0.0397   -0.0049   -0.0667    0.0565    0.0225    0.0059    0.0741    0.0146
          38   -0.0844    0.0276    0.0240    0.0311   -0.0349    0.0180   -0.0543    0.0003
          39   -0.0618    0.0066    0.0126    0.0607   -0.0261    0.0093   -0.0303    0.0032
          40   -0.0487    0.0642    0.1150   -0.0505   -0.0141    0.0568    0.1219   -0.1579
          41   -0.0093    0.0186    0.0303   -0.0280   -0.0071    0.0254    0.0639   -0.0519
          42    0.0210   -0.0361   -0.0665    0.0233    0.0171   -0.0852   -0.0617    0.1174
          43   -0.0560   -0.0659    0.0279   -0.1143   -0.0073    0.0868    0.0108    0.1949
          44   -0.0205   -0.0313    0.0118   -0.0376   -0.0095    0.0780   -0.0094    0.0891
          45    0.0401    0.0384   -0.0366    0.0482    0.0119   -0.0643    0.0026   -0.1232
          46   -0.0132   -0.0376    0.0649    0.0469    0.0122   -0.0345    0.0293    0.0081
          47    0.0262   -0.0075   -0.0023    0.0112   -0.0351    0.0322   -0.0468   -0.0043
          48   -0.0364   -0.0005    0.0020    0.0580   -0.0145    0.0079   -0.0073    0.0057
          49   -0.0353   -0.1019   -0.0318   -0.0342   -0.0031    0.0780    0.1472   -0.0367
          50   -0.0115   -0.0456   -0.0164   -0.0064   -0.0045    0.0615    0.0378   -0.0452
          51    0.0133    0.0776    0.0365    0.0253    0.0037   -0.0636   -0.0860    0.0600
          52    0.0436    0.1038    0.0408    0.0042   -0.0038    0.0939    0.0701    0.1000
          53    0.0175    0.0518    0.0299    0.0166   -0.0038    0.0199    0.0560    0.0765
          54   -0.0331   -0.0701   -0.0329   -0.0195    0.0079   -0.0695   -0.0675   -0.1047
          55    0.0374   -0.0206    0.0197   -0.0002   -0.0896   -0.0013   -0.0114   -0.0018
          56    0.0192   -0.0314    0.0500    0.0200    0.0795   -0.0054    0.0003    0.0014
          57    0.0469   -0.0114    0.0168   -0.0274    0.0128   -0.0030   -0.0022   -0.0017
          58    0.0171    0.0205   -0.0285   -0.0372   -0.0215    0.0069   -0.0113   -0.0037
          59   -0.0104    0.0132   -0.0045   -0.0236    0.0328   -0.0090    0.0114    0.0016
          60    0.0479   -0.0122    0.0177   -0.0261    0.0040   -0.0045   -0.0020   -0.0011
          61    0.0548   -0.0059   -0.0078   -0.0301   -0.2063   -0.0286    0.0082    0.0022
          62    0.0311   -0.0254    0.0543   -0.0015    0.2162    0.0199   -0.0261   -0.0036
          63   -0.0458    0.0341   -0.0334   -0.0175    0.0361    0.0052    0.0007   -0.0009
          64   -0.0492    0.0347   -0.0232   -0.0228    0.1442    0.0169   -0.0067   -0.0030
          65   -0.0166    0.0377   -0.0563   -0.0346   -0.1385   -0.0139    0.0156    0.0012
          66   -0.0544    0.0454   -0.0514   -0.0254   -0.0115    0.0005    0.0062   -0.0005


   Root No.      17        18        19        20        21        22        23        24

                17 A      18 A      19 A      20 A      21 A      22 A      23 A      24 A   

                 824.0     862.9     920.3     933.8     946.9     958.3     968.3     981.0
  
           1   -0.0035    0.0045    0.0008   -0.0032    0.0033    0.0063   -0.0001    0.0009
           2   -0.0158   -0.0122    0.0002   -0.0004    0.0029    0.0013   -0.0085    0.0064
           3   -0.0456    0.0158   -0.0011    0.0024   -0.0029   -0.0030    0.0048    0.0007
           4   -0.0047   -0.0037    0.0020   -0.0032   -0.0072   -0.0092    0.0127    0.0012
           5    0.0065    0.0311   -0.0094    0.0211    0.0093   -0.0057   -0.0182   -0.0030
           6    0.0027   -0.0022   -0.0004    0.0009   -0.0058    0.0043   -0.0012   -0.0019
           7   -0.0198    0.0073    0.0001   -0.0008    0.0012    0.0233   -0.0079    0.0101
           8    0.0103   -0.0246    0.0053   -0.0102   -0.0130   -0.0041    0.0257   -0.0117
           9   -0.0259   -0.0192    0.0024   -0.0038   -0.0043   -0.0181    0.0135   -0.0120
          10    0.0046    0.0029    0.0004   -0.0017    0.0011    0.0218   -0.0078   -0.0162
          11   -0.0698    0.0158    0.0016   -0.0034    0.0050    0.0205   -0.0047   -0.0177
          12    0.0023    0.0129   -0.0002    0.0016    0.0073   -0.0018   -0.0041    0.0013
          13   -0.0003   -0.0154   -0.0001    0.0195   -0.0095   -0.0076   -0.0194   -0.0048
          14    0.0022    0.0126   -0.0010   -0.0165   -0.0097    0.0085    0.0202    0.0055
          15    0.0039   -0.0026   -0.0009   -0.0027    0.0072   -0.0061    0.0014    0.0031
          16   -0.0304    0.0000   -0.0011    0.0033    0.0000   -0.0192    0.0054   -0.0279
          17    0.0628    0.0086   -0.0027    0.0055    0.0033   -0.0074   -0.0059   -0.0125
          18   -0.0023   -0.0110    0.0017   -0.0038   -0.0019    0.0116   -0.0014    0.0219
          19    0.0298   -0.0005   -0.0011    0.0023    0.0000   -0.0177    0.0040    0.0323
          20    0.0053    0.0075   -0.0010    0.0016    0.0004   -0.0069    0.0021    0.0166
          21    0.0783   -0.0024   -0.0005    0.0010   -0.0009    0.0081   -0.0024   -0.0244
          22    0.0077    0.0082    0.0224    0.0105    0.0026    0.0083    0.0187    0.0046
          23   -0.0044   -0.0218   -0.0233   -0.0125   -0.0074   -0.0109   -0.0213   -0.0036
          24   -0.0022    0.0047   -0.0050    0.0067   -0.0272    0.0002   -0.0033   -0.0004
          25   -0.0018   -0.0010    0.0143   -0.0177    0.0004   -0.0063   -0.0091   -0.0014
          26    0.0013    0.0007   -0.0146    0.0152    0.0137    0.0065    0.0103    0.0008
          27    0.0006   -0.0051   -0.0011    0.0002    0.0005    0.0022    0.0013    0.0006
          28   -0.0008   -0.0020    0.0020   -0.0082    0.0063   -0.0041   -0.0089   -0.0026
          29    0.0000    0.0009   -0.0010    0.0047    0.0052    0.0052    0.0101    0.0021
          30    0.0002   -0.0048    0.0022   -0.0120    0.0479   -0.0017    0.0028   -0.0010
          31   -0.0101    0.0445   -0.0125    0.0106    0.0259   -0.0444    0.0031   -0.0072
          32    0.0177   -0.0195   -0.0023   -0.0077   -0.0028    0.0187   -0.0314    0.1896
          33   -0.0271    0.0297   -0.0087    0.0044    0.0046   -0.0136   -0.0103    0.1155
          34    0.0085   -0.0187    0.0260   -0.0542   -0.0449    0.0168    0.1184   -0.0012
          35    0.0003   -0.0106    0.0055   -0.0092   -0.0080    0.0065    0.0181    0.0015
          36    0.0424    0.1306   -0.0230    0.0440    0.0049   -0.0047    0.0091   -0.0195
          37    0.0208    0.0287   -0.0131    0.0331    0.0222   -0.0445   -0.0376    0.0010
          38   -0.0126   -0.0694    0.0154   -0.0273   -0.0148    0.0124    0.0124    0.0108
          39   -0.0007   -0.0681    0.0124   -0.0209   -0.0120    0.0019   -0.0002    0.0091
          40   -0.0058   -0.0006   -0.0104    0.0252    0.0227   -0.0884   -0.0224   -0.0268
          41   -0.0606   -0.0393    0.0094   -0.0133   -0.0255   -0.0699    0.0769   -0.0483
          42    0.0355   -0.0037    0.0014   -0.0084    0.0011    0.0751   -0.0301    0.0331
          43    0.0651    0.0088   -0.0057    0.0153    0.0174   -0.0812   -0.0038    0.0659
          44   -0.0178    0.0215   -0.0024    0.0050    0.0068   -0.0356    0.0091    0.0235
          45   -0.1167    0.0010    0.0074   -0.0119    0.0139    0.0954   -0.0432   -0.0640
          46    0.0378    0.0740   -0.0933   -0.1134   -0.0226    0.0221    0.0623    0.0187
          47   -0.0351   -0.1192    0.1066    0.1156    0.0024   -0.0238   -0.0723   -0.0063
          48    0.0005   -0.0362    0.0168    0.0100    0.0079   -0.0105   -0.0130    0.0080
          49   -0.0142   -0.0473    0.0109   -0.0257   -0.0004    0.1071   -0.0323    0.1363
          50    0.0527   -0.0007    0.0002   -0.0023    0.0113    0.0590   -0.0432    0.0747
          51   -0.0727    0.0594   -0.0144    0.0324    0.0255   -0.0412   -0.0430   -0.0439
          52    0.1428   -0.0220    0.0053   -0.0092    0.0051    0.0969   -0.0308   -0.1574
          53    0.0577   -0.0343    0.0024   -0.0054   -0.0200    0.0077    0.0183   -0.0291
          54    0.0024    0.0170   -0.0050    0.0092   -0.0008   -0.0643    0.0163    0.0989
          55   -0.0061   -0.0298   -0.1763   -0.0801   -0.0774   -0.0234   -0.0579   -0.0108
          56    0.0099    0.0081    0.1897    0.0968   -0.0013    0.0327    0.0566    0.0158
          57   -0.0004    0.0042    0.0252    0.0280   -0.0635    0.0109    0.0059    0.0037
          58   -0.0135   -0.0386   -0.1495    0.1126   -0.0019    0.0391    0.0469    0.0066
          59    0.0109    0.0510    0.1572   -0.1024   -0.0730   -0.0328   -0.0521   -0.0043
          60    0.0005    0.0067    0.0209   -0.0056   -0.0537    0.0011   -0.0085    0.0015
          61    0.0158    0.0093    0.0380   -0.0292    0.1717    0.0127    0.0501    0.0060
          62   -0.0129   -0.0543   -0.0228   -0.0594    0.1429   -0.0293   -0.0439   -0.0153
          63   -0.0036    0.0050   -0.0075    0.0140   -0.0600    0.0004   -0.0083    0.0000
          64   -0.0129   -0.0120   -0.0938    0.1063   -0.0952    0.0408    0.0536    0.0133
          65    0.0085    0.0447    0.0890   -0.0510   -0.1338   -0.0279   -0.0640   -0.0085
          66   -0.0010    0.0192    0.0079    0.0163   -0.1045    0.0017   -0.0112    0.0010


   Root No.      25        26        27        28        29        30        31        32

                25 A      26 A      27 A      28 A      29 A      30 A      31 A      32 A   

                 999.7    1025.1    1035.0    1045.8    1082.6    1089.7    1113.2    1122.8
  
           1    0.0028    0.0042   -0.0005   -0.0098    0.0028   -0.0063    0.0031    0.0526
           2    0.0163    0.0063    0.0037    0.0010    0.0052   -0.0015    0.0001    0.0186
           3   -0.0281    0.0127   -0.0025   -0.0040   -0.0014    0.0052   -0.0087   -0.0308
           4   -0.0077    0.0015    0.0053    0.0164   -0.0021    0.0029   -0.0218   -0.0393
           5   -0.0201   -0.0063   -0.0046    0.0085   -0.0030   -0.0009   -0.0077   -0.0029
           6    0.0019   -0.0031    0.0010    0.0039    0.0028   -0.0025   -0.0014    0.0215
           7   -0.0119   -0.0175   -0.0103   -0.0088   -0.0032    0.0024   -0.0020   -0.0044
           8   -0.0185   -0.0214   -0.0075   -0.0027   -0.0107   -0.0070    0.0190   -0.0332
           9    0.0097    0.0032    0.0062    0.0073   -0.0158   -0.0104    0.0043   -0.0008
          10   -0.0065    0.0197    0.0045    0.0002    0.0013    0.0037    0.0025   -0.0061
          11    0.0071   -0.0058   -0.0006   -0.0013   -0.0212    0.0036   -0.0063    0.0162
          12    0.0217   -0.0262   -0.0049   -0.0010   -0.0003    0.0020   -0.0154    0.0303
          13   -0.0115   -0.0075   -0.0055    0.0146   -0.0013   -0.0009    0.0055    0.0042
          14    0.0142    0.0074    0.0058   -0.0136    0.0010    0.0008   -0.0091   -0.0071
          15    0.0002    0.0034   -0.0020   -0.0076   -0.0032    0.0021    0.0025   -0.0178
          16    0.0068    0.0186    0.0074    0.0038   -0.0020   -0.0045   -0.0033    0.0100
          17    0.0133    0.0041    0.0040    0.0060    0.0033   -0.0029    0.0148   -0.0240
          18   -0.0046   -0.0122   -0.0039   -0.0008    0.0023   -0.0057    0.0037   -0.0078
          19   -0.0002   -0.0175   -0.0069   -0.0056    0.0041   -0.0030   -0.0064    0.0091
          20   -0.0058   -0.0045   -0.0035   -0.0046    0.0012    0.0065   -0.0098    0.0179
          21   -0.0093    0.0160    0.0009   -0.0048    0.0015    0.0009   -0.0123    0.0180
          22    0.0097    0.0017    0.0111   -0.0115   -0.0001    0.0009   -0.0057   -0.0089
          23   -0.0041   -0.0007   -0.0140    0.0066   -0.0008    0.0000    0.0005   -0.0021
          24   -0.0017   -0.0009   -0.0011    0.0049   -0.0004   -0.0004   -0.0022   -0.0016
          25   -0.0006    0.0057   -0.0239    0.0097   -0.0003   -0.0002    0.0004    0.0006
          26   -0.0013   -0.0066    0.0260   -0.0085    0.0003    0.0001   -0.0021   -0.0013
          27    0.0044    0.0002    0.0026   -0.0064    0.0002    0.0002    0.0045    0.0033
          28   -0.0061   -0.0101    0.0316   -0.0093    0.0005   -0.0001   -0.0011    0.0007
          29    0.0067    0.0107   -0.0336    0.0099    0.0001   -0.0002   -0.0001    0.0012
          30   -0.0048    0.0007   -0.0038    0.0046    0.0002   -0.0002    0.0002    0.0017
          31   -0.0327    0.0257   -0.0455   -0.1382   -0.0060    0.0289    0.2353    0.0057
          32    0.0113    0.1694    0.0898    0.0875   -0.0728   -0.0285   -0.0079    0.0316
          33   -0.0454    0.1275    0.0329   -0.0061   -0.0557    0.0042    0.0890   -0.0412
          34   -0.0160   -0.0486    0.0692    0.1583    0.0058   -0.0040    0.0848    0.0053
          35   -0.0021   -0.0100    0.0133    0.0319    0.0007   -0.0023    0.0155    0.0075
          36   -0.0776   -0.0583    0.0245    0.1187   -0.0020   -0.0086    0.0600    0.0497
          37    0.0008    0.0154   -0.0300   -0.0585   -0.0069    0.0155   -0.1161   -0.1814
          38    0.0373    0.0108    0.0047   -0.0146    0.0044   -0.0016   -0.0091    0.0168
          39    0.0522    0.0174   -0.0083   -0.0507    0.0066    0.0029   -0.0460   -0.0289
          40    0.1211    0.0259    0.0372    0.0461   -0.1462    0.0692    0.0287   -0.0248
          41   -0.0588    0.0247   -0.0037   -0.0216    0.1461   -0.1040   -0.0197    0.0482
          42    0.0097   -0.0523   -0.0107    0.0100   -0.1234    0.0603    0.0334   -0.0743
          43    0.1013   -0.0811    0.0013    0.0327    0.1179    0.1239    0.0369   -0.0306
          44    0.0164   -0.0327   -0.0100   -0.0102   -0.0369   -0.0271   -0.0240    0.0492
          45    0.0706   -0.0166    0.0217    0.0497    0.1280    0.1834    0.0600   -0.0809
          46    0.0575    0.0268    0.0090   -0.0711    0.0010    0.0060    0.0396   -0.0042
          47   -0.0223   -0.0032   -0.0243   -0.0029   -0.0062    0.0011    0.0636    0.0285
          48    0.0125    0.0144   -0.0126   -0.0438   -0.0065    0.0058    0.0641   -0.0001
          49   -0.0169   -0.0394   -0.0119   -0.0019    0.0845   -0.0716    0.0068   -0.0123
          50    0.0200   -0.0092    0.0029    0.0124    0.1213   -0.0985    0.0319   -0.0583
          51    0.0684    0.0680    0.0335    0.0317    0.1959   -0.1719    0.0329   -0.0638
          52    0.0200    0.0295    0.0106    0.0049   -0.0528   -0.1075    0.0092   -0.0096
          53   -0.0813    0.1028    0.0176   -0.0020    0.1312    0.2781   -0.0405    0.0685
          54   -0.0104   -0.0285   -0.0130   -0.0118    0.0189    0.0266   -0.0187    0.0243
          55    0.0051   -0.0009   -0.0377    0.0042    0.0031   -0.0006   -0.0084    0.0013
          56    0.0363    0.0089    0.0324   -0.0453    0.0025    0.0022   -0.0198   -0.0159
          57    0.0201    0.0036    0.0028   -0.0184    0.0032    0.0002   -0.0148   -0.0043
          58    0.0103   -0.0144    0.0672   -0.0368    0.0020    0.0006    0.0228    0.0200
          59    0.0049    0.0203   -0.0738    0.0181   -0.0004   -0.0001    0.0218    0.0187
          60    0.0137    0.0065   -0.0122   -0.0137    0.0009    0.0005    0.0304    0.0250
          61    0.0101    0.0381   -0.1175    0.0426    0.0005   -0.0006   -0.0017    0.0052
          62   -0.0443   -0.0455    0.1302   -0.0278    0.0015   -0.0004   -0.0038    0.0031
          63    0.0019   -0.0051    0.0170   -0.0080   -0.0002    0.0001    0.0019   -0.0001
          64    0.0394    0.0361   -0.1051    0.0204    0.0002   -0.0002    0.0042    0.0050
          65   -0.0116   -0.0346    0.1093   -0.0411    0.0009    0.0002    0.0005    0.0014
          66    0.0088   -0.0033    0.0141   -0.0125    0.0005    0.0000    0.0040    0.0042


   Root No.      33        34        35        36        37        38        39        40

                33 A      34 A      35 A      36 A      37 A      38 A      39 A      40 A   

                1162.8    1175.2    1205.1    1219.9    1237.5    1275.2    1295.0    1336.7
  
           1   -0.0013   -0.0117   -0.0054   -0.0030    0.0117    0.0185    0.0318   -0.0381
           2   -0.0026   -0.0088   -0.0239    0.0085   -0.0032    0.0028    0.0044    0.1076
           3   -0.0020   -0.0015   -0.0201    0.0033    0.0059    0.0161    0.0294    0.0420
           4   -0.0166    0.0048   -0.0081    0.0006    0.0130    0.0145    0.0178   -0.0005
           5   -0.0012    0.0118    0.0044    0.0019    0.0025    0.0035    0.0099   -0.0164
           6    0.0314   -0.0229   -0.0130   -0.0204    0.0087    0.0181    0.0177   -0.0065
           7    0.0008    0.0028    0.0099   -0.0041    0.0011    0.0009    0.0007    0.0234
           8    0.0012   -0.0058   -0.0142    0.0040    0.0006   -0.0012   -0.0007   -0.0674
           9    0.0002    0.0006    0.0086   -0.0043    0.0035    0.0025    0.0034   -0.0165
          10    0.0013    0.0014   -0.0057    0.0054   -0.0062   -0.0082   -0.0107   -0.0157
          11    0.0025    0.0070    0.0098    0.0017   -0.0076   -0.0122   -0.0183   -0.0265
          12    0.0001    0.0047   -0.0082    0.0100   -0.0121   -0.0142   -0.0204   -0.0421
          13   -0.0094   -0.0062    0.0004   -0.0082   -0.0031    0.0073   -0.0125   -0.0014
          14   -0.0121   -0.0105   -0.0049   -0.0114   -0.0011    0.0159   -0.0046   -0.0003
          15   -0.0516    0.0011    0.0114    0.0174    0.0201   -0.0332   -0.0221    0.0067
          16    0.0009    0.0029    0.0072   -0.0013   -0.0016   -0.0032   -0.0055    0.0053
          17   -0.0009   -0.0046    0.0056   -0.0081    0.0111    0.0139    0.0218   -0.0028
          18    0.0006    0.0012    0.0125   -0.0068    0.0046    0.0045    0.0062    0.0077
          19   -0.0010    0.0007   -0.0040    0.0034   -0.0036   -0.0038   -0.0060    0.0048
          20    0.0002    0.0051    0.0182   -0.0063    0.0013   -0.0005   -0.0037    0.0289
          21   -0.0007    0.0056    0.0081    0.0006   -0.0048   -0.0072   -0.0127    0.0256
          22   -0.0172   -0.0104    0.0016   -0.0057    0.0033   -0.0109   -0.0149    0.0025
          23   -0.0119   -0.0050    0.0017   -0.0060    0.0035   -0.0181   -0.0123    0.0022
          24   -0.0061   -0.0258    0.0072    0.0075   -0.0112    0.0492   -0.0182   -0.0031
          25   -0.0004   -0.0041    0.0015    0.0008   -0.0026    0.0083   -0.0097    0.0013
          26    0.0012   -0.0046    0.0014    0.0028    0.0005    0.0137   -0.0119    0.0008
          27   -0.0145    0.0044   -0.0007   -0.0152   -0.0222   -0.0428    0.0206    0.0023
          28    0.0037   -0.0062    0.0033    0.0030   -0.0078   -0.0061    0.0052    0.0009
          29    0.0023   -0.0070    0.0037    0.0026   -0.0086   -0.0073    0.0056    0.0009
          30    0.0103    0.0099   -0.0040    0.0014    0.0099    0.0118   -0.0053   -0.0004
          31    0.0726   -0.0925   -0.0035   -0.0279   -0.0002   -0.0367   -0.0599    0.0591
          32    0.0089    0.0228    0.0707   -0.0220    0.0059   -0.0087   -0.0130   -0.1014
          33    0.0403   -0.0181    0.0417   -0.0285    0.0064   -0.0161   -0.0224   -0.0509
          34    0.0836    0.0424   -0.0067    0.0285   -0.0688   -0.0611   -0.0621    0.1518
          35    0.0191    0.0121   -0.0004    0.0046   -0.0166   -0.0151   -0.0151    0.0397
          36    0.1009    0.0287    0.0057    0.0070   -0.0338   -0.0091    0.0096   -0.0164
          37    0.1629    0.0766    0.0231   -0.0396   -0.0993   -0.0391   -0.0546    0.0153
          38    0.0795   -0.0169   -0.0112   -0.0312   -0.0217    0.0235    0.0161   -0.0277
          39    0.1876   -0.0159   -0.0113   -0.0680   -0.0627    0.0107   -0.0099   -0.0139
          40   -0.0031   -0.0282   -0.0854    0.0283   -0.0057    0.0024    0.0075   -0.0215
          41    0.0026    0.0264    0.0961   -0.0341    0.0119    0.0022   -0.0011   -0.0322
          42    0.0000   -0.0215   -0.0685    0.0219   -0.0042    0.0002    0.0042   -0.0391
          43   -0.0066    0.0011    0.0700   -0.0373    0.0302    0.0241    0.0272    0.0021
          44    0.0012    0.0050   -0.0097    0.0112   -0.0138   -0.0156   -0.0224   -0.0298
          45   -0.0005    0.0124    0.1065   -0.0485    0.0302    0.0157    0.0135   -0.0136
          46   -0.0275    0.1338    0.0202    0.0748   -0.0950    0.1057    0.0539   -0.0096
          47   -0.0031    0.1058    0.0194    0.0557   -0.0815    0.0831    0.0397   -0.0114
          48   -0.0549    0.1380    0.0369    0.1012   -0.0721    0.0535    0.0370   -0.0035
          49   -0.0014   -0.0052   -0.0398    0.0209   -0.0153   -0.0158   -0.0221   -0.0259
          50   -0.0039   -0.0161   -0.0596    0.0222   -0.0069   -0.0026    0.0007   -0.0502
          51   -0.0036   -0.0165   -0.0955    0.0446   -0.0276   -0.0267   -0.0345   -0.0684
          52   -0.0006    0.0069    0.0435   -0.0187    0.0096    0.0059    0.0030    0.0520
          53   -0.0005   -0.0095   -0.1007    0.0512   -0.0339   -0.0269   -0.0288   -0.0960
          54   -0.0009    0.0046   -0.0035    0.0063   -0.0090   -0.0109   -0.0173    0.0167
          55    0.1280    0.0033    0.0358    0.1269    0.1077   -0.0475   -0.0052    0.0070
          56    0.0908   -0.0005    0.0240    0.0980    0.0928   -0.0437   -0.0015    0.0083
          57    0.1256   -0.0170    0.0383    0.1373    0.0922    0.0190   -0.0053    0.0024
          58    0.0207    0.1667   -0.0716   -0.0670    0.0988    0.0166   -0.0441    0.0007
          59    0.0194    0.1329   -0.0572   -0.0515    0.0826    0.0205   -0.0402    0.0004
          60    0.0052    0.1711   -0.0715   -0.0816    0.0739   -0.0370   -0.0103    0.0018
          61    0.0431    0.0145   -0.0012    0.0199    0.0173   -0.0503    0.0885   -0.0122
          62    0.0415    0.0136   -0.0011    0.0199    0.0171   -0.0517    0.0899   -0.0125
          63   -0.0153   -0.0025   -0.0013   -0.0106   -0.0077    0.0354   -0.0546    0.0078
          64   -0.0032   -0.0092    0.0082    0.0005   -0.0292   -0.1081    0.1143   -0.0096
          65   -0.0039   -0.0101    0.0074    0.0010   -0.0256   -0.0883    0.0927   -0.0076
          66   -0.0004    0.0072    0.0001   -0.0035   -0.0132   -0.0921    0.1044   -0.0109


   Root No.      41        42        43        44        45        46        47        48

                41 A      42 A      43 A      44 A      45 A      46 A      47 A      48 A   

                1361.5    1386.2    1407.1    1427.8    1732.1    1789.2    1838.8    1883.6
  
           1    0.0358   -0.0325    0.0045    0.0583   -0.0113    0.0002    0.0006    0.0019
           2   -0.0013    0.0063    0.0117   -0.0088    0.0064    0.0005    0.0004    0.0009
           3    0.0231   -0.0073    0.0038    0.0353   -0.0103    0.0004    0.0010    0.0021
           4   -0.0161    0.0496   -0.0218   -0.0503   -0.0023   -0.0005    0.0104    0.0129
           5    0.0026   -0.0100   -0.0139   -0.0112    0.0003   -0.0024    0.0068    0.0090
           6   -0.0113   -0.0297   -0.0398   -0.0439   -0.0011   -0.0025    0.0149    0.0184
           7    0.0001   -0.0009    0.0133   -0.0149    0.0861   -0.0769    0.0003    0.0000
           8    0.0002    0.0011   -0.0233    0.0226   -0.0199    0.0272   -0.0001   -0.0001
           9    0.0038   -0.0046    0.0056   -0.0023    0.1118   -0.0945    0.0004    0.0001
          10   -0.0028   -0.0011    0.0117   -0.0156    0.0863    0.0785   -0.0013   -0.0011
          11   -0.0095    0.0031    0.0000   -0.0118   -0.0907   -0.0738    0.0006    0.0001
          12   -0.0066   -0.0039    0.0164   -0.0282    0.0652    0.0658   -0.0011   -0.0011
          13   -0.0184   -0.0067    0.0106    0.0105   -0.0005   -0.0011   -0.0714   -0.1223
          14   -0.0188   -0.0025    0.0059    0.0045   -0.0006   -0.0009   -0.0619   -0.1073
          15    0.0028    0.0040    0.0214    0.0239    0.0001    0.0003   -0.0345   -0.0491
          16   -0.0051    0.0036   -0.0037   -0.0031   -0.0752    0.0782   -0.0004   -0.0002
          17    0.0223   -0.0236    0.0510   -0.0283    0.0016   -0.0117    0.0001    0.0001
          18    0.0066   -0.0095    0.0278   -0.0242   -0.1093    0.1069   -0.0005   -0.0002
          19   -0.0045    0.0035   -0.0016   -0.0030   -0.0756   -0.0800    0.0008    0.0004
          20   -0.0131    0.0185   -0.0460    0.0343    0.0961    0.0917   -0.0009   -0.0004
          21   -0.0159    0.0181   -0.0325    0.0175   -0.0476   -0.0568    0.0005    0.0003
          22   -0.0030   -0.0005    0.0134    0.0150    0.0009    0.0013    0.0510    0.1336
          23    0.0037   -0.0005    0.0102    0.0123    0.0008    0.0011    0.0472    0.1160
          24   -0.0430   -0.0106    0.0194    0.0185    0.0005    0.0005    0.0046    0.0672
          25    0.0150    0.0019   -0.0036   -0.0024    0.0002    0.0008    0.1229   -0.0768
          26    0.0078    0.0002   -0.0007    0.0001    0.0002    0.0007    0.1087   -0.0649
          27    0.0463    0.0093   -0.0186   -0.0165   -0.0001    0.0001    0.0450   -0.0492
          28    0.0234    0.0041   -0.0116   -0.0109   -0.0004   -0.0009   -0.1132    0.0515
          29    0.0224    0.0039   -0.0109   -0.0102   -0.0003   -0.0008   -0.1027    0.0470
          30   -0.0047   -0.0010    0.0005    0.0000   -0.0001   -0.0002   -0.0226    0.0080
          31   -0.0548    0.0263   -0.0193   -0.0680    0.0057   -0.0002    0.0021    0.0024
          32   -0.0031   -0.0107   -0.0059   -0.0050   -0.0003   -0.0281    0.0000   -0.0004
          33   -0.0170    0.0058   -0.0167   -0.0170    0.0011   -0.0182    0.0020    0.0025
          34    0.0057   -0.1509    0.0043    0.0272   -0.0008    0.0018   -0.0019   -0.0014
          35   -0.0025   -0.1212   -0.0301   -0.0086    0.0010   -0.0035    0.0023    0.0005
          36    0.0446    0.2242    0.0951    0.0670   -0.0007   -0.0006    0.0049    0.0089
          37    0.0156   -0.1552    0.0073    0.0644    0.0012   -0.0003   -0.0138   -0.0220
          38    0.0179    0.2353    0.0865    0.0470    0.0002    0.0007   -0.0107   -0.0161
          39    0.0179    0.1122    0.0683    0.0629   -0.0001    0.0009   -0.0112   -0.0180
          40    0.0027    0.0068   -0.0406    0.0504   -0.0022    0.0016    0.0001    0.0003
          41    0.0049   -0.0146    0.0400   -0.0411    0.0979   -0.0786    0.0003    0.0000
          42    0.0007    0.0062   -0.0366    0.0398    0.0619   -0.0490    0.0004    0.0003
          43    0.0027    0.0067   -0.0445    0.0482   -0.0007   -0.0003    0.0001    0.0002
          44   -0.0092   -0.0005    0.0103   -0.0230   -0.0960   -0.0783    0.0007    0.0002
          45   -0.0087    0.0167   -0.0592    0.0501   -0.0628   -0.0517    0.0004    0.0001
          46   -0.0135    0.0105   -0.0172   -0.0237   -0.0007    0.0005    0.0025    0.0013
          47   -0.0115   -0.0002   -0.0142   -0.0166    0.0000   -0.0004   -0.0054   -0.0149
          48    0.0115    0.0142   -0.0041   -0.0049    0.0005    0.0017    0.0525    0.1051
          49   -0.0176    0.0172   -0.0423    0.0248   -0.0515    0.0285   -0.0001   -0.0001
          50    0.0073   -0.0064    0.0009    0.0097    0.0747   -0.1130    0.0007    0.0003
          51   -0.0241    0.0251   -0.0627    0.0385   -0.0272   -0.0304    0.0003    0.0000
          52   -0.0119    0.0180   -0.0393    0.0283   -0.0503   -0.0267    0.0004    0.0003
          53    0.0060   -0.0203    0.0495   -0.0437   -0.0066   -0.0753    0.0004    0.0001
          54   -0.0167    0.0172   -0.0261    0.0094   -0.0789   -0.0909    0.0008    0.0003
          55    0.0468    0.0038   -0.0149   -0.0113    0.0002    0.0001    0.0206   -0.0127
          56    0.0416    0.0098   -0.0138   -0.0124    0.0000    0.0003    0.0255    0.0028
          57    0.0007   -0.0034   -0.0089   -0.0096   -0.0007   -0.0010   -0.0448   -0.1062
          58   -0.0336   -0.0062    0.0175    0.0156    0.0002    0.0003    0.0096    0.0203
          59   -0.0316   -0.0059    0.0162    0.0147    0.0003    0.0003    0.0224    0.0111
          60    0.0008    0.0023    0.0003   -0.0005   -0.0002   -0.0006   -0.0983    0.0574
          61   -0.1387   -0.0178    0.0348    0.0263    0.0001   -0.0001   -0.0113    0.0076
          62   -0.1427   -0.0182    0.0365    0.0278    0.0001    0.0001    0.0054    0.0005
          63    0.0999    0.0134   -0.0305   -0.0251   -0.0004   -0.0009   -0.1179    0.0483
          64   -0.0938   -0.0092    0.0204    0.0143   -0.0001    0.0000   -0.0053    0.0044
          65   -0.0711   -0.0066    0.0145    0.0100    0.0000   -0.0002   -0.0211    0.0120
          66   -0.1220   -0.0142    0.0331    0.0260    0.0003    0.0009    0.1176   -0.0571


   Root No.      49        50        51        52        53        54        55        56

                49 A      50 A      51 A      52 A      53 A      54 A      55 A      56 A   

                2889.4    2944.9    3021.5    3028.9    3034.7    3038.5    3131.7    3133.8
  
           1    0.0222   -0.0011    0.0009   -0.0001   -0.0001    0.0000    0.0000   -0.0002
           2    0.0340   -0.0022    0.0002    0.0000   -0.0001    0.0000    0.0002    0.0001
           3   -0.0527    0.0028   -0.0005    0.0001    0.0000    0.0001    0.0001   -0.0002
           4    0.0006    0.0019    0.0196   -0.0019    0.0027   -0.0011    0.0000    0.0000
           5   -0.0050   -0.0547   -0.0042    0.0002    0.0015   -0.0006    0.0000    0.0001
           6    0.0017    0.0140   -0.0297    0.0036   -0.0044    0.0022    0.0000    0.0000
           7   -0.0004   -0.0004   -0.0001    0.0000    0.0000    0.0000    0.0028    0.0038
           8    0.0009    0.0002    0.0001    0.0000    0.0000    0.0000    0.0099    0.0130
           9   -0.0003    0.0000    0.0000    0.0000    0.0000    0.0000    0.0103    0.0136
          10   -0.0003    0.0002    0.0002    0.0000    0.0000    0.0000   -0.0032    0.0037
          11   -0.0002   -0.0001   -0.0001    0.0000    0.0000    0.0000    0.0143   -0.0163
          12   -0.0009    0.0001    0.0000    0.0000    0.0000    0.0000    0.0050   -0.0056
          13    0.0006    0.0006   -0.0034   -0.0019    0.0198   -0.0079    0.0000    0.0000
          14    0.0004    0.0008   -0.0037   -0.0015    0.0231   -0.0087    0.0000    0.0000
          15   -0.0003   -0.0020    0.0046   -0.0017   -0.0351    0.0106    0.0000    0.0000
          16    0.0005    0.0000    0.0000    0.0000    0.0000    0.0000    0.0125    0.0111
          17    0.0000    0.0000    0.0000    0.0000    0.0000    0.0000   -0.0187   -0.0170
          18    0.0004    0.0000    0.0000    0.0000    0.0000    0.0000    0.0062    0.0052
          19    0.0005   -0.0001    0.0000    0.0000    0.0000    0.0000   -0.0131    0.0103
          20   -0.0003    0.0000    0.0000    0.0000    0.0000    0.0000   -0.0026    0.0024
          21    0.0002    0.0000    0.0000    0.0000    0.0000    0.0000   -0.0210    0.0168
          22    0.0000    0.0002    0.0026    0.0189    0.0005    0.0098    0.0000    0.0000
          23    0.0000   -0.0001    0.0029    0.0225    0.0014    0.0112    0.0000    0.0000
          24    0.0000    0.0008   -0.0038   -0.0341   -0.0063   -0.0145    0.0000    0.0000
          25    0.0000    0.0000   -0.0007   -0.0099    0.0068    0.0159    0.0000    0.0000
          26    0.0000    0.0000   -0.0008   -0.0118    0.0079    0.0187    0.0000    0.0000
          27    0.0000   -0.0001    0.0012    0.0186   -0.0114   -0.0279    0.0000    0.0000
          28    0.0000    0.0000    0.0000    0.0007   -0.0002   -0.0008    0.0001    0.0002
          29    0.0000    0.0000    0.0000    0.0009   -0.0003   -0.0010    0.0001    0.0002
          30    0.0000    0.0000   -0.0001   -0.0017    0.0009    0.0023   -0.0001   -0.0002
          31   -0.2853    0.0187   -0.0042    0.0007   -0.0008    0.0005    0.0000    0.0000
          32   -0.4143    0.0213   -0.0044    0.0009    0.0007    0.0000    0.0007    0.0002
          33    0.6407   -0.0345    0.0061   -0.0012   -0.0023    0.0004    0.0004   -0.0003
          34   -0.0109   -0.1596   -0.1058    0.0106   -0.0084    0.0040    0.0000    0.0000
          35    0.0347    0.4337    0.3327   -0.0339    0.0289   -0.0138    0.0005   -0.0010
          36    0.0083    0.1121    0.0608   -0.0058    0.0025   -0.0014    0.0002   -0.0004
[...]
 FREQ.      1295.03        C  1 --  C  4          +11.2% ( 47.3%)    92.7%
 T-DIPOLE    0.1038        C 10 --  H 22           +7.8% ( 39.4%)     1.0%
 TRAVEL      0.0882        C  1 --  H 11           +7.7% ( 39.2%)     1.3%
 RED. MASS   0.5454        C  8 --  C  9           +6.6% ( 36.3%)    89.0%
 EFF. MASS   6.6872

 VIBRATION   40   40A       ATOM PAIR        ENERGY CONTRIBUTION    RADIAL
 FREQ.      1336.69        C  1 --  C  3          +23.3% ( 77.8%)    90.6%
 T-DIPOLE    0.1687        C  1 --  C  4          +17.1% ( 66.6%)    51.6%
 TRAVEL      0.0711        C  1 --  H 11          +14.5% ( 61.3%)     0.1%
 RED. MASS   3.3197        C  1 --  C  2          +12.4% ( 56.8%)     7.4%
 EFF. MASS   9.9756

 VIBRATION   41   41A       ATOM PAIR        ENERGY CONTRIBUTION    RADIAL
 FREQ.      1361.46        C  8 --  C  9          +15.5% ( 54.7%)    93.1%
 T-DIPOLE    0.1621        C 10 --  H 21          +13.4% ( 50.8%)     0.8%
 TRAVEL      0.0831        C 10 --  H 22           +8.6% ( 40.6%)     6.7%
 RED. MASS   0.6881        C  9 --  C 10           +6.9% ( 36.5%)     3.4%
 EFF. MASS   7.1792

 VIBRATION   42   42A       ATOM PAIR        ENERGY CONTRIBUTION    RADIAL
 FREQ.      1386.16        C  2 --  H 13          +26.6% ( 59.3%)     4.6%
 T-DIPOLE    0.1747        C  2 --  H 12          +25.4% ( 58.0%)     4.9%
 TRAVEL      0.1098        C  1 --  C  2          +12.8% ( 41.1%)    89.8%
 RED. MASS   0.5974        C  2 --  C  5           +7.5% ( 31.6%)     2.9%
 EFF. MASS   4.0341

 VIBRATION   43   43A       ATOM PAIR        ENERGY CONTRIBUTION    RADIAL
 FREQ.      1407.09        C  6 --  C  7          +17.8% ( 65.8%)   100.0%
 T-DIPOLE    0.3857        C  3 --  C  6           +7.6% ( 43.0%)     0.0%
 TRAVEL      0.0722        C  3 --  C  7           +7.3% ( 42.0%)    99.9%
 RED. MASS   1.3019        C  4 --  C  6           +7.2% ( 41.9%)    97.8%
 EFF. MASS   9.1919

 VIBRATION   44   44A       ATOM PAIR        ENERGY CONTRIBUTION    RADIAL
 FREQ.      1427.76        C  1 --  C  2          +15.3% ( 62.5%)    65.3%
 T-DIPOLE    0.1224        C  1 --  C  4           +9.6% ( 49.5%)    71.3%
 TRAVEL      0.0693        C  2 --  C  5           +8.8% ( 47.4%)    88.8%
 RED. MASS   1.5986        C  1 --  C  3           +8.2% ( 45.8%)    42.8%
 EFF. MASS   9.8314

 VIBRATION   45   45A       ATOM PAIR        ENERGY CONTRIBUTION    RADIAL
 FREQ.      1732.11        C  3 --  C  6          +18.4% ( 73.1%)    99.9%
 T-DIPOLE    0.4227        C  4 --  C  7          +18.0% ( 72.3%)    99.9%
 TRAVEL      0.0569        C  3 --  C  7          +10.7% ( 55.7%)    26.0%
 RED. MASS   2.7209        C  4 --  C  6          +10.7% ( 55.7%)    25.7%
 EFF. MASS  12.0246

 VIBRATION   46   46A       ATOM PAIR        ENERGY CONTRIBUTION    RADIAL
 FREQ.      1789.21        C  4 --  C  7          +18.1% ( 70.5%)    99.8%
 T-DIPOLE    0.3163        C  3 --  C  6          +17.7% ( 69.7%)    99.8%
 TRAVEL      0.0565        C  6 --  C  7          +12.1% ( 57.8%)     0.0%
 RED. MASS   2.6852        C  3 --  C  7          +10.9% ( 54.7%)    64.4%
 EFF. MASS  11.7990        C  4 --  C  6          +10.9% ( 54.7%)    67.6%

 VIBRATION   47   47A       ATOM PAIR        ENERGY CONTRIBUTION    RADIAL
 FREQ.      1838.82        C  9 --  C 10          +36.4% ( 89.0%)    99.2%
 T-DIPOLE    0.0701        C  8 --  C  9          +12.6% ( 52.4%)    56.4%
 TRAVEL      0.0557        C  9 --  H 20          +11.9% ( 50.8%)     4.7%
 RED. MASS   3.5610        C  5 --  C  8           +9.7% ( 46.0%)    98.6%
 EFF. MASS  11.8407

 VIBRATION   48   48A       ATOM PAIR        ENERGY CONTRIBUTION    RADIAL
 FREQ.      1883.59        C  5 --  C  8          +34.1% ( 86.6%)    95.4%
 T-DIPOLE    0.3278        C  8 --  C  9          +18.4% ( 63.5%)    55.7%
 TRAVEL      0.0551        C  8 --  H 19          +11.8% ( 51.0%)     2.4%
 RED. MASS   3.7718        C  2 --  C  5           +9.9% ( 46.7%)    53.4%
 EFF. MASS  11.7804

 VIBRATION   49   49A       ATOM PAIR        ENERGY CONTRIBUTION    RADIAL
 FREQ.      2889.41        C  1 --  H 11          +96.4% ( 99.7%)   100.0%
 T-DIPOLE    0.1999        C  1 --  C  2           +1.0% ( 10.3%)     9.4%
 TRAVEL      0.1275        C  1 --  C  4           +1.0% ( 10.2%)    10.7%
 RED. MASS   0.9195        C  1 --  C  3           +1.0% ( 10.2%)    10.6%
 EFF. MASS   1.4361

 VIBRATION   50   50A       ATOM PAIR        ENERGY CONTRIBUTION    RADIAL
 FREQ.      2944.92        C  2 --  H 12          +58.2% ( 79.2%)    97.4%
 T-DIPOLE    0.0686        C  2 --  H 13          +38.8% ( 64.6%)    95.2%
 TRAVEL      0.1219        C  2 --  C  5           +1.2% ( 11.1%)     0.0%
 RED. MASS   0.5305        C  1 --  C  2           +1.1% ( 11.0%)     0.3%
 EFF. MASS   1.5415

 VIBRATION   51   51A       ATOM PAIR        ENERGY CONTRIBUTION    RADIAL
 FREQ.      3021.55        C  2 --  H 13          +57.4% ( 74.8%)    98.6%
 T-DIPOLE    0.0847        C  2 --  H 12          +38.0% ( 60.9%)    96.2%
 TRAVEL      0.1316        C  5 --  H 16           +2.0% ( 13.8%)    99.7%
 RED. MASS   0.4707        C  8 --  H 19           +1.1% ( 10.4%)    99.8%
 EFF. MASS   1.2888

 VIBRATION   52   52A       ATOM PAIR        ENERGY CONTRIBUTION    RADIAL
 FREQ.      3028.93        C  8 --  H 19          +74.4% ( 87.6%)   100.0%
 T-DIPOLE    0.1208        C  9 --  H 20          +21.3% ( 46.9%)   100.0%
 TRAVEL      0.1208        C  8 --  C  9           +1.6% ( 12.8%)    17.4%
 RED. MASS   0.5929        C  5 --  C  8           +1.1% ( 10.8%)    36.9%
 EFF. MASS   1.5255

 VIBRATION   53   53A       ATOM PAIR        ENERGY CONTRIBUTION    RADIAL
 FREQ.      3034.71        C  5 --  H 16          +84.6% ( 93.1%)   100.0%
 T-DIPOLE    0.3652        C  9 --  H 20           +9.1% ( 30.5%)   100.0%
 TRAVEL      0.1224        C  8 --  H 19           +2.1% ( 14.8%)    99.4%
 RED. MASS   0.7080        C  2 --  H 13           +1.4% ( 11.8%)    99.6%
 EFF. MASS   1.4824

 VIBRATION   54   54A       ATOM PAIR        ENERGY CONTRIBUTION    RADIAL
 FREQ.      3038.54        C  9 --  H 20          +66.0% ( 82.4%)   100.0%
 T-DIPOLE    0.2018        C  8 --  H 19          +19.2% ( 44.5%)   100.0%
 TRAVEL      0.1208        C  5 --  H 16          +10.8% ( 33.2%)    99.9%
 RED. MASS   0.4777        C  8 --  C  9           +1.1% ( 10.5%)    23.6%
 EFF. MASS   1.5201

 VIBRATION   55   55A       ATOM PAIR        ENERGY CONTRIBUTION    RADIAL
 FREQ.      3131.73        C  7 --  H 18          +35.9% ( 61.4%)   100.0%
 T-DIPOLE    0.1193        C  6 --  H 17          +31.5% ( 57.5%)   100.0%
 TRAVEL      0.1204        C  4 --  H 15          +15.0% ( 39.7%)   100.0%
 RED. MASS   0.2727        C  3 --  H 14          +13.2% ( 37.3%)   100.0%
 EFF. MASS   1.4852

 VIBRATION   56   56A       ATOM PAIR        ENERGY CONTRIBUTION    RADIAL
 FREQ.      3133.79        C  6 --  H 17          +27.3% ( 53.4%)   100.0%
 T-DIPOLE    0.5130        C  7 --  H 18          +24.4% ( 50.6%)   100.0%
 TRAVEL      0.1209        C  3 --  H 14          +23.9% ( 50.0%)   100.0%
 RED. MASS   0.2349        C  4 --  H 15          +20.3% ( 46.1%)   100.0%
 EFF. MASS   1.4713

 VIBRATION   57   57A       ATOM PAIR        ENERGY CONTRIBUTION    RADIAL
 FREQ.      3136.38        C 10 --  H 22          +94.6% ( 98.8%)   100.0%
 T-DIPOLE    0.2269        C 10 --  H 21           +4.0% ( 20.4%)    58.8%
 TRAVEL      0.1188        C  9 --  C 10           +1.3% ( 11.7%)    27.7%
 RED. MASS   0.8931
 EFF. MASS   1.5228

 VIBRATION   58   58A       ATOM PAIR        ENERGY CONTRIBUTION    RADIAL
 FREQ.      3145.76        C  4 --  H 15          +33.7% ( 59.7%)   100.0%
 T-DIPOLE    0.5721        C  3 --  H 14          +32.8% ( 58.9%)   100.0%
 TRAVEL      0.1159        C  6 --  H 17          +14.5% ( 39.1%)    99.8%
 RED. MASS   0.2720        C  7 --  H 18          +13.3% ( 37.5%)    99.8%
 EFF. MASS   1.5965

 VIBRATION   59   59A       ATOM PAIR        ENERGY CONTRIBUTION    RADIAL
 FREQ.      3147.63        C 10 --  H 21          +94.4% ( 98.0%)    99.8%
 T-DIPOLE    0.2953        C 10 --  H 22           +3.3% ( 18.3%)    17.3%
 TRAVEL      0.1205        C  9 --  C 10           +1.5% ( 12.5%)    65.4%
 RED. MASS   0.8653        C  9 --  H 20           +0.7% (  8.3%)    94.8%
 EFF. MASS   1.4749

 VIBRATION   60   60A       ATOM PAIR        ENERGY CONTRIBUTION    RADIAL
 FREQ.      3155.66        C  4 --  H 15          +25.7% ( 52.2%)    99.9%
 T-DIPOLE    0.2013        C  3 --  H 14          +24.8% ( 51.3%)    99.9%
 TRAVEL      0.1121        C  6 --  H 17          +21.6% ( 47.9%)   100.0%
 RED. MASS   0.2362        C  7 --  H 18          +21.2% ( 47.5%)   100.0%
 EFF. MASS   1.7009

 SYMMETRY NUMBER FOR POINT-GROUP C1  =  1


          SYSTEM IS A GROUND STATE


    NULL



          MOLECULE IS NOT LINEAR

          THERE ARE 60 GENUINE VIBRATIONS IN THIS SYSTEM
          THIS THERMODYNAMICS CALCULATION IS LIMITED TO
          MOLECULES WHICH HAVE NO INTERNAL ROTATIONS




                    CALCULATED THERMODYNAMIC PROPERTIES
                                          *
   TEMP. (K)   PARTITION FUNCTION   H.O.F.    ENTHALPY  HEAT CAPACITY ENTROPY
                                   KCAL/MOL   CAL/MOLE    CAL/K/MOL  CAL/K/MOL


 298.00  VIB.     0.6221D+03                  4355.7975    30.9114    27.4006
         ROT.     0.8179D+06                   888.2813     2.9808    30.0357
         INT.     0.5088D+09                  5244.0788    33.8922    57.4363
         TRA.     0.1470D+28                  1480.4688     4.9680    40.5480
         TOT.                       61.335    6724.5477    38.8602    97.9842

 200.00  VIB.     0.5734D+02                  1917.8273    19.1970    17.6354
         ROT.     0.4497D+06                   596.1620     2.9808    28.8470
         INT.     0.2579D+08                  2513.9892    22.1778    46.4824
         TRA.     0.8080D+27                   993.6033     4.9680    38.5668
         TOT.                       58.118    3507.5925    27.1459    85.0492

 210.00  VIB.     0.7299D+02                  2115.1562    20.2747    18.5979
         ROT.     0.4839D+06                   625.9700     2.9808    28.9924
         INT.     0.3532D+08                  2741.1262    23.2556    47.5903
         TRA.     0.8694D+27                  1043.2834     4.9680    38.8092
         TOT.                       58.395    3784.4097    28.2236    86.3996

 220.00  VIB.     0.9292D+02                  2323.4390    21.3875    19.5666
         ROT.     0.5188D+06                   655.7781     2.9808    29.1311
         INT.     0.4821D+08                  2979.2172    24.3683    48.6977
         TRA.     0.9322D+27                  1092.9636     4.9680    39.0403
         TOT.                       58.683    4072.1807    29.3363    87.7381

 230.00  VIB.     0.1183D+03                  2543.0150    22.5329    20.5425
         ROT.     0.5546D+06                   685.5862     2.9808    29.2636
         INT.     0.6563D+08                  3228.6012    25.5137    49.8061
         TRA.     0.9965D+27                  1142.6437     4.9680    39.2612
         TOT.                       58.982    4371.2449    30.4817    89.0673

 240.00  VIB.     0.1508D+03                  2774.1959    23.7079    21.5262
         ROT.     0.5912D+06                   715.3943     2.9808    29.3905
         INT.     0.8912D+08                  3489.5902    26.6887    50.9167
         TRA.     0.1062D+28                  1192.3239     4.9680    39.4726
         TOT.                       59.292    4681.9141    31.6568    90.3893

 250.00  VIB.     0.1921D+03                  3017.2604    24.9090    22.5183
         ROT.     0.6285D+06                   745.2024     2.9808    29.5121
         INT.     0.1208D+09                  3762.4628    27.8898    52.0304
         TRA.     0.1129D+28                  1242.0041     4.9680    39.6754
         TOT.                       59.615    5004.4669    32.8578    91.7059

 260.00  VIB.     0.2451D+03                  3272.4495    26.1322    23.5190
         ROT.     0.6666D+06                   775.0105     2.9808    29.6291
         INT.     0.1634D+09                  4047.4601    29.1130    53.1481
         TRA.     0.1198D+28                  1291.6842     4.9680    39.8703
         TOT.                       59.950    5339.1443    34.0810    93.0183

 270.00  VIB.     0.3128D+03                  3539.9648    27.3735    24.5285
         ROT.     0.7054D+06                   804.8186     2.9808    29.7416
         INT.     0.2206D+09                  4344.7834    30.3543    54.2700
         TRA.     0.1267D+28                  1341.3644     4.9680    40.0578
         TOT.                       60.297    5686.1478    35.3224    94.3278

 280.00  VIB.     0.3995D+03                  3819.9670    28.6289    25.5466
         ROT.     0.7449D+06                   834.6267     2.9808    29.8500
         INT.     0.2976D+09                  4654.5937    31.6097    55.3966
         TRA.     0.1338D+28                  1391.0445     4.9680    40.2384
         TOT.                       60.656    6045.6382    36.5777    95.6350

 290.00  VIB.     0.5108D+03                  4112.5766    29.8944    26.5733
         ROT.     0.7852D+06                   864.4348     2.9808    29.9546
         INT.     0.4011D+09                  4977.0114    32.8752    56.5279
         TRA.     0.1411D+28                  1440.7247     4.9680    40.4128
         TOT.                       61.028    6417.7361    37.8432    96.9406

 300.00  VIB.     0.6536D+03                  4417.8749    31.1660    27.6082
         ROT.     0.8262D+06                   894.2429     2.9808    30.0556
         INT.     0.5400D+09                  5312.1179    34.1469    57.6638
         TRA.     0.1484D+28                  1490.4049     4.9680    40.5812
         TOT.                       61.413    6802.5227    39.1149    98.2450

 310.00  VIB.     0.8371D+03                  4735.9063    32.4404    28.6509
         ROT.     0.8678D+06                   924.0510     2.9808    30.1534
         INT.     0.7265D+09                  5659.9573    35.4212    58.8043
         TRA.     0.1559D+28                  1540.0850     4.9680    40.7441
         TOT.                       61.810    7200.0423    40.3892    99.5484

 320.00  VIB.     0.1073D+04                  5066.6799    33.7140    29.7010
         ROT.     0.9101D+06                   953.8591     2.9808    30.2480
         INT.     0.9768D+09                  6020.5390    36.6948    59.9490
         TRA.     0.1635D+28                  1589.7652     4.9680    40.9018
         TOT.                       62.221    7610.3042    41.6628   100.8508

 330.00  VIB.     0.1377D+04                  5410.1730    34.9838    30.7579
         ROT.     0.9531D+06                   983.6672     2.9808    30.3397
         INT.     0.1313D+10                  6393.8402    37.9646    61.0976
         TRA.     0.1713D+28                  1639.4454     4.9680    41.0547
         TOT.                       62.644    8033.2856    42.9326   102.1523

 340.00  VIB.     0.1769D+04                  5766.3337    36.2470    31.8210
         ROT.     0.9968D+06                  1013.4753     2.9808    30.4287
         INT.     0.1764D+10                  6779.8090    39.2279    62.2497
         TRA.     0.1791D+28                  1689.1255     4.9680    41.2030
         TOT.                       63.079    8468.9345    44.1959   103.4527

 350.00  VIB.     0.2276D+04                  6135.0838    37.5013    32.8898
         ROT.     0.1041D+07                  1043.2834     2.9808    30.5151
         INT.     0.2369D+10                  7178.3672    40.4821    63.4049
         TRA.     0.1871D+28                  1738.8057     4.9680    41.3470
         TOT.                       63.528    8917.1729    45.4501   104.7520

 360.00  VIB.     0.2929D+04                  6516.3219    38.7443    33.9637
         ROT.     0.1086D+07                  1073.0915     2.9808    30.5991
         INT.     0.3181D+10                  7589.4134    41.7251    64.5628
         TRA.     0.1951D+28                  1788.4859     4.9680    41.4870
         TOT.                       63.988    9377.8993    46.6931   106.0498

 370.00  VIB.     0.3774D+04                  6909.9263    39.9742    35.0421
         ROT.     0.1132D+07                  1102.8996     2.9808    30.6808
         INT.     0.4271D+10                  8012.8259    42.9550    65.7228
         TRA.     0.2033D+28                  1838.1660     4.9680    41.6231
         TOT.                       64.461    9850.9919    47.9231   107.3459

 380.00  VIB.     0.4868D+04                  7315.7576    41.1895    36.1243
         ROT.     0.1178D+07                  1132.7077     2.9808    30.7602
         INT.     0.5734D+10                  8448.4653    44.1703    66.8845
         TRA.     0.2116D+28                  1887.8462     4.9680    41.7556
         TOT.                       64.947   10336.3115    49.1383   108.6401

 390.00  VIB.     0.6285D+04                  7733.6617    42.3886    37.2098
         ROT.     0.1225D+07                  1162.5158     2.9808    30.8377
         INT.     0.7696D+10                  8896.1775    45.3694    68.0474
         TRA.     0.2200D+28                  1937.5263     4.9680    41.8846
         TOT.                       65.444   10833.7038    50.3374   109.9321

 400.00  VIB.     0.8121D+04                  8163.4716    43.5705    38.2979
         ROT.     0.1272D+07                  1192.3239     2.9808    30.9131
         INT.     0.1033D+11                  9355.7955    46.5513    69.2110
         TRA.     0.2285D+28                  1987.2065     4.9680    42.0104
         TOT.                       65.953   11343.0020    51.5193   111.2214

   *: NOTE: HEATS OF FORMATION ARE RELATIVE TO THE
            ELEMENTS IN THEIR STANDARD STATE AT 298K
              (=  Standard Enthalpy of Formation).

            Hvib:  Zero-point energy is not included.
                   frequencies of less than zero cm-1 are not included.
            Hrot = (3/2)RT
            Htra = (3/2)RT + pV = (5/2)RT

            Heat capacity is Cp, not Cv

           For more information, see: HTTP://OpenMOPAC.net/Manual/thermochemistry.html


           FORCE CONSTANT IN CARTESIAN COORDINATES (Millidynes/A)

    ATOM   CHEMICAL       X               Y               Z
   NUMBER   SYMBOL  FORCE CONSTANT  FORCE CONSTANT  FORCE CONSTANT

      1       C        8.732883        8.070411        8.734971
      2       C        8.204767        8.173082        8.949399
      3       C        6.652212        8.588722       11.548285
      4       C        6.728014       12.664656        7.382839
      5       C        9.420132        8.213196        9.377732
      6       C        7.370289       10.270980        9.808015
      7       C        7.377277        9.739192       10.343323
      8       C        9.270875        8.248292       10.056454
      9       C        9.360915        8.287426        9.859826
     10       C        9.141475        8.069753        9.124468
     11       H        1.173896        1.636693        3.095017
     12       H        1.126850        4.275334        0.843737
     13       H        1.186796        2.351888        2.854096
     14       H        0.668456        2.775287        3.005035
     15       H        0.709039        4.710237        1.042598
     16       H        1.259364        1.506779        3.456718
     17       H        1.827691        3.730318        0.903197
     18       H        1.774415        0.725365        3.963229
     19       H        1.239594        1.526081        3.444369
     20       H        1.236634        1.516570        3.465247
     21       H        1.196818        0.748074        4.533757
     22       H        1.356240        1.665576        3.446290



 TOTAL CPU TIME:             3.09 SECONDS

 == MOPAC DONE ==
